/*--------------------------------*- C++ -*----------------------------------*\
  =========                 |
  \\      /  F ield         | OpenFOAM: The Open Source CFD Toolbox
   \\    /   O peration     | Website:  https://openfoam.org
    \\  /    A nd           | Version:  12
     \\/     M anipulation  |
\*---------------------------------------------------------------------------*/
FoamFile
{
    format      ascii;
    class       volScalarField;
    location    "1800/air";
    object      alphat;
}
// * * * * * * * * * * * * * * * * * * * * * * * * * * * * * * * * * * * * * //

dimensions      [1 -1 -1 0 0 0 0];

internalField   nonuniform List<scalar> 
243000
(
0.000134873
0.00014144
0.000143203
0.000142472
0.000140062
0.000136516
0.000132273
0.000127679
0.000122988
0.000118398
0.000114028
0.000109955
0.000106239
0.000102957
0.000100094
9.76044e-05
9.54071e-05
9.34659e-05
9.1764e-05
9.02901e-05
8.90023e-05
8.77849e-05
0.000387798
0.000387398
8.42158e-05
0.000362569
0.000351131
0.000308967
0.000241146
0.000218011
0.000501404
0.000523261
0.000521603
0.000508544
0.000490323
0.000469926
0.000448901
0.000428237
0.000408552
0.000390237
0.000373491
0.000358466
0.000345229
0.000333863
0.00032433
0.000316525
0.000310264
0.000305594
0.000302494
0.000301041
0.000301116
0.000302315
0.000305067
0.00030648
0.000301629
0.000299508
0.000287555
0.000268521
0.000243225
0.000217786
0.000612277
0.000678522
0.000709158
0.00072025
0.000720942
0.000715135
0.00070513
0.000692479
0.000678189
0.000663007
0.00064738
0.000631748
0.00061639
0.000601606
0.000587545
0.000574272
0.00056172
0.000550241
0.000539876
0.000530744
0.000522649
0.000515055
0.000507076
0.000496577
0.000481279
0.000460073
0.000431342
0.000392497
0.000348641
0.000297989
0.000601878
0.000670258
0.000710743
0.000731195
0.00073851
0.000736963
0.000729898
0.000719301
0.000706445
0.00069226
0.000677355
0.00066226
0.000647308
0.00063287
0.000619175
0.000606371
0.000594453
0.000583829
0.00057445
0.000566247
0.000558862
0.000551747
0.000543988
0.000533923
0.000519644
0.000499188
0.000471606
0.00043439
0.00039187
0.000340799
0.00058504
0.00064152
0.000687939
0.000717466
0.000733186
0.000738586
0.000736853
0.000730415
0.000720764
0.000709073
0.000696157
0.00068265
0.000668979
0.000655621
0.000642897
0.000631057
0.000620166
0.000610653
0.000602373
0.000595064
0.000588203
0.000581239
0.000573406
0.000563401
0.000549579
0.000530116
0.000503989
0.000469195
0.000428838
0.000380211
0.00057999
0.000610022
0.000650303
0.000685843
0.000710252
0.000723994
0.000729368
0.000728699
0.000723612
0.000715644
0.000705801
0.000694772
0.000683127
0.000671466
0.000660205
0.000649723
0.000640153
0.000631922
0.000624791
0.00061834
0.00061194
0.000605027
0.000596985
0.000586826
0.000573217
0.0005546
0.000529941
0.00049768
0.000459853
0.000414393
0.000603591
0.000605106
0.000626135
0.000654089
0.000679102
0.000698088
0.000710444
0.000716211
0.00071686
0.000713649
0.000707658
0.000699845
0.000690897
0.000681486
0.000672109
0.000663324
0.000655311
0.000648478
0.000642523
0.000636917
0.000630962
0.000624101
0.000615834
0.00060544
0.000591904
0.000573953
0.000550644
0.000520756
0.00048556
0.000443366
0.000633296
0.000619547
0.000619876
0.000634022
0.000653765
0.000672622
0.000687283
0.000696752
0.00070257
0.000704384
0.000702891
0.000698919
0.000693157
0.000686443
0.000679343
0.000672546
0.000666291
0.00066095
0.000656196
0.00065144
0.000645951
0.000639193
0.000630754
0.000620132
0.000606598
0.000589168
0.000567053
0.000539292
0.000506745
0.000467632
0.000665025
0.00064491
0.000630635
0.000628607
0.000637482
0.000651645
0.000665867
0.000677202
0.000685292
0.000690269
0.00069281
0.000692831
0.000690647
0.000686973
0.000682469
0.000677909
0.000673583
0.00066982
0.000666305
0.000662423
0.000657443
0.000650866
0.000642351
0.000631566
0.000618026
0.000601018
0.000579969
0.00055415
0.000523976
0.000487754
0.000697598
0.000676531
0.000654155
0.000638822
0.000634062
0.000638752
0.000648537
0.000659139
0.000668308
0.000675159
0.000679678
0.000682864
0.000684123
0.000683677
0.000681967
0.000679832
0.000677574
0.00067548
0.00067325
0.000670282
0.000665875
0.000659574
0.000651103
0.000640257
0.000626756
0.000610154
0.00059004
0.000565789
0.000537745
0.000504244
0.000729844
0.000708419
0.000683889
0.000661293
0.000644978
0.000637762
0.000638965
0.000645157
0.00065305
0.000660474
0.000666422
0.000671004
0.000674733
0.00067721
0.000678322
0.000678698
0.000678596
0.000678246
0.000677363
0.000675367
0.000671613
0.000665691
0.000657394
0.000646617
0.000633269
0.000617019
0.00059763
0.000574732
0.000548572
0.000517711
0.000761279
0.000739968
0.000716426
0.000690988
0.000667743
0.000650195
0.000640719
0.000638848
0.000642138
0.000647817
0.000653848
0.0006593
0.000664033
0.000668519
0.000672107
0.000674915
0.000676979
0.000678412
0.000678931
0.000677987
0.000674971
0.000669538
0.000661548
0.000651001
0.000637842
0.000621927
0.000603192
0.00058145
0.00055692
0.000528392
0.000791601
0.000770619
0.000748062
0.000722736
0.000697103
0.000673471
0.000654863
0.00064335
0.000638913
0.000639776
0.000643619
0.000648611
0.000653743
0.000658795
0.000664097
0.000668991
0.000673087
0.000676278
0.000678223
0.000678379
0.000676201
0.000671427
0.000663881
0.000653622
0.000640726
0.000625186
0.000607071
0.000586332
0.000563199
0.000536706
0.000820639
0.000800114
0.00077835
0.000754272
0.00072884
0.000703034
0.000678966
0.000659276
0.000645954
0.000639342
0.000638185
0.000640557
0.00064475
0.000649742
0.00065536
0.000661602
0.000667372
0.000672181
0.000675521
0.000676816
0.00067553
0.000671375
0.000664398
0.00065463
0.000642167
0.000627083
0.00060958
0.000589742
0.000567819
0.000543118
0.000848263
0.00082828
0.000807392
0.000785167
0.000760772
0.000735032
0.000708904
0.000684239
0.000663459
0.000648556
0.00064014
0.000637362
0.000638584
0.000642214
0.00064728
0.000653647
0.000660423
0.000666531
0.000671142
0.000673569
0.000673221
0.000669877
0.000663493
0.000654264
0.000642337
0.000627864
0.000611146
0.000592405
0.000571742
0.000548826
0.000874314
0.000854958
0.000835017
0.00081407
0.000791308
0.000766835
0.000740892
0.000714362
0.000689033
0.000667258
0.000651042
0.000641214
0.000637211
0.000637612
0.000640931
0.00064628
0.000653026
0.000659857
0.000665463
0.000668922
0.000669529
0.000667044
0.000661448
0.000652894
0.000641715
0.000628269
0.000612639
0.000594992
0.000575521
0.000554134
0.000898621
0.000879941
0.000860966
0.000841218
0.000820134
0.000797301
0.000772594
0.000746233
0.000719153
0.000693142
0.000670505
0.000653289
0.000642458
0.000637644
0.00063754
0.000640792
0.000646252
0.000652885
0.00065898
0.000663232
0.000664736
0.000663148
0.000658439
0.000650993
0.000640933
0.00062855
0.000613998
0.000597432
0.000579095
0.000559056
0.000920943
0.00090295
0.000884921
0.00086637
0.000846923
0.000825826
0.000802778
0.000777651
0.000750735
0.000723043
0.000696389
0.000673094
0.000655221
0.000643834
0.000638572
0.000638258
0.000641424
0.000646681
0.000652412
0.000657011
0.000659252
0.000658707
0.000655191
0.000648885
0.000639947
0.000628634
0.000615159
0.000599667
0.000582424
0.000563606
0.000941033
0.000923725
0.000906626
0.000889425
0.00087151
0.000852122
0.000830873
0.000807449
0.000781764
0.000754208
0.00072589
0.000698706
0.000675014
0.000656899
0.00064531
0.000639932
0.000639505
0.000642417
0.000646926
0.000651254
0.000653961
0.000654239
0.00065177
0.000646581
0.000638741
0.000628495
0.000616087
0.000601655
0.000585474
0.00056779
0.000958715
0.000942154
0.000926064
0.000910336
0.000893837
0.000876084
0.000856634
0.000835081
0.000811135
0.000784791
0.000756555
0.00072767
0.000700169
0.000676415
0.000658369
0.000646925
0.000641592
0.000640991
0.000643292
0.000646588
0.000649187
0.000649949
0.000648308
0.000644119
0.000637337
0.000628144
0.000616778
0.000603382
0.000588229
0.000571601
0.000973953
0.000958308
0.000943659
0.000929023
0.000913847
0.00089765
0.000879952
0.000860303
0.000838315
0.000813752
0.000786705
0.000757826
0.000728576
0.000701001
0.000677448
0.000659815
0.000648704
0.000643406
0.000642391
0.000643687
0.000645435
0.000646172
0.000645034
0.000641646
0.000635822
0.000627629
0.00061726
0.000604864
0.000590704
0.000575075
0.000986901
0.000972648
0.000958956
0.000945373
0.000931472
0.000916781
0.000900812
0.000883095
0.000863182
0.000840709
0.000815505
0.000787784
0.000758444
0.000728964
0.000701538
0.000678515
0.000661482
0.00065068
0.000645237
0.000643456
0.00064342
0.000643432
0.000642322
0.00063943
0.000634382
0.000627079
0.000617633
0.000606189
0.000592977
0.000578291
0.000997209
0.000983986
0.000971414
0.000959087
0.000946602
0.000933546
0.000919451
0.000903832
0.000886187
0.000866059
0.000843107
0.000817248
0.000788943
0.000759118
0.000729554
0.000702556
0.000680223
0.000663698
0.000652998
0.000647053
0.000644162
0.000642547
0.000640788
0.000637942
0.000633341
0.000626722
0.000618085
0.000607515
0.000595193
0.000581393
0.00100496
0.000992961
0.000981596
0.000970593
0.00095984
0.000949024
0.000937478
0.000924551
0.00090962
0.000892147
0.000871656
0.000847908
0.000821007
0.000791658
0.000761208
0.000731779
0.000705312
0.000683475
0.000667141
0.000656105
0.000649206
0.000644848
0.000641486
0.000637867
0.000633179
0.000626922
0.000618908
0.000609087
0.000597564
0.000584581
0.00101074
0.00100016
0.000990185
0.000980741
0.000972085
0.000963571
0.000954516
0.000944255
0.000932143
0.000917585
0.000899986
0.000878957
0.000854294
0.000826842
0.000797472
0.000767422
0.000738363
0.000712118
0.000690257
0.000673464
0.000661375
0.000652887
0.000646595
0.00064115
0.0006355
0.000628918
0.000621012
0.000611588
0.00060063
0.000588321
0.00101529
0.00100649
0.000998323
0.000990698
0.000983589
0.000976931
0.000970091
0.000962558
0.000953835
0.000943203
0.000929947
0.000913444
0.000893241
0.000869606
0.000842973
0.000814084
0.000784122
0.000754751
0.000727962
0.0007051
0.000686678
0.00067236
0.000661223
0.000652098
0.000643881
0.000635675
0.000626851
0.000617016
0.000606019
0.000593927
0.00102165
0.0010158
0.00101059
0.00100602
0.00100208
0.000998715
0.000995627
0.000992349
0.000988319
0.000982788
0.000974943
0.000963999
0.000949303
0.000930657
0.000908368
0.000882404
0.000853251
0.000822465
0.000791949
0.000763409
0.000738016
0.000716261
0.000697951
0.000682455
0.000668951
0.000656582
0.000644621
0.000632523
0.000619939
0.000606848
0.00104309
0.00104248
0.00104241
0.00104304
0.00104456
0.00104702
0.0010502
0.00105357
0.00105648
0.00105801
0.00105722
0.00105327
0.00104538
0.00103314
0.00101664
0.000995355
0.000968906
0.000938914
0.000906933
0.000874673
0.000843486
0.000814327
0.000787637
0.000763494
0.00074169
0.000721692
0.000702947
0.000685005
0.000667497
0.000650854
0.00113879
0.00114526
0.00115129
0.00115861
0.00116802
0.0011794
0.00119173
0.00120387
0.00121499
0.00122451
0.00123113
0.00123418
0.00123307
0.00122782
0.00121812
0.0012032
0.00118183
0.00115615
0.00112762
0.00109753
0.00106687
0.00103643
0.00100684
0.000978499
0.000951728
0.000925603
0.000900025
0.000875097
0.00085103
0.000829541
0.00151648
0.00151629
0.00151784
0.00152577
0.00153769
0.00155077
0.001561
0.00156914
0.00157582
0.00158191
0.00158503
0.00158586
0.00158495
0.00158279
0.00157831
0.00157129
0.00155891
0.00154602
0.00153303
0.00152083
0.00150931
0.00149877
0.0014892
0.00148072
0.00147347
0.00146265
0.00145001
0.0014368
0.00142423
0.00141393
0.000181099
0.000186146
0.000184803
0.000180704
0.000174915
0.000168126
0.000160849
0.000153489
0.000146342
0.000139639
0.000133496
0.000128002
0.000123211
0.000119215
0.000115973
0.000113462
0.000111601
0.000110442
0.000110139
0.00011083
0.000112261
0.000113751
0.000114489
0.000113667
0.000110557
0.00010479
9.58472e-05
0.000408487
0.000372056
0.000363243
0.000776371
0.000875208
0.000855555
0.000792527
0.000717839
0.000645475
0.00058099
0.000525513
0.000478536
0.000439021
0.000405435
0.000377452
0.000354197
0.000335227
0.000319354
0.000306033
0.000294139
0.000284272
0.000276333
0.000271227
0.000269933
0.000273218
0.000279864
0.000286134
0.000287407
0.000280693
0.000267415
0.000259824
0.000287365
0.000348645
0.00121959
0.00139482
0.00141064
0.00135118
0.0012607
0.00116073
0.00106381
0.000975839
0.000898485
0.000831781
0.000774248
0.000725698
0.000685123
0.000651779
0.000623973
0.000600155
0.000577792
0.000557229
0.000536236
0.00051543
0.000498443
0.00048983
0.000489972
0.000492788
0.000491615
0.000478969
0.000454111
0.000417883
0.000399086
0.000414009
0.00151271
0.00172075
0.00176417
0.00172604
0.00164595
0.00154535
0.00144118
0.00134216
0.00125147
0.00117106
0.00110074
0.00104076
0.000990338
0.000949244
0.000915869
0.000887624
0.000860954
0.000835226
0.000805208
0.000770548
0.000736503
0.000711449
0.00069866
0.000692873
0.000684515
0.000664738
0.000630543
0.00057897
0.000533163
0.000514947
0.0016818
0.00188841
0.00196152
0.00195026
0.00188976
0.00179972
0.00170419
0.00160993
0.00151838
0.00143518
0.00136175
0.00129822
0.00124472
0.00120181
0.00116799
0.00114038
0.00111474
0.00108861
0.00105448
0.00101033
0.000962468
0.000921987
0.000895235
0.000878188
0.000861506
0.000834871
0.00079384
0.000733396
0.00067138
0.000631393
0.00176284
0.00195623
0.002043
0.00205634
0.00202075
0.00196183
0.00187865
0.00179028
0.00170367
0.00162666
0.00155882
0.00149811
0.00144733
0.00140742
0.00137736
0.00135412
0.00133334
0.00131022
0.00127448
0.00122449
0.00116709
0.00111465
0.00107554
0.00104828
0.00102248
0.000989503
0.000943134
0.000877646
0.000806785
0.000752681
0.0018134
0.00195021
0.00202377
0.00205247
0.00204594
0.00201341
0.00195775
0.00189223
0.00182665
0.00176004
0.00169851
0.00164434
0.00160183
0.00156911
0.00154623
0.00153046
0.00151746
0.00149937
0.00146465
0.00141173
0.00134873
0.00128813
0.00123836
0.00120118
0.0011684
0.00112932
0.00107884
0.00101099
0.000935259
0.000871198
0.00184706
0.00191123
0.00195094
0.00197638
0.00198405
0.00197697
0.0019549
0.00192145
0.00187796
0.00183178
0.00178651
0.00174714
0.00171352
0.00169055
0.00167769
0.0016723
0.00166882
0.00165735
0.00162656
0.00157412
0.00150848
0.00144177
0.00138368
0.00133758
0.00129797
0.00125532
0.00120164
0.00113321
0.00105583
0.000984986
0.00187253
0.00188017
0.00188495
0.00189102
0.00189717
0.00190003
0.00189648
0.00188572
0.00186917
0.00185006
0.00182637
0.00180422
0.00178594
0.00177606
0.00177513
0.00178236
0.00178957
0.00178614
0.00176086
0.00171154
0.00164573
0.00157607
0.0015121
0.00145866
0.00141249
0.0013665
0.00131335
0.00124573
0.00116868
0.00109223
0.00192309
0.0018894
0.00184518
0.00182145
0.00181148
0.00181091
0.00181444
0.00181785
0.00181972
0.00182077
0.00182286
0.00182203
0.00182253
0.00182884
0.00184178
0.00186279
0.0018819
0.00188814
0.00186981
0.00182522
0.00176188
0.00169186
0.00162442
0.00156562
0.00151399
0.00146579
0.00141169
0.00134592
0.0012699
0.00119134
0.00199089
0.00192487
0.00184978
0.0017853
0.0017491
0.00173246
0.00173095
0.00173788
0.00174961
0.00176446
0.00178303
0.00180458
0.00182697
0.00185189
0.00188021
0.00191618
0.00194815
0.00196472
0.00195508
0.00191692
0.00185847
0.00179007
0.00172161
0.00165979
0.00160416
0.00155191
0.00149629
0.00143319
0.00135985
0.00128294
0.00208508
0.0019898
0.00188608
0.00179536
0.00172623
0.00168332
0.00166734
0.00166611
0.00167745
0.00169747
0.00172574
0.00176107
0.00180328
0.00184814
0.00189356
0.00194521
0.00199045
0.00201814
0.00201905
0.00199096
0.00193789
0.00187151
0.00180232
0.00173816
0.00167952
0.00162497
0.00156871
0.00150775
0.00143916
0.00136566
0.00219942
0.00208398
0.00196182
0.00184679
0.00175138
0.00168378
0.00164164
0.00162177
0.00162266
0.001637
0.00166603
0.00170745
0.0017598
0.00182243
0.0018855
0.00195287
0.00201156
0.00205081
0.00206261
0.0020447
0.00200009
0.00193784
0.00187003
0.00180367
0.00174196
0.00168502
0.00163021
0.0015714
0.00150819
0.00144058
0.0023339
0.00221339
0.00208023
0.00194799
0.00182988
0.00173496
0.00166663
0.00162176
0.0015995
0.00160011
0.00161959
0.00165818
0.0017124
0.00178095
0.00186069
0.00194279
0.00201448
0.00206535
0.00208879
0.00208157
0.00204637
0.00199045
0.00192579
0.00186102
0.00179756
0.0017389
0.00168394
0.001629
0.00157127
0.00150926
0.0024898
0.00237068
0.00223564
0.00209521
0.0019615
0.00184393
0.00174927
0.00167619
0.00162727
0.00160377
0.00160454
0.0016287
0.0016751
0.00174185
0.00182546
0.00191975
0.00200287
0.00206476
0.00209963
0.00210342
0.00207835
0.00203052
0.00197063
0.00190896
0.00184719
0.001789
0.00173318
0.00168006
0.00162567
0.00156823
0.00265853
0.00255023
0.0024223
0.00228156
0.00213965
0.00200627
0.00188933
0.00178938
0.00171155
0.00165909
0.00163331
0.00163484
0.00166308
0.00171764
0.00179499
0.00189061
0.00198148
0.00205258
0.00209777
0.0021125
0.00209806
0.00205991
0.00200666
0.0019501
0.00189222
0.00183362
0.00177664
0.00172204
0.00166973
0.00161601
0.00283637
0.00274346
0.00262838
0.00249454
0.00235253
0.00221123
0.00207845
0.00195718
0.00185318
0.00177136
0.00171511
0.00168735
0.00168888
0.00172108
0.00178128
0.00186562
0.00195639
0.00203326
0.0020866
0.00211178
0.0021085
0.00208178
0.00203686
0.00198406
0.00192857
0.00187146
0.00181444
0.00175828
0.00170595
0.00165448
0.00301376
0.0029384
0.0028396
0.00271856
0.00258404
0.00244363
0.0023038
0.00216911
0.00204513
0.00193764
0.00185146
0.00179138
0.00176021
0.00176152
0.00179508
0.00185769
0.00193589
0.00201183
0.00207086
0.00210537
0.00211302
0.00209548
0.00205754
0.00200937
0.0019573
0.001903
0.00184693
0.00178999
0.00173636
0.00168584
0.00318181
0.00312372
0.00304401
0.00294124
0.00282103
0.00268905
0.00255081
0.00241084
0.00227441
0.00214734
0.00203518
0.00194376
0.00187787
0.00184254
0.001842
0.00187286
0.00192901
0.00199365
0.00205141
0.00209113
0.00210705
0.00209869
0.00206928
0.00202692
0.00197943
0.00192891
0.00187452
0.00181769
0.00176312
0.00171239
0.00333319
0.00329348
0.0032346
0.00315315
0.0030518
0.00293396
0.00280394
0.00266563
0.00252368
0.00238349
0.00225066
0.00213138
0.00203184
0.00195957
0.00191891
0.00191218
0.00193535
0.00198005
0.00202948
0.00206838
0.0020896
0.00209105
0.00207138
0.0020365
0.00199528
0.00194906
0.00189682
0.00184124
0.00178624
0.00173562
0.00346675
0.00344382
0.00340496
0.00334516
0.00326446
0.00316391
0.00304605
0.00291397
0.00277133
0.00262282
0.00247376
0.00233051
0.00220035
0.00209292
0.0020112
0.00196397
0.00194968
0.00196523
0.00199793
0.00203249
0.00205757
0.00206728
0.00205988
0.00203554
0.00200128
0.00195997
0.00191132
0.00185883
0.00180627
0.00175731
0.00358003
0.00357005
0.00354771
0.00350697
0.00344544
0.00336173
0.00325637
0.00313134
0.00298916
0.00283376
0.00267051
0.00250627
0.00234932
0.00221074
0.00209339
0.0020061
0.00195417
0.00193592
0.00194533
0.00196976
0.00199657
0.00201647
0.00202355
0.00201426
0.00199215
0.00195856
0.00191872
0.00187346
0.0018261
0.00177996
0.00366502
0.00366222
0.00365056
0.0036232
0.00357536
0.00350338
0.00340604
0.003284
0.00313883
0.00297448
0.0027974
0.0026155
0.00243796
0.00227534
0.00213379
0.00201606
0.00192827
0.0018757
0.00185679
0.00186423
0.00188763
0.00191629
0.00194037
0.00195158
0.00194918
0.00193395
0.00190858
0.00187471
0.00183637
0.00179809
0.00370273
0.00369974
0.00369049
0.00366743
0.00362294
0.00355203
0.00345337
0.00332688
0.003174
0.00300035
0.00281496
0.00262618
0.00244273
0.00227281
0.00212339
0.00199067
0.00187734
0.001794
0.00174241
0.00172176
0.00172782
0.00175328
0.00178799
0.00181992
0.00184288
0.00185426
0.00185379
0.00184225
0.00182156
0.00179741
0.00365527
0.00364263
0.00362575
0.00359647
0.00354547
0.00346944
0.00336643
0.00323694
0.00308407
0.00291603
0.00274256
0.00257108
0.00240644
0.00225402
0.0021175
0.0019906
0.00186906
0.00176297
0.00167794
0.00161793
0.00158513
0.00157918
0.00159575
0.0016255
0.00166064
0.00169439
0.00172187
0.00174026
0.00174854
0.00174969
0.00345744
0.00342957
0.00340057
0.00336488
0.00331611
0.00324921
0.00316263
0.00305773
0.00293895
0.00281298
0.0026857
0.00256075
0.00243791
0.00232138
0.00221533
0.00211096
0.00199891
0.00188711
0.00178061
0.00168519
0.00160551
0.0015458
0.00150837
0.00149232
0.00149488
0.00151158
0.00153706
0.00156607
0.00159412
0.00162118
0.00307525
0.0030563
0.00304715
0.00304334
0.00303651
0.00301973
0.0029892
0.00294509
0.00289029
0.00282733
0.0027586
0.00268583
0.00260945
0.00252987
0.00245349
0.00237545
0.00228291
0.00218187
0.00207587
0.00196976
0.00186671
0.00177072
0.00168532
0.00161345
0.00155702
0.00151635
0.00149059
0.00147787
0.00147581
0.00149005
0.00275471
0.00280457
0.00286769
0.00293137
0.00298228
0.00301621
0.00303238
0.00303218
0.00301943
0.00299212
0.00295436
0.00290896
0.00285636
0.00279929
0.00274259
0.00268362
0.00261407
0.00253714
0.00245485
0.00236901
0.00228107
0.00219337
0.00210702
0.00202344
0.00194446
0.00187141
0.00180558
0.00174746
0.001698
0.00167629
0.00283945
0.00290828
0.00298127
0.0030503
0.0031046
0.00314023
0.00316158
0.00316537
0.00315576
0.00313455
0.00310502
0.00306918
0.00302422
0.00297929
0.00293413
0.00288574
0.00283637
0.00278406
0.00273293
0.00268237
0.00263385
0.00258888
0.00254667
0.00250637
0.00246673
0.0024263
0.00238518
0.00234451
0.00230567
0.00228897
0.00304824
0.00309131
0.00313254
0.00317084
0.00319456
0.00320474
0.00320537
0.0031967
0.00318069
0.00315928
0.00313359
0.00310376
0.00306798
0.0030339
0.00299821
0.00296456
0.00293569
0.0029084
0.00288547
0.00286901
0.00286029
0.00285955
0.00286552
0.00287622
0.00288891
0.00289977
0.00290862
0.00291728
0.00292308
0.00292064
0.000218559
0.000221336
0.000215985
0.000208847
0.000200664
0.000191733
0.000182463
0.000173256
0.000164422
0.000156211
0.00014874
0.000142148
0.000136485
0.000131854
0.000128208
0.000125591
0.00012398
0.000123715
0.000125514
0.000129687
0.00013507
0.000139842
0.000142695
0.000142885
0.000140031
0.000133647
0.000123526
0.000108594
9.17683e-05
8.53921e-05
0.00101918
0.0011416
0.00113409
0.00106748
0.000975197
0.000882286
0.000798432
0.000725913
0.000664442
0.000612575
0.00056838
0.000531859
0.00050103
0.000475573
0.000453057
0.00043292
0.000412443
0.000395094
0.000382823
0.000379417
0.000386714
0.000402475
0.000420953
0.000434477
0.000435666
0.000419725
0.000389935
0.000348737
0.000312294
0.000285419
0.0016222
0.00186484
0.00190819
0.00184638
0.00173739
0.00161168
0.00148684
0.00137182
0.00127016
0.00118221
0.00110623
0.00104276
0.000989174
0.000945206
0.000907635
0.000873633
0.000837353
0.000802219
0.000766443
0.000737275
0.000724837
0.000731251
0.000748931
0.000764589
0.000761546
0.000736045
0.000685226
0.000611333
0.00053776
0.000483921
0.00205278
0.00234023
0.00242027
0.00238383
0.00228681
0.00216055
0.00202483
0.00189278
0.00177179
0.0016643
0.00157004
0.00149043
0.00142343
0.00136926
0.00132478
0.00128561
0.00124363
0.00119907
0.00114574
0.0010927
0.00105504
0.00104247
0.0010492
0.0010597
0.00105294
0.00101834
0.000953847
0.000859108
0.000757833
0.000676749
0.00236201
0.0026506
0.00275097
0.00273871
0.00266145
0.00254894
0.00241761
0.00228432
0.00215933
0.00204508
0.00194336
0.00185672
0.00178424
0.00172632
0.00168093
0.00164239
0.00160079
0.00155102
0.00148269
0.00141239
0.00135422
0.00132086
0.00131267
0.00131451
0.00130388
0.00126424
0.00119279
0.00108684
0.000968539
0.000865022
0.00258022
0.0028431
0.00295429
0.00296887
0.00291146
0.00281267
0.00268746
0.00256335
0.00244713
0.00233565
0.00223501
0.00214909
0.00207752
0.00202152
0.00197991
0.001946
0.00190823
0.00185563
0.00177702
0.00168976
0.001615
0.00156416
0.00154091
0.0015324
0.00151729
0.00147782
0.00140368
0.00129437
0.0011673
0.00104821
0.00274748
0.00295935
0.00306319
0.00308563
0.00304907
0.00297304
0.00288107
0.0027708
0.00265775
0.0025472
0.00245496
0.00237677
0.0023113
0.00226223
0.00222816
0.00220211
0.00216995
0.00211595
0.00202973
0.00192874
0.00184051
0.00177497
0.00173794
0.00171821
0.00169759
0.00165899
0.00159026
0.00148311
0.00135443
0.00122325
0.00286378
0.00302083
0.00309739
0.00311655
0.00309567
0.00304253
0.00297071
0.00288458
0.00279264
0.00270592
0.00262145
0.00254905
0.0024929
0.00245451
0.00243132
0.00241609
0.00239083
0.00233468
0.0022425
0.0021332
0.00203577
0.00195786
0.0019082
0.00187713
0.00184981
0.00181297
0.00175226
0.00165276
0.00152599
0.00138761
0.00296235
0.00304012
0.00307482
0.00308348
0.00307139
0.003038
0.00298951
0.00293059
0.00286408
0.00279642
0.0027309
0.00267319
0.00262974
0.0026044
0.00259462
0.00259241
0.00257413
0.00251684
0.00242094
0.00230919
0.00220387
0.00211694
0.00205595
0.00201385
0.00198091
0.00194302
0.0018854
0.00179724
0.001677
0.00153908
0.00303555
0.00304638
0.00304547
0.00303678
0.00302147
0.00299774
0.00296599
0.00292736
0.00288283
0.00283789
0.00279425
0.00275586
0.00272847
0.00271811
0.00272275
0.00273432
0.00272376
0.00266882
0.00257355
0.00245986
0.00234919
0.00225561
0.00218514
0.0021343
0.00209075
0.00204864
0.00199358
0.00191543
0.0018086
0.00168033
0.00311598
0.00308248
0.00303567
0.00300213
0.00297066
0.00294521
0.00292097
0.00289642
0.00286989
0.00284387
0.00281969
0.00280294
0.00279448
0.00280128
0.00282057
0.0028454
0.00284255
0.00279269
0.00270036
0.00258779
0.00247552
0.00237669
0.0022965
0.00223243
0.00218004
0.00213189
0.00208118
0.00201217
0.00192107
0.00180744
0.00320696
0.00315159
0.00307811
0.00300116
0.0029394
0.00290336
0.0028755
0.00285641
0.00284081
0.00282947
0.00282227
0.0028222
0.00283391
0.00285851
0.00289233
0.00292973
0.00293578
0.00289165
0.00280563
0.00269737
0.00258513
0.00248129
0.00239483
0.00232269
0.00226249
0.00220839
0.00215515
0.00209493
0.00201999
0.00192127
0.00330357
0.00322817
0.00313327
0.00303588
0.00295662
0.00289342
0.00284864
0.00282678
0.00281242
0.00280923
0.00281401
0.00282775
0.00285381
0.00289441
0.00294283
0.00299145
0.00300558
0.00296988
0.00289235
0.00279178
0.0026812
0.00257608
0.0024857
0.00240758
0.0023405
0.00228158
0.0022263
0.00217143
0.00210663
0.00202155
0.00342497
0.00333498
0.00322175
0.0031033
0.00300122
0.0029197
0.00286322
0.00282677
0.00280044
0.0027987
0.00280833
0.00283026
0.00286558
0.0029158
0.00297691
0.00303479
0.00305683
0.0030307
0.00296414
0.00287233
0.00276571
0.0026613
0.00256879
0.00248718
0.00241593
0.0023536
0.00229554
0.00223857
0.0021798
0.00210556
0.00356778
0.00346747
0.00334526
0.00321908
0.0030996
0.00299716
0.00291808
0.00286084
0.00282831
0.00281363
0.0028188
0.00283989
0.00287795
0.00293048
0.00299921
0.00306347
0.00309269
0.00307679
0.00302229
0.00294068
0.00284021
0.00273845
0.00264588
0.00256269
0.00248952
0.00242354
0.00236218
0.00230245
0.0022445
0.0021772
0.00372643
0.00363082
0.00351333
0.00338166
0.0032499
0.00312909
0.00302731
0.00294775
0.0028934
0.00286218
0.00285363
0.0028661
0.00289778
0.00294757
0.00301281
0.0030799
0.0031148
0.0031091
0.00306732
0.00299739
0.00290546
0.00280849
0.00271799
0.0026342
0.00255969
0.00249102
0.00242676
0.00236399
0.0023032
0.00223991
0.00390832
0.00382204
0.00371176
0.00358192
0.00344479
0.00331098
0.00318963
0.00308674
0.00300704
0.00295196
0.00292183
0.00291589
0.00293223
0.00296827
0.00302312
0.00308372
0.00312166
0.00312549
0.00309724
0.00304067
0.00295976
0.00286933
0.00278191
0.00269961
0.00262539
0.00255566
0.00248919
0.00242328
0.00235984
0.00229696
0.00410338
0.00402748
0.0039285
0.00380651
0.0036709
0.00353078
0.00339518
0.00327154
0.00316606
0.00308278
0.00302385
0.00299
0.0029804
0.00299369
0.00302665
0.00307187
0.00310654
0.00311823
0.00310405
0.00306267
0.00299553
0.0029159
0.00283528
0.00275741
0.00268571
0.00261608
0.00254814
0.00247935
0.00241373
0.00234982
0.00429456
0.0042332
0.00414907
0.00403945
0.00391094
0.00377071
0.00362678
0.00348677
0.00335756
0.00324465
0.00315201
0.00308215
0.00303628
0.00301504
0.00301689
0.00303707
0.00305988
0.0030741
0.00307224
0.00304885
0.00300269
0.00294066
0.00287238
0.00280311
0.00273526
0.00266747
0.00259868
0.0025293
0.00246273
0.00239826
0.00447431
0.00442766
0.0043591
0.00426374
0.00414554
0.00400945
0.00386189
0.00370959
0.00355926
0.00341693
0.00328783
0.00317627
0.00308601
0.00302033
0.00298163
0.00296604
0.002967
0.0029764
0.00298438
0.00298115
0.00296006
0.00292043
0.00287023
0.00281502
0.00275704
0.00269625
0.00263183
0.00256696
0.00250238
0.00244024
0.00463283
0.00459855
0.00454342
0.00446127
0.0043536
0.00422294
0.00407367
0.00391104
0.00374093
0.00356937
0.00340281
0.00324736
0.00310957
0.0029953
0.00291116
0.0028536
0.00282241
0.00281549
0.00282416
0.00283686
0.00284251
0.00283494
0.00281506
0.00278538
0.00274675
0.00269941
0.00264922
0.00259444
0.00253543
0.00247707
0.00475871
0.00473094
0.00468396
0.00461074
0.00451037
0.0043829
0.00423041
0.0040565
0.00386626
0.00366615
0.00346445
0.00326942
0.00309033
0.00293464
0.00281108
0.00271564
0.00264938
0.00261494
0.00260781
0.0026198
0.00264032
0.00266008
0.00267371
0.00267827
0.00267213
0.00265409
0.00262493
0.00258556
0.00254208
0.00249656
0.00483001
0.00480126
0.00475488
0.00468346
0.00458416
0.00445478
0.00429541
0.00410861
0.00389977
0.00367727
0.00345207
0.00323435
0.00303483
0.0028605
0.0027183
0.00260426
0.00251308
0.00244837
0.00240954
0.00239511
0.00240103
0.00242168
0.00245077
0.00248168
0.00250857
0.00252635
0.00253192
0.00252326
0.0025033
0.00247969
0.00481145
0.00477313
0.00471846
0.00464067
0.00453672
0.00440209
0.00423635
0.00404259
0.0038281
0.00360366
0.00338251
0.00317556
0.00299088
0.00283201
0.00270018
0.00259439
0.00249747
0.00241195
0.00233887
0.00228145
0.00224317
0.00222579
0.00222915
0.00224999
0.00228267
0.00231991
0.00235443
0.00238028
0.00239457
0.0023978
0.00465217
0.00459799
0.00452962
0.00444434
0.00433844
0.00420864
0.00405464
0.00388047
0.00369455
0.00350776
0.00333112
0.00317129
0.00303272
0.00291509
0.0028156
0.00273251
0.00264416
0.00255189
0.00245656
0.00236273
0.00227662
0.0022038
0.00214967
0.00211796
0.00210916
0.00212041
0.00214595
0.00217867
0.00221175
0.00224132
0.00430424
0.0042398
0.00417727
0.00411126
0.00403816
0.00395174
0.00385006
0.00373583
0.00361551
0.00349684
0.00338627
0.00328613
0.00319865
0.00312266
0.00305508
0.00299183
0.00291431
0.00282504
0.00272469
0.00261686
0.00250631
0.00239709
0.00229419
0.00220449
0.00213294
0.00208261
0.00205361
0.00204327
0.00204767
0.00206965
0.00385244
0.0038228
0.0038138
0.00381839
0.00382149
0.00380975
0.003781
0.00373706
0.00368279
0.00362391
0.00356464
0.00350526
0.00344799
0.00339313
0.00333877
0.00328063
0.00320732
0.00312429