/*--------------------------------*- C++ -*----------------------------------*\
  =========                 |
  \\      /  F ield         | OpenFOAM: The Open Source CFD Toolbox
   \\    /   O peration     | Website:  https://openfoam.org
    \\  /    A nd           | Version:  12
     \\/     M anipulation  |
\*---------------------------------------------------------------------------*/
FoamFile
{
    format      ascii;
    class       volScalarField;
    location    "1800/air";
    object      epsilon;
}
// * * * * * * * * * * * * * * * * * * * * * * * * * * * * * * * * * * * * * //

dimensions      [0 2 -3 0 0 0 0];

internalField   nonuniform List<scalar> 
243000
(
1.86623
2.4764
2.97701
3.3828
3.68796
3.89176
4.00156
4.02998
3.99069
3.89739
3.76138
3.59271
3.4007
3.19705
2.98583
2.76798
2.54242
2.3133
2.08553
1.86458
1.6531
1.44909
1.33891
1.18517
0.237963
0.206111
0.175878
0.133821
0.090057
0.0697522
1.17135
1.54172
1.76807
1.8898
1.94298
1.94872
1.91966
1.86575
1.7944
1.71147
1.62084
1.52627
1.4305
1.33643
1.24517
1.15714
1.07184
0.991125
0.915871
0.847371
0.784965
0.725819
0.668287
0.602589
0.52188
0.43509
0.340748
0.240695
0.154307
0.0948614
1.09783
1.48907
1.69645
1.77512
1.77877
1.73511
1.66256
1.5741
1.47818
1.38072
1.28503
1.19387
1.10864
1.03053
0.959718
0.895931
0.838273
0.787782
0.744019
0.706894
0.67512
0.646233
0.616341
0.578873
0.527945
0.460568
0.379953
0.286486
0.200906
0.125321
1.0439
1.43792
1.71065
1.85961
1.91379
1.90025
1.84501
1.76497
1.67136
1.57216
1.47233
1.37568
1.28425
1.19991
1.12341
1.05489
0.993684
0.941177
0.896436
0.858558
0.825468
0.794455
0.761485
0.720149
0.664063
0.588688
0.496534
0.38819
0.285131
0.187524
0.958802
1.26286
1.55417
1.7597
1.87515
1.91478
1.89974
1.84914
1.77592
1.69019
1.5989
1.50711
1.41793
1.33429
1.25776
1.18923
1.12845
1.07709
1.03374
0.99651
0.962481
0.928798
0.891883
0.846152
0.785488
0.705013
0.605922
0.489035
0.373509
0.260343
0.933814
1.08649
1.3151
1.54006
1.70743
1.80592
1.84439
1.83777
1.79826
1.73854
1.66698
1.58937
1.51023
1.43371
1.36235
1.29811
1.24127
1.19375
1.15361
1.11816
1.08381
1.04757
1.00647
0.956095
0.891202
0.807224
0.704346
0.583498
0.460403
0.336966
1.05244
1.06048
1.17447
1.33748
1.49456
1.62132
1.70671
1.74672
1.74989
1.72521
1.68108
1.62511
1.56287
1.49927
1.4377
1.3816
1.33174
1.29021
1.25477
1.22208
1.18809
1.1498
1.10481
1.04993
0.981168
0.894648
0.790086
0.668382
0.541891
0.412607
1.21624
1.13813
1.13979
1.21895
1.33493
1.45195
1.54689
1.61002
1.64895
1.66026
1.64844
1.6196
1.57895
1.53274
1.48502
1.44034
1.40005
1.36628
1.33672
1.30769
1.27483
1.23524
1.18703
1.12817
1.056
0.967634
0.862774
0.742238
0.615863
0.484042
1.40903
1.28401
1.20015
1.18823
1.23852
1.32161
1.4083
1.4797
1.53161
1.56381
1.57973
1.57865
1.56267
1.53694
1.50611
1.47545
1.44682
1.42225
1.39962
1.37505
1.34414
1.30415
1.25367
1.19166
1.11674
1.02713
0.923007
0.805211
0.680764
0.549177
1.62717
1.48334
1.34008
1.24737
1.21912
1.24556
1.30242
1.3658
1.4219
1.46453
1.49266
1.51252
1.51972
1.51567
1.50338
1.4885
1.47305
1.45887
1.44404
1.42471
1.39658
1.35721
1.30558
1.24147
1.16466
1.07461
0.971861
0.85695
0.735781
0.606707
1.86428
1.70412
1.53215
1.3843
1.28357
1.24026
1.24644
1.28182
1.32798
1.37225
1.40815
1.43603
1.45892
1.47388
1.48009
1.48161
1.48015
1.47719
1.4709
1.45753
1.43308
1.39535
1.34377
1.27878
1.20127
1.11121
1.00978
0.89816
0.781058
0.656569
2.11664
1.94311
1.76244
1.58027
1.42508
1.31476
1.25729
1.24537
1.26355
1.29599
1.33107
1.36321
1.39146
1.41871
1.44053
1.4576
1.47009
1.47867
1.48142
1.47475
1.4548
1.41973
1.36939
1.30491
1.2274
1.13786
1.03816
0.929954
0.817197
0.697994
2.38079
2.19581
2.00777
1.80962
1.62266
1.462
1.34307
1.27251
1.24536
1.24926
1.2706
1.29899
1.3287
1.35857
1.39043
1.42025
1.44546
1.46521
1.47713
1.47755
1.46292
1.43185
1.38394
1.3207
1.24406
1.15576
1.05824
0.953502
0.845085
0.731407
2.65362
2.45885
2.26288
2.05834
1.85592
1.66439
1.49792
1.37012
1.28764
1.24743
1.23952
1.25212
1.27552
1.30412
1.33706
1.37443
1.40958
1.43926
1.45995
1.46765
1.45875
1.43162
1.3872
1.32678
1.25241
1.16623
1.07132
0.970156
0.865985
0.757873
2.93184
2.72891
2.52693
2.32301
2.11209
1.90362
1.70631
1.53285
1.39602
1.30282
1.25162
1.23423
1.24009
1.26009
1.28891
1.32617
1.36667
1.40383
1.43219
1.44696
1.44408
1.42219
1.3816
1.32456
1.25334
1.17052
1.07946
0.9832
0.883906
0.781878
3.21145
3.00229
2.79643
2.59043
2.37815
2.16306
1.94942
1.74579
1.56495
1.41969
1.31734
1.25738
1.2328
1.23391
1.25205
1.28246
1.3219
1.36268
1.39664
1.41762
1.42073
1.40441
1.36896
1.31628
1.24964
1.17265
1.08726
0.995991
0.9014
0.804643
3.48785
3.27429
3.06638
2.85945
2.64886
2.43261
2.21202
1.99161
1.78076
1.59262
1.43994
1.33042
1.26409
1.23471
1.23291
1.25068
1.28175
1.32052
1.35675
1.38219
1.39077
1.38017
1.35047
1.30483
1.24504
1.17413
1.09439
1.00816
0.918164
0.826142
3.75517
3.53882
3.33044
3.12465
2.91806
2.70432
2.48287
2.25539
2.02739
1.80923
1.61445
1.45601
1.34158
1.27155
1.23946
1.23647
1.2538
1.28375
1.31711
1.34412
1.35697
1.35286
1.33073
1.29227
1.2393
1.17454
1.10052
1.0194
0.933961
0.846348
4.00703
3.78946
3.58233
3.3816
3.18054
2.97196
2.75391
2.52603
2.2908
2.05497
1.82992
1.62982
1.46772
1.35115
1.27961
1.24672
1.24309
1.25903
1.28464
1.30953
1.32494
1.3258
1.31019
1.27866
1.23235
1.17375
1.10544
1.02948
0.948601
0.865214
4.23759
4.02129
3.81824
3.62636
3.43197
3.23057
3.019
2.79541
2.56009
2.31671
2.07331
1.84246
1.63915
1.476
1.35945
1.2885
1.25576
1.25114
1.26358
1.28204
1.29654
1.30023
1.28968
1.26427
1.22432
1.1718
1.10914
1.0383
0.96196
0.882647
4.44291
4.23181
4.04018
3.85453
3.668
3.47553
3.27292
3.05725
2.8272
2.58403
2.33266
2.08268
1.84826
1.64396
1.48185
1.3676
1.29843
1.26577
1.25872
1.26531
1.27462
1.27806
1.27053
1.24997
1.21574
1.16899
1.11174
1.04594
0.974082
0.898743
4.62204
4.42428
4.23966
4.06155
3.88438
3.70267
3.51156
3.30722
3.08704
2.85039
2.59956
2.34098
2.08649
1.84997
1.64663
1.48791
1.37718
1.30961
1.27595
1.26437
1.26315
1.26227
1.25491
1.23733
1.20769
1.16602
1.11381
1.05282
0.985323
0.913826
4.76754
4.5801
4.40647
4.2404
4.0764
3.90932
3.73399
3.54578
3.34076
3.11659
2.87333
2.61464
2.34969
2.09045
1.85306
1.65265
1.49822
1.39027
1.32294
1.2861
1.26794
1.25747
1.24632
1.22901
1.20198
1.1642
1.11635
1.05977
0.996393
0.928558
4.87804
4.70525
4.54533
4.39389
4.24881
4.10599
3.95697
3.79435
3.61206
3.40619
3.17484
2.92001
2.64818
2.37148
2.10593
1.86863
1.67102
1.51887
1.41121
1.34121
1.29834
1.27142
1.25075
1.22892
1.20135
1.16553
1.12095
1.0681
1.00837
0.943896
4.9606
4.80639
4.66403
4.53158
4.41219
4.29659
4.17568
4.04134
3.88644
3.70549
3.49432
3.25268
2.98385
2.70315
2.42276
2.15647
1.9182
1.71874
1.56359
1.4509
1.37306
1.3199
1.28121
1.24832
1.2149
1.17692
1.1326
1.08142
1.02402
0.962134
5.02494
4.89574
4.77772
4.66918
4.56931
4.47655
4.38239
4.28051
4.16415
4.025
3.85581
3.65189
3.41234
3.14605
2.86305
2.57577
2.29882
2.04744
1.83489
1.66566
1.53711
1.44184
1.37042
1.31363
1.26385
1.2155
1.16503
1.11061
1.05193
0.989953
5.11636
5.02948
4.95311
4.88664
4.82966
4.78108
4.73647
4.68926
4.63144
4.55275
4.4428
4.29264
4.09672
3.85731
3.58379
3.28195
2.96392
2.65125
2.36401
2.11507
1.90899
1.74355
1.612
1.50599
1.4175
1.33961
1.26711
1.1966
1.12619
1.05604
5.44004
5.43131
5.431
5.44149
5.46582
5.50462
5.55461
5.60763
5.65316
5.67632
5.66161
5.59589
5.46824
5.27539
5.02344
4.71094
4.34141
3.94654
3.55289
3.18346
2.85182
2.56361
2.31765
2.10936
1.93246
1.77929
1.64338
1.52005
1.40592
1.30296
7.06287
7.18443
7.2991
7.43964
7.62277
7.84737
8.09503
8.34318
8.57424
8.77446
8.91397
8.97648
8.94849
8.83101
8.61988
8.30343
7.86483
7.35877
6.82255
6.28602
5.7691
5.28505
4.84134
4.4407
4.08341
3.75403
3.44947
3.1692
2.91369
2.69764
16.5078
16.4994
16.5526
16.8161
17.2142
17.655
18.0041
18.2837
18.5135
18.7246
18.8295
18.8543
18.8173
18.7367
18.5746
18.325
17.8928
17.4497
17.0102
16.6036
16.2249
15.883
15.5767
15.3079
15.0805
14.7468
14.3641
13.9721
13.6061
13.3107
4.45064
5.62773
6.38651
6.89298
7.17568
7.26368
7.19128
6.99799
6.72079
6.39237
6.03471
5.66758
5.30493
4.96388
4.64502
4.34894
4.07006
3.81745
3.60696
3.44956
3.31795
3.15302
2.89974
2.53247
2.06492
1.53834
1.02623
0.715595
0.580339
0.115311
3.0612
3.42885
3.63354
3.74315
3.76451
3.70843
3.58805
3.42152
3.22675
3.01994
2.81491
2.6199
2.43823
2.27919
2.14484
2.03478
1.95065
1.89828
1.88897
1.92628
1.98473
2.0142
1.96905
1.82825
1.59877
1.30062
0.970849
0.643582
0.403692
0.218444
2.86523
3.09603
3.18033
3.19157
3.1441
3.05178
2.92286
2.76737
2.59645
2.4209
2.24996
2.09033
1.94591
1.82106
1.71837
1.64129
1.59235
1.57789
1.60772
1.6838
1.78203
1.85695
1.8651
1.7858
1.61685
1.37648
1.09563
0.796162
0.54202
0.338302
2.76926
2.92509
2.95779
2.93152
2.86217
2.76271
2.63934
2.49845
2.34736
2.19393
2.04506
1.90649
1.78205
1.67524
1.58866
1.52723
1.49435
1.49647
1.54145
1.62872
1.73668
1.82534
1.85519
1.80358
1.6691
1.46235
1.21013
0.928176
0.675031
0.456059
2.66114
2.74957
2.7513
2.70957
2.63746
2.54413
2.4342
2.31173
2.18142
2.04926
1.92081
1.8011
1.69375
1.60221
1.52949
1.48082
1.46023
1.47452
1.52836
1.61958
1.72802
1.81885
1.85665
1.8214
1.70931
1.52805
1.29975
1.03577
0.78983
0.565582
2.51715
2.53446
2.5142
2.47007
2.4076
2.33052
2.24009
2.13926
2.03146
1.9215
1.81391
1.71307
1.62257
1.5461
1.48689
1.45055
1.44127
1.46596
1.52728
1.62001
1.72492
1.81205
1.85074
1.82304
1.72817
1.56865
1.36261
1.11904
0.884398
0.663496
2.34549
2.27347
2.22869
2.19324
2.15384
2.10219
2.03728
1.96189
1.87891
1.79229
1.70613
1.62456
1.55131
1.49018
1.44453
1.42051
1.42211
1.45598
1.52308
1.61604
1.71543
1.79598
1.83304
1.81011
1.7258
1.58559
1.40061
1.17885
0.959427
0.748159
2.19255
2.02943
1.94382
1.90851
1.88552
1.86037
1.82513
1.77778
1.72016
1.65722
1.59269
1.53063
1.47468
1.4289
1.39694
1.38501
1.39709
1.43908
1.50982
1.60118
1.69468
1.7692
1.80328
1.78353
1.70824
1.58235
1.41738
1.21761
1.01531
0.817017
2.07719
1.85827
1.73941
1.6825
1.65902
1.64518
1.62739
1.59931
1.5617
1.51989
1.47504
1.43136
1.39215
1.36147
1.34278
1.34241
1.36424
1.41318
1.48659
1.57546
1.6634
1.73162
1.76248
1.74502
1.67814
1.56535
1.41629
1.23824
1.05393
0.8703
2.04722
1.79417
1.62331
1.53298
1.48913
1.47037
1.45887
1.44346
1.42037
1.39104
1.35954
1.33045
1.30584
1.28891
1.2824
1.29283
1.32339
1.37791
1.4529
1.53912
1.62157
1.68409
1.7121
1.69673
1.63762
1.53704
1.40339
1.24374
1.07741
0.909029
2.08537
1.81446
1.60787
1.46856
1.38897
1.34968
1.32938
1.31541
1.29979
1.2795
1.25663
1.23462
1.22002
1.21404
1.21751
1.23751
1.27542
1.33409
1.40962
1.49282
1.57017
1.62782
1.65369
1.64062
1.58879
1.49979
1.38084
1.23799
1.08846
0.935035
2.17517
1.89061
1.66179
1.49077
1.37108
1.29629
1.25243
1.22609
1.20675
1.1886
1.17046
1.15277
1.14092
1.14101
1.15132
1.17859
1.22197
1.28316
1.35809
1.43798
1.51066
1.56425
1.58879
1.57838
1.53358
1.45592
1.35081
1.22404
1.08915
0.950182
2.30948
2.01566
1.77156
1.57761
1.42742
1.31798
1.24243
1.18998
1.15242
1.12629
1.10548
1.0882
1.07611
1.07497
1.08816
1.11915
1.16539
1.22719
1.30023
1.37643
1.44477
1.49508
1.51906
1.51167
1.47374
1.40673
1.31504
1.20384
1.08378
0.958709
2.48078
2.18339
1.93566
1.72692
1.55274
1.41177
1.30353
1.21723
1.15277
1.10531
1.07098
1.04619
1.0295
1.02289
1.03351
1.06339
1.10895
1.16898
1.23863
1.31047
1.37461
1.42219
1.44624
1.44226
1.41117
1.35451
1.27643
1.18086
1.07507
0.962714
2.68011
2.39079
2.14592
1.93076
1.74026
1.57375
1.43478
1.3133
1.21343
1.13565
1.07798
1.03607
1.00769
0.9924
0.994132
1.01671
1.05702
1.11212
1.17649
1.24299
1.3027
1.34782
1.3724
1.37223
1.34834
1.30287
1.23799
1.15594
1.06291
0.961911
2.90526
2.63617
2.40362
2.18722
1.98413
1.79664
1.63036
1.47569
1.33943
1.22569
1.13589
1.06779
1.01947
0.989441
0.977195
0.985857
1.01524
1.06134
1.11787
1.17756
1.23222
1.27492
1.30042
1.30545
1.28936
1.25349
1.19962
1.12944
1.0478
0.957515
3.15322
2.90886
2.69218
2.47984
2.27145
2.0684
1.87748
1.69471
1.52585
1.37646
1.25075
1.15002
1.07315
1.02026
0.98855
0.978576
0.990763
1.02283
1.06812
1.11893
1.16774
1.20855
1.23548
1.24472
1.23494
1.20712
1.16253
1.10252
1.0309
0.950459
3.40592
3.18579
2.98393
2.77847
2.57134
2.36342
2.15781
1.95576
1.76188
1.58212
1.42239
1.28667
1.17616
1.09332
1.03581
1.00234
0.992727
1.00529
1.03498
1.07458
1.11606
1.15292
1.1793
1.19133
1.18634
1.165
1.12808
1.07669
1.01372
0.941922
3.63994
3.43881
3.25389
3.06355
2.86699
2.66378
2.45561
2.24465
2.03543
1.83384
1.64655
1.47895
1.33496
1.21689
1.12859
1.06624
1.02947
1.01833
1.02793
1.05151
1.08166
1.11138
1.13515
1.14778
1.14563
1.12895
1.09804
1.05365
0.997844
0.933302
3.83677
3.66177
3.50073
3.33247
3.15401
2.96365
2.76243
2.55265
2.33865
2.12595
1.92101
1.72921
1.55586
1.40559
1.28075
1.1843
1.11447
1.07324
1.05669
1.05866
1.07167
1.08999
1.10785
1.11793
1.11611
1.10176
1.07495
1.03551
0.985091
0.926292
4.00589
3.86045
3.72764
3.58667
3.43288
3.26341
3.07863
2.88117
2.67504
2.4649
2.25593
2.05209
1.85846
1.68019
1.51755
1.38209
1.27218
1.19223
1.14
1.11094
1.09953
1.10048
1.1066
1.10928
1.10391
1.08849
1.06259
1.02514
0.977766
0.922777
4.15585
4.04437
3.94426
3.83639
3.71483
3.57618
3.42062
3.25125
3.07167
2.88482
2.69289
2.4964
2.29795
2.10088
1.90758
1.72333
1.56239
1.42775
1.32226
1.2455
1.19507
1.16598
1.15034
1.13723
1.12126
1.09888
1.06763
1.02737
0.979282
0.925756
4.30591
4.23497
4.17513
4.10995
4.03343
3.94278
3.83923
3.72668
3.60784
3.48205
3.34548
3.19171
3.01768
2.82136
2.60664
2.37444
2.13565
1.91176
1.71494
1.554
1.43192
1.34501
1.2847
1.23739
1.19563
1.15414
1.10935
1.05962
1.0047
0.947081
4.50259
4.48476
4.48134
4.4798
4.47605
4.47052
4.46766
4.4728
4.48665
4.50101
4.49989
4.4645
4.37971
4.23033
4.0181
3.73034
3.37262
2.98873
2.61588
2.28451
2.01073
1.79634
1.63326
1.50455
1.39929
1.30915
1.22767
1.15062
1.07566
1.00418
4.85784
4.92446
5.0188
5.13468
5.27381
5.44507
5.66008
5.92536
6.23631
6.56891
6.88493
7.13912
7.2929
7.301
7.15608
6.82759
6.28315
5.59268
4.85635
4.1511
3.52385
2.99566
2.56682
2.22134
1.94574
1.72424
1.54273
1.3905
1.25945
1.14947
5.68414
5.9231
6.23042
6.61141
7.08304
7.66605
8.38148
9.23221
10.2008
11.2262
12.2218
13.0976
13.7766
14.1776
14.2563
13.9412
13.1403
11.9547
10.5417
9.06528
7.63636
6.33676
5.213
4.27876
3.52464
2.92608
2.45428
2.08254
1.78678
1.56325
8.04033
8.72097
9.5694
10.5965
11.842
13.3336
15.097
17.1132
19.3341
21.6052
23.7636
25.6634
27.1938
28.2418
28.7274
28.4979
27.4041
25.5637
23.1844
20.5178
17.7282
14.9858
12.4301
10.1614
8.23109
6.64015
5.3624
4.3532
3.56201
2.99185
15.6621
17.4418
19.3889
21.5891
24.1653
27.0822
30.3886
33.9812
37.7675
41.366
44.606
47.351
49.4755
50.8995
51.5516
51.2101
49.8621
47.6168
44.6184
41.044
37.0201
32.7562
28.4512
24.3038
20.4956
17.1348
14.2644
11.8577
9.86906
8.41961
34.8613
36.7481
39.1826
42.1995
45.5899
49.2478
53.4218
57.5265
61.3441
64.5853
67.1478
69.1102
70.2267
70.5809
70.1771
68.7546
66.8802
64.6533
62.1897
59.2167
55.7918
52.115
48.2925
44.4364
40.6479
36.9829
33.4761
30.1666
27.0913
24.7028
49.8248
48.6493
49.2105
50.9937
53.459
56.0809
58.5672
60.6759
62.3738
63.6417
64.4252
64.7776
64.6382
64.0637
62.7051
60.2645
58.0097
55.6667
53.4352
51.3334
49.4295
47.7912
46.5321
45.7042
45.2493
44.9436
44.6696
44.3642
43.8847
43.0999
7.82032
9.45536
10.1909
10.6373
10.8308
10.7707
10.4954
10.0636
9.53147
8.94863
8.34716
7.76236
7.21139
6.71653
6.27617
5.89853
5.58047
5.36601
5.33847
5.52691
5.77792
5.85524
5.61211
5.02931
4.1858
3.19135
2.19454
1.28923
0.670669
0.512511
4.65197
5.12412
5.29392
5.36997
5.35733
5.24717
5.04792
4.78292
4.47704
4.15452
3.83612
3.53399
3.2595
3.0192
2.82012
2.6683
2.57801
2.57489
2.71467
3.01133
3.35648
3.58464
3.59077
3.36654
2.9629
2.44547
1.86905
1.27523
0.799196
0.48503
4.29633
4.53194
4.59101
4.57325
4.48694
4.34348
4.1481
3.91238
3.65155
3.38119
3.11588
2.86605
2.64013
2.44407
2.28455
2.17004
2.11278
2.13885
2.29479
2.5909
2.93805
3.19658
3.27037
3.14437
2.8604
2.44909
1.97204
1.45594
1.00564
0.641684
4.20897
4.30666
4.2991
4.23694
4.12733
3.97888
3.79455
3.58116
3.34908
3.10986
2.87486
2.6533
2.45253
2.27867
2.13922
2.0435
2.00368
2.04465
2.20057
2.4768
2.80278
3.05761
3.15481
3.07519
2.8475
2.50393
2.08574
1.61712
1.18549
0.804231
4.16452
4.13172
4.06195
3.97193
3.85675
3.7163
3.54963
3.36031
3.15556
2.94436
2.73601
2.53864
2.35913
2.20467
2.08293
2.00426
1.98107
2.03706
2.19632
2.4493
2.74209
2.97815
3.07838
3.02236
2.83038
2.53456
2.1648
1.73977
1.33233
0.951997
4.09716
3.93891
3.81081
3.69974
3.58711
3.46192
3.3179
3.15587
2.98027
2.79782
2.61643
2.4434
2.28551
2.15055
2.04685
1.98597
1.98034
2.05065
2.2106
2.44676
2.70576
2.91322
3.00467
2.95981
2.79312
2.53054
2.20441
1.82223
1.44527
1.08051
3.98704
3.72039
3.53506
3.4032
3.29622
3.19065
3.07373
2.94196
2.79736
2.64489
2.49173
2.34426
2.2093
2.09469
2.00993
1.96779
1.98075
2.06433
2.22434
2.44428
2.67122
2.84814
2.92461
2.88365
2.73595
2.50191
2.2083
1.86866
1.52512
1.18301
3.84839
3.48337
3.23905
3.08279
2.98165
2.89761
2.80978
2.71092
2.59965
2.47888
2.35498
2.23403
2.12308
2.02993
1.96485
1.94199
1.97318
2.07048
2.2304
2.43252
2.62833
2.77636
2.83577
2.79462
2.66212
2.45222
2.18863
1.88515
1.57557
1.26021
3.69863
3.233
2.92858
2.75012
2.65195
2.58686
2.52794
2.4643
2.38842
2.29976
2.20569
2.11178
2.02532
1.95443
1.90945
1.90575
1.95435
2.06376
2.2226
2.40496
2.57447
2.6955
2.73805
2.6948
2.57393
2.38542
2.15001
1.87791
1.60102
1.31429
3.53848
3.00706
2.67351
2.47247
2.36365
2.30359
2.2618
2.22088
2.17118
2.11223
2.04736
1.97998
1.91763
1.86875
1.84393
1.85842
1.92265
2.04026
2.19487
2.36077
2.50735
2.60465
2.63206
2.58654
2.47526
2.30676
2.09675
1.8547
1.60606
1.34829
3.4084
2.87302
2.50055
2.27076
2.13796
2.06703
2.02786
1.99926
1.96829
1.93049
1.88681
1.84361
1.80362
1.77551
1.76962
1.80064
1.87787
2.00084
2.1501
2.30066
2.42632
2.50375
2.51869
2.47164
2.36921
2.21903
2.0324
1.81919
1.59869
1.36943
3.35576
2.82906
2.43467
2.15845
1.99269
1.8969
1.84454
1.81423
1.79085
1.76633
1.73863
1.71017
1.68877
1.67885
1.68904
1.73407
1.82094
1.94587
2.08808
2.22444
2.33204
2.39353
2.39919
2.35227
2.25885
2.12559
1.96119
1.77646
1.58406
1.37985
3.37057
2.86061
2.4616
2.16171
1.94778
1.80925
1.73003
1.68273
1.6532
1.63111
1.61126
1.59265
1.58043
1.58417
1.60634
1.66167
1.75394
1.87701
2.01081
2.13362
2.22615
2.27554
2.27531
2.2306
2.14692
2.03008
1.88906
1.73031
1.56175
1.37834
3.43879
2.95057
2.5538
2.23591
1.99302
1.81978
1.6992
1.62036
1.57085
1.53858
1.51595
1.49945
1.49116
1.49893
1.52749
1.58803
1.68077
1.79815
1.92164
2.03147
2.11151
2.15219
2.14943
2.10923
2.03639
1.93818
1.81789
1.67978
1.5316
1.36803
3.56435
3.09939
2.70864
2.37841
2.11227
1.90544
1.74962
1.63709
1.55749
1.50286
1.46543
1.44132
1.42936
1.43319
1.46044
1.51981
1.60743
1.71502
1.82596
1.92296
1.99253
2.02742
2.02522
1.99309
1.93406
1.85057
1.74701
1.62659
1.49623
1.35081
3.74482
3.30379
2.92506
2.59315
2.31023
2.07485
1.88427
1.73394
1.61865
1.53311
1.472
1.43042
1.40601
1.39925
1.41531
1.46631
1.54271
1.63589
1.7317
1.81534
1.87591
1.90803
1.91092
1.88646
1.83794
1.76741
1.67838
1.57336
1.45833
1.32905
3.97289
3.55958
3.19872
2.87041
2.57732
2.31967
2.0981
1.91152
1.75865
1.63737
1.54497
1.47763
1.43278
1.40899
1.40831
1.44075
1.49921
1.57285
1.65042
1.7195
1.77344
1.80377
1.80867
1.79019
1.75047
1.69089
1.6142
1.52262
1.42058
1.30501
4.23659
3.85532
3.51572
3.19621
2.89974
2.62727
2.38135
2.16373
1.97612
1.81925
1.69306
1.59538
1.52432
1.47761
1.45554
1.46293
1.49551
1.54427
1.60042
1.65423
1.69639
1.72078
1.72473
1.70942
1.67574
1.62437
1.55742
1.47695
1.38535
1.28104
4.5243
4.17557
3.86035
3.55538
3.26303
2.98451
2.72337
2.48341
2.26864
2.08201
1.92571
1.79892
1.70076
1.62862
1.58228
1.56187
1.56448
1.58282
1.61029
1.63915
1.66131
1.6731
1.67056
1.65316
1.62077
1.57346
1.51305
1.43973
1.35542
1.25971
4.8158
4.50372
4.21796
3.93475
3.65571
3.38206
3.11803
2.86876
2.64004
2.4365
2.26167
2.11524
1.99686
1.90332
1.83427
1.78593
1.75361
1.7329
1.71984
1.71049
1.70019
1.68667
1.66675
1.63796
1.59852
1.54841
1.48794
1.41573
1.33437
1.24396
5.10134
4.83078
4.58106
4.32912
4.0757
3.82198
3.57274
3.33429
3.11365
2.91636
2.74626
2.60209
2.48302
2.38385
2.30315
2.2323
2.16119
2.08747
2.01248
1.94022
1.87262
1.81084
1.75268
1.69477
1.63364
1.56627
1.49108
1.41083
1.32657
1.2372
5.38619
5.16422
4.96002
4.75315
4.5437
4.33292
4.12639
3.93175
3.75697
3.60741
3.48583
3.38817
3.31132
3.24553
3.18529
3.11151
3.00069
2.85043
2.67249
2.48723
2.31061
2.15159
2.01138
1.88709
1.77349
1.66573
1.56057
1.45703
1.35363
1.2532
5.70769
5.54505
5.40266
5.26434
5.12975
5.00114
4.88585
4.79365
4.7334
4.7094
4.72072
4.75818
4.81434
4.86962
4.90853
4.88413
4.74377
4.47862
4.1187
3.71699
3.3188
2.95266
2.63213
2.35841
2.12479
1.92322
1.74658
1.58968
1.44755
1.31952
6.16467
6.08431
6.03757
6.01372
6.01219
6.03996
6.10846
6.23091
6.41755
6.67118
6.98198
7.32832
7.69618
8.04745
8.35174
8.48554
8.34912
7.91631
7.24183
6.42879
5.583
4.77734
4.05884
3.44723
2.93903
2.52206
2.18178
1.90351
1.67278
1.48521
6.99624
7.05346
7.18111
7.3733
7.6319
7.96954
8.40683
8.96211
9.64628
10.4548
11.3573
12.3091
13.2844
14.2095
15.0299
15.4751
15.3888
14.7237
13.5575
12.0621
10.424
8.7828
7.25615
5.92439
4.81155
3.91079
3.19881
2.64367
2.2112
1.89031
8.82758
9.18547
9.67512
10.3033
11.0713
12.0105
13.1522
14.513
16.0921
17.8601
19.7382
21.6452
23.542
25.293
26.8105
27.6141
27.5382
26.5498
24.757
22.377
19.6467
16.7488
13.891
11.2796
9.01606
7.13887
5.6444
4.48547
3.59866
2.97451
13.3873
14.4431
15.702
17.1208
18.7511
20.6905
22.9449
25.5053
28.3279
31.3251
34.3489
37.2867
40.0784
42.4938
44.4148
45.1876
44.7877
43.3134
40.933
37.8292
34.161
30.0541
25.7487
21.5844
17.7185
14.3147
11.5008
9.23445
7.44498
6.19445
24.6873
26.652
28.8585
31.3532
34.1285
37.1545
40.5049
44.1155
47.8607
51.5724
55.0624
58.1044
60.5596
62.1963
63.0308
62.3079
60.7121
58.4569
55.8459
52.8868
49.5658
45.9459
41.8671
37.3583
32.7502
28.2481
24.2416
20.7326
17.7393
15.5549
45.173
46.3204
48.255
50.9176
54.1079
57.5889
61.1902
64.6467
67.7935
70.4933
72.6766
74.2784
75.1593
75.0276
73.9488
71.1478
68.1048
64.931
62.0062
59.2416
56.6121
54.1162
51.8279
49.7163
47.7886
45.8453
43.3719
40.7274
38.0206
35.6665
55.8886
55.1478
55.9545
57.8988
60.5388
63.3852
66.0859
68.3812
70.1621
71.3572
71.9519
71.9674
71.2405
69.5737
66.7437
62.5058
58.5939
54.9173
51.8541
49.3802
47.5394
46.2709
45.6476
45.6681
46.2851
47.2163
48.2923
49.2394
49.7918
49.7442
11.6517
13.8754
14.5717
14.7716
14.7856
14.5295
14.0184
13.3188
12.5019
11.6356
10.7641
9.93352
9.15543
8.46498
7.86167
7.37052
7.00512
6.93129
7.44834
8.56569
9.69613
10.2162
9.92238
8.93291
7.49562
5.83337
4.1685
2.64071
1.549
0.860108
6.46262
7.03973
7.17417
7.14456
7.05966
6.878
6.59254
6.22265
5.79893
5.35401
4.91364
4.49477
4.11345
3.77483
3.49632
3.28697
3.18681
3.28755
3.76465
4.61486
5.47226
5.95326
5.93536
5.51497
4.84068
4.03573
3.17857
2.28938
1.53001
0.979097
5.91776
6.1341
6.13429
6.04133
5.89121
5.68526
5.42049
5.10434
4.75354
4.38775
4.02589
3.68144
3.36662
3.08847
2.86133
2.69866
2.63125
2.74023
3.16882
3.90391
4.66365
5.13964
5.21426
4.95239
4.47042
3.86198
3.16629
2.42028
1.74645
1.18995
5.83445
5.84151
5.75197
5.6158
5.44393
5.23654
4.98958
4.70572
4.39527
4.0719
3.75093
3.44364
3.16117
2.91211
2.71131
2.57328
2.52894
2.65461
3.05389
3.69365
4.36835
4.81323
4.91915
4.73075
4.34111
3.82222
3.22419
2.56267
1.93855
1.39042
5.8269
5.65557
5.48372
5.31224
5.13269
4.935
4.71045
4.45761
4.18233
3.8947
3.60748
3.32989
3.07465
2.85054
2.67316
2.55949
2.54198
2.69142
3.08216
3.64839
4.2268
4.62069
4.72514
4.57298
4.23703
3.78036
3.25046
2.66026
2.08355
1.5524
5.80638
5.46947
5.21622
5.01182
4.83071
4.64943
4.4524
4.23333
3.99425
3.74256
3.4889
3.2413
3.01345
2.81487
2.66244
2.57598
2.58981
2.76769
3.14724
3.65765
4.14556
4.47614
4.55973
4.4229
4.12287
3.71387
3.23532
2.70867
2.18086
1.67587
5.73279
5.25418
4.92429
4.68782
4.50745
4.34558
4.17885
3.99556
3.79455
3.5806
3.36229
3.1471
2.94831
2.77724
2.65253
2.59689
2.64565
2.85394
3.22408
3.67715
4.08736
4.34963
4.40154
4.26773
3.99437
3.62202
3.18878
2.71044
2.23444
1.76271
5.60313
5.00633
4.60727
4.3388
4.15785
4.0158
3.88101
3.73533
3.57369
3.39854
3.2171
3.03664
2.86951
2.72797
2.63374
2.61186
2.6981
2.93516
3.29433
3.69254
4.02914
4.22615
4.24243
4.10489
3.85006
3.50841
3.11583
2.68385
2.2528
1.8182
5.43803
4.74401
4.27891
3.97656
3.79122
3.66687
3.56331
3.45416
3.33162
3.19595
3.05254
2.90799
2.77469
2.66454
2.60278
2.61652
2.74061
3.00154
3.34472
3.69551
3.96139
4.09728
4.07927
3.93518
3.69407
3.37967
3.02369
2.63618
2.24776
1.8537
5.25349
4.48287
3.95471
3.62497
3.43397
3.32
3.23901
3.16127
3.07517
2.97848
2.87242
2.76369
2.66462
2.58756
2.55928
2.60887
2.76844
3.04528
3.37077
3.66882
3.87659
3.95812
3.91055
3.76073
3.53172
3.24347
2.92021
2.57634
2.23218
1.87419
5.06013
4.25171
3.68414
3.32909
3.12238
3.00672
2.93725
2.88141
2.82286
2.75604
2.68379
2.60894
2.54322
2.49931
2.50416
2.58818
2.77878
3.06371
3.37101
3.61518
3.76989
3.80617
3.73599
3.5835
3.3671
3.10349
2.81393
2.51272
2.20491
1.8749
4.89151
4.08488
3.49769
3.108
2.87717
2.74701
2.67539
2.62904
2.58851
2.54477
2.49777
2.4511
2.41638
2.40418
2.43931
2.55465
2.76889
3.05337
3.32673
3.53076
3.63967
3.64126
3.55626
3.40562
3.20429
2.96662
2.71325
2.44489
2.16647
1.86344
4.79009
4.00307
3.41031
2.98332
2.71686
2.56052
2.4722
2.42095
2.38632
2.35605
2.32768
2.30141
2.29225
2.30694
2.36892
2.50989
2.7361
3.00635
3.24837
3.41503
3.48722
3.46581
3.37406
3.23116
3.04988
2.84279
2.61635
2.37381
2.12111
1.84317
4.76585
4.01432
3.42745
2.9848
2.66981
2.46407
2.34523
2.2742
2.23192
2.20405
2.18541
2.17342
2.18006
2.21513
2.29912
2.45802
2.68476
2.93224
3.14082
3.27386
3.31901
3.28538
3.19597
3.07001
2.91306
2.72748
2.52314
2.3028
2.0723
1.81688
4.80496
4.0879
3.51258
3.05864
2.71778
2.47608
2.30953
2.20365
2.14072
2.10333
2.08402
2.07831
2.09441
2.1395
2.23903
2.40707
2.62344
2.84179
3.01603
3.12005
3.14782
3.11224
3.03851
2.92872
2.7876
2.62047
2.43559
2.23416
2.02251
1.78691
4.90861
4.22868
3.66874
3.20646
2.84026
2.56237
2.35975
2.22032
2.12689
2.06846
2.03783
2.02904
2.04749
2.09627
2.20256
2.371
2.5684
2.75373
2.89374
2.97514
2.99698
2.97102
2.90489
2.80556
2.6772
2.52497
2.35611
2.16999
1.97374
1.75534
5.08063
4.43685
3.89312
3.43102
3.04839
2.74041
2.50104
2.32261
2.19509
2.10967
2.06085
2.04141
2.05618
2.10595
2.20967
2.3731
2.54609
2.69703
2.80578
2.87624
2.89456
2.86683
2.80257
2.70903
2.58837
2.44668
2.28778
2.11272
1.92809
1.72399
5.31512
4.70532
4.1858
3.72968
3.33665
3.00474
2.73267
2.51749
2.35496
2.23976
2.16887
2.13558
2.14391
2.19296
2.29726
2.44878
2.59781
2.71758
2.81014
2.86055
2.86225
2.82
2.74738
2.6547
2.53307
2.39167
2.23524
2.0657
1.88821
1.69509
5.59939
5.02716
4.53489
4.09018
3.69452
3.34776
3.0517
2.8074
2.61553
2.47457
2.38462
2.34025
2.34623
2.39977
2.51432
2.66216
2.79475
2.89741
2.96275
2.97882
2.93942
2.86434
2.77677
2.6558
2.5163
2.36499
2.20418
2.03322
1.85755
1.67147
5.91438
5.38941
4.92721
4.5013
4.11375
3.76527
3.45971
3.20124
2.99459
2.84197
2.74675
2.70487
2.72498
2.80131
2.94805
3.11811
3.25406
3.34028
3.36122
3.30942
3.20349
3.07853
2.93979
2.77201
2.58984
2.39618
2.20437
2.02086
1.84052
1.65683
6.25875
5.78309
5.35732
4.96157
4.59781
4.26715
3.97495
3.72794
3.53412
3.39917
3.32993
3.32366
3.39678
3.53784
3.76578
4.00251
4.17191
4.23855
4.18382
4.02742
3.81566
3.59143
3.33757
3.06575
2.79559
2.53487
2.28706
2.0572
1.84925
1.65606
6.64843
6.22251
5.84389
5.49575
5.17969
4.89711
4.65496
4.46228
4.32969
4.26676
4.28433
4.38556
4.58955
4.88101
5.28986
5.67483
5.91911
5.96866
5.79837
5.47527
5.0867
4.64736
4.15849
3.67648
3.23232
2.83717
2.4904
2.1869
1.92299
1.69687
7.13419
6.76844
6.45583
6.18423
5.9553
5.77058
5.63994
5.57474
5.58729
5.69739
5.92057
6.25869
6.7402
7.33983
8.11015
8.77179
9.1648
9.21562
8.88339
8.32044
7.57935
6.68082
5.74725
4.86495
4.08973
3.43802
2.90211
2.46496
2.10635
1.8198
7.85231
7.57114
7.3625
7.22196
7.15149
7.15083
7.24021
7.43287
7.74727
8.2055
8.83024
9.62203
10.6179
11.7695
13.1634
14.2508
14.8987
15.0005
14.5066
13.464
12.0384
10.3724
8.67758
7.0962
5.72624
4.60474
3.71788
3.02911
2.49581
2.09768
9.11861
8.98184
8.95413
9.05268
9.27683
9.62978
10.1294
10.7948
11.6515
12.723
14.0279
15.5573
17.3531
19.3257
21.5748
23.1396
23.9853
24.0231
23.1302
21.4687
19.2029
16.5072
13.7449
11.1
8.78348
6.86868
5.36221
4.21186
3.34764
2.74279
11.6551
11.8164
12.1564
12.7022
13.4456
14.398
15.5774
16.9991
18.6844
20.648
22.8787
25.3521
28.1008
30.9688
33.8441
34.9024
35.1439
34.4854
33.1057
31.0874
28.504
25.3648
21.6475
17.785
14.2798
11.2364
8.76181
6.82882
5.36437
4.37554
17.1041
17.8562
18.8888
20.1413
21.6146
23.3874
25.4453
27.7837
30.3982
33.2768
36.3469
39.5959
42.8764
45.6305
48.0083
47.5807
46.4795
44.7138
42.6954
40.3633
37.697
34.6677
31.2689
27.5294
23.3348
19.255
15.6962
12.7109
10.3412
8.73441
28.2875
29.5956
31.2623
33.2685
35.5529
38.0213
40.736
43.6643
46.7514
49.9452
53.0847
55.8359
58.3805
59.9946
60.7304
57.8954
54.9006
51.7988
49.1703
46.7427
44.4178
42.1448
39.8023
37.3299
34.6851
31.6149
28.0672
24.5683
21.5179
19.2988
44.805
45.5139
46.9887
49.0841
51.6022
54.3499
57.1652
59.8984
62.4475
64.7342
66.6793
68.1511
69.0004
68.5382
66.803
61.2364
56.5026
52.2875
49.0752
46.6504
44.8855
43.6418
42.8696
42.4931
42.3596
42.2496
41.7992
40.8118
39.147
37.4505
51.1735
51.3262
52.503
54.5075
57.0315
59.69
62.2151
64.4138
66.1826
67.4402
68.1336
68.2103
67.3813
65.0392
61.0511
53.8204
48.307
43.7082
40.3744
37.9652
36.5521
35.9852
36.2265
37.2624
38.947
41.0112
43.182
45.1487
46.6012
47.2778
16.0599
18.9328
19.5002
19.4921
19.1974
18.6807
17.8868
16.8764
15.7319
14.5388
13.3413
12.1932
11.1045
10.1321
9.28268
8.61461
8.19146
8.48548
10.3263
13.4257
16.0646
17.0654
16.4212
14.6558
12.3145
9.75129
7.23264
4.89185
3.11778
1.84511
8.48654
9.19053
9.27286
9.15401
8.93426
8.65357
8.26739
7.78141
7.23217
6.65406
6.07945
5.52197
5.00639
4.53487
4.14576
3.84541
3.71793
4.00742
5.1959
7.06632
8.65457
9.32126
9.09484
8.3069
7.25216
6.10116
4.94272
3.76096
2.71463
1.87528
7.69893
7.91636
7.84076
7.66201
7.41767
7.13012
6.78424
6.38042
5.93553
5.47012
5.00582
4.55437
4.13424
3.75268
3.43731
3.20398
3.11933
3.39712
4.39575
5.91843
7.2393
7.86367
7.78296
7.24354
6.4706
5.61593
4.7204