/*--------------------------------*- C++ -*----------------------------------*\
  =========                 |
  \\      /  F ield         | OpenFOAM: The Open Source CFD Toolbox
   \\    /   O peration     | Website:  https://openfoam.org
    \\  /    A nd           | Version:  12
     \\/     M anipulation  |
\*---------------------------------------------------------------------------*/
FoamFile
{
    format      ascii;
    class       volScalarField;
    location    "1800/air";
    object      k;
}
// * * * * * * * * * * * * * * * * * * * * * * * * * * * * * * * * * * * * * //

dimensions      [0 2 -2 0 0 0 0];

internalField   nonuniform List<scalar> 
243000
(
0.0493003
0.0580035
0.0639839
0.0680284
0.0704251
0.0714215
0.0712862
0.0702844
0.0686429
0.0665568
0.0641662
0.0615802
0.0588902
0.0562098
0.0535596
0.0509225
0.0482502
0.0455531
0.0428553
0.0401932
0.0375726
0.0349327
0.0335397
0.0313544
0.0294239
0.0271744
0.0243913
0.019908
0.0143926
0.0120816
0.0751733
0.0880449
0.0941201
0.0960709
0.0956464
0.0937699
0.0909592
0.0875821
0.0838916
0.0800711
0.0762302
0.0724685
0.068849
0.0654409
0.0622577
0.0592889
0.0564935
0.0539131
0.0515607
0.0494738
0.0476211
0.0458799
0.0440068
0.0418381
0.0390739
0.035231
0.0306484
0.0248885
0.0189592
0.0140736
0.0804236
0.0985555
0.107515
0.11082
0.110977
0.109157
0.106095
0.102299
0.0981024
0.0937433
0.0893623
0.0850861
0.0809882
0.0771395
0.0735653
0.0702696
0.0672225
0.0644956
0.0620834
0.0599982
0.0581827
0.0565048
0.0547312
0.0524851
0.0493735
0.0450649
0.0396353
0.0328283
0.0259062
0.0189173
0.0777878
0.0962847
0.108107
0.114301
0.116516
0.11597
0.113716
0.110405
0.106469
0.102216
0.0978433
0.0935152
0.0893263
0.0853732
0.0817063
0.0783508
0.0752908
0.0726148
0.070294
0.0682971
0.0665267
0.0648437
0.0630296
0.0607221
0.0575229
0.053077
0.0473778
0.0402012
0.0327214
0.024746
0.0735335
0.0883134
0.101407
0.110161
0.114933
0.116552
0.115945
0.113882
0.110859
0.107264
0.103369
0.0993771
0.0954192
0.091631
0.0880947
0.0848666
0.0819508
0.0794456
0.077298
0.0754285
0.0736973
0.0719619
0.0700358
0.0676147
0.0643375
0.0598589
0.0541049
0.0468957
0.0391788
0.0307977
0.0722799
0.079915
0.0907289
0.100788
0.107965
0.112081
0.113672
0.113405
0.111779
0.109294
0.106278
0.102957
0.0995128
0.0961253
0.0929109
0.0899687
0.0873241
0.0850813
0.0831624
0.0814478
0.0797668
0.0779732
0.075914
0.0733531
0.0699892
0.065515
0.0598181
0.0527583
0.0450449
0.0365799
0.0782923
0.0786619
0.0841673
0.0917591
0.0987984
0.104302
0.107934
0.109619
0.109757
0.108727
0.10687
0.10449
0.101808
0.0990304
0.0963033
0.0937838
0.0915157
0.0896036
0.0879543
0.086418
0.0848045
0.0829676
0.080783
0.0780789
0.0746255
0.0701659
0.0645814
0.0577612
0.0502176
0.0418701
0.086215
0.0824763
0.0825294
0.0862777
0.0916457
0.0969127
0.101088
0.103817
0.105487
0.105973
0.105475
0.104247
0.1025
0.100495
0.098402
0.096421
0.0946168
0.09309
0.0917425
0.0904077
0.0888834
0.0870292
0.084744
0.0819128
0.0783752
0.0739342
0.0684864
0.0619441
0.0546924
0.0465756
0.0950956
0.0893887
0.0854411
0.0848497
0.0872
0.091037
0.0949636
0.0981402
0.100421
0.101824
0.102518
0.102476
0.101789
0.100674
0.0993276
0.0979788
0.09671
0.0956137
0.0945971
0.0934859
0.0920767
0.0902375
0.0878886
0.0849601
0.0813548
0.0769369
0.0716402
0.0654025
0.0584729
0.0506678
0.104667
0.098409
0.0919671
0.087664
0.0863132
0.0875318
0.0901564
0.0930451
0.0955704
0.0974683
0.0987139
0.0995896
0.0999097
0.0997377
0.0992035
0.0985525
0.0978727
0.0972462
0.0965868
0.0957224
0.0944567
0.0926696
0.0902996
0.0873136
0.083668
0.0792922
0.0741487
0.0681774
0.0615847
0.0541497
0.114596
0.107939
0.100556
0.0939781
0.0893513
0.0873097
0.0875759
0.0892065
0.091323
0.0933345
0.094953
0.0962025
0.0972236
0.0978917
0.0981717
0.0982445
0.0981842
0.0980565
0.0977794
0.0971865
0.0960955
0.0943985
0.0920536
0.0890562
0.0854148
0.0810854
0.0760675
0.0703484
0.0640883
0.0570795
0.124711
0.117802
0.11039
0.102651
0.0958145
0.0907934
0.0881087
0.0875296
0.0883605
0.0898536
0.0914602
0.0929239
0.0942033
0.0954303
0.0964108
0.0971764
0.0977357
0.0981193
0.0982437
0.0979497
0.0970639
0.0954955
0.0932215
0.0902673
0.0866517
0.082379
0.0774888
0.0720015
0.0660526
0.0594581
0.134876
0.127799
0.1204
0.112349
0.104477
0.0974617
0.0920929
0.0888211
0.0875327
0.087697
0.0886792
0.0899876
0.0913509
0.0927135
0.0941597
0.0955057
0.0966375
0.0975204
0.098052
0.0980726
0.0974243
0.096039
0.093882
0.0909959
0.0874364
0.0832433
0.0784873
0.0732145
0.0675494
0.061343
0.144987
0.137805
0.130386
0.122413
0.114257
0.106261
0.0990524
0.0933272
0.0895269
0.0876338
0.0872445
0.0878207
0.0889034
0.0902225
0.0917341
0.0934382
0.0950289
0.0963628
0.0972882
0.0976327
0.0972392
0.0960293
0.0940307
0.0912773
0.0878297
0.0837483
0.0791359
0.0740673
0.0686613
0.0628165
0.154946
0.147712
0.140334
0.132685
0.124534
0.116207
0.108038
0.100587
0.0945016
0.0902325
0.0878335
0.0869997
0.0872609
0.0881875
0.0895224
0.0912378
0.0930885
0.0947729
0.0960492
0.096712
0.0965856
0.0956077
0.0937789
0.0911772
0.0878758
0.0839561
0.0795398
0.0747339
0.0696094
0.06414
0.164641
0.157413
0.150135
0.142672
0.134774
0.126528
0.118063
0.109699
0.101988
0.0955689
0.0909043
0.0881058
0.0869355
0.0869735
0.0878144
0.089226
0.091045
0.0929104
0.0944516
0.0953987
0.0955412
0.0948092
0.0932069
0.0907986
0.0877053
0.084062
0.0799264
0.0753846
0.0705288
0.0653829
0.17395
0.166775
0.15964
0.152379
0.144808
0.136823
0.128431
0.119762
0.111161
0.103189
0.0964783
0.0915078
0.0884219
0.087028
0.0869292
0.0877534
0.0891964
0.0909848
0.092644
0.0938015
0.0941924
0.0937152
0.092367
0.0902735
0.0874928
0.084136
0.0802791
0.0760013
0.0714044
0.0665463
0.182722
0.175635
0.168671
0.161652
0.154451
0.146821
0.138701
0.130106
0.121195
0.112345
0.104133
0.0971968
0.0920206
0.0887715
0.0872533
0.0870988
0.0879022
0.0892922
0.0908318
0.0920713
0.0926604
0.0924755
0.091466
0.0896947
0.0872261
0.0841584
0.0805818
0.0765689
0.0722249
0.0676308
0.190797
0.183826
0.177066
0.17039
0.163571
0.156346
0.14861
0.140306
0.131467
0.122295
0.113204
0.104795
0.0977193
0.0924595
0.0891473
0.0875954
0.0874123
0.0881497
0.089337
0.0904872
0.0911975
0.0912393
0.0905233
0.0890657
0.0869015
0.0841231
0.0808251
0.077076
0.0729813
0.0686358
0.198041
0.191243
0.18475
0.178509
0.172075
0.165281
0.157991
0.150101
0.141568
0.132461
0.123026
0.113725
0.105198
0.0980883
0.0928384
0.0895612
0.0880206
0.0877919
0.0883652
0.0892203
0.0898922
0.0900637
0.0895772
0.0883976
0.0865258
0.0840328
0.0810079
0.0775189
0.0736684
0.0695583
0.204382
0.197854
0.191836
0.185914
0.179869
0.173526
0.166722
0.159324
0.151241
0.142454
0.133074
0.123402
0.113967
0.105406
0.098348
0.0932096
0.0900214
0.0884895
0.088149
0.0884492
0.0888801
0.0890397
0.0886903
0.0877317
0.0861233
0.0839004
0.0811375
0.0779015
0.0742893
0.070405
0.209833
0.203803
0.198093
0.192506
0.186869
0.180999
0.174723
0.167887
0.160362
0.152072
0.143031
0.133398
0.123559
0.114042
0.105522
0.0986167
0.0936449
0.0905385
0.0889652
0.0884158
0.0883528
0.0883093
0.0879649
0.0871417
0.0857446
0.083761
0.0812406
0.0782457
0.074863
0.0711941
0.214207
0.208554
0.203249
0.19811
0.192971
0.187666
0.182019
0.17586
0.169026
0.161392
0.152897
0.143594
0.133739
0.123724
0.114175
0.105782
0.0990727
0.0942377
0.0911536
0.0894391
0.0885858
0.088092
0.0875675
0.0867543
0.0854773
0.0836763
0.0813668
0.078593
0.075426
0.0719607
0.217498
0.21233
0.207491
0.202858
0.198372
0.193908
0.189195
0.183986
0.178058
0.171242
0.163416
0.15457
0.144842
0.134584
0.124344
0.114818
0.106566
0.0999819
0.0951833
0.0919933
0.0900095
0.0887521
0.0877824
0.0867551
0.085451
0.0837432
0.0815935
0.0790071
0.0760325
0.0727543
0.21994
0.215357
0.211083
0.20707
0.203421
0.199859
0.196101
0.191883
0.186962
0.181129
0.1742
0.166096
0.156836
0.146851
0.136521
0.12633
0.116843
0.108587
0.101937
0.0969625
0.093448
0.0910081
0.0892127
0.0876737
0.0860984
0.084293
0.0821617
0.0796663
0.076821
0.0736922
0.221833
0.218013
0.214495
0.211235
0.208215
0.205396
0.202515
0.199371
0.195753
0.191383
0.186
0.179405
0.171493
0.16247
0.152589
0.142214
0.131833
0.122036
0.113428
0.106329
0.100771
0.0965494
0.0933228
0.0907178
0.0884055
0.0861322
0.0837287
0.0810986
0.0782147
0.0751097
0.22451
0.22196
0.219708
0.217739
0.216045
0.214599
0.21327
0.21186
0.210126
0.207754
0.204414
0.199803
0.193699
0.186098
0.177212
0.167132
0.156163
0.144983
0.13431
0.1247
0.11645
0.109608
0.104011
0.0993879
0.095447
0.0919109
0.0885597
0.0852397
0.0818595
0.0784214
0.233874
0.233624
0.233616
0.233919
0.234618
0.235733
0.237165
0.238681
0.239983
0.240653
0.240255
0.238413
0.234795
0.229263
0.221924
0.212639
0.201382
0.188988
0.176206
0.163768
0.15218
0.141736
0.132507
0.124433
0.117365
0.111069
0.105332
0.0999884
0.0949142
0.090218
0.278333
0.28152
0.284511
0.288154
0.292867
0.298597
0.304854
0.311061
0.316789
0.321715
0.325133
0.32667
0.32601
0.323168
0.318011
0.310193
0.299184
0.286217
0.272144
0.257683
0.243351
0.229534
0.216491
0.204366
0.193241
0.182695
0.172668
0.163177
0.154279
0.146549
0.490233
0.49007
0.491119
0.496314
0.504115
0.512691
0.519431
0.524801
0.529198
0.533221
0.535229
0.53571
0.535018
0.533497
0.530422
0.525662
0.517368
0.508792
0.500213
0.492205
0.484685
0.477844
0.471671
0.466222
0.461584
0.454743
0.446838
0.438666
0.430966
0.424702
0.0879634
0.100292
0.10645
0.109354
0.10977
0.108274
0.105373
0.101539
0.0971616
0.0925607
0.087932
0.0834422
0.0792018
0.0753594
0.0718995
0.0688114
0.0660187
0.0636019
0.0617359
0.060559
0.0597701
0.0586461
0.0563943
0.0525029
0.0467969
0.0392916
0.0306908
0.0241576
0.0202498
0.0199746
0.151088
0.169761
0.172772
0.168768
0.161069
0.151587
0.141457
0.13137
0.121737
0.112801
0.104653
0.0974142
0.0910313
0.0856202
0.0810675
0.0772949
0.0741936
0.0719511
0.0707623
0.0707903
0.0716791
0.0726409
0.072683
0.0708091
0.0663607
0.0591484
0.0498784
0.0392466
0.0315607
0.0268351
0.183214
0.203655
0.207561
0.203488
0.19508
0.184409
0.172766
0.161
0.149636
0.139017
0.129298
0.120653
0.113107
0.106719
0.101429
0.0972162
0.093953
0.0918436
0.0909408
0.0912394
0.0922959
0.09339
0.0935991
0.0918417
0.0872789
0.0794841
0.0690447
0.0564296
0.0453837
0.0366148
0.200621
0.219885
0.223865
0.220433
0.212684
0.202459
0.191092
0.179413
0.167919
0.157032
0.146984
0.137991
0.130137
0.123528
0.118157
0.114047
0.111103
0.109504
0.109118
0.109719
0.110757
0.111591
0.111473
0.109445
0.104641
0.0965145
0.0855053
0.071755
0.0587155
0.0474404
0.207391
0.223358
0.227689
0.225288
0.218779
0.209678
0.199569
0.18902
0.17831
0.168016
0.158443
0.1498
0.142239
0.135932
0.130926
0.127291
0.124971
0.124097
0.124341
0.125284
0.126299
0.126811
0.126237
0.123826
0.1188
0.110568
0.0994317
0.085313
0.0712802
0.0584974
0.206532
0.218291
0.222164
0.220901
0.216175
0.209546
0.201022
0.191758
0.182278
0.173214
0.164741
0.156942
0.150124
0.144505
0.140186
0.137286
0.135787
0.135749
0.136651
0.137945
0.138956
0.139175
0.13815
0.135351
0.13014
0.121964
0.110971
0.097007
0.0826833
0.0691747
0.202238
0.206471
0.208225
0.207994
0.205763
0.201638
0.195719
0.188808
0.181528
0.174022
0.166784
0.160125
0.154431
0.149799
0.146403
0.144434
0.143896
0.144724
0.146293
0.147937
0.14897
0.148952
0.147533
0.144377
0.139026
0.131002
0.120333
0.106864
0.0927232
0.0790264
0.197378
0.193162
0.190978
0.190438
0.189624
0.187992
0.185136
0.181131
0.176127
0.170723
0.165275
0.160219
0.155735
0.152262
0.14997
0.149083
0.149571
0.151274
0.153496
0.155496
0.156593
0.15641
0.154683
0.151236
0.145789
0.13798
0.127758
0.114986
0.101348
0.0878106
0.19347
0.183367
0.17762
0.174947
0.173975
0.173348
0.172218
0.170218
0.167443
0.164325
0.160829
0.157456
0.154487
0.152345
0.151249
0.151529
0.153059
0.155625
0.158476
0.160837
0.162048
0.16179
0.159867
0.156223
0.150744
0.14319
0.133517
0.12158
0.108639
0.0954362
0.194671
0.180649
0.169805
0.163932
0.161102
0.16003
0.159528
0.158804
0.157585
0.155973
0.154268
0.152562
0.151155
0.150423
0.150565
0.152028
0.154595
0.158002
0.161448
0.164169
0.165551
0.165316
0.163317
0.1596
0.154176
0.146959
0.137799
0.126659
0.114502
0.101867
0.199935
0.18339
0.169236
0.158886
0.152925
0.150003
0.148776
0.148259
0.147844
0.147281
0.146704
0.146272
0.146292
0.146915
0.148236
0.150863
0.154421
0.158595
0.162616
0.165697
0.167317
0.167186
0.165244
0.161596
0.156323
0.149376
0.140729
0.130402
0.119098
0.107214
0.208992
0.190352
0.173754
0.160561
0.150976
0.144944
0.141767
0.140186
0.139518
0.13926
0.139314
0.139644
0.140562
0.142294
0.14467
0.148347
0.15279
0.157645
0.162211
0.165741
0.16759
0.167581
0.165728
0.162206
0.157156
0.150606
0.142524
0.133
0.122564
0.111512
0.221198
0.201162
0.182986
0.167543
0.155191
0.146203
0.140141
0.136293
0.134133
0.133157
0.133056
0.133618
0.134874
0.137164
0.140358
0.144852
0.150008
0.155419
0.160428
0.164335
0.166509
0.166717
0.165071
0.161711
0.156903
0.150758
0.14336
0.134659
0.125165
0.115046
0.236182
0.215787
0.196978
0.180048
0.165469
0.153624
0.144666
0.137879
0.133227
0.130451
0.129153
0.129136
0.130154
0.132287
0.1359
0.140845
0.146448
0.152234
0.15758
0.161795
0.164291
0.164801
0.163456
0.160452
0.155973
0.150285
0.143556
0.135797
0.127246
0.118007
0.253576
0.233707
0.215024
0.197455
0.181383
0.167235
0.155519
0.145633
0.137905
0.132417
0.129014
0.127396
0.127386
0.128885
0.132035
0.136914
0.142577
0.148476
0.153984
0.158408
0.161188
0.162048
0.161078
0.158517
0.154558
0.149508
0.143436
0.136452
0.128701
0.120244
0.272836
0.25455
0.236894
0.219321
0.202293
0.186401
0.17231
0.159528
0.148625
0.139955
0.133651
0.129611
0.127702
0.127823
0.129832
0.133811
0.138998
0.144631
0.150044
0.154525
0.157518
0.158749
0.158232
0.156277
0.152978
0.148471
0.142961
0.136559
0.129509
0.121788
0.293618
0.277356
0.261173
0.244201
0.226969
0.209983
0.193958
0.178814
0.165091
0.153282
0.143751
0.13669
0.13207
0.129963
0.130113
0.132456
0.136458
0.141329
0.14629
0.150615
0.153732
0.15539
0.155395
0.153929
0.151154
0.147201
0.142229
0.13634
0.129851
0.122779
0.314576
0.300412
0.285811
0.269856
0.253102
0.23597
0.218928
0.20224
0.186382
0.171901
0.159307
0.149011
0.141191
0.136143
0.133735
0.133798
0.1359
0.139392
0.143475
0.14739
0.150465
0.15228
0.152599
0.151558
0.149257
0.145832
0.141362
0.135949
0.129914
0.123385
0.334166
0.321822
0.309029
0.294749
0.279251
0.262803
0.245757
0.228427
0.211274
0.194849
0.17973
0.166446
0.155403
0.146935
0.141446
0.138593
0.138174
0.139678
0.14233
0.14532
0.147932
0.149637
0.150152
0.149419
0.14751
0.144539
0.140512
0.135529
0.129887
0.123788
0.351162
0.341006
0.330427
0.318302
0.304645
0.289553
0.273289
0.256149
0.23856
0.221042
0.20417
0.188489
0.174543
0.162891
0.153831
0.147626
0.144034
0.142933
0.143557
0.145039
0.146652
0.147934
0.148424
0.147823
0.146189
0.143541
0.139858
0.135232
0.129904
0.124162
0.36594
0.35804
0.349833
0.340126
0.328716
0.315526
0.300704
0.284527
0.267368
0.24968
0.23197
0.214729
0.198539
0.184084
0.171464
0.16166
0.154492
0.150115
0.147972
0.147303
0.147422
0.147813
0.147941
0.147227
0.145614
0.14308
0.139591
0.135203
0.130152
0.124705
0.378761
0.37312
0.367315
0.360169
0.351294
0.340465
0.327721
0.313314
0.297547
0.280761
0.263329
0.245612
0.228135
0.21158
0.196158
0.182477
0.171442
0.163079
0.157281
0.153569
0.151419
0.150285
0.149515
0.148302
0.146432
0.143722
0.140203
0.135891
0.130974
0.125716
0.390072
0.386693
0.383336
0.378903
0.372873
0.36493
0.355071
0.343506
0.330434
0.316011
0.30039
0.283701
0.266321
0.248758
0.231523
0.214755
0.199145
0.185787
0.175031
0.166909
0.161186
0.157371
0.154742
0.152284
0.149584
0.146375
0.142549
0.138063
0.133045
0.12781
0.4009
0.39994
0.399286
0.397967
0.39538
0.391249
0.385657
0.378749
0.37052
0.36082
0.349452
0.336199
0.321144
0.304433
0.286762
0.267501
0.246969
0.227225
0.209453
0.194528
0.182778
0.17399
0.167508
0.162177
0.157363
0.152662
0.147801
0.142629
0.137116
0.131589
0.413697
0.415801
0.418791
0.421883
0.424519
0.426707
0.428545
0.429961
0.430563
0.42969
0.426621
0.420627
0.411294
0.398272
0.382161
0.361907
0.33638
0.308179
0.280115
0.254251
0.231817
0.213288
0.198423
0.186265
0.176173
0.167496
0.159696
0.152403
0.145374
0.138915
0.435164
0.442422
0.451831
0.462991
0.475734
0.489909
0.505391
0.521556
0.537487
0.551645
0.562419
0.568524
0.568923
0.56318
0.55168
0.532523
0.503064
0.466178
0.42518
0.383515
0.34351
0.306982
0.274987
0.247751
0.225012
0.206125
0.190333
0.17695
0.165346
0.155949
0.488019
0.506683
0.529957
0.557322
0.588507
0.622747
0.659299
0.696757
0.733677
0.767086
0.794659
0.814853
0.826788
0.829621
0.823977
0.807499
0.776244
0.732903
0.680741
0.623751
0.564357
0.505282
0.448878
0.397038
0.350979
0.311045
0.277095
0.248559
0.224654
0.206857
0.64444
0.686182
0.731561
0.780483
0.832888
0.886739
0.941837
0.995932
1.04775
1.09155
1.1263
1.15148
1.16632
1.17109
1.16654
1.15007
1.12
1.07822
1.0266
0.967184
0.901256
0.831221
0.759181
0.687526
0.618844
0.555035
0.497369
0.446065
0.401101
0.368063
0.975615
1.01369
1.05976
1.11247
1.16656
1.21941
1.27434
1.32318
1.36428
1.39511
1.41577
1.42797
1.42884
1.42172
1.40682
1.38091
1.35022
1.3152
1.27793
1.23536
1.18813
1.13838
1.08678
1.03413
0.981132
0.928085
0.875409
0.823838
0.77417
0.736521
1.20713
1.20119
1.21614
1.24555
1.2801
1.31323
1.34216
1.36426
1.37974
1.38898
1.39179
1.38892
1.37938
1.36556
1.34299
1.30915
1.27812
1.24617
1.21606
1.18844
1.16436
1.14469
1.13063
1.12256
1.11937
1.11763
1.11587
1.11365
1.10868
1.09822
0.128107
0.14175
0.145365
0.146036
0.144438
0.140792
0.135576
0.129362
0.122641
0.115825
0.109155
0.1029
0.0971836
0.0921833
0.0878673
0.0843068
0.0814724
0.0798029
0.0801698
0.0829106
0.0865062
0.0886004
0.0876151
0.0829912
0.0749487
0.0639314
0.0509671
0.036603
0.0242821
0.0197852
0.213376
0.236995
0.240083
0.234581
0.22394
0.210795
0.196677
0.182538
0.168956
0.156271
0.144642
0.134292
0.125175
0.117371
0.110715
0.105272
0.100997
0.0987879
0.0998406
0.104676
0.111558
0.117601
0.120362
0.118393
0.111215
0.0991707
0.0835654
0.0652742
0.0488988
0.036141
0.25871
0.284867
0.290014
0.284713
0.273552
0.259213
0.243299
0.226954
0.210971
0.195851
0.181863
0.169339
0.158294
0.148877
0.141045
0.134864
0.130279
0.128296
0.129887
0.13535
0.142897
0.149693
0.153216
0.151786
0.144474
0.131422
0.113784
0.0923454
0.071983
0.0544926
0.288058
0.311092
0.31607
0.311392
0.301005
0.287257
0.27156
0.255058
0.238634
0.222862
0.208115
0.194795
0.183019
0.173021
0.164895
0.15876
0.154615
0.15336
0.155514
0.16111
0.168389
0.174808
0.17812
0.176721
0.1695
0.156306
0.138063
0.115371
0.0927783
0.0722094
0.307367
0.324295
0.32756
0.323172
0.313914
0.301548
0.287006
0.27143
0.255725
0.240387
0.225884
0.212673
0.20097
0.191098
0.183285
0.177714
0.174427
0.174098
0.176741
0.182151
0.188704
0.194202
0.196811
0.195133
0.188057
0.175224
0.157291
0.134596
0.111191
0.0888279
0.318663
0.327959
0.328809
0.324762
0.316659
0.305746
0.292568
0.278658
0.264575
0.250433
0.236896
0.224479
0.213454
0.204242
0.197191
0.192561
0.190408
0.191063
0.19412
0.199136
0.204708
0.209022
0.210675
0.208501
0.20153
0.189302
0.172187
0.150328
0.127137
0.104172
0.3244
0.325206
0.322499
0.317566
0.310662
0.301797
0.291584
0.279739
0.267144
0.254292
0.2423
0.231241
0.221366
0.213241
0.207299
0.203906
0.203071
0.204708
0.20811
0.212648
0.21714
0.220168
0.220745
0.217929
0.210982
0.199438
0.183439
0.162954
0.140682
0.11775
0.325406
0.317958
0.310452
0.30379
0.297745
0.290972
0.28311
0.274009
0.264002
0.25375
0.243427
0.233788
0.225377
0.218667
0.214108
0.212184
0.212752
0.215352
0.219049
0.223102
0.226533
0.228308
0.227773
0.224248
0.217253
0.206413
0.191701
0.172783
0.151777
0.129439
0.324491
0.307335
0.294162
0.285444
0.279735
0.274757
0.269413
0.263348
0.256287
0.248484
0.240469
0.232784
0.226099
0.221026
0.218049
0.217736
0.219708
0.223239
0.227204
0.23081
0.23328
0.233927
0.232326
0.228094
0.221073
0.210764
0.197094
0.179834
0.160392
0.139215
0.321327
0.296744
0.279757
0.268637
0.261979
0.257592
0.253868
0.249897
0.24518
0.239919
0.234369
0.228879
0.224113
0.220808
0.219513
0.220832
0.224171
0.228575
0.232798
0.236029
0.237696
0.237372
0.234841
0.230061
0.222734
0.212828
0.200151
0.184508
0.166832
0.147334
0.319557
0.291812
0.270162
0.256015
0.247097
0.241902
0.238588
0.23588
0.23295
0.229634
0.226037
0.222755
0.21998
0.218512
0.218887
0.221754
0.226336
0.231559
0.236028
0.238995
0.240036
0.238903
0.23552
0.230014
0.222523
0.21295
0.201347
0.187297
0.17155
0.154001
0.321715
0.292837
0.268477
0.249604
0.237339
0.230124
0.225811
0.223181
0.221108
0.219129
0.217106
0.215301
0.214378
0.214658
0.216564
0.220832
0.226517
0.232379
0.2371
0.239937
0.24049
0.238679
0.234742
0.228891
0.221359
0.212133
0.20128
0.188859
0.17511
0.159383
0.327287
0.29806
0.272403
0.251272
0.235376
0.2244
0.217704
0.213863
0.211415
0.209854
0.208728
0.208004
0.208138
0.209844
0.213051
0.218456
0.224953
0.231311
0.236253
0.239076
0.239303
0.237135
0.232909
0.22694
0.219503
0.210729
0.200787
0.18977
0.177567
0.163404
0.336645
0.307718
0.281386
0.258407
0.239918
0.22611
0.216354
0.209903
0.205684
0.203471
0.202291
0.201947
0.202619
0.204897
0.208977
0.215122
0.222098
0.228723
0.233818
0.236638
0.236718
0.234414
0.230139
0.224309
0.217206
0.209138
0.200015
0.189855
0.17888
0.166145
0.349852
0.321627
0.295329
0.271475
0.251042
0.234455
0.22167
0.212292
0.205862
0.20167
0.199299
0.198366
0.198835
0.200886
0.205129
0.211465
0.21849
0.225083
0.230165
0.232971
0.233042
0.230806
0.22673
0.221344
0.214889
0.20738
0.198912
0.189479
0.179414
0.167887
0.366532
0.339834
0.314551
0.290568
0.268864
0.250015
0.234342
0.221813
0.212306
0.205479
0.201017
0.198561
0.197917
0.199103
0.20242
0.208292
0.214834
0.221002
0.225828
0.228547
0.228718
0.226767
0.223234
0.218338
0.212424
0.20548
0.197623
0.188835
0.179437
0.168917
0.386675
0.361952
0.338133
0.314662
0.292402
0.27196
0.253855
0.238355
0.225639
0.215696
0.208425
0.203596
0.201013
0.200529
0.202296
0.206624
0.212042
0.217295
0.221558
0.224051
0.224469
0.222876
0.219733
0.215332
0.209965
0.203585
0.196295
0.18809
0.179271
0.169508
0.409188
0.386718
0.36473
0.342322
0.320199
0.298911
0.279056
0.261104
0.24546
0.232379
0.221999
0.214263
0.209069
0.206268
0.205813
0.207839
0.211294
0.215087
0.218438
0.220571
0.22088
0.219464
0.216638
0.212674
0.207796
0.201898
0.195093
0.187388
0.179052
0.169873
0.432632
0.412646
0.392804
0.371956
0.350622
0.329257
0.30846
0.28881
0.270866
0.255071
0.241761
0.231037
0.222937
0.21736
0.214276
0.213565
0.214512
0.216235
0.218009
0.219089
0.218865
0.217337
0.214616
0.210887
0.206249
0.200664
0.194202
0.186876
0.178905
0.170189
0.45563
0.438317
0.420886
0.402039
0.382112
0.361449
0.340606
0.320197
0.300871
0.28319
0.267619
0.254358
0.243572
0.23522
0.229394
0.22572
0.223667
0.222659
0.222083
0.22133
0.219854
0.217485
0.214308
0.210374
0.205654
0.200143
0.19382
0.186697
0.178944
0.170605
0.477201
0.462651
0.447825
0.431383
0.413484
0.394353
0.374477
0.354467
0.335
0.316682
0.300036
0.285284
0.272677
0.262187
0.254029
0.247566
0.242214
0.237715
0.233728
0.229975
0.226128
0.222045
0.217659
0.212879
0.207531
0.201427
0.194679
0.187383
0.179608
0.171431
0.496969
0.485198
0.473141
0.459535
0.444379
0.427773
0.410127
0.39202
0.374109
0.356966
0.341096
0.326662
0.313942
0.302846
0.293601
0.285172
0.276566
0.267749
0.25886
0.250258
0.242116
0.234477
0.22726
0.22029
0.21329
0.205989
0.198263
0.190114
0.18168
0.173224
0.515399
0.506488
0.497523
0.487413
0.476015
0.46333
0.449691
0.435632
0.421737
0.408483
0.39624
0.385043
0.375151
0.366272
0.358441
0.349929
0.338729
0.324812
0.308957
0.292573
0.276753
0.262119
0.24893
0.237081
0.226223
0.215963
0.206012
0.196186
0.18645
0.177158
0.534581
0.528968
0.523908
0.518546
0.512643
0.506144
0.49933
0.492641
0.486516
0.48127
0.476997
0.473484
0.470881
0.468518
0.466019
0.460404
0.448032
0.42868
0.403697
0.375606
0.347021
0.319707
0.294861
0.272963
0.253829
0.237014
0.222054
0.208524
0.196044
0.184833
0.559946
0.558949
0.559777
0.561855
0.564772
0.568431
0.573037
0.57881
0.585933
0.594369
0.603684
0.613193
0.622931
0.631609
0.63837
0.638082
0.625883
0.601379
0.566133
0.523642
0.477771
0.431417
0.387226
0.347246
0.312238
0.282205
0.256724
0.23513
0.21664
0.201618
0.604917
0.612421
0.623878
0.638704
0.656166
0.67608
0.698324
0.722599
0.748543
0.775536
0.802287
0.827615
0.851523
0.872038
0.888002
0.891777
0.878883
0.849588
0.805643
0.75057
0.688212
0.621369
0.553534
0.488886
0.429876
0.377923
0.33365
0.296641
0.265955
0.243059
0.704597
0.729025
0.759228
0.793261
0.830512
0.871069
0.913838
0.957866
1.00212
1.04533
1.08561
1.12159
1.15323
1.17793
1.1945
1.19423
1.1755
1.14087
1.09273
1.03342
0.964768
0.887859
0.80509
0.721551
0.639912
0.563606
0.496079
0.437607
0.388023
0.352463
0.92643
0.968809
1.01672
1.06911
1.12353
1.17759
1.23133
1.2834
1.33232
1.3765
1.41442
1.44363
1.46345
1.47206
1.46979
1.44747
1.41307
1.37056
1.32406
1.27369
1.21914
1.16086
1.09517
1.02195
0.944637
0.865574
0.790617
0.720777
0.657765
0.61239
1.26853
1.29662
1.33664
1.38554
1.43807
1.48943
1.53681
1.57721
1.60961
1.63357
1.64935
1.65605
1.65283
1.63827
1.61112
1.56286
1.51212
1.46063
1.4136
1.37054
1.33146
1.29624
1.26452
1.23798
1.21413
1.18959
1.1558
1.11811
1.07799
1.04506
1.41738
1.42126
1.44292
1.47728
1.5168
1.55485
1.58727
1.61133
1.62645
1.63267
1.63052
1.6193
1.5983
1.56565
1.51823
1.4532
1.39255
1.33607
1.28883
1.25146
1.22521
1.20932
1.20418
1.21099
1.2273
1.24855
1.27185
1.29325
1.30782
1.31316
0.167124
0.183057
0.184505
0.181775
0.177749
0.17189
0.164431
0.155935
0.146952
0.137979
0.129317
0.121286
0.113942
0.107554
0.102101
0.0978037
0.0948045
0.094647
0.100093
0.111027
0.122156
0.128413
0.128115
0.12173
0.110535
0.0955878
0.0781826
0.0590714
0.0424392
0.0294232
0.277842
0.305508
0.305002
0.296494
0.282626
0.265985
0.248162
0.23032
0.213122
0.196989
0.182125
0.168763
0.156775
0.146324
0.137222
0.129715
0.124219
0.123982
0.13247
0.149483
0.168184
0.181637
0.186538
0.182411
0.170417
0.152056
0.129136
0.102707
0.0783793
0.0585413
0.33916
0.367556
0.36893
0.36096
0.346543
0.328547
0.308676
0.288234
0.268111
0.24893
0.231049
0.214806
0.200181
0.187463
0.17667
0.168075
0.16216
0.162404
0.172145
0.190737
0.211241
0.226552
0.233033
0.229819
0.21759
0.197712
0.171994
0.14126
0.111347
0.0853978
0.380923
0.403374
0.404737
0.397244
0.38353
0.366073
0.346406
0.325713
0.304935
0.284806
0.265819
0.248387
0.232647
0.218982
0.207669
0.199023
0.193676
0.194785
0.204905
0.223052
0.242828
0.25774
0.264353
0.261681
0.249981
0.230333
0.204147
0.172067
0.139383
0.109685
0.410356
0.424134
0.423715
0.41615
0.403395
0.387258
0.368889
0.349207
0.329061
0.309262
0.290365
0.272844
0.256999
0.243314
0.232301
0.224317
0.220072
0.222133
0.232109
0.248677
0.266398
0.279634
0.285446
0.282857
0.271883
0.25326
0.227991
0.196425
0.163004
0.131064
0.430227
0.434319
0.430628
0.422523
0.41056
0.39616
0.379827
0.361997
0.343365
0.324842
0.306903
0.290126
0.274957
0.261975
0.251904
0.245135
0.242347
0.245353
0.254856
0.269261
0.284175
0.294993
0.299374
0.296419
0.286081
0.268819
0.245222
0.215369
0.182718
0.149636
0.44223
0.437174
0.430202
0.420762
0.410063
0.397314
0.382714
0.366394
0.349577
0.333107
0.316791
0.301443
0.287578
0.275903
0.267299
0.2622
0.261104
0.265008
0.273811
0.285818
0.297576
0.305591
0.308131
0.304449
0.294555
0.278775
0.257248
0.229586
0.19844
0.165421
0.4481
0.435193
0.42215
0.41048
0.40004
0.389285
0.377445
0.364576
0.350473
0.335694
0.321011
0.307688
0.295632
0.28576
0.279054
0.275994
0.276686
0.281391
0.289365
0.298922
0.307493
0.312601
0.31307
0.308449
0.298753
0.283882
0.26408
0.238941
0.210119
0.178542
0.451148
0.428676
0.409512
0.395011
0.384386
0.375351
0.366241
0.356164
0.344991
0.333063
0.321307
0.30977
0.299807
0.292085
0.287619
0.286847
0.289307
0.294663
0.301735
0.308908
0.314487
0.316835
0.315185
0.309077
0.298907
0.284785
0.266864
0.244397
0.218528
0.189325
0.451865
0.41972
0.394172
0.376921
0.365816
0.357872
0.350877
0.343462
0.335243
0.326361
0.317269
0.308296
0.300737
0.295413
0.293396
0.294999
0.299128
0.304942
0.311062
0.315966
0.318979
0.318825
0.314937
0.307805
0.297391
0.283689
0.266935
0.247209
0.224697
0.198048
0.449529
0.41051
0.380344
0.360349
0.347867
0.340017
0.334281
0.328911
0.323112
0.316765
0.310374
0.304118
0.29909
0.296275
0.296774
0.300658
0.306291
0.312336
0.317503
0.320579
0.321313
0.318765
0.313396
0.3054
0.294825
0.281615
0.266117
0.248778
0.228812
0.204445
0.446346
0.404477
0.371172
0.347643
0.332985
0.324128
0.318517
0.314272
0.310227
0.305984
0.301784
0.297983
0.295546
0.295231
0.298148
0.304093
0.310921
0.317014
0.321281
0.322889
0.321651
0.317441
0.310847
0.302274
0.291701
0.279149
0.265076
0.24917
0.231055
0.208835
0.446563
0.404233
0.368963
0.341664
0.323362
0.312489
0.305707
0.301466
0.298233
0.295382
0.292934
0.29103
0.290899
0.292828
0.297956
0.305624
0.313261
0.319193
0.322674
0.32307
0.320396
0.314979
0.307581
0.298757
0.288541
0.276919
0.263735
0.24877
0.23207
0.21171
0.4495
0.407726
0.372113
0.343325
0.321944
0.307062
0.297784
0.29244
0.288873
0.286516
0.28513
0.284646
0.285977
0.289776
0.296745
0.305721
0.313724
0.319379
0.322091
0.321505
0.31786
0.31174
0.30405
0.295517
0.285864
0.27472
0.262162
0.247988
0.232301
0.213499
0.456015
0.41556
0.380199
0.350333
0.326661
0.309161
0.297072
0.288969
0.28382
0.280939
0.279735
0.279924
0.282141
0.286951
0.295228
0.30496
0.312919
0.318038
0.32006
0.318786
0.31464
0.308367
0.301095
0.292824
0.283359
0.272595
0.260543
0.247018
0.232124
0.214558
0.466509
0.427934
0.393305
0.36276
0.337402
0.317387
0.302409
0.291685
0.284544
0.28009
0.278095
0.278024
0.280477
0.285549
0.294327
0.304241
0.311743
0.316136
0.317484
0.315848
0.311772
0.305946
0.298787
0.290548
0.281213
0.270712
0.259027
0.246008
0.231748
0.21516
0.480989
0.444605
0.411461
0.381287
0.354913
0.33276
0.314982
0.301333
0.291474
0.284855
0.281271
0.280173
0.282116
0.286924
0.29517
0.304766
0.311457
0.314946
0.315768
0.314237
0.3103
0.304417
0.297157
0.288913
0.279617
0.26923
0.257756
0.245083
0.23129
0.215483
0.498931
0.465387
0.434301
0.404996
0.378229
0.354532
0.334361
0.317888
0.305148
0.29594
0.29022
0.28755
0.28833
0.292319
0.299776
0.308232
0.313847
0.316389
0.317054
0.315211
0.310515
0.304026
0.296431
0.288153
0.278762
0.268321
0.256866
0.244365
0.230868
0.215677
0.51963
0.48925
0.460448
0.432467
0.405962