/*--------------------------------*- C++ -*----------------------------------*\
  =========                 |
  \\      /  F ield         | OpenFOAM: The Open Source CFD Toolbox
   \\    /   O peration     | Website:  https://openfoam.org
    \\  /    A nd           | Version:  12
     \\/     M anipulation  |
\*---------------------------------------------------------------------------*/
FoamFile
{
    format      ascii;
    class       volScalarField;
    location    "1800/air";
    object      nut;
}
// * * * * * * * * * * * * * * * * * * * * * * * * * * * * * * * * * * * * * //

dimensions      [0 2 -1 0 0 0 0];

internalField   nonuniform List<scalar> 
243000
(
0.000117213
0.000122273
0.000123766
0.000123125
0.000121035
0.000117965
0.000114294
0.000110321
0.000106264
0.000102295
9.85164e-05
9.49954e-05
9.17825e-05
8.89441e-05
8.64674e-05
8.43141e-05
8.24127e-05
8.07318e-05
7.92566e-05
7.7977e-05
7.68575e-05
7.57899e-05
7.56154e-05
7.46548e-05
0.000327441
0.00032245
0.000304438
0.000266549
0.000207015
0.000188337
0.000434193
0.000452528
0.000450928
0.000439553
0.000423752
0.000406088
0.000387893
0.000370015
0.000352989
0.00033715
0.000322669
0.000309677
0.00029823
0.000288401
0.000280156
0.000273403
0.000267984
0.000263938
0.000261244
0.000259967
0.00026001
0.000261011
0.000260807
0.000261436
0.000263297
0.000256752
0.000248098
0.000231619
0.000209651
0.000187917
0.000530243
0.000587068
0.000613256
0.000622661
0.000623141
0.000618039
0.000609332
0.000598353
0.000585968
0.000572818
0.00055929
0.000545761
0.000532469
0.000519677
0.00050751
0.000496025
0.000485161
0.000475222
0.00046624
0.000458316
0.000451283
0.000444655
0.000437413
0.000428284
0.000415567
0.000396849
0.000372115
0.000338559
0.000300647
0.000257003
0.000521682
0.00058026
0.000614874
0.000632293
0.000638441
0.000636981
0.000630788
0.000621565
0.000610405
0.000598107
0.000585195
0.000572124
0.00055918
0.000546683
0.000534829
0.000523746
0.000513427
0.000504222
0.000496089
0.000488965
0.000482541
0.000476331
0.000469538
0.000460802
0.000448451
0.000430695
0.000406858
0.000374693
0.000337958
0.000293898
0.000507556
0.000555827
0.000595491
0.000620668
0.000634008
0.0006385
0.000636878
0.000631225
0.000622815
0.000612659
0.000601456
0.000589751
0.000577909
0.00056634
0.000555322
0.000545069
0.000535634
0.000527386
0.000520199
0.000513845
0.000507871
0.000501795
0.000494965
0.000486269
0.000474275
0.000457406
0.00043481
0.000404732
0.000369866
0.000327893
0.00050352
0.000529024
0.000563346
0.000593643
0.000614416
0.000626052
0.000630523
0.000629818
0.000625331
0.000618375
0.000609815
0.000600242
0.000590145
0.000580038
0.000570279
0.000561195
0.000552898
0.000545756
0.000539558
0.000533944
0.000528366
0.000522337
0.00051533
0.000506498
0.000494685
0.000478552
0.000457217
0.000429324
0.00039664
0.000357389
0.000524183
0.000525134
0.000542862
0.00056657
0.000587801
0.000603887
0.00061433
0.00061914
0.000619575
0.000616707
0.000611459
0.000604654
0.000596877
0.000588708
0.000580572
0.00057295
0.000565995
0.000560057
0.000554873
0.000549987
0.000544793
0.000538812
0.000531612
0.000522576
0.000510827
0.000495271
0.000475098
0.000449252
0.000418836
0.000382396
0.000550034
0.000537909
0.000537816
0.000549608
0.000566248
0.000582172
0.000594543
0.000602486
0.00060734
0.00060878
0.000607395
0.000603891
0.000598857
0.00059301
0.000586836
0.000580927
0.000575486
0.000570834
0.000566686
0.000562533
0.000557741
0.00055185
0.000544503
0.000535271
0.000523525
0.000508419
0.000489275
0.000465264
0.000437132
0.000403345
0.000577621
0.000560066
0.000547443
0.000545308
0.000552553
0.000564382
0.000576316
0.000585817
0.000592579
0.0005967
0.000598765
0.000598687
0.000596728
0.000593496
0.000589557
0.000585575
0.000581797
0.000578505
0.000575424
0.000572024
0.000567673
0.000561937
0.000554527
0.000545155
0.000533405
0.000518664
0.000500439
0.000478103
0.000452017
0.000420722
0.000605936
0.000587585
0.000568036
0.000554485
0.000549986
0.000553619
0.000561674
0.000570485
0.000578121
0.000583811
0.000587542
0.000590158
0.000591147
0.000590688
0.000589152
0.000587257
0.00058526
0.000583406
0.000581433
0.000578821
0.000574964
0.000569468
0.000562096
0.000552673
0.000540958
0.000526567
0.00050915
0.000488166
0.000463916
0.000434966
0.000633973
0.000615323
0.000593957
0.000574203
0.000559788
0.000553164
0.000553784
0.000558737
0.00056521
0.000571337
0.00057625
0.000580031
0.000583115
0.000585156
0.000586041
0.000586305
0.000586164
0.000585812
0.000584999
0.000583225
0.000579931
0.000574763
0.000567543
0.00055818
0.000546598
0.000532513
0.000515721
0.000495904
0.000473279
0.000446604
0.000661313
0.000642766
0.000622285
0.000600118
0.000579784
0.000564292
0.000555707
0.000553672
0.000556118
0.000560674
0.000565596
0.000570077
0.000573988
0.000577726
0.000580726
0.000583075
0.000584795
0.000585977
0.000586372
0.000585504
0.000582846
0.000578101
0.000571146
0.000561982
0.000550565
0.000536769
0.000520542
0.000501723
0.000480503
0.00045584
0.00068769
0.00066943
0.000649804
0.000627764
0.000605421
0.000584741
0.000568324
0.000557975
0.000553719
0.000554063
0.00055703
0.00056105
0.000565253
0.000569437
0.000573882
0.00057801
0.000581471
0.000584162
0.000585783
0.000585862
0.000583927
0.00057975
0.000573179
0.000564265
0.000553075
0.000539604
0.000523912
0.000505959
0.000485943
0.000463035
0.000712955
0.000695091
0.000676152
0.000655206
0.000633068
0.000610566
0.000589498
0.000572136
0.000560217
0.000554075
0.000552667
0.000554359
0.000557687
0.000561767
0.000566439
0.0005717
0.000576585
0.000580661
0.000583479
0.000584537
0.000583369
0.000579725
0.000573646
0.000565157
0.000554341
0.000541264
0.000526101
0.000508926
0.000489954
0.000468591
0.00073699
0.000719593
0.000701415
0.000682082
0.000660856
0.000638446
0.000615654
0.000594058
0.000575744
0.000562449
0.00055474
0.000551926
0.000552621
0.000555461
0.000559606
0.000564929
0.000570653
0.000575831
0.000579734
0.000581763
0.000581401
0.000578455
0.000572887
0.000564863
0.000554512
0.000541963
0.00052748
0.000511253
0.000493369
0.000473545
0.000759653
0.000742798
0.00072544
0.000707213
0.000687411
0.000666118
0.000643526
0.000620377
0.000598195
0.000579007
0.000564566
0.00055563
0.000551753
0.000551738
0.000554311
0.000558705
0.00056436
0.000570134
0.000574878
0.000577787
0.000578244
0.000576036
0.000571146
0.000563705
0.000554001
0.00054234
0.000528797
0.000513515
0.000496659
0.000478154
0.000780792
0.000764522
0.000748001
0.000730814
0.00071247
0.000692607
0.000671109
0.000648149
0.000624512
0.000601725
0.000581776
0.00056646
0.000556651
0.000552072
0.000551623
0.000554146
0.000558641
0.000564204
0.000569346
0.000572922
0.000574143
0.000572704
0.000568579
0.000562093
0.000553354
0.000542611
0.000529998
0.000515649
0.000499773
0.000482431
0.000800194
0.00078452
0.000768819
0.000752671
0.000735749
0.000717396
0.000697349
0.000675484
0.000652035
0.000627854
0.000604493
0.000583959
0.000568064
0.00055777
0.000552808
0.000552185
0.000554643
0.000558972
0.000563762
0.000567614
0.000569457
0.00056891
0.000565809
0.000560305
0.000552532
0.000542714
0.00053103
0.000517608
0.000502675
0.000486387
0.000817643
0.000802564
0.000787672
0.000772697
0.000757105
0.000740237
0.000721755
0.000701383
0.000679031
0.000655018
0.000630278
0.000606438
0.000585545
0.000569431
0.000558963
0.000553909
0.000553202
0.000555452
0.000559145
0.000562731
0.000564954
0.000565104
0.000562896
0.000558352
0.000551524
0.000542625
0.000531862
0.000519353
0.000505338
0.000490028
0.000832981
0.000818553
0.00080454
0.000790844
0.000776484
0.000761038
0.000744122
0.000725381
0.000704555
0.000681627
0.000657011
0.000631761
0.000607626
0.000586664
0.000570605
0.000560268
0.000555268
0.000554427
0.000556162
0.000558817
0.000560918
0.000561465
0.00055996
0.000556269
0.00055035
0.000542357
0.000532491
0.000520876
0.000507747
0.000493349
0.000846171
0.000832544
0.000819785
0.00080704
0.00079383
0.00077974
0.000764349
0.000747269
0.000728154
0.000706794
0.000683248
0.000658058
0.000632471
0.000608251
0.000587449
0.000571749
0.000561715
0.000556762
0.00055558
0.000556461
0.00055779
0.000558289
0.000557199
0.000554188
0.000549087
0.000541952
0.000532943
0.00052219
0.000509917
0.00049638
0.000857346
0.000844932
0.000833007
0.000821182
0.000809085
0.000796307
0.000782425
0.000767028
0.000749726
0.000730196
0.000708277
0.000684135
0.000658527
0.000632717
0.000608607
0.000588257
0.000573086
0.000563335
0.000558277
0.000556451
0.000556195
0.000556035
0.000554944
0.000552344
0.000547901
0.000541525
0.000533308
0.000523373
0.000511916
0.000499191
0.000866194
0.00085468
0.000843737
0.00083301
0.000822151
0.000810802
0.000798555
0.000784988
0.000769665
0.000752193
0.000732243
0.00070975
0.000685088
0.000659037
0.000633129
0.000609374
0.000589622
0.000574903
0.00056526
0.000559789
0.000557021
0.000555414
0.000553731
0.000551148
0.000547074
0.000541276
0.000533749
0.000524563
0.000513871
0.000501908
0.000872789
0.000862351
0.000852466
0.000842899
0.000833558
0.000824166
0.000814144
0.000802926
0.000789972
0.000774812
0.000757025
0.000736394
0.000712992
0.000687404
0.00066077
0.000634952
0.000611648
0.000592331
0.000577793
0.000567882
0.000561605
0.000557586
0.000554482
0.000551198
0.000547026
0.000541525
0.000534523
0.000525974
0.000515966
0.000504704
0.000877643
0.000868445
0.000859783
0.000851586
0.000844076
0.000836695
0.000828848
0.000819957
0.000809464
0.000796847
0.000781588
0.000763342
0.000741916
0.000718002
0.000692361
0.000666058
0.000640549
0.000617437
0.000598111
0.000583194
0.000572392
0.000564759
0.000559081
0.000554186
0.000549153
0.000543347
0.000536422
0.000528202
0.000518671
0.000507984
0.000881382
0.000873756
0.000866676
0.000860072
0.00085392
0.000848168
0.00084226
0.000835743
0.000828198
0.000818998
0.000807521
0.000793218
0.000775686
0.00075513
0.000731914
0.000706674
0.000680433
0.000654647
0.000631068
0.000610889
0.00059458
0.000581867
0.000571957
0.000563839
0.000556551
0.000549312
0.000541569
0.000532976
0.000523397
0.000512886
0.00088665
0.000881597
0.000877112
0.000873178
0.000869791
0.000866909
0.000864268
0.00086146
0.000857999
0.000853234
0.000846461
0.000836994
0.000824256
0.00080806
0.000788656
0.000766002
0.000740515
0.000713549
0.00068677
0.000661681
0.000639324
0.000620146
0.000603992
0.00059032
0.000578419
0.000567544
0.000557057
0.000546482
0.00053551
0.000524119
0.000904908
0.000904424
0.000904415
0.000905011
0.000906383
0.000908562
0.000911361
0.000914322
0.00091688
0.000918245
0.000917586
0.00091418
0.000907347
0.000896721
0.000882364
0.000863812
0.000840726
0.000814505
0.000786505
0.000758225
0.00073086
0.000705261
0.000681826
0.000660636
0.000641514
0.000623999
0.000607609
0.000591948
0.000576693
0.000562208
0.000987164
0.000992817
0.000998093
0.00100448
0.00101268
0.00102256
0.00103325
0.00104376
0.00105338
0.00106161
0.00106732
0.00106993
0.00106894
0.00106436
0.00105591
0.00104292
0.0010243
0.00100191
0.000976997
0.000950689
0.000923851
0.000897198
0.000871277
0.000846462
0.000823034
0.000800201
0.00077788
0.000756157
0.000735208
0.000716514
0.00131026
0.00131006
0.00131145
0.00131835
0.00132867
0.00133994
0.00134874
0.00135571
0.00136141
0.00136661
0.00136925
0.00136991
0.00136906
0.00136714
0.00136322
0.0013571
0.00134637
0.00133517
0.00132386
0.0013132
0.00130311
0.00129385
0.00128543
0.00127794
0.00127153
0.00126205
0.00125102
0.00123951
0.00122856
0.00121958
0.000156467
0.000160858
0.000159688
0.000156137
0.000151127
0.000145255
0.000138962
0.000132598
0.000126419
0.000120624
0.000115314
0.000110565
0.000106422
0.000102967
0.000100163
9.79896e-05
9.63776e-05
9.53697e-05
9.50992e-05
9.56835e-05
9.69037e-05
9.81734e-05
9.87086e-05
9.79636e-05
9.54497e-05
9.03213e-05
8.26065e-05
7.33977e-05
6.35921e-05
0.000311408
0.000671133
0.000756436
0.000739365
0.00068483
0.000620239
0.00055767
0.000501919
0.000453959
0.000413353
0.000379199
0.000350174
0.000325988
0.000305878
0.000289478
0.000275767
0.000264257
0.000253978
0.000245447
0.000238573
0.000234138
0.000232984
0.000235778
0.000241463
0.000246823
0.000247902
0.000242092
0.00023063
0.000215399
0.000222068
0.000296695
0.00105438
0.00120567
0.00121917
0.00116766
0.00108936
0.00100288
0.000919074
0.000843004
0.000776126
0.000718462
0.000668733
0.000626767
0.000591691
0.000562868
0.000538832
0.000518244
0.000498912
0.00048113
0.000462967
0.000444954
0.000430223
0.00042271
0.00042275
0.0004251
0.000424024
0.000413079
0.000391598
0.00035996
0.000342
0.000356658
0.00130808
0.00148762
0.00152492
0.00149177
0.00142238
0.00133531
0.00124518
0.00115953
0.0010811
0.00101157
0.000950766
0.000898903
0.000855309
0.000819778
0.00079092
0.000766495
0.00074343
0.000721173
0.000695201
0.000665205
0.000635722
0.000613985
0.000602829
0.000597723
0.000590421
0.000573295
0.000543748
0.000499248
0.000459646
0.000444139
0.00145464
0.00163298
0.00169586
0.00168585
0.00163331
0.00155529
0.00147257
0.00139098
0.00131176
0.00123978
0.00117626
0.00112132
0.00107505
0.00103792
0.00100867
0.000984776
0.000962585
0.000939969
0.000910428
0.000872231
0.000830798
0.00079572
0.000772483
0.000757631
0.000743119
0.00072005
0.000684591
0.000632429
0.000578958
0.000544528
0.00152514
0.00169211
0.0017668
0.00177798
0.0017469
0.00169569
0.00162355
0.00154698
0.00147198
0.00140529
0.00134658
0.00129404
0.00125009
0.00121555
0.00118952
0.00116939
0.00115138
0.00113134
0.0011004
0.00105714
0.00100746
0.000962041
0.000928115
0.000904424
0.00088202
0.000853458
0.000813374
0.000756837
0.000695714
0.00064908
0.0015694
0.00168761
0.00175089
0.00177525
0.00176914
0.00174067
0.00169222
0.00163534
0.00157843
0.00152069
0.00146737
0.00142044
0.00138361
0.00135525
0.00133541
0.00132171
0.0013104
0.0012947
0.00126463
0.00121883
0.0011643
0.00111183
0.00106868
0.00103641
0.00100796
0.000974108
0.00093045
0.000871854
0.000806507
0.000751264
0.00159915
0.00165468
0.00168871
0.00171023
0.00171633
0.00170971
0.00169017
0.00166093
0.00162304
0.00158288
0.00154357
0.00150939
0.0014802
0.00146023
0.00144902
0.00144426
0.00144116
0.00143116
0.00140446
0.00135907
0.00130226
0.00124449
0.00119416
0.00115418
0.00111981
0.00108286
0.00103642
0.0009773
0.000910496
0.000849388
0.00162179
0.00162845
0.00163238
0.0016372
0.00164196
0.00164387
0.00164025
0.00163049
0.00161576
0.00159896
0.00157822
0.00155887
0.00154291
0.00153422
0.00153328
0.0015394
0.00154551
0.00154243
0.00152048
0.00147777
0.0014208
0.00136049
0.00130507
0.00125874
0.0012187
0.00117884
0.00113284
0.00107439
0.00100786
0.000941889
0.00166603
0.00163701
0.0015986
0.00157774
0.00156861
0.00156754
0.00156999
0.00157239
0.0015735
0.001574
0.00157545
0.00157448
0.0015747
0.00157997
0.00159098
0.00160897
0.00162534
0.0016306
0.00161463
0.00157599
0.00152114
0.00146051
0.0014021
0.00135113
0.00130636
0.00126458
0.00121774
0.00116087
0.00109519
0.00102739
0.00172519
0.0016682
0.00160316
0.00154712
0.00151533
0.00150041
0.00149851
0.00150391
0.00151347
0.0015258
0.00154141
0.00155967
0.00157876
0.00160007
0.00162435
0.00165523
0.00168267
0.00169683
0.00168836
0.00165525
0.00160462
0.00154538
0.00148607
0.00143249
0.00138428
0.00133898
0.00129082
0.00123622
0.00117283
0.00110642
0.00180721
0.00172486
0.00163506
0.00155637
0.00149623
0.00145861
0.00144425
0.00144255
0.00145173
0.00146846
0.00149237
0.00152246
0.00155856
0.00159708
0.00163609
0.00168049
0.00171936
0.0017431
0.00174372
0.00171929
0.00167329
0.00161578
0.00155585
0.00150026
0.00144944
0.00140214
0.0013534
0.00130063
0.00124131
0.00117782
0.00190673
0.00180684
0.00170107
0.00160137
0.00151854
0.00145964
0.00142266
0.00140491
0.00140509
0.00141684
0.00144131
0.00147659
0.00152139
0.00157517
0.0016294
0.00168734
0.0017378
0.00177149
0.00178148
0.00176583
0.00172711
0.00167316
0.0016144
0.0015569
0.00150343
0.00145409
0.00140658
0.00135565
0.00130096
0.00124252
0.0020237
0.00191938
0.00180405
0.00168945
0.001587
0.00150452
0.00144496
0.00140562
0.00138574
0.00138566
0.00140176
0.00143459
0.00148092
0.00153973
0.0016083
0.00167893
0.00174058
0.00178426
0.00180428
0.00179782
0.00176721
0.00171871
0.00166266
0.00160653
0.00155154
0.0015007
0.00145309
0.00140548
0.00135549
0.00130184
0.00215927
0.0020561
0.00193911
0.0018174
0.00170146
0.00159941
0.00151713
0.00145344
0.00141055
0.00138959
0.00138965
0.00140982
0.00144931
0.00150647
0.00157826
0.00165937
0.00173085
0.00178402
0.00181387
0.00181689
0.001795
0.00175346
0.00170152
0.00164804
0.00159451
0.00154407
0.00149569
0.00144965
0.00140253
0.00135281
0.00230602
0.00221215
0.00210128
0.00197929
0.00185624
0.00174052
0.001639
0.00155211
0.00148425
0.00143827
0.00141532
0.00141592
0.00143966
0.00148619
0.00155247
0.00163461
0.00171274
0.00177383
0.00181254
0.00182497
0.00181223
0.00177903
0.0017328
0.00168373
0.00163352
0.00158272
0.00153332
0.00148601
0.00144066
0.00139413
0.00246066
0.0023801
0.00228032
0.00216428
0.00204114
0.00191856
0.00180335
0.00169805
0.0016076
0.00153624
0.00148694
0.00146222
0.00146281
0.00148994
0.00154129
0.00161358
0.00169151
0.00175753
0.00180323
0.00182463
0.00182149
0.00179813
0.00175906
0.00171322
0.00166507
0.00161552
0.00156608
0.00151741
0.00147203
0.00142744
0.00261492
0.00254953
0.00246384
0.00235885
0.00224219
0.0021204
0.00199909
0.00188219
0.0017745
0.00168098
0.00160581
0.00155314
0.00152542
0.00152577
0.00155401
0.00160741
0.00167436
0.00173951
0.00179004
0.00181944
0.00182569
0.00181021
0.00177714
0.00173527
0.00169005
0.00164293
0.00159428
0.00154491
0.00149843
0.00145463
0.00276104
0.00271059
0.00264142
0.00255225
0.00244797
0.00233349
0.00221357
0.00209213
0.00197369
0.00186328
0.00176567
0.00168591
0.00162816
0.00159677
0.00159547
0.00162132
0.00166909
0.0017243
0.00177368
0.00180749
0.00182086
0.00181326
0.00178753
0.00175065
0.00170938
0.00166548
0.00161826
0.00156897
0.00152164
0.00147766
0.00289262
0.00285808
0.00280695
0.00273625
0.00264831
0.00254608
0.0024333
0.00231332
0.00219014
0.00206842
0.00195297
0.00184914
0.00176229
0.00169895
0.00166289
0.00165618
0.00167534
0.0017132
0.00175527
0.00178835
0.00180617
0.00180699
0.00178966
0.00175919
0.00172331
0.00168309
0.00163769
0.00158946
0.00154175
0.00149785
0.00300859
0.0029886
0.00295481
0.00290288
0.00283286
0.00274563
0.0026434
0.00252884
0.0024051
0.0022762
0.00214675
0.00202222
0.0019089
0.00181516
0.00174359
0.00170181
0.00168852
0.0017011
0.00172861
0.00175782
0.00177893
0.00178683
0.00178003
0.00175864
0.0017287
0.0016927
0.00165041
0.00160483
0.00155922
0.00151675
0.00310681
0.00309806
0.00307861
0.00304322
0.00298982
0.00291721
0.00282583
0.00271739
0.00259405
0.00245921
0.00231751
0.00217484
0.00203838
0.00191774
0.00181539
0.00173897
0.00169313
0.00167644
0.00168375
0.00170413
0.00172667
0.00174333
0.00174899
0.00174056
0.00172112
0.00169178
0.00165705
0.00161769
0.00157653
0.00153648
0.00318029
0.00317778
0.00316761
0.00314385
0.00310234
0.0030399
0.00295548
0.00284964
0.00272373
0.00258114
0.00242747
0.00226956
0.00211534
0.00197395
0.00185076
0.0017481
0.00167129
0.00162496
0.00160777
0.00161343
0.00163298
0.00165716
0.00167747
0.00168673
0.00168428
0.00167079
0.00164855
0.001619
0.00158563
0.00155232
0.00321257
0.00320991
0.00320186
0.00318183
0.00314323
0.00308171
0.00299617
0.00288647
0.00275388
0.00260323
0.0024424
0.00227858
0.00211932
0.00197175
0.0018419
0.00172642
0.00162764
0.00155478
0.00150939
0.00149078
0.00149532
0.00151671
0.00154617
0.0015733
0.00159274
0.00160221
0.00160147
0.0015912
0.00157305
0.00155193
0.00317076
0.00315977
0.00314512
0.00311971
0.00307547
0.00300952
0.0029202
0.00280793
0.0026754
0.00252964
0.00237918
0.00223044
0.0020876
0.00195533
0.00183679
0.00172651
0.00162079
0.00152837
0.00145413
0.00140154
0.00137251
0.00136672
0.00138048
0.00140569
0.00143561
0.00146438
0.00148778
0.00150334
0.0015102
0.00151092
0.00299836
0.00297417
0.00294902
0.00291806
0.00287576
0.00281774
0.00274269
0.00265179
0.00254886
0.00243966
0.00232932
0.002221
0.0021145
0.00201342
0.00192137
0.00183072
0.00173334
0.0016361
0.00154339
0.00146024
0.0013907
0.00133845
0.00130551
0.00129109
0.00129282
0.00130682
0.00132845
0.00135317
0.00137708
0.00140017
0.00266589
0.00264942
0.00264143
0.00263811
0.0026322
0.00261769
0.0025913
0.00255313
0.0025057
0.00245116
0.00239161
0.00232855
0.00226235
0.00219336
0.00212705
0.00205928
0.0019789
0.00189109
0.00179892
0.00170661
0.00161691
0.00153331
0.0014589
0.00139622
0.00134694
0.00131133
0.00128866
0.0012773
0.0012752
0.00128719
0.00238648
0.00242958
0.00248422
0.00253942
0.00258359
0.00261307
0.00262714
0.00262702
0.00261599
0.00259229
0.00255952
0.00252013
0.00247451
0.00242499
0.00237575
0.00232453
0.00226415
0.00219734
0.00212585
0.00205121
0.0019747
0.00189837
0.0018232
0.00175044
0.00168168
0.0016181
0.00156081
0.00151022
0.00146715
0.00144809
0.00245729
0.00251661
0.00257967
0.00263943
0.00268649
0.00271739
0.00273588
0.00273912
0.00273071
0.00271224
0.00268656
0.00265544
0.00261643
0.00257742
0.00253819
0.00249616
0.0024533
0.00240787
0.00236341
0.00231943
0.00227718
0.00223796
0.00220114
0.00216596
0.00213137
0.00209612
0.0020603
0.00202488
0.00199107
0.00197637
0.00263212
0.00266925
0.00270492
0.00273811
0.00275873
0.00276762
0.00276821
0.00276073
0.00274686
0.00272831
0.00270605
0.00268022
0.00264923
0.00261969
0.00258874
0.00255953
0.00253445
0.00251072
0.00249072
0.00247628
0.00246849
0.00246759
0.00247248
0.00248146
0.00249216
0.00250131
0.00250874
0.002516
0.00252081
0.00251853
0.000188871
0.000191255
0.000186617
0.000180439
0.000173359
0.000165635
0.000157619
0.000149659
0.000142022
0.000134924
0.000128466
0.000122767
0.000117872
0.000113868
0.000110714
0.000108449
0.000107051
0.000106814
0.000108355
0.000111939
0.000116564
0.000120662
0.000123105
0.000123253
0.000120779
0.000115265
0.000106532
9.35288e-05
7.91237e-05
6.87416e-05
0.000880837
0.000986514
0.000979915
0.00092227
0.000842472
0.000762148
0.000689662
0.00062698
0.000573852
0.000529029
0.000490837
0.000459278
0.000432641
0.000410647
0.000391191
0.000373793
0.000356103
0.000341107
0.000330476
0.000327478
0.000333704
0.00034723
0.000363106
0.000374721
0.000375713
0.000361948
0.00033626
0.000300703
0.000269269
0.000242368
0.00140207
0.00161155
0.00164881
0.00159526
0.00150097
0.00139226
0.00128432
0.00118488
0.00109701
0.00102099
0.000955324
0.000900475
0.00085417
0.00081618
0.000783719
0.000754341
0.000722991
0.000692613
0.000661656
0.000636372
0.000625503
0.0006309
0.00064603
0.000659439
0.000656745
0.000634709
0.000590869
0.000527145
0.000463725
0.000416482
0.0017743
0.00202246
0.00209138
0.0020597
0.0019757
0.00186648
0.0017491
0.00163492
0.00153031
0.00143739
0.00135591
0.0012871
0.0012292
0.00118238
0.00114394
0.00111008
0.00107379
0.00103525
0.000989113
0.000943183
0.000910503
0.000899463
0.000905092
0.000914006
0.000908069
0.000878155
0.0008225
0.000740793
0.000653486
0.00058351
0.00204169
0.00229083
0.00237734
0.00236651
0.00229955
0.00220214
0.00208853
0.00197324
0.00186514
0.00176635
0.00167839
0.00160349
0.00154083
0.00149076
0.00145151
0.00141817
0.00138219
0.00133914
0.00128003
0.00121918
0.00116875
0.00113973
0.00113245
0.00113385
0.00112455
0.00109025
0.00102856
0.000937171
0.000835167
0.000745944
0.0022306
0.00245757
0.00255336
0.00256567
0.00251582
0.00243023
0.00232185
0.00221445
0.00211389
0.00201746
0.00193041
0.00185609
0.00179419
0.00174575
0.00170974
0.00168038
0.00164768
0.00160216
0.00153417
0.00145865
0.00139388
0.00134975
0.00132944
0.00132189
0.00130868
0.00127449
0.00121046
0.00111614
0.00100655
0.000903895
0.00237549
0.00255842
0.0026479
0.002667
0.00263513
0.00256917
0.00248945
0.00239394
0.00229607
0.00220039
0.00212055
0.00205289
0.00199622
0.00195374
0.00192422
0.00190161
0.00187373
0.00182698
0.00175238
0.001665
0.0015886
0.00153176
0.00149954
0.00148228
0.00146428
0.00143082
0.00137141
0.00127892
0.00116792
0.00105482
0.00247637
0.00261205
0.00267802
0.00269429
0.00267592
0.00262969
0.00256732
0.00249261
0.00241292
0.00233777
0.0022646
0.0022019
0.00215325
0.00211996
0.0020998
0.0020865
0.00206455
0.00201591
0.00193615
0.00184158
0.00175722
0.0016897
0.00164655
0.00161948
0.00159569
0.00156371
0.00151119
0.00142527
0.00131588
0.00119655
0.00256217
0.00262942
0.00265924
0.00266644
0.00265565
0.00262642
0.00258413
0.00253284
0.00247506
0.00241632
0.00235947
0.00230941
0.00227168
0.00224963
0.00224101
0.00223892
0.00222296
0.00217332
0.00209033
0.00199362
0.00190243
0.00182711
0.00177417
0.00173757
0.0017089
0.00167599
0.00162611
0.00154993
0.00144614
0.00132717
0.00262615
0.0026355
0.00263464
0.00262689
0.00261332
0.0025924
0.00256451
0.00253068
0.00249182
0.00245261
0.00241461
0.00238118
0.00235728
0.00234811
0.0023519
0.00236168
0.00235235
0.00230471
0.00222223
0.00212383
0.00202801
0.00194693
0.0018858
0.00184166
0.00180383
0.00176725
0.00171954
0.00165195
0.00155969
0.00144899
0.00269643
0.00266753
0.00262697
0.00259778
0.00257027
0.00254785
0.00252641
0.00250469
0.0024813
0.00245836
0.00243709
0.00242229
0.00241469
0.0024203
0.00243669
0.00245788
0.00245517
0.00241187
0.0023319
0.00223444
0.00213721
0.00205161
0.00198209
0.00192649
0.00188101
0.00183923
0.00179525
0.0017355
0.00165676
0.00155865
0.00277584
0.00272804
0.00266449
0.00259778
0.00254413
0.00251258
0.00248798
0.00247095
0.00245693
0.00244663
0.00243994
0.00243948
0.00244924
0.00247016
0.00249906
0.00253105
0.00253598
0.00249759
0.00242302
0.00232925
0.00223203
0.00214206
0.0020671
0.00200454
0.00195231
0.00190537
0.00185919
0.00180702
0.00174217
0.00165689
0.00286021
0.00279507
0.002713
0.00262864
0.00255992
0.0025049
0.0024656
0.00244624
0.00243327
0.00242994
0.00243353
0.00244493
0.002467
0.00250168
0.00254314
0.00258478
0.00259663
0.00256548
0.00249819
0.00241101
0.00231519
0.00222408
0.00214573
0.00207798
0.0020198
0.00196868
0.00192073
0.00187315
0.00181702
0.00174346
0.00296607
0.0028883
0.00279036
0.0026878
0.00259931
0.0025285
0.0024793
0.0024472
0.00242388
0.00242173
0.00242945
0.00244786
0.00247787
0.00252078
0.00257314
0.00262271
0.00264134
0.00261839
0.00256052
0.00248086
0.00238842
0.0022979
0.00221768
0.0021469
0.0020851
0.00203101
0.00198062
0.00193122
0.00188027
0.00181602
0.00309052
0.0030038
0.00289803
0.00278878
0.00268525
0.00259637
0.00252762
0.00247765
0.0024489
0.00243559
0.00243942
0.00245706
0.00248936
0.00253419
0.00259306
0.00264807
0.00267284
0.00265864
0.00261113
0.00254023
0.00245305
0.00236479
0.00228449
0.00221232
0.00214883
0.00209156
0.00203831
0.00198649
0.00193623
0.00187795
0.00322876
0.00314603
0.00304432
0.00293029
0.00281613
0.00271137
0.00262301
0.00255376
0.00250621
0.0024786
0.00247059
0.00248067
0.00250737
0.00254978
0.00260555
0.00266293
0.00269254
0.00268707
0.00265049
0.00258961
0.00250976
0.00242559
0.00234704
0.00227432
0.00220963
0.00215002
0.00209424
0.00203978
0.00198705
0.00193219
0.0033871
0.00331243
0.00321693
0.00310446
0.00298563
0.00286963
0.00276433
0.00267494
0.0026055
0.00255728
0.00253058
0.00252472
0.00253812
0.00256856
0.00261528
0.00266696
0.00269912
0.00270182
0.00267685
0.00262745
0.00255705
0.00247849
0.00240255
0.00233109
0.00226664
0.00220607
0.00214835
0.00209114
0.0020361
0.00198157
0.00355691
0.00349117
0.00340542
0.00329972
0.00318218
0.0030607
0.00294308
0.00283574
0.00274403
0.00267144
0.00261983
0.00258984
0.00258076
0.00259147
0.00261918
0.0026575
0.00268675
0.00269617
0.00268327
0.00264694
0.00258839
0.0025191
0.00244902
0.00238135
0.00231905
0.00225851
0.00219948
0.00213974
0.00208279
0.00202736
0.00372331
0.00367013
0.00359721
0.00350219
0.00339078
0.00326919
0.00314436
0.00302286
0.00291063
0.00281242
0.00273166
0.00267051
0.00263005
0.00261085
0.0026116
0.00262821
0.00264713
0.00265866
0.00265635
0.00263551
0.00259504
0.0025409
0.00248144
0.00242118
0.00236213
0.00230316
0.00224335
0.00218309
0.00212527
0.00206935
0.00387971
0.00383926
0.0037798
0.00369711
0.00359462
0.00347661
0.00334862
0.00321649
0.00308599
0.00296232
0.00285002
0.00275279
0.00267393
0.00261626
0.00258192
0.00256755
0.00256752
0.00257483
0.00258099
0.00257751
0.00255867
0.0025239
0.00248
0.00243178
0.00238121
0.00232829
0.00227226
0.00221583
0.00215973
0.0021058
0.00401755
0.00398779
0.00393997
0.00386873
0.00377535
0.00366204
0.00353258
0.00339149
0.00324386
0.00309491
0.00295018
0.00281498
0.00269499
0.0025953
0.00252166
0.00247099
0.00244315
0.00243634
0.00244305
0.00245331
0.00245755
0.00245043
0.00243271
0.00240656
0.00237275
0.00233138
0.00228761
0.0022399
0.00218858
0.00213787
0.00412686
0.00410276
0.00406201
0.00399852
0.00391147
0.00380093
0.00366867
0.00351781
0.00335275
0.00317907
0.00300393
0.0028345
0.0026788
0.00254331
0.00243562
0.00235226
0.00229413
0.00226354
0.0022566
0.00226623
0.00228329
0.00229976
0.00231097
0.0023144
0.00230863
0.00229258
0.00226696
0.00223256
0.00219461
0.00215495
0.0041886
0.00416367
0.00412346
0.00406155
0.00397546
0.00386326
0.00372504
0.00356301
0.00338183
0.00318878
0.00299331
0.00280428
0.00263098
0.00247945
0.00235573
0.0022564
0.00217682
0.00212013
0.00208582
0.00207262
0.00207705
0.00209424
0.00211879
0.00214496
0.00216769
0.00218258
0.00218695
0.00217905
0.00216141
0.00214065
0.00417215
0.00413894
0.00409157
0.00402414
0.00393404
0.0038173
0.00367356
0.00350552
0.00331947
0.00312477
0.00293289
0.00275327
0.00259293
0.00245492
0.0023403
0.00224823
0.00216381
0.00208922
0.00202537
0.00197505
0.00194127
0.00192558
0.00192785
0.00194527
0.00197297
0.00200464
0.00203399
0.00205589
0.00206781
0.0020702
0.00403339
0.00398643
0.00392719
0.00385327
0.00376146
0.00364892
0.0035154
0.00336438
0.00320316
0.00304116
0.00288793
0.00274923
0.00262893
0.00252674
0.00244024
0.0023679
0.00229099
0.00221066
0.00212765
0.00204591
0.00197083
0.00190723
0.0018598
0.00183178
0.00182359
0.00183277
0.00185434
0.00188213
0.00191026
0.00193539
0.00373072
0.00367487
0.00362064
0.0035634
0.00350003
0.00342514
0.00333702
0.00323803
0.00313374
0.00303083
0.00293491
0.00284799
0.002772
0.00270591
0.00264707
0.00259194
0.00252446
0.0024468
0.00235955
0.00226581
0.00216969
0.00207471
0.00198517
0.00190705
0.00184464
0.00180061
0.00177504
0.00176562
0.00176896
0.00178753
0.00333758
0.00331182
0.00330395
0.00330789
0.0033106
0.00330048
0.00327563
0.00323759
0.00319057
0.00313948
0.003088
0.00303637
0.00298652