/*--------------------------------*- C++ -*----------------------------------*\
  =========                 |
  \\      /  F ield         | OpenFOAM: The Open Source CFD Toolbox
   \\    /   O peration     | Website:  https://openfoam.org
    \\  /    A nd           | Version:  12
     \\/     M anipulation  |
\*---------------------------------------------------------------------------*/
FoamFile
{
    format      ascii;
    class       volScalarField;
    location    "1800/air";
    object      p_rgh;
}
// * * * * * * * * * * * * * * * * * * * * * * * * * * * * * * * * * * * * * //

dimensions      [1 -1 -2 0 0 0 0];

internalField   nonuniform List<scalar> 
243000
(
30.258
30.1551
30.0416
29.8785
29.7157
29.571
29.4463
29.3441
29.2631
29.2033
29.1612
29.1396
29.1322
29.1404
29.1571
29.1928
29.2435
29.3146
29.3984
29.4966
29.602
29.7071
29.809
29.899
29.9701
30.0251
30.0774
30.1038
30.1429
30.1383
30.2557
30.1279
30.0251
29.8702
29.7166
29.5752
29.4527
29.3518
29.2712
29.2115
29.1706
29.1504
29.1437
29.1517
29.1677
29.2027
29.2521
29.3217
29.4056
29.504
29.6095
29.717
29.8202
29.9055
29.9765
30.0341
30.0841
30.1071
30.1459
30.1252
30.2409
30.0759
29.9742
29.8213
29.6729
29.5379
29.422
29.327
29.2526
29.1979
29.1608
29.1435
29.1389
29.1479
29.1641
29.1989
29.2474
29.3163
29.3999
29.4984
29.6042
29.7125
29.8134
29.8994
29.9731
30.0304
30.0816
30.1025
30.1465
30.1202
30.2117
30.0185
29.9069
29.7526
29.6112
29.4853
29.3786
29.2917
29.2237
29.1739
29.1404
29.1259
29.1233
29.1331
29.1492
29.1835
29.2308
29.2979
29.3789
29.4746
29.5785
29.6859
29.7883
29.8781
29.9569
30.0181
30.0745
30.0936
30.143
30.114
30.1736
29.9681
29.8409
29.687
29.5518
29.4332
29.3339
29.2534
29.1903
29.1444
29.1138
29.1014
29.1
29.1103
29.1259
29.1592
29.205
29.27
29.348
29.4411
29.5428
29.6492
29.7521
29.8445
29.9274
29.9924
30.0549
30.0756
30.1337
30.1038
30.127
29.922
29.7843
29.6339
29.5
29.3875
29.2939
29.2181
29.1583
29.1147
29.0858
29.0746
29.0735
29.0837
29.0983
29.1301
29.1738
29.2363
29.3111
29.4008
29.5001
29.6053
29.7089
29.8039
29.8909
29.9602
30.0287
30.0526
30.119
30.0896
30.0717
29.8732
29.7358
29.592
29.462
29.3503
29.2606
29.1875
29.1293
29.0864
29.0575
29.046
29.0441
29.0533
29.0664
29.096
29.1371
29.1966
29.2674
29.3535
29.4502
29.5544
29.6588
29.7564
29.8476
29.9215
29.9961
30.0246
30.0983
30.0702
30.0084
29.8154
29.6901
29.5562
29.4327
29.3248
29.2346
29.1632
29.105
29.0613
29.0307
29.0171
29.0127
29.0201
29.0308
29.0577
29.0956
29.1513
29.2177
29.3
29.394
29.4972
29.6027
29.703
29.7984
29.8771
29.9577
29.9919
30.072
30.0465
29.9377
29.7481
29.6374
29.5222
29.4076
29.3049
29.216
29.1436
29.0852
29.04
29.0067
28.9895
28.9809
28.9851
28.9925
29.016
29.05
29.1012
29.1629
29.2411
29.3325
29.4349
29.5416
29.6446
29.7442
29.8277
29.9143
29.9547
30.0407
30.0186
29.8601
29.6679
29.5748
29.4787
29.3792
29.2849
29.2006
29.128
29.0683
29.0213
28.9855
28.964
28.9498
28.9492
28.9524
28.9717
29.001
29.0471
29.1038
29.1779
29.2667
29.3684
29.4764
29.5824
29.6861
29.7745
29.8668
29.9139
30.005
29.9873
29.7774
29.5825
29.5057
29.4255
29.3396
29.2578
29.1816
29.1125
29.0526
29.0044
28.9658
28.9402
28.9202
28.9133
28.9112
28.9256
28.9495
28.99
29.0414
29.1112
29.1974
29.2987
29.4081
29.5171
29.625
29.7184
29.8159
29.8699
29.9657
29.9534
29.6896
29.4957
29.4323
29.367
29.2936
29.223
29.1557
29.0927
29.0358
28.9878
28.9467
28.9173
28.8918
28.8782
28.8694
28.8782
28.8961
28.9305
28.9764
29.042
29.1257
29.2266
29.3376
29.4497
29.5618
29.6601
29.7624
29.8237
29.9239
29.9181
29.5967
29.4088
29.3552
29.3045
29.2427
29.1828
29.1243
29.0682
29.0159
28.9696
28.9274
28.8944
28.8637
28.8437
28.8276
28.8302
28.8416
28.8694
28.9096
28.9709
29.0522
29.1529
29.2656
29.381
29.4971
29.6002
29.7072
29.7761
29.8797
29.8819
29.4989
29.3211
29.2759
29.2376
29.1876
29.1378
29.0876
29.0383
28.991
28.9479
28.906
28.8707
28.835
28.8091
28.786
28.7817
28.7864
28.8075
28.8416
28.8987
28.9777
29.0782
29.1927
29.3113
29.4315
29.5396
29.651
29.7272
29.833
29.8448
29.3969
29.2315
29.1949
29.1662
29.1269
29.087
29.0455
29.0029
28.9603
28.9207
28.8807
28.8445
28.8052
28.7731
28.7439
28.7329
28.7309
28.745
28.773
28.8257
28.9024
29.0028
29.1192
29.2412
29.3654
29.4785
29.5939
29.6772
29.7843
29.8071
29.2904
29.1394
29.1116
29.0914
29.061
29.0299
28.9967
28.9612
28.9239
28.8874
28.8498
28.8141
28.7724
28.7354
28.7003
28.6833
28.6751
28.6822
28.7041
28.7522
28.8267
28.9271
29.0453
29.1707
29.299
29.417
29.5361
29.6264
29.7345
29.7692
29.1792
29.045
29.0245
29.0135
28.9908
28.967
28.9411
28.9122
28.8806
28.8479
28.8124
28.7779
28.735
28.6948
28.6543
28.6319
28.6185
28.6191
28.6347
28.6784
28.7506
28.8509
28.9711
29.0998
29.2321
29.3551
29.4776
29.5747
29.6838
29.7304
29.0635
28.9481
28.9334
28.9304
28.9158
28.8984
28.8791
28.8561
28.8295
28.801
28.7679
28.7347
28.6916
28.6493
28.6048
28.5775
28.5597
28.5551
28.5648
28.6041
28.674
28.7741
28.896
29.0281
29.1644
29.2924
29.418
29.5216
29.6319
29.6899
28.9429
28.8478
28.8381
28.8408
28.8342
28.8232
28.8097
28.7927
28.7709
28.7463
28.7158
28.6838
28.6407
28.5972
28.5503
28.5191
28.4974
28.4887
28.4933
28.5284
28.5958
28.6953
28.8191
28.9551
29.0953
29.228
29.3573
29.4666
29.5788
29.6476
28.8163
28.7426
28.7378
28.7446
28.7446
28.7396
28.7313
28.7197
28.7031
28.6827
28.6551
28.6243
28.5814
28.5371
28.4885
28.4551
28.4305
28.4183
28.4187
28.4499
28.5146
28.614
28.7402
28.8799
29.0238
29.1614
29.2948
29.4099
29.5247
29.6027
28.6822
28.6299
28.6307
28.6418
28.6464
28.6469
28.6436
28.6368
28.6249
28.6086
28.5841
28.555
28.5129
28.4678
28.4179
28.3833
28.3573
28.3425
28.3397
28.3672
28.43
28.5297
28.6583
28.8012
28.949
29.0917
29.2294
29.3505
29.4686
29.5548
28.5382
28.5085
28.5143
28.5291
28.5385
28.5442
28.5461
28.5441
28.5367
28.5241
28.5025
28.4752
28.4339
28.3888
28.3378
28.3026
28.2757
28.2595
28.2546
28.2792
28.3409
28.441
28.5718
28.7178
28.8695
29.0173
29.1598
29.2869
29.4089
29.5028
28.3858
28.3753
28.3856
28.4048
28.4196
28.4309
28.4382
28.4409
28.4381
28.4292
28.4106
28.3847
28.3439
28.2992
28.2475
28.212
28.1844
28.1676
28.1613
28.1847
28.246
28.3465
28.4794
28.6282
28.7838
28.9368
29.0843
29.2178
29.3443
29.4457
28.2181
28.2209
28.2371
28.2624
28.2844
28.3029
28.3168
28.3249
28.3268
28.3223
28.3069
28.2826
28.2426
28.1982
28.1461
28.11
28.0819
28.0651
28.0589
28.0823
28.1436
28.2446
28.379
28.5304
28.6897
28.8476
29.0002
29.1399
29.2712
29.3801
28.0387
28.0508
28.0747
28.1073
28.1374
28.1639
28.1847
28.1983
28.2049
28.205
28.1934
28.1708
28.1318
28.0878
28.0352
27.9983
27.9698
27.9534
27.9481
27.9723
28.034
28.1353
28.2708
28.4244
28.5872
28.7497
28.9072
29.0529
29.1895
29.3062
27.8123
27.8317
27.8672
27.9135
27.9592
28.0009
28.0341
28.0577
28.0725
28.079
28.0728
28.0531
28.0155
27.9722
27.919
27.8812
27.8517
27.8349
27.8295
27.8536
27.9147
28.0152
28.1497
28.3037
28.4683
28.634
28.7948
28.9452
29.0855
29.2081
27.6077
27.6384
27.6867
27.7467
27.808
27.8631
27.9066
27.9378
27.9587
27.9697
27.9669
27.9483
27.9106
27.8673
27.8145
27.7761
27.7457
27.7289
27.723
27.7459
27.8051
27.903
28.0357
28.1897
28.356
28.5251
28.6899
28.8459
28.992
29.1245
27.1884
27.2524
27.3437
27.4518
27.5602
27.6544
27.7263
27.7786
27.8156
27.8392
27.8459
27.8335
27.7992
27.7577
27.704
27.6624
27.6266
27.6069
27.5975
27.6161
27.6685
27.7562
27.8767
28.0207
28.1801
28.3434
28.5016
28.6526
28.7915
28.9223
27.1988
27.29
27.4046
27.5312
27.6502
27.7437
27.8075
27.8502
27.8761
27.8881
27.8847
27.8653
27.8264
27.7809
27.7229
27.6791
27.6434
27.6267
27.6222
27.6478
27.7061
27.7992
27.9247
28.0744
28.2406
28.4137
28.5823
28.7465
28.8997
29.0499
25.913
26.0832
26.3268
26.5938
26.8348
27.0166
27.1482
27.2454
27.3123
27.3533
27.366
27.3583
27.3282
27.2875
27.2316
27.1797
27.1275
27.0929
27.0667
27.0651
27.0894
27.1433
27.2265
27.3331
27.4534
27.5716
27.6807
27.7861
27.884
28.0068
30.0437
29.8891
29.7626
29.5807
29.4199
29.2878
29.1844
29.1066
29.0494
29.0102
28.9831
28.9723
28.9693
28.9795
28.9924
29.023
29.0653
29.131
29.2131
29.3156
29.4297
29.5493
29.6648
29.7724
29.8717
29.9539
30.029
30.0725
30.1284
30.1181
30.0397
29.8639
29.7387
29.5648
29.416
29.2899
29.1888
29.1122
29.0556
29.0164
28.9906
28.9804
28.9776
28.9876
28.9998
29.0298
29.0708
29.1358
29.2182
29.3212
29.4358
29.5561
29.6725
29.78
29.8789
29.9611
30.0378
30.0808
30.1349
30.1108
30.0297
29.835
29.7105
29.5414
29.3987
29.2769
29.1794
29.1055
29.0505
29.0121
28.9867
28.9773
28.9748
28.9844
28.9956
29.0243
29.0633
29.1259
29.2048
29.3048
29.4186
29.5398
29.6582
29.768
29.8694
29.9531
30.0322
30.0707
30.132
30.1034
30.007
29.8002
29.6743
29.5087
29.3719
29.2561
29.1642
29.0946
29.0422
29.0053
28.9813
28.9726
28.97
28.9789
28.9885
29.0154
29.0515
29.1109
29.1856
29.2813
29.3912
29.5104
29.6305
29.743
29.8481
29.9346
30.0185
30.0557
30.1253
30.0932
29.9687
29.7614
29.6367
29.4759
29.3444
29.2334
29.1459
29.0797
29.0302
28.9955
28.9725
28.964
28.9605
28.9681
28.9755
28.9998
29.0323
29.0876
29.1575
29.2486
29.3548
29.4718
29.5913
29.7049
29.8126
29.9038
29.9922
30.032
30.1119
30.0784
29.9191
29.7176
29.5992
29.4454
29.3194
29.2132
29.1292
29.0655
29.0183
28.9851
28.9624
28.9531
28.9479
28.9537
28.9583
28.9793
29.0072
29.0578
29.1222
29.2082
29.3105
29.4255
29.5449
29.6599
29.7704
29.8647
29.9588
30.0018
30.0923
30.0592
29.8592
29.6646
29.5593
29.4176
29.2983
29.1967
29.116
29.0543
29.0078
28.9755
28.9521
28.9412
28.9334
28.9365
28.9377
28.9546
28.9773
29.0225
29.0807
29.1614
29.2598
29.3732
29.4927
29.6093
29.723
29.8207
29.9204
29.9669
30.0669
30.0355
29.7936
29.6025
29.5168
29.393
29.2829
29.1861
29.1076
29.0464
28.9994
28.967
28.9426
28.929
28.9178
28.9175
28.9144
28.9267
28.9436
28.9825
29.0341
29.1093
29.2041
29.3159
29.4359
29.5544
29.6713
29.7727
29.8779
29.9287
30.0365
30.0077
29.7264
29.5321
29.4647
29.3655
29.2696
29.1809
29.1046
29.0431
28.9942
28.9595
28.9338
28.9171
28.9018
28.8974
28.889
28.8962
28.9067
28.9387
28.9836
29.0533
29.1445
29.2551
29.3757
29.4964
29.6166
29.7217
29.8322
29.8881
30.002
29.9768
29.6571
29.4592
29.4085
29.3266
29.2504
29.1747
29.1046
29.0437
28.9929
28.954
28.9256
28.9055
28.8858
28.8765
28.862
28.8637
28.8675
28.8922
28.93
28.9942
29.0821
29.1918
29.3133
29.4362
29.5598
29.6687
29.784
29.8459
29.9641
29.9438
29.5851
29.388
29.3507
29.2839
29.2225
29.1616
29.1019
29.0445
28.9935
28.9522
28.9186
28.8942
28.8696
28.8549
28.8341
28.8299
28.8267
28.8438
28.8745
28.9333
29.018
29.1269
29.2495
29.3748
29.5018
29.6144
29.7342
29.8029
29.9237
29.9093
29.5111
29.3175
29.2919
29.2392
29.1905
29.1399
29.0915
29.0424
28.9938
28.9516
28.9126
28.8836
28.8533
28.8328
28.8056
28.7949
28.7848
28.7944
28.8178
28.8712
28.953
29.0613
29.1851
29.313
29.4432
29.5595
29.6832
29.7594
29.8816
29.8742
29.436
29.2477
29.2332
29.1913
29.153
29.1132
29.0734
29.032
28.9892
28.9486
28.9066
28.8735
28.8374
28.8101
28.7766
28.7591
28.742
28.7444
28.7607
28.8088
28.8878
28.9958
29.1208
29.2513
29.3847
29.5045
29.6316
29.7158
29.8383
29.8389
29.3602
29.1784
29.1737
29.1417
29.1122
29.0817
29.0495
29.0151
28.9774
28.9397
28.8985
28.863
28.8214
28.7876
28.7471
28.7226
28.6983
28.6941
28.7039
28.7467
28.823
28.9308
29.0573
29.1904
29.3269
29.4503
29.5795
29.6712
29.7932
29.8047
29.2828
29.1085
29.1119
29.0907
29.0694
29.0463
29.0206
28.9925
28.9604
28.9266
28.887
28.8503
28.8046
28.7652
28.7173
28.6853
28.654
28.6438
28.6474
28.6854
28.7592
28.867
28.995
29.1309
29.2701
29.3969
29.5268
29.626
29.7471
29.7717
29.2021
29.0372
29.0466
29.0359
29.0223
29.0064
28.9869
28.9644
28.9376
28.9085
28.871
28.8342
28.7857
28.7415
28.6868
28.6473
28.6091
28.5934
28.5916
28.625
28.6967
28.8047
28.9343
29.0725
29.2144
29.3443
29.4753
29.5803
29.7004
29.7399
29.1178
28.9648
28.9782
28.9766
28.9702
28.9612
28.9479
28.9306
28.9088
28.8842
28.8498
28.8137
28.7634
28.7155
28.6547
28.6086
28.5634
28.5429
28.5365
28.5656
28.6354
28.7436
28.8747
29.015
29.1593
29.293
29.4256
29.5351
29.6534
29.7089
29.0295
28.8912
28.9083
28.9137
28.9141
28.911
28.9034
28.8912
28.8742
28.8536
28.8224
28.7877
28.7362
28.6859
28.6202
28.5686
28.5168
28.4917
28.4813
28.5067
28.5751
28.6841
28.816
28.958
29.105
29.2428
29.3774
29.4911
29.608
29.677
28.9363
28.816
28.8368
28.8484
28.8541
28.8563
28.8537
28.8463
28.8337
28.8169
28.7886
28.7555
28.7031
28.6514
28.5823
28.5259
28.4689
28.4399
28.4261
28.4485
28.5164
28.6254
28.7571
28.9014
29.0511
29.1934
29.3304
29.4483
29.565
29.6438
28.8368
28.7382
28.7629
28.7799
28.7903
28.7969
28.7986
28.7957
28.7872
28.774
28.7484
28.7169
28.6638
28.6113
28.5398
28.4801
28.4192
28.3873
28.3711
28.3913
28.4582
28.5657
28.6977
28.8448
28.9977
29.1443
29.2839
29.4059
29.5231
29.6097
28.7302
28.6568
28.685
28.7071
28.7219
28.7328
28.7386
28.7399
28.7354
28.7255
28.7022
28.6721
28.6186
28.5652
28.4927
28.4315
28.367
28.3332
28.3151
28.3333
28.3981
28.5049
28.6382
28.7878
28.9437
29.0947
29.2372
29.3633
29.4815
29.5744
28.6155
28.5696
28.6018
28.6289
28.6483
28.6636
28.6737
28.6789
28.6786
28.672
28.6508
28.6215
28.5678
28.5137
28.4408
28.379
28.3119
28.276
28.2563
28.2727
28.3366
28.4435
28.5779
28.7296
28.8883
29.0439
29.1896
29.3198
29.4392
29.5372
28.4936
28.4761
28.5122
28.5441
28.5685
28.5887
28.6037
28.6134
28.617
28.6139
28.5949
28.5663
28.5127
28.4584
28.3828
28.321
28.2522
28.2147
28.1938
28.2094
28.2739
28.3812
28.5163
28.6698
28.8312
28.9909
29.1402
29.2745
29.3958
29.4985
28.3649
28.3723
28.4136
28.4506
28.4809
28.5072
28.5286
28.5445
28.5529
28.5538
28.537
28.5088
28.4557
28.401
28.3218
28.2577
28.1862
28.1484
28.1276
28.1443
28.2098
28.3174
28.4537
28.609
28.7725
28.9348
29.0875
29.2258
29.3491
29.457
28.2334
28.2609
28.3078
28.3503
28.388
28.4226
28.4524
28.4758
28.4897
28.4943
28.4797
28.4515
28.399
28.3441
28.2623
28.194
28.1185
28.0793
28.0593
28.0785
28.1452
28.2526
28.3904
28.5482
28.7147
28.8799
29.0357
29.1771
29.3019
29.4157
28.0871
28.1351
28.1883
28.2383
28.2864
28.3328
28.3742
28.4075
28.4282
28.437
28.4246
28.3966
28.3451
28.2903
28.207
28.1365
28.0572
28.0149
27.9953
28.0174
28.0842
28.1911
28.3287
28.4868
28.6552
28.8232
28.9822
29.1273
29.2534
29.372
27.9586
28.0264
28.0826
28.1383
28.1974
28.2566
28.3106
28.3543
28.3821
28.3936
28.3818
28.3548
28.3054
28.2515
28.1663
28.093
28.01
27.9643
27.9447
27.9697
28.0356
28.1422
28.2793
28.4373
28.6069
28.7788
28.941
29.0898
29.218
29.3437
27.8021
27.8881
27.9498
28.0216
28.1049
28.1903
28.2667
28.3269
28.3684
28.3871
28.378
28.3562
28.3115
28.2613
28.1772
28.1026
28.0146
27.9631
27.942
27.9657
28.0231
28.1186
28.2478
28.4022
28.5691
28.7382
28.8959
29.0418
29.1664
29.2941
27.8474
27.9355
28.0013
28.0939
28.2045
28.3162
28.411
28.4829
28.532
28.5582
28.5549
28.5391
28.4995
28.4532
28.3735
28.2994
28.2041
28.1472
28.1176
28.1333
28.182
28.2676
28.3847
28.5262
28.6825
28.8441
29.0006
29.1454
29.266
29.3935
28.4817
28.5721
28.6176
28.6991
28.8032
28.9063
28.9883
29.0461
29.0776
29.0849
29.0681
29.0404
28.992
28.9415
28.861
28.7908
28.6974
28.6425
28.6142
28.6358
28.6918
28.7851
28.9085
29.056
29.2183
29.3857
29.5473
29.6973
29.8219
29.9569
30.0036
29.8017
29.6969
29.4959
29.3256
29.1904
29.0923
29.0246
28.9796
28.9532
28.938
28.9372
28.9393
28.9547
28.9608
28.9814
28.9967
29.0319
29.0761
29.1448
29.2331
29.3412
29.4609
29.5855
29.7128
29.8306
29.9443
30.0195
30.0993
30.0935
29.9911
29.7547
29.6596
29.4692
29.3161
29.1916
29.0966
29.0304
28.9861
28.9612
28.9471
28.9469
28.949
28.9644
28.9702
28.9911
29.0064
29.0419
29.0855
29.1545
29.2434
29.352
29.4718
29.5964
29.7234
29.8401
29.9533
30.0263
30.1066
30.0948
29.9699
29.7125
29.6253
29.445
29.3027
29.1848
29.0951
29.0312
28.9876
28.963
28.9488
28.9495
28.9514
28.9663
28.9711
28.9918
29.0059
29.0395
29.0791
29.1444
29.231
29.3402
29.4618
29.5881
29.7164
29.833
29.9482
30.0186
30.1078
30.0891
29.9294
29.6653
29.5817
29.4094
29.2776
29.1685
29.0863
29.0278
28.9876
28.9637
28.9493
28.9507
28.9522
28.9665
28.97
28.99
29.0014
29.0323
29.0671
29.1269
29.208
29.3141
29.4375
29.5665
29.6969
29.8142
29.9323
30.0012
30.1
30.0765
29.8736
29.6141
29.532
29.37
29.2485
29.1481
29.0729
29.0194
28.9822
28.9598
28.9463
28.9485
28.9493
28.9627
28.964
28.9824
28.9899
29.0168
29.0454
29.0991
29.1745
29.2767
29.3979
29.5278
29.6622
29.7816
29.9048
29.9736
30.0821
30.0567
29.8067
29.5597
29.4783
29.3292
29.2182
29.1264
29.058
29.0093
28.975
28.9547
28.9417
28.9443
28.9437
28.9558
28.9542
28.9703
28.973
28.9945
29.0162
29.063
29.133
29.2317
29.3512
29.4809
29.6172
29.74
29.8674
29.9389
30.0566
30.0312
29.7336
29.503
29.4232
29.2899
29.1893
29.1059
29.0439
28.9994
28.9679
28.9492
28.9363
28.9388
28.9362
28.9467
28.9413
28.9544
28.9513
28.9665
28.9807
29.0204
29.0849
29.1807
29.2993
29.4292
29.5667
29.6924
29.8238
29.8997
30.0255
30.0015
29.6569
29.4413
29.3687
29.2519
29.1626
29.0876
29.0313
28.9907
28.9614
28.9439
28.9306
28.9324
28.9272
28.9358
28.9258
28.9352
28.9257
28.9337
28.9401
28.9726
29.0319
29.1253
29.2434
29.3741
29.5131
29.6409
29.7762
29.8576
29.9896
29.9685
29.5784
29.3762
29.3159
29.2155
29.1381
29.0718
29.0211
28.9836
28.9555
28.9388
28.9248
28.9257
28.9172
28.9234
28.9082
28.9132
28.8966
28.8971
28.8958
28.921
28.9752
29.0667
29.185
29.3169
29.4578
29.5873
29.7261
29.8138
29.9501
29.9336
29.5008
29.3122
29.266
29.1799
29.1154
29.0582
29.0128
28.978
28.9507
28.9342
28.9192
28.9187
28.9064
28.91
28.8889
28.889
28.8644
28.8574
28.8488
28.8668
28.9161
29.0061
29.125
29.2588
29.4015
29.5329
29.6746
29.769
29.9078
29.8973
29.4269
29.249
29.217
29.1443
29.091
29.0436
29.0043
28.9729
28.9468
28.93
28.9137
28.9114
28.8951
28.8957
28.8683
28.8631
28.8297
28.8154
28.7998
28.8111
28.8555
28.9445
29.0644
29.2004
29.3451
29.479
29.6229
29.7242
29.8641
29.8608
29.3562
29.1869
29.1682
29.1094
29.0671
29.0275
28.9942
28.9668
28.9422
28.9257
28.9083
28.904
28.8834
28.8807
28.8465
28.8359
28.7933
28.7717
28.7495
28.7545
28.7942
28.8826
29.0041
29.1428
29.2894
29.4268
29.5716
29.6796
29.819
29.8253
29.2875
29.1256
29.1194
29.0738
29.0422
29.0105
28.9827
28.9589
28.9363
28.9209
28.9024
28.8962
28.8714
28.8648
28.8238
28.8077
28.7555
28.7269
28.6984
28.6976
28.733
28.8212
28.9448
29.0867
29.2346
29.3764
29.5214
29.6344
29.7723
29.7912
29.2201
29.0654
29.0694
29.0368
29.0152
28.9914
28.9694
28.9493
28.929
28.9147
28.8954
28.8877
28.8589
28.8482
28.8002
28.7787
28.7169
28.6815
28.6468
28.641
28.6723
28.7608
28.8869
29.032
29.1825
29.3275
29.4722
29.5887
29.7246
29.7584
29.1523
29.0046
29.0177
28.9982
28.9859
28.9696
28.9532
28.9371
28.9195
28.9067
28.8869
28.878
28.8453
28.8309
28.7757
28.7492
28.6779
28.6357
28.595
28.5849
28.6126
28.7016
28.8305
28.9785
29.1319
29.2792
29.4245
29.5441
29.6769
29.7275
29.0841
28.9438
28.9649
28.9571
28.9532
28.9443
28.9335
28.9218
28.907
28.8959
28.8761
28.8664
28.8302
28.8126
28.7505
28.7192
28.6387
28.5896
28.5433
28.5293
28.5538
28.6436
28.7747
28.9255
29.0818
29.2322
29.3788
29.5015
29.6312
29.6981
29.0145
28.8822
28.9098
28.9125
28.9159
28.9144
28.9094
28.9023
28.8909
28.8818
28.8623
28.8523
28.8131
28.7928
28.7243
28.6887
28.5994
28.5435
28.4919
28.4743
28.4956
28.5862
28.7191
28.8727
29.0328
29.1868
29.3352
29.4613
29.5895
29.6679
28.9404
28.8185
28.8526
28.8641
28.8743
28.8794
28.8804
28.8783
28.8707
28.8641
28.8453
28.8354
28.7935
28.7711
28.6967
28.6579
28.56
28.4974
28.4404
28.4194
28.4378
28.5291
28.6635
28.8206
28.9848
29.1426
29.2931
29.4228
29.55
29.6378
28.8598
28.7527
28.7927
28.8124
28.8289
28.8401
28.8466
28.8493
28.846
28.8424
28.8247
28.8153
28.7711
28.7473
28.6675
28.6266
28.5206
28.4516
28.3887
28.3645
28.3799
28.4712
28.6076
28.7685
28.937
29.0991
29.2519
29.3853
29.5119
29.6075
28.7709
28.6848
28.7301
28.7573
28.7799
28.7969
28.8085
28.8159
28.817
28.8168
28.8008
28.7921
28.7461
28.7216
28.6368
28.5945
28.4808
28.4058
28.3365
28.3088
28.3205
28.4119
28.5509
28.7157
28.8886
29.0551
29.2109
29.3481
29.4746
29.5766
28.6732
28.6137
28.6641
28.6986
28.7272
28.75
28.7669
28.7791
28.7846
28.7877
28.7742
28.7665
28.7195
28.6947
28.6053
28.5621
28.4411
28.3599
28.2828
28.2506
28.2596
28.3522
28.4929
28.6611
28.839
29.0101
29.1694
29.3105
29.4376
29.545
28.5666
28.5382
28.594
28.6361
28.6711
28.7001
28.7227
28.7402
28.7502
28.7569
28.7463
28.74
28.6925
28.6678
28.574
28.5305
28.4018
28.3134
28.2277
28.1914
28.1995
28.2927
28.4336
28.6042
28.7874
28.9635
29.1265
29.272
29.4002
29.5126
28.4528
28.4576
28.5198
28.5701
28.6123
28.6482
28.6772
28.7006
28.7157
28.7265
28.7193
28.7143
28.6665
28.6422
28.5442
28.5008
28.3638
28.2672
28.1722
28.1343
28.1429
28.2344
28.3741
28.546
28.7331
28.915
29.0826
29.2321
29.3619
29.4795
28.3351
28.3692
28.4415
28.5013
28.5521
28.5957
28.6323
28.6625
28.6835
28.6989
28.6948
28.6906
28.6425
28.6188
28.5166
28.4744
28.3289
28.2257
28.1224
28.0827
28.0902
28.1781
28.3156
28.4878
28.6767
28.8631
29.0363
29.1912
29.3232
29.4457
28.212
28.2784
28.3637
28.4336
28.4934
28.5458
28.591
28.6291
28.6561
28.676
28.6738
28.6698
28.6215
28.599
28.4925
28.4515
28.2973
28.1891
28.078
28.0334
28.0394
28.124
28.2586
28.4305
28.6208
28.811
28.9885
29.1486
29.2837
29.4141
28.0837
28.1894
28.2878
28.3678
28.4375
28.5002
28.5556
28.6023
28.6356
28.66
28.6586
28.6552
28.6079
28.5884
28.4797
28.4444
28.2837
28.1718
28.0506
27.9973
27.998
28.0739
28.2032
28.3744
28.5656
28.7606
28.9428
29.1077
29.2456
29.3826
27.9663
28.1119
28.2203
28.3107
28.3917
28.4657
28.5323
28.5881
28.6285
28.6583
28.6589
28.6577
28.613
28.5998
28.4914
28.4636
28.2958
28.1787
28.0456
27.9867
27.9842
28.0527
28.174
28.3384
28.5299
28.7265
28.9116
29.0798
29.2187
29.3596
27.8708
28.0426
28.158
28.2597
28.3543
28.4446
28.5238
28.5912
28.6434
28.6802
28.6828
28.6858
28.6474
28.6435
28.5376
28.524
28.3519
28.2339
28.09
28.021
28.0135
28.0705
28.184
28.343
28.5306
28.7277
28.914
29.0822
29.2183
29.3551
27.8505
28.032
28.1547
28.2695
28.3778
28.4778
28.5651
28.6389
28.6954
28.7361
28.7417
28.7502
28.7187
28.7294
28.6326
28.6448
28.4782
28.3685
28.2199
28.1415
28.1207
28.1651
28.26
28.4043
28.5785
28.7635
28.9401
29.1052
29.2415
29.3826
27.9216
28.0878
28.2101
28.3313
28.4455
28.5503
28.6397
28.7139
28.7696
28.8109
28.8212
28.8366
28.8128
28.8396
28.758
28.8039
28.6507
28.5573
28.4116
28.3317
28.3027
28.3384
28.4204
28.5491
28.7117
28.8924
29.0741
29.2469
29.3917
29.5333
29.9191
29.6874
29.6128
29.3785
29.1908
29.0491
28.9555
28.9033
28.8773
28.8692
28.8688
28.8871
28.8954
28.9123
28.8979
28.891
28.8539
28.8381
28.8217
28.8412
28.9008
29.008
29.1473
29.3046
29.4728
29.6363
29.7993
29.9192
30.0421
30.0511
29.8978
29.6021
29.5467
29.3289
29.1662
29.0424
28.9573
28.9075
28.8834
28.8772
28.8779
28.8965
28.9042
28.9205
28.9054
28.8993
28.8636
28.8505
28.8359
28.8543
28.9126
29.0202
29.1596
29.3168
29.4844
29.6467
29.8095
29.9271
30.051
30.0568
29.8665
29.5377
29.4902
29.2914
29.1466
29.0335
28.9563
28.9092
28.8864
28.8822
28.8839
28.9022
28.9086
28.9236
28.9065
28.8995
28.8617
28.8469
28.8289
28.842
28.8955
29.0074
29.1506
29.3094
29.4776
29.6393
29.8034
29.9201
30.0519
30.0519
29.8101
29.4736
29.4274
29.245
29.1171
29.0166
28.9491
28.9092
28.8883
28.8862
28.8891
28.9073
28.9121
28.9258
28.9058
28.8965
28.8544
28.8362
28.8137
28.8209
28.8683
28.9761
29.1243
29.2864
29.4556
29.617
29.7825
29.9004
30.0411
30.0371
29.7336
29.4077
29.3624
29.1968
29.0855
28.9973
28.9389
28.9057
28.8887
28.8886
28.8926
28.9105
28.9133
28.9252
28.9008
28.8877
28.8387
28.8145
28.7862
28.7873
28.8293
28.9335
29.0794
29.2464
29.4179
29.5805
29.7482
29.8687
30.0182
30.0137
29.6431
29.3389
29.2955
29.1469
29.0514
28.9765
28.9276
28.9009
28.8881
28.8902
28.895
28.9125
28.9128
28.9224
28.8926
28.8743
28.8159
28.7842
28.7489
28.7442
28.7815
28.8835
29.028
29.1958
29.37
29.5346
29.7053
29.8283
29.9851
29.9828
29.5451
29.2675
29.2285
29.097
29.0179
28.9556
28.9162
28.8958
28.887
28.8914
28.8967
28.9136
28.911
28.9179
28.8816
28.8569
28.7871
28.7463
28.7035
28.6936
28.7269
28.828
28.9724
29.1397
29.3165
29.4832
29.6562
29.7827
29.944
29.9467
29.4441
29.1952
29.1632
29.0503
28.9873
28.9369
28.9063
28.8916
28.8862
28.8925
28.8977
28.9138
28.908
28.9121
28.8683
28.836
28.7533
28.7021
28.6516
28.6374
28.6673
28.7688
28.9143
29.0815
29.2601
29.4289
29.6031
29.7338
29.8972
29.9083
29.3439
29.1239
29.1018
29.0081
28.96
28.9207
28.898
28.8882
28.8858
28.8935
28.8982
28.9136
28.9042
28.9052
28.8529
28.8121
28.7152
28.6528
28.5948
28.5763
28.6044
28.7075
28.8552
29.0229
29.2031
29.3739
29.5485
29.6836
29.8472
29.869
29.2477
29.0572
29.0453
28.9702
28.9359
28.9068
28.8911
28.8858
28.8856
28.8943
28.8984
28.9132
28.8998
28.8974
28.8358
28.7858
28.6734
28.5995
28.5342
28.5117
28.54
28.6456
28.7965
28.9657
29.1479
29.3203
29.4947
29.6343
29.7959
29.8301
29.1583
28.9953
28.9936
28.9365
28.9145
28.8949
28.8857
28.8843
28.8858
28.8957
28.8985
28.9127
28.8949
28.8888
28.8173
28.7575
28.6288
28.5434
28.471
28.4462
28.4753
28.5843
28.7394
28.9112
29.0957
29.2701
29.4448
29.5859
29.7441
29.7922
29.0778
28.9373
28.9447
28.9054
28.895
28.8842
28.8811
28.8832
28.8866
28.8975
28.8988
28.912
28.8895
28.8795
28.7975
28.7278
28.582
28.4857
28.4069
28.3811
28.4112
28.5247
28.6839
28.8599
29.0472
29.2248
29.3979
29.539
29.6939
29.7567
29.0047
28.8825
28.8985
28.8763
28.8763
28.874
28.8764
28.8819
28.8872
28.8994
28.8995
28.911
28.8834
28.8696
28.7766
28.6967
28.5338
28.4274
28.3426
28.3163
28.3483
28.4671
28.6302
28.8121
29.0032
29.1824
29.3529
29.4952
29.6468
29.724
28.9371
28.8309
28.8549
28.8488
28.8576
28.8631
28.8708
28.88
28.887
28.9009
28.9001
28.91
28.8767
28.8591
28.7548
28.6647
28.4848
28.3693
28.279
28.2525
28.2873
28.4117
28.5789
28.7677
28.9612
29.1413
29.3117
29.4558
29.6045
29.6924
28.8739
28.7809
28.8139
28.8213
28.8382
28.8511
28.8639
28.8769
28.8859
28.9013
28.9
28.909
28.8697
28.8479
28.732
28.6321
28.4356
28.3123
28.2166
28.1902
28.2284
28.3585
28.5304
28.7241
28.9203
29.1031
29.2743
29.4204
29.5664
29.6623
28.813
28.7318
28.7743
28.7929
28.8175
28.8374
28.8554
28.8724
28.8838
28.9006
28.8994
28.9073
28.8623
28.8362
28.7082
28.5992
28.387
28.2567
28.1555
28.1299
28.1716
28.3059
28.4819
28.6812
28.882
29.0681
29.2405
29.3883
29.532
29.6342
28.7523
28.6837
28.735
28.7632
28.795
28.8217
28.845
28.8662
28.8804
28.8989
28.8977
28.9046
28.8544
28.8243
28.6838
28.5666
28.3393
28.2026
28.0966
28.0711
28.1149
28.2523
28.435
28.64
28.8457
29.0358
29.2097
29.3593
29.5008
29.6077
28.6912
28.636
28.6951
28.7321
28.7706
28.8038
28.8323
28.8579
28.8753
28.8957
28.8945
28.901
28.846
28.8126
28.6596
28.5349
28.2934
28.1513
28.0388
28.0117
28.0577
28.1999
28.3889
28.5995
28.8107
29.0054
29.1812
29.3328
29.4723
29.5831
28.6266
28.5869
28.6535
28.6989
28.7441
28.7835
28.8173
28.8476
28.8685
28.8909
28.8901
28.8966
28.8372
28.8012
28.636
28.5052
28.2497
28.1017
27.9807
27.9528
28.0026
28.1483
28.34
28.5583
28.7761
28.9762
29.1546
29.3083
29.4462
29.5602
28.5548
28.535
28.6095
28.6633
28.7152
28.761
28.8004
28.8355
28.8601
28.885
28.8849
28.8919
28.8287
28.7908
28.6138
28.4781
28.2071
28.053
27.9248
27.8982
27.9496
28.0933
28.2892
28.516
28.7407
28.947
29.129
29.2853
29.422
29.539
28.4755
28.4787
28.5621
28.6247
28.6841
28.7367
28.7818
28.8218
28.8506
28.8787
28.8797
28.8874
28.8212
28.7822
28.5937
28.4544
28.1679
28.0119
27.8758
27.8472
27.894
28.0354
28.2379
28.4716
28.7033
28.9165
29.1036
29.263
29.3993
29.5191
28.3891
28.4156
28.51
28.5836
28.6513
28.7109
28.7621
28.8075
28.8409
28.8727
28.8756
28.885
28.8154
28.7766
28.5763
28.4347
28.1364
27.9792
27.8324
27.798
27.8372
27.9778
28.185
28.4248
28.6634
28.8831
29.0763
29.2411
29.3777
29.5006
28.2932
28.3476
28.4549
28.5406
28.6173
28.6845
28.7423
28.7936
28.8321
28.8681
28.8731
28.8855
28.814
28.7763
28.5616
28.4209
28.1112
27.9489
27.7875
27.7467
27.7847
27.9252
28.1301
28.3753
28.6208
28.8472
29.0458
29.2168
29.3565
29.4835
28.1888
28.2773
28.3984
28.4968
28.5831
28.6586
28.7238
28.7812
28.8245
28.8647
28.8721
28.8874
28.8149
28.7786
28.551
28.4164
28.0907
27.9233
27.749
27.7047
27.743
27.8775
28.0771
28.3223
28.5756
28.8095
29.0143
29.1906
29.3335
29.4678
28.0786
28.209
28.3435
28.4543
28.5506
28.6346
28.7068
28.7701
28.8181
28.8625
28.8721
28.8909
28.8177
28.7846
28.5487
28.4194
28.0744
27.9069
27.7224
27.6752
27.7107
27.8388
28.0331
28.2738
28.5298
28.7719
28.9838
29.1663
29.3128
29.4532
27.9699
28.1437
28.2914
28.4144
28.5201
28.612
28.6912
28.7606
28.813
28.8619
28.8764
28.899
28.8254
28.7973
28.5547
28.4338
28.0679
27.903
27.7107
27.6606
27.6909
27.8132
28
28.2401
28.4928
28.7386
28.9582
29.1471
29.2977
29.4423
27.8715
28.0846
28.2442
28.378
28.4923
28.592
28.6784
28.7538
28.8111
28.869
28.8884
28.9169
28.8425
28.824
28.5786
28.4817
28.1034
27.9461
27.7401
27.6812
27.7014
27.8191
28.0016
28.2298
28.4746
28.7195
28.9437
29.1392
29.2937
29.4397
27.8006
28.0349
28.2012
28.3461
28.469
28.5766
28.6709
28.7528
28.8209
28.8857
28.9089
28.9449
28.872
28.869
28.6218
28.561
28.1738
28.0269
27.8107
27.7462
27.7581
27.8606
28.0292
28.2472
28.4845
28.7216
28.9422
29.1417
29.3005
29.4484
27.7543
27.9953
28.1675
28.32
28.4517
28.5679
28.6694
28.7607
28.8355
28.9036
28.9302
28.974
28.906
28.9246
28.68
28.6689
28.2797
28.1477
27.9243
27.8549
27.8547
27.9386
28.0865
28.2894
28.5176
28.7503
28.9646
29.1574
29.3128
29.4638
27.7537
27.977
28.1484
28.3043
28.4406
28.5625
28.6689
28.7665
28.8461
28.9178
28.9491
28.9988
28.9385
28.9797
28.7472
28.7977
28.4176
28.3067
28.0828
28.0113
27.9971
28.0654
28.1898
28.3687
28.5754
28.7934
29.0022
29.1968
29.3612
29.5147
29.9152
29.647
29.5913
29.3315
29.1202
28.9645
28.8664
28.8221
28.8071
28.819
28.8424
28.8905
28.9232
28.9777
28.977
28.9864
28.9085
28.8231
28.6997
28.6343
28.6387
28.7267
28.8759
29.0524
29.2424
29.4311
29.6279
29.787
29.9635
29.9954
29.8794
29.5327
29.5038
29.2621
29.0824
28.9498
28.8663
28.8255
28.8144
28.8293
28.8539
28.9024
28.9346
28.9886
28.9867
28.9984
28.9237
28.8451
28.7248
28.6561
28.6508
28.7361
28.8844
29.0603
29.2504
29.4396
29.6377
29.7965
29.9752
30.005
29.8377
29.4374
29.426
29.2077
29.053
28.9358
28.8632
28.8273
28.8198
28.8379
28.8634
28.9122
28.9427
28.9971
28.9934
29.0069
28.9304
28.8474
28.7218
28.6518
28.6394
28.7234
28.875
29.0525
29.2439
29.4331
29.6318
29.7881
29.9722
30.0005
29.7636
29.3488
29.3438
29.1431
29.012
28.9126
28.8526
28.8266
28.8235
28.8452
28.8717
28.9211
28.95
29.0055
28.9986
29.0139
28.9302
28.8425
28.7108
28.6359
28.615
28.69
28.8441
29.0251