/*--------------------------------*- C++ -*----------------------------------*\
  =========                 |
  \\      /  F ield         | OpenFOAM: The Open Source CFD Toolbox
   \\    /   O peration     | Website:  https://openfoam.org
    \\  /    A nd           | Version:  12
     \\/     M anipulation  |
\*---------------------------------------------------------------------------*/
FoamFile
{
    format      ascii;
    class       volScalarField;
    location    "1800/air";
    object      T;
}
// * * * * * * * * * * * * * * * * * * * * * * * * * * * * * * * * * * * * * //

dimensions      [0 0 0 1 0 0 0];

internalField   nonuniform List<scalar> 
243000
(
301.286
301.207
301.162
301.131
301.106
301.085
301.067
301.051
301.036
301.022
301.009
300.996
300.983
300.97
300.957
300.944
300.93
300.915
300.899
300.88
300.859
300.833
300.803
300.771
300.739
300.709
300.682
300.659
300.634
300.569
301.56
301.347
301.245
301.184
301.142
301.111
301.086
301.065
301.046
301.03
301.015
301
300.986
300.972
300.958
300.944
300.93
300.914
300.897
300.878
300.857
300.832
300.803
300.772
300.741
300.711
300.683
300.659
300.635
300.59
301.8
301.503
301.346
301.251
301.188
301.143
301.109
301.082
301.06
301.04
301.022
301.006
300.99
300.975
300.96
300.945
300.93
300.914
300.896
300.877
300.856
300.831
300.804
300.775
300.744
300.715
300.687
300.661
300.638
300.605
302.03
301.694
301.48
301.343
301.252
301.189
301.142
301.106
301.078
301.053
301.033
301.014
300.996
300.98
300.964
300.948
300.931
300.914
300.896
300.877
300.856
300.832
300.806
300.778
300.748
300.719
300.691
300.666
300.642
300.615
302.238
301.92
301.66
301.474
301.345
301.255
301.19
301.141
301.103
301.073
301.047
301.025
301.005
300.987
300.969
300.951
300.934
300.916
300.897
300.877
300.856
300.833
300.808
300.781
300.753
300.725
300.697
300.671
300.647
300.622
302.394
302.15
301.878
301.648
301.474
301.348
301.257
301.19
301.14
301.1
301.068
301.041
301.017
300.996
300.976
300.957
300.938
300.919
300.899
300.879
300.858
300.835
300.81
300.785
300.758
300.73
300.703
300.677
300.652
300.629
302.468
302.311
302.082
301.843
301.637
301.474
301.35
301.259
301.19
301.137
301.096
301.062
301.033
301.008
300.986
300.964
300.944
300.923
300.903
300.881
300.86
300.837
300.814
300.789
300.763
300.736
300.71
300.684
300.659
300.636
302.503
302.41
302.247
302.034
301.817
301.625
301.47
301.35
301.258
301.188
301.133
301.09
301.055
301.025
300.998
300.974
300.951
300.929
300.907
300.885
300.863
300.84
300.817
300.793
300.768
300.742
300.716
300.691
300.666
300.643
302.527
302.472
302.368
302.204
302.001
301.797
301.615
301.466
301.347
301.255
301.183
301.127
301.082
301.046
301.014
300.986
300.961
300.937
300.913
300.89
300.867
300.844
300.821
300.797
300.773
300.748
300.723
300.698
300.674
300.65
302.547
302.512
302.45
302.339
302.175
301.979
301.783
301.607
301.46
301.342
301.249
301.176
301.119
301.073
301.035
301.002
300.973
300.946
300.921
300.896
300.872
300.849
300.826
300.803
300.779
300.755
300.73
300.706
300.681
300.658
302.569
302.543
302.504
302.435
302.319
302.155
301.964
301.773
301.6
301.454
301.335
301.241
301.167
301.108
301.061
301.022
300.988
300.958
300.93
300.904
300.879
300.855
300.831
300.808
300.785
300.761
300.737
300.714
300.69
300.667
302.592
302.57
302.544
302.501
302.426
302.305
302.141
301.952
301.763
301.591
301.444
301.325
301.229
301.155
301.096
301.048
301.008
300.973
300.942
300.913
300.887
300.862
300.838
300.814
300.791
300.768
300.745
300.722
300.698
300.675
302.615
302.596
302.575
302.546
302.499
302.418
302.293
302.128
301.941
301.752
301.579
301.431
301.311
301.215
301.14
301.081
301.032
300.992
300.956
300.925
300.896
300.87
300.845
300.821
300.798
300.776
300.753
300.73
300.707
300.684
302.637
302.62
302.601
302.579
302.547
302.496
302.41
302.281
302.114
301.926
301.736
301.562
301.414
301.293
301.198
301.123
301.064
301.015
300.974
300.939
300.908
300.879
300.853
300.829
300.806
300.783
300.761
300.738
300.716
300.694
302.657
302.641
302.624
302.605
302.582
302.547
302.49
302.399
302.266
302.096
301.905
301.714
301.54
301.392
301.272
301.178
301.104
301.045
300.997
300.956
300.921
300.891
300.863
300.838
300.814
300.792
300.769
300.747
300.725
300.703
302.674
302.658
302.642
302.625
302.606
302.58
302.542
302.481
302.383
302.245
302.07
301.877
301.685
301.512
301.365
301.248
301.156
301.083
301.025
300.978
300.939
300.905
300.875
300.848
300.824
300.8
300.778
300.756
300.734
300.712
302.687
302.671
302.655
302.64
302.623
302.602
302.575
302.533
302.466
302.361
302.216
302.037
301.842
301.65
301.479
301.336
301.222
301.132
301.062
301.006
300.96
300.921
300.889
300.86
300.834
300.81
300.787
300.765
300.743
300.722
302.695
302.679
302.664
302.649
302.633
302.616
302.594
302.565
302.518
302.444
302.332
302.179
301.996
301.799
301.609
301.442
301.304
301.194
301.108
301.04
300.986
300.942
300.905
300.874
300.846
300.821
300.797
300.775
300.753
300.732
302.697
302.682
302.668
302.653
302.639
302.623
302.605
302.582
302.55
302.498
302.416
302.295
302.135
301.946
301.75
301.564
301.404
301.272
301.167
301.085
301.02
300.968
300.926
300.891
300.86
300.833
300.809
300.786
300.764
300.742
302.692
302.678
302.665
302.652
302.638
302.624
302.609
302.59
302.566
302.53
302.471
302.38
302.25
302.082
301.891
301.697
301.519
301.366
301.241
301.141
301.063
301.001
300.952
300.912
300.878
300.848
300.822
300.798
300.775
300.754
302.678
302.666
302.654
302.642
302.63
302.618
302.605
302.59
302.572
302.546
302.505
302.438
302.337
302.197
302.024
301.833
301.645
301.475
301.33
301.212
301.118
301.044
300.985
300.938
300.899
300.866
300.838
300.812
300.788
300.766
302.656
302.645
302.634
302.624
302.614
302.604
302.593
302.582
302.569
302.55
302.521
302.474
302.399
302.288
302.139
301.962
301.775
301.594
301.433
301.297
301.186
301.097
301.027
300.972
300.926
300.889
300.857
300.828
300.803
300.78
302.623
302.614
302.605
302.598
302.59
302.583
302.575
302.567
302.558
302.545
302.525
302.492
302.438
302.354
302.232
302.078
301.901
301.72
301.548
301.396
301.268
301.164
301.081
301.014
300.961
300.917
300.88
300.849
300.821
300.796
302.579
302.573
302.568
302.563
302.559
302.555
302.55
302.545
302.539
302.531
302.518
302.496
302.459
302.397
302.303
302.174
302.016
301.843
301.669
301.507
301.365
301.245
301.148
301.069
301.005
300.953
300.91
300.874
300.842
300.815
302.524
302.522
302.521
302.52
302.52
302.519
302.518
302.517
302.515
302.511
302.504
302.491
302.466
302.422
302.352
302.249
302.115
301.958
301.79
301.625
301.474
301.341
301.229
301.136
301.06
300.999
300.948
300.905
300.869
300.837
302.455
302.459
302.463
302.468
302.473
302.477
302.481
302.484
302.486
302.486
302.484
302.476
302.46
302.431
302.38
302.301
302.193
302.057
301.904
301.744
301.589
301.448
301.323
301.217
301.129
301.056
300.995
300.945
300.902
300.866
302.37
302.381
302.392
302.403
302.413
302.423
302.431
302.438
302.443
302.446
302.447
302.443
302.433
302.414
302.378
302.321
302.237
302.128
301.996
301.851
301.702
301.558
301.427
301.31
301.21
301.124
301.053
300.993
300.942
300.899
302.257
302.273
302.29
302.306
302.321
302.333
302.343
302.35
302.354
302.354
302.352
302.347
302.338
302.324
302.299
302.259
302.201
302.121
302.019
301.9
301.77
301.638
301.51
301.392
301.285
301.192
301.112
301.043
300.985
300.935
302.024
302.036
302.05
302.062
302.07
302.074
302.071
302.064
302.053
302.038
302.022
302.005
301.989
301.972
301.952
301.928
301.895
301.85
301.79
301.714
301.625
301.53
301.432
301.337
301.247
301.164
301.09
301.026
300.969
300.92
301.02
301.011
301.024
301.037
301.041
301.036
301.024
301.01
300.993
300.975
300.958
300.942
300.927
300.912
300.898
300.887
300.876
300.861
300.84
300.813
300.781
300.747
300.712
300.678
300.645
300.613
300.583
300.557
300.534
300.512
301.131
301.099
301.076
301.057
301.041
301.026
301.011
300.998
300.985
300.973
300.961
300.949
300.936
300.924
300.91
300.896
300.88
300.862
300.841
300.814
300.783
300.746
300.708
300.672
300.639
300.612
300.589
300.571
300.553
300.518
301.178
301.134
301.103
301.077
301.056
301.038
301.021
301.006
300.992
300.978
300.965
300.952
300.939
300.925
300.911
300.896
300.879
300.861
300.839
300.813
300.783
300.749
300.714
300.679
300.647
300.619
300.595
300.575
300.556
300.528
301.221
301.172
301.134
301.104
301.079
301.057
301.037
301.02
301.003
300.988
300.973
300.959
300.944
300.929
300.914
300.898
300.88
300.86
300.838
300.813
300.784
300.753
300.719
300.686
300.655
300.627
300.602
300.581
300.562
300.538
301.266
301.216
301.174
301.139
301.11
301.083
301.06
301.039
301.02
301.002
300.985
300.969
300.952
300.936
300.919
300.901
300.882
300.861
300.838
300.813
300.786
300.756
300.724
300.693
300.663
300.635
300.61
300.588
300.568
300.546
301.318
301.271
301.228
301.188
301.153
301.121
301.093
301.067
301.044
301.023
301.002
300.983
300.964
300.945
300.926
300.906
300.885
300.863
300.839
300.814
300.787
300.759
300.729
300.699
300.67
300.643
300.618
300.595
300.575
300.554
301.384
301.345
301.301
301.257
301.214
301.175
301.139
301.106
301.077
301.051
301.026
301.003
300.98
300.959
300.937
300.915
300.891
300.867
300.842
300.816
300.79
300.762
300.734
300.705
300.677
300.651
300.626
300.603
300.582
300.562
301.467
301.449
301.408
301.355
301.3
301.248
301.201
301.159
301.122
301.088
301.057
301.029
301.002
300.976
300.951
300.926
300.9
300.874
300.847
300.82
300.793
300.766
300.739
300.711
300.685
300.659
300.635
300.612
300.59
300.57
301.555
301.561
301.533
301.479
301.414
301.347
301.285
301.229
301.181
301.138
301.099
301.063
301.03
300.999
300.97
300.941
300.912
300.883
300.854
300.826
300.798
300.771
300.744
300.718
300.692
300.667
300.643
300.62
300.598
300.578
301.642
301.663
301.65
301.606
301.539
301.463
301.388
301.318
301.256
301.2
301.151
301.107
301.066
301.029
300.994
300.96
300.927
300.895
300.863
300.833
300.805
300.777
300.751
300.725
300.7
300.675
300.652
300.629
300.607
300.587
301.724
301.752
301.753
301.724
301.667
301.59
301.505
301.422
301.346
301.278
301.216
301.162
301.112
301.066
301.024
300.985
300.947
300.91
300.876
300.843
300.813
300.785
300.758
300.732
300.708
300.684
300.661
300.639
300.617
300.596
301.802
301.83
301.841
301.828
301.785
301.717
301.631
301.54
301.451
301.369
301.295
301.228
301.167
301.113
301.062
301.015
300.971
300.93
300.891
300.856
300.824
300.794
300.767
300.741
300.717
300.693
300.67
300.648
300.626
300.606
301.879
301.904
301.919
301.916
301.89
301.836
301.758
301.666
301.569
301.475
301.387
301.307
301.235
301.169
301.109
301.053
301.002
300.955
300.911
300.872
300.837
300.806
300.777
300.751
300.726
300.703
300.68
300.658
300.636
300.616
301.956
301.975
301.989
301.993
301.978
301.94
301.877
301.792
301.694
301.592
301.492
301.399
301.314
301.236
301.165
301.1
301.04
300.985
300.936
300.892
300.854
300.82
300.789
300.762
300.737
300.713
300.691
300.669
300.647
300.627
302.033
302.045
302.055
302.06
302.053
302.028
301.98
301.909
301.818
301.715
301.608
301.503
301.405
301.315
301.232
301.155
301.086
301.023
300.967
300.917
300.874
300.837
300.804
300.775
300.749
300.725
300.702
300.68
300.658
300.638
302.108
302.114
302.119
302.122
302.118
302.101
302.067
302.011
301.933
301.836
301.729
301.617
301.508
301.405
301.31
301.221
301.141
301.069
301.004
300.948
300.899
300.858
300.822
300.79
300.762
300.737
300.714
300.691
300.669
300.649
302.181
302.18
302.181
302.18
302.175
302.162
302.137
302.095
302.032
301.948
301.847
301.734
301.618
301.505
301.398
301.298
301.206
301.123
301.049
300.985
300.93
300.883
300.843
300.808
300.778
300.751
300.727
300.704
300.682
300.661
302.247
302.242
302.238
302.233
302.226
302.214
302.194
302.161
302.112
302.042
301.953
301.847
301.732
301.613
301.496
301.385
301.282
301.188
301.104
301.03
300.967
300.914
300.869
300.83
300.797
300.768
300.742
300.718
300.695
300.674
302.306
302.297
302.289
302.28
302.27
302.257
302.239
302.212
302.173
302.117
302.043
301.949
301.84
301.721
301.599
301.48
301.367
301.262
301.167
301.084
301.012
300.951
300.9
300.857
300.82
300.788
300.759
300.734
300.71
300.689
302.354
302.342
302.331
302.318
302.306
302.291
302.273
302.25
302.218
302.174
302.113
302.033
301.936
301.824
301.703
301.58
301.459
301.345
301.241
301.147
301.066
300.996
300.938
300.888
300.847
300.811
300.78
300.752
300.727
300.704
302.389
302.375
302.361
302.347
302.332
302.316
302.298
302.276
302.249
302.212
302.163
302.098
302.015
301.915
301.801
301.68
301.556
301.436
301.323
301.22
301.129
301.05
300.984
300.927
300.88
300.839
300.804
300.774
300.746
300.722
302.408
302.393
302.378
302.363
302.346
302.33
302.311
302.291
302.267
302.236
302.196
302.143
302.075
301.989
301.888
301.774
301.653
301.531
301.413
301.302
301.202
301.114
301.039
300.974
300.92
300.874
300.834
300.8
300.769
300.743
302.411
302.396
302.381
302.365
302.349
302.332
302.314
302.295
302.273
302.246
302.213
302.171
302.116
302.045
301.959
301.857
301.745
301.626
301.507
301.391
301.284
301.188
301.104
301.031
300.969
300.916
300.87
300.831
300.797
300.767
302.392
302.378
302.364
302.35
302.335
302.319
302.303
302.286
302.266
302.245
302.218
302.183
302.139
302.083
302.011
301.925
301.826
301.716
301.601
301.485
301.374
301.271
301.179
301.098
301.027
300.967
300.915
300.87
300.83
300.797
302.351
302.339
302.327
302.315
302.303
302.29
302.277
302.263
302.247
302.229
302.207
302.18
302.145
302.1
302.044
301.974
301.891
301.795
301.689
301.579
301.468
301.362
301.263
301.174
301.096
301.028
300.968
300.916
300.871
300.833
302.286
302.278
302.269
302.261
302.252
302.242
302.232
302.221
302.209
302.194
302.177
302.155
302.128
302.093
302.05
301.996
301.93
301.852
301.761
301.662
301.558
301.454
301.353
301.259
301.174
301.098
301.03
300.971
300.92
300.875
302.195
302.191
302.186
302.18
302.174
302.168
302.161
302.152
302.142
302.13
302.115
302.097
302.076
302.049
302.016
301.976
301.927
301.867
301.795
301.714
301.624
301.529
301.433
301.34
301.252
301.171
301.097
301.032
300.974
300.923
302.071
302.068
302.065
302.061
302.057
302.053
302.047
302.04
302.031
302.018
302.003
301.986
301.967
301.944
301.918
301.887
301.851
301.808
301.756
301.694
301.622
301.544
301.462
301.379
301.297
301.219
301.146
301.08
301.019
300.966
301.887
301.876
301.869
301.866
301.864
301.861
301.857
301.848
301.836
301.819
301.8
301.779
301.757
301.734
301.708
301.682
301.657
301.628
301.594
301.55
301.497
301.438
301.374
301.308
301.242
301.178
301.117
301.061
301.008
300.959
301.553
301.52
301.504
301.501
301.503
301.503
301.497
301.484
301.466
301.444
301.422
301.399
301.377
301.353
301.329
301.304
301.281
301.256
301.227
301.195
301.159
301.12
301.08
301.039
301
300.961
300.924
300.889
300.857
300.824
300.864
300.854
300.859
300.871
300.882
300.889
300.89
300.886
300.878
300.867
300.854
300.84
300.825
300.808
300.789
300.769
300.75
300.73
300.707
300.682
300.655
300.627
300.599
300.573
300.547
300.523
300.5
300.479
300.46
300.442
301.096
301.069
301.047
301.029
301.013
300.998
300.984
300.97
300.958
300.945
300.933
300.921
300.908
300.895
300.881
300.865
300.847
300.825
300.798
300.764
300.724
300.681
300.642
300.608
300.582
300.561
300.544
300.531
300.517
300.496
301.111
301.078
301.053
301.033
301.015
300.999
300.984
300.971
300.958
300.945
300.933
300.92
300.907
300.893
300.878
300.862
300.843
300.821
300.794
300.762
300.725
300.686
300.65
300.617
300.59
300.568
300.551
300.535
300.521
300.502
301.123
301.091
301.065
301.043
301.024
301.007
300.991
300.977
300.963
300.95
300.937
300.923
300.91
300.895
300.879
300.861
300.841
300.818
300.792
300.761
300.727
300.691
300.657
300.626
300.599
300.577
300.558
300.541
300.526
300.508
301.139
301.107
301.081
301.059
301.039
301.021
301.004
300.989
300.974
300.96
300.945
300.93
300.915
300.899
300.882
300.862
300.841
300.817
300.79
300.761
300.729
300.696
300.663
300.634
300.608
300.585
300.565
300.547
300.531
300.513
301.159
301.13
301.105
301.082
301.061
301.042
301.024
301.007
300.99
300.974
300.958
300.942
300.925
300.907
300.888
300.867
300.843
300.818
300.79
300.761
300.731
300.7
300.67
300.642
300.616
300.593
300.573
300.555
300.537
300.52
301.186
301.161
301.137
301.115
301.093
301.072
301.052
301.032
301.013
300.995
300.976
300.958
300.939
300.919
300.897
300.874
300.848
300.821
300.792
300.763
300.734
300.704
300.676
300.649
300.625
300.602
300.581
300.562
300.544
300.526
301.222
301.201
301.179
301.158
301.135
301.112
301.089
301.067
301.045
301.023
301.001
300.98
300.957
300.935
300.91
300.884
300.856
300.826
300.796
300.767
300.738
300.71
300.683
300.657
300.633
300.611
300.59
300.57
300.552
300.533
301.267
301.251
301.234
301.215
301.191
301.166
301.139
301.112
301.086
301.06
301.034
301.008
300.982
300.956
300.928
300.898
300.867
300.835
300.803
300.773
300.744
300.716
300.69
300.665
300.642
300.62
300.599
300.579
300.56
300.541
301.321
301.315
301.306
301.289
301.265
301.236
301.204
301.171
301.138
301.106
301.075
301.044
301.013
300.983
300.951
300.917
300.882
300.847
300.813
300.781
300.752
300.724
300.698
300.674
300.651
300.629
300.608
300.588
300.568
300.55
301.387
301.39
301.386
301.373
301.35
301.319
301.282
301.243
301.203
301.164
301.126
301.089
301.052
301.016
300.979
300.941
300.901
300.863
300.826
300.792
300.762
300.733
300.708
300.683
300.661
300.639
300.618
300.598
300.578
300.559
301.461
301.469
301.47
301.462
301.442
301.41
301.371
301.326
301.28
301.233
301.188
301.143
301.1
301.057
301.014
300.97
300.926
300.883
300.843
300.807
300.774
300.745
300.718
300.694
300.671
300.65
300.629
300.608
300.588
300.569
301.539
301.55
301.555
301.551
301.535
301.507
301.467
301.419
301.366
301.313
301.26
301.208
301.157
301.107
301.057
301.007
300.957
300.909
300.865
300.825
300.79
300.759
300.731
300.706
300.683
300.661
300.64
300.619
300.598
300.579
301.622
301.633
301.64
301.639
301.627
301.602
301.565
301.517
301.461
301.402
301.341
301.282
301.223
301.165
301.108
301.05
300.994
300.941
300.892
300.848
300.81
300.776
300.746
300.72
300.696
300.673
300.652
300.631
300.61
300.59
301.707
301.717
301.724
301.724
301.715
301.695
301.662
301.616
301.56
301.497
301.431
301.364
301.297
301.232
301.167
301.102
301.039
300.98
300.925
300.876
300.834
300.797
300.765
300.736
300.711
300.687
300.665
300.643
300.622
300.602
301.794
301.803
301.807
301.807
301.799
301.782
301.753
301.711
301.658
301.595
301.525
301.453
301.379
301.307
301.234
301.162
301.092
301.026
300.965
300.911
300.863
300.822
300.787
300.755
300.728
300.702
300.679
300.657
300.635
300.615
301.882
301.887
301.888
301.886
301.879
301.863
301.838
301.8
301.751
301.69
301.621
301.545
301.467
301.388
301.309
301.229
301.152
301.08
301.012
300.952
300.899
300.853
300.813
300.778
300.748
300.721
300.696
300.672
300.65
300.629
301.966
301.967
301.966
301.961
301.952
301.937
301.914
301.881
301.836
301.78
301.713
301.637
301.556
301.473
301.389
301.304
301.221
301.141
301.068
301.001
300.941
300.889
300.844
300.806
300.772
300.742
300.715
300.69
300.666
300.645
302.043
302.042
302.037
302.03
302.019
302.003
301.981
301.951
301.911
301.859
301.797
301.724
301.644
301.56
301.472
301.383
301.296
301.211
301.13
301.057
300.991
300.932
300.882
300.838
300.801
300.767
300.737
300.71
300.685
300.662
302.111
302.107
302.1
302.09
302.077
302.06
302.038
302.01
301.974
301.927
301.871
301.803
301.727
301.644
301.556
301.466
301.375
301.286
301.2
301.12
301.048
300.983
300.927
300.878
300.835
300.797
300.764
300.733
300.706
300.682
302.166
302.16
302.151
302.139
302.124
302.106
302.084
302.058
302.024
301.983
301.932
301.871
301.801
301.723
301.638
301.548
301.457
301.366
301.276
301.191
301.113
301.042
300.979
300.924
300.875
300.833
300.795
300.761
300.731
300.704
302.204
302.196
302.186
302.173
302.158
302.139
302.118
302.093
302.062
302.025
301.98
301.926
301.863
301.792
301.713
301.628
301.54
301.449
301.358
301.269
301.186
301.109
301.04
300.978
300.923
300.875
300.832
300.794
300.76
300.73
302.22
302.212
302.202
302.19
302.175
302.157
302.137
302.113
302.086
302.053
302.013
301.967
301.912
301.849
301.778
301.701
301.618
301.532
301.442
301.353
301.266
301.184
301.109
301.041
300.98
300.925
300.876
300.833
300.794
300.761
302.214
302.207
302.198
302.188
302.175
302.159
302.14
302.119
302.094
302.065
302.03
301.99
301.943
301.889
301.828
301.76
301.687
301.608
301.524
301.438
301.351
301.266
301.186
301.112
301.045
300.983
300.928
300.879
300.835
300.796
302.182
302.177
302.17
302.162
302.151
302.138
302.122
302.104
302.082
302.057
302.027
301.992
301.952
301.905
301.853
301.795
301.732
301.665
301.591
301.513
301.432
301.349
301.268
301.19
301.116
301.049
300.987
300.931
300.881
300.838
302.122
302.119
302.115
302.109
302.101
302.091
302.078
302.062
302.043
302.021
301.994
301.963
301.926
301.885
301.839
301.789
301.736
301.681
301.622
301.557
301.489
301.415
301.338
301.262
301.188
301.116
301.05
300.988
300.933
300.884
302.029
302.028
302.025
302.02
302.014
302.006
301.995
301.982
301.964
301.943
301.917
301.887
301.852
301.812
301.769
301.722
301.677
301.633
301.588
301.54
301.487
301.431
301.369
301.303
301.235
301.168
301.103
301.039
300.981
300.928
301.891
301.887
301.881
301.875
301.87
301.864
301.855
301.843
301.826
301.804
301.777
301.745
301.709
301.667
301.621
301.573
301.531
301.493
301.46
301.428
301.394
301.358
301.317
301.269
301.218
301.164
301.109
301.054
301.001
300.951
301.681
301.666
301.652
301.643
301.639
301.637
301.632
301.621
301.604
301.579
301.55
301.516
301.48
301.44
301.395
301.348
301.309
301.273
301.244
301.217
301.191
301.164
301.138
301.114
301.088
301.059
301.023
300.984
300.945
300.906
301.338
301.314
301.3
301.296
301.298
301.301
301.3
301.292
301.277
301.256
301.23
301.201
301.168
301.131
301.089
301.045
301.008
300.974
300.947
300.922
300.9
300.879
300.859
300.84
300.823
300.805
300.791
300.775
300.756
300.735
300.788
300.787
300.794
300.808
300.825
300.84
300.849
300.853
300.85
300.84
300.826
300.807
300.784
300.756
300.722
300.684
300.652
300.623
300.597
300.574
300.553
300.534
300.517
300.501
300.486
300.472
300.459
300.445
300.431
300.417
301.084
301.053
301.031
301.012
300.995
300.979
300.964
300.95
300.937
300.924
300.912
300.899
300.886
300.872
300.857
300.84
300.82
300.794
300.76
300.717
300.67
300.628
300.593
300.567
300.548
300.533
300.522
300.512
300.502
300.49
301.086
301.05
301.024
301.003
300.985
300.97
300.956
300.943
300.931
300.918
300.906
300.894
300.881
300.867
300.851
300.833
300.812
300.787
300.754
300.716
300.674
300.635
300.602
300.577
300.557
300.541
300.528
300.517
300.506
300.492
301.086
301.052
301.026
301.005
300.987
300.972
300.958
300.944
300.932
300.919
300.907
300.894
300.88
300.865
300.848
300.829
300.807
300.781
300.75
300.715
300.677
300.642
300.611
300.586
300.566
300.549
300.535
300.522
300.509
300.495
301.089
301.058
301.034
301.013
300.995
300.979
300.965
300.951
300.938
300.925
300.911
300.898
300.883
300.867
300.849
300.828
300.804
300.778
300.748
300.714
300.68
300.647
300.619
300.595
300.575
300.558
300.542
300.528
300.514
300.499
301.097
301.07
301.047
301.027
301.009
300.993
300.978
300.963
300.949
300.935
300.92
300.905
300.889
300.872
300.852
300.829
300.804
300.776
300.746
300.715
300.683
300.653
300.627
300.604
300.584
300.566
300.55
300.534
300.519
300.503
301.112
301.089
301.068
301.049
301.031
301.014
300.998
300.982
300.966
300.95
300.934
300.918
300.9
300.88
300.858
300.833
300.806
300.776
300.746
300.716
300.687
300.659
300.635
300.613
300.593
300.575
300.558
300.542
300.525
300.509
301.135
301.116
301.097
301.079
301.061
301.043
301.025
301.007
300.989
300.972
300.954
300.935
300.915
300.893
300.868
300.84
300.81
300.779
300.749
300.72
300.692
300.666
300.643
300.622
300.602
300.584
300.567
300.549
300.532
300.515
301.167
301.152
301.135
301.118
301.099
301.08
301.06
301.04
301.02
301
300.979
300.958
300.934
300.91
300.882
300.851
300.818
300.786
300.755
300.726
300.699
300.674
300.652
300.631
300.612
300.594
300.576
300.558
300.539
300.521
301.209
301.198
301.183
301.166
301.147
301.127
301.105
301.082
301.059
301.035
301.011
300.986
300.96
300.932
300.9
300.866
300.83
300.795
300.763
300.734
300.707
300.683
300.662
300.642
300.623
300.604
300.585
300.567
300.548
300.529
301.259
301.253
301.241
301.226
301.207
301.184
301.16
301.134
301.107
301.079
301.051
301.022
300.992
300.96
300.924
300.885
300.846
300.808
300.775
300.745
300.718
300.694
300.672
300.652
300.633
300.614
300.595
300.576
300.556
300.537
301.32
301.317
301.308
301.294
301.275
301.252
301.224
301.195
301.164
301.132
301.099
301.066
301.031
300.994
300.953
300.91
300.867
300.826
300.79
300.759
300.731
300.707
300.685
300.664
300.645
300.626
300.606
300.586
300.566
300.546
301.388
301.388
301.382
301.37
301.351
301.327
301.298
301.265
301.23
301.193
301.156
301.117
301.077
301.035
300.989
300.941
300.894
300.85
300.811
300.777
300.748
300.722
300.699
300.678
300.658
300.638
300.618
300.597
300.576
300.557
301.463
301.465
301.46
301.45
301.432
301.408
301.378
301.343
301.304
301.263
301.22
301.176
301.13
301.083
301.032
300.979
300.927
300.879
300.837
300.8
300.769
300.741
300.716
300.693
300.672
300.651
300.631
300.61
300.588
300.568
301.542
301.545
301.542
301.533
301.516
301.493
301.462
301.426
301.384
301.339
301.292
301.243
301.191
301.138
301.081
301.023
300.967
300.915
300.869
300.829
300.794
300.763
300.736
300.712
300.689
300.667
300.645
300.623
300.601
300.58
301.625
301.629
301.626
301.617
301.602
301.579
301.549
301.511
301.468
301.42
301.369
301.315
301.258
301.2
301.138
301.075
301.014
300.958
300.908
300.864
300.825
300.791
300.76
300.733
300.708
300.684
300.661
300.638
300.615
300.594
301.71
301.713
301.71
301.701
301.686
301.664
301.634
301.597
301.553
301.504
301.449
301.392
301.33
301.268
301.201
301.133
301.069
301.009
300.954
300.905
300.862
300.823
300.79
300.759
300.731
300.705
300.68
300.656
300.632
300.609
301.793
301.796
301.792
301.783
301.767
301.745
301.716
301.68
301.636
301.586
301.531
301.47
301.406
301.34
301.27
301.199
301.13
301.066
301.008
300.954
300.905
300.863
300.825
300.79
300.759
300.73
300.702
300.676
300.65
300.626
301.871
301.873
301.869
301.859
301.843
301.821
301.793
301.757
301.715
301.666
301.61
301.548
301.482
301.414
301.342
301.269
301.198
301.131
301.068
301.009
300.956
300.909
300.866
300.827
300.792
300.759
300.728
300.699
300.67
300.645
301.941
301.942
301.938
301.928
301.911
301.89
301.862
301.828
301.787
301.739
301.684
301.623
301.558
301.489
301.417
301.343
301.271
301.201
301.135
301.073
301.015
300.962
300.915
300.871
300.83
300.793
300.758
300.725
300.694
300.667
301.999
301.999
301.994
301.984
301.968
301.947
301.92
301.888
301.849
301.803
301.751
301.693
301.629
301.562
301.491
301.419
301.347
301.277
301.208
301.143
301.081
301.024
300.971
300.921
300.875
300.833
300.793
300.756
300.722
300.692
302.039
302.04
302.035
302.026
302.011
301.991
301.966
301.936
301.899
301.857
301.808
301.754
301.694
301.63
301.563
301.493
301.424
301.354
301.285
301.218
301.153
301.092
301.034
300.979
300.927
300.879
300.834
300.792
300.754
300.72
302.06
302.061
302.058
302.05
302.037
302.02
301.997
301.969
301.935
301.897
301.852
301.803
301.748
301.689
301.626
301.561
301.495
301.429
301.362
301.295
301.229
301.165
301.103
301.043
300.985
300.931
300.881
300.834
300.79
300.753
302.056
302.059
302.059
302.054
302.044
302.029
302.009
301.984
301.954
301.919
301.88
301.835
301.785
301.731
301.673
301.612
301.55
301.487
301.426
301.363
301.301
301.237
301.173
301.11
301.048
300.989
300.933
300.88
300.832
300.789
302.028
302.033
302.035
302.033
302.027
302.015
301.999
301.977
301.951
301.92
301.884
301.843
301.796
301.745
301.69
301.63
301.57
301.512
301.457
301.404
301.35
301.293
301.234
301.172
301.109
301.047
300.987
300.93
300.877
300.83
301.97
301.978
301.982
301.983
301.979
301.971
301.957
301.939
301.916
301.887
301.853
301.814
301.768
301.717
301.66
301.596
301.534
301.478
301.431
301.39
301.349
301.308
301.262
301.211
301.156
301.096
301.036
300.977
300.922
300.872
301.879
301.887
301.892
301.893
301.891
301.884
301.873
301.857
301.836
301.809
301.775
301.735
301.688
301.631
301.57
301.499
301.435
301.382
301.34
301.307
301.279
301.254
301.229
301.198
301.158
301.113
301.062
301.008
300.956
300.906
301.74
301.743
301.744
301.744
301.742
301.738
301.73
301.716
301.697
301.67
301.636
301.593
301.543
301.484
301.419
301.343
301.279
301.226
301.189
301.162
301.143
301.129
301.116
301.104
301.089
301.066
301.033
300.995
300.951
300.909
301.526
301.521
301.516
301.513
301.513
301.514
301.512
301.503
301.486
301.46
301.425
301.384
301.337
301.279
301.213
301.135
301.072
301.021
300.986
300.962
300.947
300.938
300.933
300.93
300.927
300.923
300.915
300.898
300.873
300.843
301.194
301.188
301.187
301.191
301.199
301.207
301.211
301.21
301.199
301.18
301.152
301.117
301.074
301.021
300.958
300.884
300.825
300.778
300.745
300.722
300.708
300.699
300.695
300.694
300.695
300.694
300.693
300.689
300.681
300.668
300.735
300.746
300.761
300.782
300.805
300.826
300.842
300.852
300.853
300.846
300.83
300.806
300.773
300.73
300.676
300.612
300.562
300.521
300.491
300.469
300.454
300.444
300.438
300.434
300.431
300.429
300.425
300.42
300.412
300.402
301.08
301.045
301.02
300.999
300.98
300.964
300.948
300.934
300.92
300.907
300.894
300.88
300.867
300.853
300.837
300.818
300.796
300.765
300.723
300.672
300.624
300.586
300.559
300.54
300.527
300.517
300.509
300.502
300.493
300.483
301.071
301.029
301.002
300.98
300.962
300.947
300.933
300.92
300.907
300.895
300.883
300.871
300.858
300.843
300.827
300.808
300.785
300.755
300.716
300.672
300.63
300.595
300.57
300.551
300.537
300.526
300.517
300.507
300.497
300.485
301.057
301.019
300.992
300.972
300.955
300.941
300.927
300.915
300.903
300.892
300.88
300.867
300.853
300.838
300.821
300.801
300.777
300.748
300.712
300.672
300.635
300.603
300.579
300.561
300.547
300.535
300.524
300.513
300.501
300.488
301.048
301.017
300.993
300.974
300.958
300.944
300.93
300.918
300.906
300.893
300.881
300.868
300.853
300.837
300.818
300.797
300.771
300.742
300.708
300.672
300.639
300.611
300.588
300.571
300.557
300.544
300.532
300.519
300.506