/*--------------------------------*- C++ -*----------------------------------*\
  =========                 |
  \\      /  F ield         | OpenFOAM: The Open Source CFD Toolbox
   \\    /   O peration     | Website:  https://openfoam.org
    \\  /    A nd           | Version:  12
     \\/     M anipulation  |
\*---------------------------------------------------------------------------*/
FoamFile
{
    format      ascii;
    class       volScalarField;
    location    "200/porous";
    object      rho;
}
// * * * * * * * * * * * * * * * * * * * * * * * * * * * * * * * * * * * * * //

dimensions      [1 -3 0 0 0 0 0];

internalField   nonuniform List<scalar> 
140000
(
933.891
933.891
933.891
933.891
933.891
933.891
933.891
933.891
933.892
933.899
934.194
934.421
934.622
934.812
934.999
935.19
935.396
935.631
935.915
936.271
936.727
937.312
938.049
938.957
940.042
941.299
942.71
944.256
945.915
947.663
949.477
951.332
953.204
955.067
956.899
958.68
960.39
962.013
963.536
964.949
966.248
967.429
968.492
969.442
970.282
971.018
971.658
972.21
972.683
973.084
973.421
973.704
973.938
974.13
974.287
974.415
974.517
974.598
974.663
974.707
974.598
974.526
974.465
974.41
974.359
974.31
974.264
974.219
974.176
974.137
933.891
933.891
933.891
933.891
933.891
933.891
933.891
933.891
933.891
933.896
934.122
934.302
934.462
934.614
934.762
934.91
935.063
935.228
935.413
935.63
935.893
936.219
936.622
937.117
937.715
938.426
939.261
940.224
941.316
942.533
943.869
945.314
946.851
948.466
950.138
951.849
953.576
955.3
957
958.659
960.261
961.793
963.242
964.601
965.862
967.022
968.079
969.033
969.885
970.641
971.305
971.882
972.381
972.807
973.169
973.473
973.727
973.936
974.108
974.245
974.259
974.276
974.285
974.286
974.279
974.266
974.247
974.224
974.199
974.173
933.891
933.891
933.891
933.891
933.891
933.891
933.891
933.891
933.891
933.895
934.103
934.265
934.408
934.54
934.667
934.792
934.917
935.045
935.18
935.329
935.498
935.695
935.932
936.221
936.574
937.008
937.535
938.169
938.921
939.798
940.804
941.938
943.197
944.571
946.048
947.613
949.248
950.934
952.652
954.38
956.1
957.792
959.437
961.019
962.526
963.945
965.267
966.488
967.603
968.61
969.513
970.313
971.017
971.629
972.158
972.611
972.995
973.319
973.589
973.81
973.907
973.993
974.061
974.11
974.143
974.163
974.172
974.172
974.164
974.152
933.891
933.891
933.891
933.891
933.891
933.891
933.891
933.891
933.891
933.895
934.099
934.256
934.393
934.52
934.639
934.755
934.869
934.984
935.102
935.227
935.364
935.519
935.703
935.926
936.2
936.541
936.964
937.483
938.112
938.862
939.74
940.752
941.895
943.165
944.553
946.047
947.63
949.286
950.994
952.735
954.486
956.226
957.936
959.595
961.188
962.701
964.121
965.442
966.656
967.761
968.758
969.647
970.433
971.122
971.72
972.236
972.675
973.047
973.359
973.617
973.748
973.863
973.955
974.025
974.076
974.11
974.13
974.14
974.141
974.135
933.891
933.891
933.891
933.891
933.891
933.891
933.891
933.891
933.891
933.895
934.099
934.255
934.39
934.514
934.632
934.745
934.856
934.966
935.079
935.196
935.324
935.468
935.637
935.841
936.093
936.407
936.799
937.283
937.873
938.583
939.42
940.391
941.496
942.732
944.091
945.563
947.132
948.78
950.489
952.236
954
955.759
957.491
959.176
960.797
962.338
963.789
965.138
966.382
967.516
968.539
969.454
970.265
970.976
971.594
972.127
972.583
972.968
973.293
973.561
973.702
973.825
973.924
974
974.055
974.094
974.117
974.13
974.133
974.129
933.891
933.891
933.891
933.891
933.891
933.891
933.891
933.891
933.891
933.895
934.099
934.255
934.391
934.515
934.632
934.745
934.855
934.964
935.075
935.191
935.316
935.458
935.623
935.823
936.07
936.378
936.761
937.236
937.816
938.514
939.34
940.3
941.394
942.621
943.974
945.441
947.008
948.657
950.368
952.12
953.89
955.656
957.395
959.087
960.716
962.265
963.722
965.078
966.328
967.468
968.497
969.417
970.232
970.947
971.569
972.106
972.565
972.953
973.28
973.55
973.693
973.818
973.918
973.995
974.051
974.09
974.115
974.128
974.131
974.128
933.891
933.891
933.891
933.891
933.891
933.891
933.891
933.891
933.891
933.895
934.1
934.256
934.392
934.516
934.633
934.746
934.856
934.965
935.076
935.192
935.317
935.458
935.624
935.823
936.07
936.377
936.759
937.231
937.808
938.502
939.324
940.279
941.369
942.593
943.944
945.409
946.976
948.626
950.339
952.094
953.867
955.635
957.377
959.073
960.704
962.255
963.714
965.071
966.322
967.463
968.493
969.413
970.229
970.945
971.567
972.104
972.563
972.952
973.278
973.549
973.692
973.817
973.917
973.994
974.051
974.09
974.114
974.127
974.131
974.128
933.891
933.891
933.891
933.891
933.891
933.891
933.891
933.891
933.891
933.895
934.101
934.257
934.393
934.518
934.635
934.748
934.858
934.968
935.079
935.195
935.321
935.463
935.629
935.83
936.077
936.385
936.768
937.241
937.818
938.511
939.332
940.286
941.375
942.597
943.947
945.412
946.979
948.63
950.344
952.1
953.873
955.643
957.385
959.081
960.712
962.263
963.722
965.079
966.329
967.469
968.498
969.418
970.233
970.948
971.57
972.106
972.565
972.953
973.28
973.549
973.692
973.817
973.918
973.995
974.051
974.09
974.115
974.128
974.131
974.128
933.891
933.891
933.891
933.891
933.891
933.891
933.891
933.891
933.891
933.895
934.101
934.258
934.394
934.519
934.637
934.75
934.86
934.97
935.081
935.198
935.325
935.468
935.635
935.837
936.086
936.394
936.778
937.251
937.828
938.522
939.341
940.294
941.382
942.603
943.951
945.416
946.983
948.633
950.347
952.103
953.878
955.647
957.391
959.087
960.718
962.269
963.728
965.085
966.334
967.473
968.502
969.421
970.236
970.951
971.572
972.108
972.566
972.954
973.281
973.55
973.693
973.818
973.918
973.995
974.051
974.09
974.115
974.128
974.131
974.128
933.891
933.891
933.891
933.891
933.891
933.891
933.891
933.891
933.891
933.895
934.102
934.259
934.396
934.52
934.638
934.752
934.862
934.972
935.084
935.202
935.329
935.472
935.641
935.844
936.094
936.404
936.789
937.263
937.841
938.534
939.354
940.306
941.393
942.614
943.961
945.425
946.991
948.642
950.356
952.111
953.886
955.655
957.398
959.095
960.726
962.276
963.735
965.091
966.34
967.478
968.506
969.425
970.239
970.953
971.574
972.11
972.568
972.956
973.281
973.551
973.694
973.819
973.919
973.996
974.052
974.091
974.115
974.128
974.131
974.128
933.891
933.891
933.891
933.891
933.891
933.891
933.891
933.891
933.891
933.895
934.102
934.26
934.396
934.522
934.64
934.753
934.864
934.975
935.087
935.204
935.332
935.477
935.646
935.85
936.101
936.412
936.798
937.273
937.85
938.544
939.363
940.314
941.401
942.62
943.967
945.43
946.995
948.645
950.358
952.114
953.888
955.658
957.401
959.097
960.728
962.279
963.737
965.093
966.342
967.48
968.508
969.426
970.24
970.954
971.575
972.111
972.568
972.956
973.282
973.551
973.694
973.819
973.919
973.996
974.052
974.091
974.115
974.128
974.132
974.128
933.891
933.891
933.891
933.891
933.891
933.891
933.891
933.891
933.891
933.895
934.103
934.261
934.397
934.523
934.641
934.755
934.866
934.977
935.089
935.207
935.335
935.48
935.651
935.856
936.108
936.42
936.806
937.282
937.86
938.554
939.372
940.323
941.409
942.627
943.973
945.435
947
948.649
950.362
952.117
953.891
955.661
957.404
959.1
960.731
962.282
963.74
965.096
966.344
967.482
968.509
969.428
970.241
970.955
971.576
972.111
972.569
972.957
973.282
973.552
973.694
973.819
973.919
973.996
974.052
974.091
974.115
974.128
974.132
974.128
933.891
933.891
933.891
933.891
933.891
933.891
933.891
933.891
933.891
933.895
934.103
934.261
934.398
934.524
934.642
934.756
934.867
934.978
935.091
935.209
935.338
935.483
935.654
935.86
936.113
936.426
936.813
937.289
937.867
938.56
939.379
940.329
941.413
942.631
943.975
945.437
947
948.649
950.361
952.116
953.89
955.659
957.402
959.098
960.73
962.28
963.739
965.095
966.344
967.482
968.509
969.427
970.241
970.955
971.576
972.111
972.569
972.956
973.282
973.552
973.694
973.819
973.919
973.996
974.052
974.091
974.115
974.128
974.132
974.128
933.891
933.891
933.891
933.891
933.891
933.891
933.891
933.891
933.891
933.895
934.103
934.262
934.399
934.524
934.643
934.757
934.869
934.98
935.093
935.211
935.34
935.486
935.658
935.864
936.118
936.431
936.818
937.295
937.873
938.567
939.385
940.334
941.418
942.634
943.978
945.438
947.001
948.648
950.36
952.115
953.888
955.657
957.4
959.097
960.728
962.279
963.737
965.094
966.343
967.481
968.508
969.427
970.24
970.954
971.575
972.111
972.568
972.956
973.282
973.551
973.694
973.819
973.919
973.996
974.052
974.091
974.116
974.128
974.132
974.129
933.891
933.891
933.891
933.891
933.891
933.891
933.891
933.891
933.891
933.895
934.104
934.262
934.399
934.525
934.644
934.758
934.87
934.981
935.094
935.213
935.342
935.488
935.66
935.867
936.121
936.435
936.822
937.299
937.877
938.571
939.388
940.337
941.42
942.635
943.977
945.436
946.998
948.645
950.356
952.11
953.883
955.652
957.395
959.092
960.724
962.275
963.734
965.091
966.34
967.479
968.506
969.425
970.239
970.953
971.574
972.11
972.568
972.956
973.281
973.551
973.694
973.819
973.919
973.996
974.052
974.091
974.116
974.128
974.132
974.129
933.891
933.891
933.891
933.891
933.891
933.891
933.891
933.891
933.891
933.895
934.104
934.263
934.4
934.526
934.645
934.759
934.871
934.982
935.095
935.214
935.343
935.49
935.662
935.869
936.123
936.438
936.826
937.302
937.881
938.574
939.391
940.339
941.421
942.635
943.976
945.434
946.995
948.641
950.352
952.105
953.878
955.647
957.39
959.087
960.719
962.27
963.73
965.087
966.337
967.476
968.504
969.423
970.237
970.951
971.573
972.109
972.567
972.955
973.281
973.551
973.694
973.819
973.919
973.996
974.052
974.091
974.116
974.128
974.132
974.129
933.891
933.891
933.891
933.891
933.891
933.891
933.891
933.891
933.891
933.895
934.104
934.263
934.4
934.526
934.645
934.76
934.871
934.983
935.096
935.215
935.345
935.491
935.664
935.871
936.125
936.439
936.828
937.304
937.883
938.575
939.391
940.339
941.42
942.633
943.973
945.43
946.99
948.635
950.345
952.098
953.87
955.639
957.382
959.079
960.712
962.264
963.724
965.082
966.332
967.472
968.5
969.42
970.234
970.949
971.571
972.107
972.565
972.954
973.28
973.55
973.693
973.818
973.919
973.996
974.052
974.091
974.116
974.128
974.132
974.129
933.891
933.891
933.891
933.891
933.891
933.891
933.891
933.891
933.891
933.895
934.104
934.263
934.4
934.526
934.646
934.76
934.872
934.983
935.097
935.216
935.346
935.492
935.664
935.872
936.126
936.44
936.829
937.305
937.883
938.575
939.391
940.338
941.418
942.63
943.969
945.424
946.983
948.628
950.337
952.089
953.862
955.63
957.374
959.071
960.704
962.257
963.717
965.076
966.327
967.467
968.496
969.416
970.231
970.946
971.569
972.105
972.564
972.952
973.279
973.549
973.692
973.818
973.918
973.995
974.052
974.091
974.116
974.128
974.132
974.129
933.891
933.891
933.891
933.891
933.891
933.891
933.891
933.891
933.891
933.895
934.104
934.263
934.401
934.527
934.646
934.761
934.873
934.984
935.097
935.216
935.346
935.493
935.665
935.872
936.126
936.441
936.829
937.305
937.883
938.574
939.389
940.335
941.414
942.625
943.962
945.417
946.974
948.618
950.327
952.079
953.851
955.62
957.363
959.061
960.694
962.248
963.709
965.068
966.32
967.461
968.491
969.412
970.227
970.943
971.566
972.103
972.562
972.951
973.278
973.548
973.692
973.817
973.918
973.995
974.052
974.091
974.115
974.128
974.132
974.129
933.891
933.891
933.891
933.891
933.891
933.891
933.891
933.891
933.891
933.895
934.104
934.263
934.401
934.527
934.646
934.761
934.873
934.985
935.098
935.217
935.347
935.493
935.665
935.872
936.126
936.44
936.828
937.304
937.881
938.572
939.387
940.331
941.409
942.618
943.954
945.408
946.964
948.607
950.316
952.067
953.839
955.608
957.352
959.05
960.684
962.238
963.7
965.06
966.313
967.455
968.485
969.407
970.223
970.94
971.563
972.1
972.56
972.949
973.276
973.547
973.691
973.816
973.917
973.995
974.051
974.091
974.115
974.128
974.132
974.129
933.891
933.891
933.891
933.891
933.891
933.891
933.891
933.891
933.891
933.895
934.104
934.263
934.401
934.527
934.646
934.761
934.873
934.985
935.098
935.217
935.347
935.493
935.665
935.872
936.126
936.439
936.827
937.302
937.879
938.569
939.382
940.326
941.402
942.61
943.945
945.397
946.952
948.594
950.302
952.054
953.825
955.595
957.339
959.037
960.672
962.227
963.69
965.051
966.304
967.447
968.479
969.401
970.218
970.935
971.559
972.097
972.557
972.947
973.275
973.546
973.69
973.816
973.917
973.994
974.051
974.09
974.115
974.128
974.132
974.129
933.891
933.891
933.891
933.891
933.891
933.891
933.891
933.891
933.891
933.895
934.104
934.263
934.401
934.527
934.646
934.761
934.874
934.985
935.099
935.218
935.347
935.493
935.665
935.871
936.125
936.438
936.825
937.3
937.876
938.565
939.377
940.319
941.394
942.601
943.934
945.385
946.939
948.58
950.288
952.039
953.811
955.58
957.325
959.024
960.659
962.215
963.679
965.041
966.295
967.439
968.472
969.395
970.213
970.931
971.556
972.094
972.555
972.945
973.273
973.544
973.688
973.815
973.916
973.994
974.051
974.09
974.115
974.128
974.132
974.129
933.891
933.891
933.891
933.891
933.891
933.891
933.891
933.891
933.891
933.895
934.104
934.263
934.4
934.527
934.646
934.762
934.874
934.986
935.099
935.218
935.348
935.494
935.665
935.871
936.124
936.436
936.823
937.297
937.872
938.56
939.371
940.312
941.385
942.59
943.922
945.372
946.925
948.565
950.272
952.023
953.795
955.565
957.31
959.01
960.646
962.202
963.667
965.03
966.286
967.431
968.464
969.389
970.207
970.926
971.552
972.091
972.552
972.942
973.271
973.543
973.687
973.814
973.915
973.993
974.05
974.09
974.115
974.128
974.132
974.129
933.891
933.891
933.891
933.891
933.891
933.891
933.891
933.891
933.891
933.895
934.104
934.262
934.4
934.527
934.647
934.762
934.874
934.986
935.1
935.219
935.348
935.494
935.665
935.87
936.123
936.435
936.821
937.294
937.868
938.555
939.365
940.304
941.376
942.58
943.911
945.359
946.912
948.551
950.257
952.008
953.78
955.55
957.296
958.996
960.633
962.191
963.656
965.02
966.277
967.423
968.457
969.382
970.202
970.922
971.548
972.087
972.549
972.94
973.269
973.541
973.686
973.813
973.914
973.992
974.05
974.089
974.114
974.128
974.132
974.128
933.891
933.891
933.891
933.891
933.891
933.891
933.891
933.891
933.891
933.895
934.104
934.262
934.4
934.527
934.647
934.762
934.874
934.986
935.1
935.219
935.348
935.494
935.665
935.87
936.122
936.434
936.819
937.292
937.865
938.551
939.36
940.299
941.37
942.573
943.903
945.35
946.902
948.541
950.247
951.997
953.769
955.54
957.286
958.987
960.624
962.182
963.648
965.013
966.271
967.417
968.452
969.378
970.198
970.918
971.545
972.085
972.547
972.939
973.268
973.54
973.685
973.812
973.914
973.992
974.049
974.089
974.114
974.127
974.131
974.128
933.891
933.891
933.891
933.891
933.891
933.891
933.891
933.891
933.891
933.895
934.103
934.262
934.4
934.527
934.647
934.762
934.875
934.987
935.101
935.22
935.349
935.495
935.666
935.871
936.123
936.435
936.82
937.293
937.866
938.552
939.361
940.299
941.37
942.573
943.903
945.351
946.903
948.542
950.248
951.998
953.77
955.54
957.286
958.987
960.625
962.183
963.649
965.013
966.271
967.417
968.452
969.378
970.198
970.918
971.545
972.085
972.547
972.939
973.268
973.54
973.685
973.812
973.914
973.992
974.049
974.089
974.114
974.128
974.131
974.128
933.891
933.891
933.891
933.891
933.891
933.891
933.891
933.891
933.891
933.895
934.103
934.262
934.4
934.527
934.646
934.762
934.875
934.987
935.101
935.22
935.35
935.496
935.667
935.873
936.125
936.437
936.823
937.296
937.87
938.556
939.366
940.305
941.377
942.582
943.913
945.361
946.914
948.553
950.259
952.01
953.782
955.552
957.298
958.998
960.635
962.192
963.657
965.021
966.277
967.423
968.457
969.382
970.202
970.921
971.548
972.087
972.549
972.94
973.269
973.542
973.686
973.813
973.915
973.993
974.05
974.089
974.114
974.128
974.132
974.128
933.891
933.891
933.891
933.891
933.891
933.891
933.891
933.891
933.891
933.895
934.103
934.262
934.4
934.526
934.646
934.762
934.875
934.987
935.101
935.22
935.35
935.497
935.668
935.874
936.127
936.44
936.826
937.3
937.874
938.562
939.373
940.314
941.387
942.593
943.925
945.375
946.928
948.568
950.275
952.026
953.798
955.568
957.313
959.012
960.648
962.204
963.669
965.031
966.287
967.431
968.465
969.389
970.207
970.926
971.551
972.091
972.552
972.943
973.271
973.543
973.688
973.814
973.916
973.993
974.05
974.09
974.115
974.128
974.132
974.129
933.891
933.891
933.891
933.891
933.891
933.891
933.891
933.891
933.891
933.895
934.103
934.262
934.399
934.526
934.646
934.762
934.875
934.987
935.101
935.221
935.351
935.497
935.669
935.876
936.129
936.442
936.829
937.303
937.879
938.568
939.38
940.322
941.397
942.604
943.937
945.388
946.943
948.584
950.292
952.043
953.815
955.584
957.329
959.028
960.663
962.218
963.681
965.043
966.297
967.44
968.472
969.395
970.213
970.931
971.556
972.094
972.555
972.945
973.273
973.545
973.689
973.815
973.917
973.994
974.051
974.09
974.115
974.128
974.132
974.129
933.891
933.891
933.891
933.891
933.891
933.891
933.891
933.891
933.891
933.895
934.103
934.261
934.399
934.526
934.646
934.761
934.874
934.987
935.101
935.22
935.35
935.497
935.669
935.876
936.13
936.443
936.831
937.306
937.882
938.572
939.385
940.329
941.405
942.614
943.949
945.401
946.957
948.599
950.307
952.059
953.831
955.6
957.344
959.042
960.676
962.231
963.693
965.053
966.306
967.449
968.48
969.402
970.219
970.936
971.56
972.098
972.558
972.948
973.275
973.547
973.691
973.816
973.917
973.995
974.051
974.091
974.115
974.128
974.132
974.129
933.891
933.891
933.891
933.891
933.891
933.891
933.891
933.891
933.891
933.895
934.102
934.261
934.399
934.526
934.646
934.761
934.874
934.986
935.1
935.22
935.35
935.497
935.669
935.877
936.13
936.444
936.832
937.307
937.884
938.575
939.39
940.335
941.413
942.623
943.959
945.413
946.97
948.613
950.322
952.074
953.845
955.614
957.358
959.056
960.689
962.243
963.704
965.064
966.316
967.457
968.487
969.408
970.224
970.94
971.564
972.101
972.56
972.95
973.277
973.549
973.692
973.817
973.918
973.995
974.052
974.091
974.116
974.129
974.132
974.129
933.891
933.891
933.891
933.891
933.891
933.891
933.891
933.891
933.891
933.895
934.102
934.261
934.399
934.525
934.645
934.76
934.873
934.985
935.1
935.219
935.349
935.497
935.669
935.876
936.13
936.444
936.832
937.308
937.886
938.578
939.393
940.339
941.418
942.63
943.968
945.423
946.981
948.625
950.334
952.086
953.858
955.627
957.371
959.068
960.701
962.253
963.714
965.073
966.324
967.464
968.493
969.414
970.229
970.945
971.567
972.104
972.563
972.952
973.279
973.55
973.693
973.818
973.919
973.996
974.052
974.091
974.116
974.129
974.132
974.129
933.891
933.891
933.891
933.891
933.891
933.891
933.891
933.891
933.891
933.895
934.102
934.261
934.398
934.525
934.645
934.76
934.872
934.985
935.099
935.218
935.348
935.495
935.668
935.875
936.129
936.444
936.832
937.308
937.886
938.579
939.395
940.342
941.423
942.635
943.975
945.431
946.99
948.635
950.345
952.097
953.87
955.639
957.382
959.079
960.711
962.263
963.723
965.081
966.331
967.471
968.499
969.419
970.233
970.948
971.57
972.107
972.565
972.954
973.281
973.551
973.694
973.819
973.92
973.996
974.053
974.092
974.116
974.129
974.133
974.129
933.891
933.891
933.891
933.891
933.891
933.891
933.891
933.891
933.891
933.895
934.102
934.26
934.398
934.524
934.644
934.759
934.872
934.984
935.097
935.217
935.347
935.494
935.666
935.874
936.128
936.442
936.83
937.307
937.886
938.578
939.395
940.343
941.425
942.639
943.98
945.437
946.997
948.643
950.354
952.107
953.879
955.648
957.391
959.088
960.72
962.272
963.731
965.088
966.338
967.476
968.504
969.423
970.237
970.951
971.573
972.109
972.567
972.955
973.282
973.552
973.695
973.82
973.92
973.997
974.053
974.092
974.116
974.129
974.133
974.129
933.891
933.891
933.891
933.891
933.891
933.891
933.891
933.891
933.891
933.895
934.102
934.26
934.397
934.524
934.643
934.758
934.871
934.982
935.096
935.215
935.345
935.492
935.664
935.871
936.126
936.44
936.828
937.305
937.884
938.577
939.395
940.344
941.426
942.641
943.983
945.442
947.004
948.65
950.361
952.115
953.888
955.657
957.4
959.096
960.728
962.279
963.738
965.094
966.343
967.481
968.509
969.427
970.24
970.954
971.575
972.111
972.569
972.957
973.283
973.553
973.696
973.82
973.92
973.997
974.053
974.092
974.116
974.129
974.133
974.129
933.891
933.891
933.891
933.891
933.891
933.891
933.891
933.891
933.891
933.895
934.101
934.26
934.397
934.523
934.642
934.757
934.869
934.981
935.095
935.214
935.343
935.49
935.662
935.869
936.123
936.436
936.825
937.301
937.881
938.574
939.393
940.342
941.426
942.642
943.985
945.445
947.007
948.655
950.367
952.121
953.894
955.663
957.406
959.102
960.734
962.284
963.743
965.099
966.347
967.485
968.512
969.43
970.243
970.957
971.577
972.113
972.57
972.958
973.284
973.554
973.696
973.821
973.921
973.997
974.053
974.092
974.116
974.129
974.133
974.129
933.891
933.891
933.891
933.891
933.891
933.891
933.891
933.891
933.891
933.895
934.101
934.259
934.396
934.522
934.641
934.756
934.868
934.979
935.093
935.212
935.341
935.487
935.659
935.865
936.119
936.432
936.82
937.297
937.876
938.57
939.389
940.34
941.424
942.642
943.986
945.447
947.011
948.659
950.371
952.126
953.899
955.669
957.412
959.108
960.739
962.289
963.747
965.103
966.351
967.488
968.515
969.432
970.245
970.958
971.579
972.114
972.571
972.959
973.285
973.555
973.697
973.821
973.921
973.997
974.053
974.092
974.116
974.129
974.132
974.129
933.891
933.891
933.891
933.891
933.891
933.891
933.891
933.891
933.891
933.895
934.101
934.259
934.396
934.521
934.64
934.755
934.867
934.978
935.091
935.209
935.338
935.484
935.655
935.861
936.114
936.427
936.815
937.291
937.87
938.564
939.384
940.335
941.42
942.638
943.984
945.446
947.01
948.66
950.373
952.128
953.902
955.671
957.414
959.11
960.741
962.291
963.749
965.105
966.352
967.49
968.516
969.433
970.246
970.959
971.58
972.115
972.572
972.959
973.285
973.555
973.697
973.821
973.921
973.997
974.053
974.092
974.116
974.129
974.132
974.129
933.891
933.891
933.891
933.891
933.891
933.891
933.891
933.891
933.891
933.895
934.101
934.258
934.395
934.521
934.639
934.753
934.865
934.976
935.089
935.207
935.336
935.481
935.651
935.857
936.109
936.421
936.808
937.284
937.863
938.558
939.377
940.329
941.415
942.635
943.981
945.445
947.01
948.66
950.374
952.13
953.904
955.673
957.416
959.112
960.743
962.293
963.75
965.106
966.353
967.49
968.517
969.434
970.247
970.96
971.58
972.115
972.572
972.96
973.285
973.555
973.697
973.821
973.921
973.997
974.053
974.092
974.116
974.129
974.132
974.129
933.891
933.891
933.891
933.891
933.891
933.891
933.891
933.891
933.891
933.895
934.1
934.257
934.394
934.52
934.638
934.752
934.863
934.974
935.086
935.204
935.332
935.477
935.646
935.851
936.102
936.414
936.8
937.275
937.854
938.548
939.368
940.32
941.407
942.628
943.975
945.439
947.006
948.657
950.371
952.127
953.901
955.671
957.414
959.11
960.741
962.291
963.748
965.104
966.352
967.489
968.516
969.433
970.246
970.96
971.58
972.115
972.572
972.96
973.285
973.555
973.697
973.821
973.921
973.997
974.053
974.092
974.116
974.129
974.132
974.129
933.891
933.891
933.891
933.891
933.891
933.891
933.891
933.891
933.891
933.895
934.1
934.257
934.393
934.518
934.637
934.75
934.861
934.972
935.084
935.201
935.329
935.473
935.641
935.845
936.095
936.406
936.791
937.266
937.844
938.539
939.359
940.312
941.4
942.621
943.97
945.435
947.002
948.654
950.369
952.125
953.899
955.669
957.412
959.108
960.738
962.289
963.746
965.102
966.35
967.487
968.514
969.432
970.245
970.959
971.579
972.114
972.572
972.959
973.285
973.554
973.696
973.821
973.921
973.997
974.053
974.091
974.116
974.129
974.132
974.129
933.891
933.891
933.891
933.891
933.891
933.891
933.891
933.891
933.891
933.895
934.099
934.256
934.392
934.517
934.635
934.748
934.859
934.969
935.081
935.198
935.325
935.468
935.635
935.837
936.087
936.396
936.78
937.254
937.832
938.526
939.346
940.299
941.388
942.61
943.96
945.426
946.994
948.646
950.361
952.117
953.891
955.661
957.404
959.1
960.731
962.282
963.739
965.096
966.344
967.483
968.51
969.429
970.242
970.956
971.577
972.113
972.57
972.958
973.284
973.554
973.696
973.82
973.92
973.997
974.053
974.091
974.116
974.128
974.132
974.128
933.891
933.891
933.891
933.891
933.891
933.891
933.891
933.891
933.891
933.895
934.099
934.255
934.391
934.516
934.634
934.747
934.857
934.967
935.078
935.194
935.321
935.463
935.629
935.831
936.078
936.387
936.77
937.244
937.821
938.516
939.337
940.291
941.381
942.604
943.955
945.422
946.99
948.642
950.357
952.113
953.887
955.657
957.399
959.095
960.725
962.276
963.734
965.09
966.339
967.478
968.506
969.425
970.24
970.954
971.575
972.111
972.569
972.957
973.283
973.553
973.695
973.82
973.92
973.996
974.052
974.091
974.115
974.128
974.132
974.128
933.891
933.891
933.891
933.891
933.891
933.891
933.891
933.891
933.891
933.895
934.098
934.254
934.39
934.514
934.632
934.745
934.855
934.964
935.075
935.191
935.317
935.458
935.624
935.824
936.071
936.378
936.761
937.234
937.812
938.507
939.329
940.284
941.375
942.599
943.951
945.418
946.986
948.638
950.352
952.107
953.88
955.649
957.391
959.086
960.717
962.267
963.725
965.082
966.332
967.472
968.501
969.421
970.236
970.951
971.572
972.109
972.567
972.955
973.281
973.552
973.694
973.819
973.919
973.996
974.052
974.091
974.115
974.128
974.132
974.128
933.891
933.891
933.891
933.891
933.891
933.891
933.891
933.891
933.891
933.895
934.098
934.254
934.389
934.513
934.631
934.744
934.854
934.963
935.074
935.19
935.316
935.458
935.623
935.824
936.071
936.38
936.764
937.239
937.82
938.519
939.345
940.304
941.399
942.627
943.98
945.449
947.018
948.668
950.381
952.133
953.903
955.669
957.408
959.1
960.728
962.276
963.733
965.089
966.338
967.476
968.505
969.424
970.238
970.953
971.574
972.11
972.568
972.956
973.283
973.553
973.695
973.819
973.92
973.996
974.052
974.091
974.115
974.128
974.132
974.128
933.891
933.891
933.891
933.891
933.891
933.891
933.891
933.891
933.891
933.895
934.097
934.253
934.389
934.513
934.631
934.745
934.855
934.966
935.078
935.196
935.324
935.468
935.637
935.842
936.094
936.409
936.801
937.286
937.877
938.586
939.424
940.395
941.5
942.736
944.097
945.57
947.14
948.79
950.5
952.248
954.012
955.771
957.502
959.187
960.808
962.349
963.798
965.148
966.391
967.524
968.547
969.461
970.27
970.981
971.598
972.131
972.586
972.971
973.295
973.563
973.704
973.827
973.926
974.001
974.056
974.094
974.118
974.13
974.133
974.13
933.891
933.891
933.891
933.891
933.891
933.891
933.891
933.891
933.891
933.895
934.098
934.255
934.392
934.519
934.638
934.755
934.869
934.984
935.101
935.226
935.364
935.52
935.704
935.927
936.202
936.543
936.966
937.486
938.115
938.865
939.744
940.755
941.898
943.168
944.557
946.052
947.637
949.294
951.003
952.744
954.495
956.235
957.944
959.604
961.196
962.708
964.128
965.448
966.662
967.767
968.762
969.651
970.437
971.125
971.723
972.238
972.677
973.049
973.361
973.618
973.749
973.864
973.956
974.026
974.076
974.11
974.131
974.14
974.141
974.135
933.891
933.891
933.891
933.891
933.891
933.891
933.891
933.891
933.891
933.895
934.102
934.264
934.407
934.539
934.667
934.791
934.916
935.044
935.18
935.329
935.498
935.696
935.933
936.222
936.576
937.009
937.537
938.171
938.923
939.799
940.805
941.939
943.197
944.57
946.047
947.613
949.249
950.937
952.655
954.384
956.103
957.794
959.439
961.021
962.527
963.945
965.268
966.488
967.603
968.61
969.512
970.313
971.016
971.629
972.158
972.611
972.995
973.318
973.588
973.81
973.906
973.993
974.061
974.11
974.143
974.163
974.172
974.172
974.164
974.152
933.891
933.891
933.891
933.891
933.891
933.891
933.891
933.891
933.891
933.896
934.121
934.301
934.462
934.614
934.762
934.91
935.063
935.228
935.413
935.63
935.893
936.218
936.621
937.116
937.714
938.425
939.259
940.221
941.312
942.528
943.863
945.305
946.842
948.455
950.127
951.838
953.567
955.291
956.992
958.651
960.253
961.784
963.233
964.592
965.854
967.014
968.071
969.025
969.878
970.634
971.299
971.877
972.376
972.803
973.165
973.47
973.724
973.934
974.106
974.244
974.257
974.275
974.284
974.285
974.279
974.265
974.247
974.224
974.199
974.173
933.891
933.891
933.891
933.891
933.891
933.891
933.891
933.891
933.892
933.899
934.193
934.42
934.621
934.812
934.999
935.19
935.396
935.631
935.914
936.27
936.726
937.31
938.046
938.953
940.036
941.291
942.701
944.244
945.901
947.647
949.458
951.311
953.181
955.043
956.876
958.658
960.369
961.993
963.517
964.931
966.231
967.412
968.477
969.427
970.268
971.005
971.647
972.2
972.674
973.076
973.415
973.698
973.933
974.126
974.284
974.412
974.515
974.597
974.661
974.707
974.598
974.525
974.465
974.41
974.359
974.31
974.264
974.219
974.176
974.138
933.891
933.891
933.891
933.891
933.891
933.891
933.891
933.891
933.892
933.896
934.119
934.327
934.52
934.706
934.891
935.079
935.282
935.511
935.787
936.132
936.574
937.139
937.853
938.736
939.795
941.026
942.414
943.938
945.578
947.31
949.11
950.955
952.821
954.682
956.516
958.303
960.023
961.661
963.201
964.635
965.956
967.161
968.248
969.221
970.083
970.841
971.5
972.07
972.559
972.974
973.325
973.619
973.863
974.064
974.228
974.361
974.469
974.555
974.622
974.671
974.59
974.524
974.466
974.413
974.362
974.314
974.268
974.224
974.181
974.142
933.891
933.891
933.891
933.891
933.891
933.891
933.891
933.891
933.891
933.894
934.054
934.21
934.36
934.505
934.648
934.793
934.941
935.101
935.278
935.485
935.734
936.041
936.42
936.887
937.451
938.124
938.915
939.831
940.875
942.044
943.332
944.73
946.225
947.802
949.443
951.129
952.839
954.554
956.254
957.921
959.539
961.093
962.572
963.965
965.265
966.467
967.567
968.564
969.46
970.259
970.963
971.579
972.114
972.573
972.964
973.295
973.572
973.803
973.992
974.146
974.197
974.232
974.253
974.264
974.264
974.256
974.242
974.223
974.2
974.176
933.891
933.891
933.891
933.891
933.891
933.891
933.891
933.891
933.891
933.894
934.038
934.176
934.308
934.435
934.558
934.679
934.8
934.924
935.055
935.198
935.359
935.546
935.769
936.039
936.368
936.772
937.265
937.859
938.566
939.394
940.348
941.428
942.633
943.954
945.382
946.901
948.497
950.151
951.845
953.559
955.273
956.969
958.627
960.231
961.767
963.221
964.585
965.85
967.013
968.07
969.021
969.87
970.62
971.277
971.848
972.339
972.758
973.112
973.41
973.656
973.798
973.909
973.995
974.059
974.105
974.134
974.151
974.157
974.155
974.147
933.891