/*--------------------------------*- C++ -*----------------------------------*\
  =========                 |
  \\      /  F ield         | OpenFOAM: The Open Source CFD Toolbox
   \\    /   O peration     | Website:  https://openfoam.org
    \\  /    A nd           | Version:  12
     \\/     M anipulation  |
\*---------------------------------------------------------------------------*/
FoamFile
{
    format      ascii;
    class       volScalarField;
    location    "200/porous";
    object      T;
}
// * * * * * * * * * * * * * * * * * * * * * * * * * * * * * * * * * * * * * //

dimensions      [0 0 0 1 0 0 0];

internalField   nonuniform List<scalar> 
140000
(
400
400
400
400
400
400
400
400
400
399.992
399.676
399.432
399.215
399.011
398.809
398.603
398.38
398.126
397.818
397.431
396.934
396.296
395.487
394.487
393.283
391.877
390.285
388.523
386.611
384.569
382.421
380.191
377.907
375.594
373.281
370.993
368.757
366.597
364.533
362.585
360.766
359.085
357.548
356.157
354.911
353.807
352.836
351.992
351.263
350.64
350.112
349.669
349.3
348.995
348.746
348.543
348.38
348.25
348.148
348.076
348.25
348.366
348.463
348.55
348.632
348.71
348.784
348.855
348.923
348.984
400
400
400
400
400
400
400
400
400
399.995
399.752
399.559
399.387
399.223
399.064
398.904
398.739
398.561
398.361
398.126
397.841
397.488
397.049
396.509
395.854
395.072
394.15
393.08
391.858
390.485
388.965
387.306
385.52
383.622
381.63
379.565
377.448
375.303
373.153
371.02
368.927
366.892
364.934
363.068
361.309
359.666
358.148
356.759
355.501
354.374
353.373
352.494
351.729
351.07
350.507
350.032
349.633
349.302
349.03
348.813
348.792
348.765
348.75
348.748
348.759
348.781
348.81
348.846
348.886
348.928
400
400
400
400
400
400
400
400
400
399.996
399.773
399.599
399.446
399.303
399.166
399.032
398.898
398.76
398.613
398.453
398.27
398.056
397.799
397.486
397.101
396.629
396.052
395.356
394.527
393.555
392.432
391.158
389.732
388.161
386.456
384.628
382.694
380.673
378.584
376.451
374.295
372.14
370.009
367.924
365.906
363.973
362.142
360.426
358.835
357.376
356.053
354.865
353.809
352.88
352.071
351.373
350.777
350.273
349.85
349.502
349.349
349.213
349.106
349.027
348.975
348.943
348.93
348.93
348.941
348.96
400
400
400
400
400
400
400
400
400
399.996
399.777
399.608
399.461
399.325
399.197
399.072
398.949
398.825
398.698
398.563
398.415
398.246
398.047
397.806
397.508
397.137
396.676
396.109
395.418
394.592
393.618
392.491
391.207
389.768
388.182
386.457
384.607
382.648
380.6
378.482
376.32
374.135
371.954
369.801
367.699
365.669
363.73
361.899
360.188
358.607
357.161
355.855
354.685
353.65
352.741
351.953
351.275
350.697
350.21
349.806
349.6
349.418
349.272
349.162
349.082
349.028
348.995
348.98
348.979
348.988
400
400
400
400
400
400
400
400
400
399.996
399.778
399.61
399.465
399.331
399.204
399.082
398.963
398.844
398.723
398.596
398.458
398.302
398.119
397.898
397.625
397.283
396.857
396.328
395.681
394.9
393.974
392.894
391.656
390.26
388.711
387.018
385.192
383.25
381.209
379.092
376.923
374.725
372.525
370.349
368.219
366.159
364.187
362.322
360.576
358.96
357.48
356.139
354.937
353.871
352.934
352.119
351.418
350.819
350.314
349.894
349.672
349.478
349.321
349.202
349.114
349.054
349.016
348.996
348.991
348.997
400
400
400
400
400
400
400
400
400
399.996
399.777
399.609
399.464
399.33
399.204
399.083
398.965
398.847
398.727
398.602
398.466
398.313
398.134
397.918
397.65
397.315
396.897
396.379
395.743
394.975
394.062
392.996
391.77
390.386
388.846
387.159
385.337
383.396
381.354
379.234
377.059
374.856
372.649
370.464
368.326
366.258
364.279
362.406
360.653
359.029
357.542
356.194
354.986
353.913
352.971
352.152
351.446
350.843
350.335
349.911
349.687
349.49
349.331
349.21
349.121
349.059
349.02
349
348.994
348.999
400
400
400
400
400
400
400
400
400
399.996
399.776
399.608
399.463
399.329
399.203
399.082
398.963
398.846
398.726
398.601
398.465
398.313
398.134
397.917
397.65
397.316
396.9
396.384
395.752
394.988
394.08
393.019
391.798
390.418
388.881
387.196
385.374
383.432
381.389
379.266
377.088
374.881
372.671
370.483
368.342
366.271
364.29
362.415
360.661
359.036
357.548
356.199
354.99
353.917
352.974
352.154
351.448
350.846
350.336
349.913
349.688
349.491
349.332
349.211
349.121
349.06
349.021
349
348.994
348.999
400
400
400
400
400
400
400
400
400
399.996
399.776
399.607
399.461
399.328
399.201
399.08
398.961
398.843
398.723
398.597
398.461
398.308
398.128
397.91
397.642
397.307
396.89
396.374
395.742
394.979
394.072
393.011
391.792
390.413
388.877
387.192
385.37
383.428
381.383
379.259
377.08
374.872
372.661
370.472
368.331
366.26
364.279
362.404
360.651
359.027
357.54
356.193
354.984
353.912
352.97
352.151
351.445
350.843
350.335
349.912
349.687
349.49
349.332
349.21
349.121
349.059
349.02
349
348.994
348.999
400
400
400
400
400
400
400
400
400
399.996
399.775
399.606
399.46
399.326
399.199
399.078
398.959
398.84
398.72
398.594
398.457
398.303
398.121
397.903
397.633
397.297
396.879
396.362
395.73
394.967
394.061
393.002
391.784
390.406
388.872
387.188
385.366
383.424
381.379
379.254
377.075
374.866
372.654
370.465
368.323
366.252
364.271
362.397
360.644
359.021
357.534
356.188
354.98
353.908
352.967
352.148
351.443
350.841
350.333
349.91
349.686
349.489
349.331
349.209
349.12
349.059
349.02
349
348.994
348.999
400
400
400
400
400
400
400
400
400
399.996
399.774
399.605
399.459
399.325
399.198
399.075
398.956
398.837
398.717
398.59
398.453
398.297
398.115
397.895
397.623
397.286
396.867
396.349
395.716
394.953
394.047
392.989
391.771
390.394
388.86
387.177
385.356
383.414
381.369
379.245
377.065
374.856
372.644
370.455
368.313
366.242
364.261
362.388
360.636
359.014
357.528
356.182
354.976
353.905
352.964
352.145
351.441
350.839
350.332
349.909
349.685
349.488
349.33
349.209
349.12
349.058
349.02
348.999
348.994
348.999
400
400
400
400
400
400
400
400
400
399.996
399.774
399.604
399.458
399.323
399.196
399.074
398.954
398.835
398.714
398.587
398.449
398.293
398.11
397.888
397.616
397.277
396.857
396.339
395.706
394.943
394.037
392.979
391.763
390.387
388.854
387.172
385.352
383.41
381.366
379.242
377.062
374.853
372.641
370.452
368.31
366.239
364.258
362.385
360.632
359.011
357.526
356.18
354.974
353.903
352.962
352.144
351.44
350.839
350.331
349.909
349.684
349.488
349.33
349.208
349.12
349.058
349.019
348.999
348.993
348.999
400
400
400
400
400
400
400
400
400
399.996
399.773
399.604
399.457
399.322
399.195
399.072
398.952
398.833
398.712
398.584
398.446
398.289
398.105
397.882
397.609
397.269
396.848
396.329
395.695
394.932
394.027
392.969
391.754
390.379
388.847
387.166
385.347
383.405
381.361
379.238
377.058
374.849
372.637
370.448
368.306
366.235
364.255
362.381
360.629
359.008
357.523
356.178
354.972
353.902
352.961
352.143
351.439
350.838
350.33
349.908
349.684
349.488
349.329
349.208
349.119
349.058
349.019
348.999
348.993
348.999
400
400
400
400
400
400
400
400
400
399.996
399.773
399.603
399.456
399.321
399.194
399.071
398.951
398.831
398.71
398.582
398.443
398.285
398.1
397.877
397.603
397.263
396.841
396.321
395.688
394.924
394.019
392.963
391.749
390.375
388.844
387.164
385.346
383.405
381.362
379.239
377.06
374.851
372.639
370.45
368.308
366.237
364.256
362.382
360.63
359.008
357.524
356.179
354.972
353.902
352.962
352.144
351.439
350.838
350.331
349.908
349.684
349.487
349.329
349.208
349.119
349.058
349.019
348.999
348.993
348.998
400
400
400
400
400
400
400
400
400
399.996
399.773
399.602
399.455
399.32
399.192
399.07
398.949
398.83
398.708
398.58
398.44
398.282
398.097
397.873
397.598
397.257
396.835
396.315
395.681
394.918
394.013
392.957
391.744
390.371
388.842
387.162
385.345
383.406
381.363
379.241
377.062
374.853
372.641
370.452
368.31
366.239
364.257
362.384
360.631
359.01
357.525
356.18
354.973
353.903
352.962
352.144
351.44
350.839
350.331
349.909
349.684
349.488
349.329
349.208
349.119
349.058
349.019
348.998
348.993
348.998
400
400
400
400
400
400
400
400
400
399.996
399.772
399.602
399.455
399.319
399.192
399.069
398.948
398.828
398.706
398.578
398.439
398.28
398.094
397.87
397.594
397.253
396.831
396.31
395.676
394.913
394.009
392.954
391.742
390.37
388.842
387.164
385.348
383.41
381.368
379.246
377.068
374.86
372.648
370.458
368.316
366.244
364.262
362.388
360.635
359.013
357.528
356.182
354.976
353.905
352.964
352.146
351.441
350.84
350.332
349.909
349.685
349.488
349.329
349.208
349.119
349.058
349.019
348.998
348.993
348.998
400
400
400
400
400
400
400
400
400
399.996
399.772
399.602
399.454
399.319
399.191
399.068
398.947
398.827
398.705
398.577
398.437
398.278
398.092
397.867
397.592
397.25
396.827
396.307
395.672
394.91
394.006
392.952
391.741
390.37
388.843
387.167
385.352
383.414
381.374
379.252
377.075
374.867
372.655
370.465
368.323
366.25
364.268
362.394
360.64
359.017
357.532
356.186
354.979
353.907
352.966
352.147
351.442
350.841
350.333
349.91
349.685
349.488
349.33
349.208
349.119
349.058
349.019
348.998
348.993
348.998
400
400
400
400
400
400
400
400
400
399.996
399.772
399.601
399.454
399.318
399.19
399.067
398.946
398.826
398.704
398.576
398.436
398.277
398.09
397.866
397.59
397.248
396.825
396.304
395.67
394.908
394.005
392.952
391.742
390.373
388.847
387.172
385.358
383.422
381.382
379.261
377.084
374.876
372.664
370.475
368.332
366.259
364.276
362.401
360.647
359.023
357.537
356.19
354.983
353.911
352.969
352.15
351.444
350.843
350.334
349.911
349.686
349.489
349.33
349.209
349.119
349.058
349.019
348.998
348.993
348.998
400
400
400
400
400
400
400
400
400
399.996
399.772
399.601
399.454
399.318
399.19
399.066
398.946
398.826
398.703
398.575
398.435
398.276
398.089
397.865
397.589
397.247
396.824
396.303
395.67
394.908
394.006
392.953
391.744
390.376
388.852
387.178
385.366
383.43
381.391
379.271
377.095
374.887
372.675
370.485
368.342
366.269
364.286
362.409
360.654
359.03
357.543
356.195
354.987
353.915
352.972
352.153
351.447
350.844
350.336
349.912
349.687
349.49
349.331
349.209
349.12
349.058
349.019
348.998
348.992
348.998
400
400
400
400
400
400
400
400
400
399.996
399.772
399.601
399.453
399.318
399.19
399.066
398.945
398.825
398.703
398.574
398.434
398.275
398.089
397.864
397.588
397.247
396.824
396.304
395.67
394.909
394.008
392.956
391.748
390.382
388.859
387.187
385.376
383.442
381.403
379.284
377.108
374.9
372.689
370.498
368.355
366.281
364.297
362.42
360.664
359.038
357.55
356.202
354.993
353.919
352.977
352.156
351.45
350.847
350.338
349.914
349.688
349.49
349.331
349.209
349.12
349.058
349.019
348.998
348.992
348.998
400
400
400
400
400
400
400
400
400
399.996
399.772
399.601
399.453
399.318
399.189
399.066
398.945
398.824
398.702
398.574
398.433
398.275
398.089
397.864
397.589
397.247
396.824
396.305
395.672
394.912
394.011
392.96
391.754
390.389
388.868
387.197
385.388
383.455
381.417
379.298
377.122
374.915
372.703
370.513
368.369
366.294
364.309
362.431
360.674
359.048
357.559
356.209
354.999
353.925
352.981
352.16
351.453
350.85
350.34
349.916
349.69
349.492
349.332
349.21
349.12
349.058
349.019
348.998
348.993
348.998
400
400
400
400
400
400
400
400
400
399.996
399.772
399.601
399.453
399.318
399.189
399.065
398.944
398.824
398.702
398.573
398.433
398.275
398.089
397.865
397.589
397.248
396.826
396.307
395.675
394.915
394.016
392.966
391.762
390.399
388.879
387.21
385.402
383.47
381.433
379.315
377.139
374.932
372.72
370.529
368.384
366.309
364.323
362.444
360.686
359.058
357.568
356.217
355.006
353.931
352.987
352.165
351.457
350.853
350.342
349.918
349.691
349.493
349.333
349.211
349.121
349.059
349.02
348.999
348.993
348.998
400
400
400
400
400
400
400
400
400
399.996
399.772
399.601
399.453
399.317
399.189
399.065
398.944
398.824
398.701
398.573
398.433
398.275
398.089
397.865
397.59
397.25
396.828
396.309
395.678
394.92
394.021
392.974
391.771
390.409
388.892
387.224
385.417
383.486
381.451
379.333
377.158
374.951
372.738
370.547
368.401
366.325
364.338
362.458
360.698
359.07
357.578
356.226
355.014
353.938
352.992
352.17
351.461
350.856
350.345
349.92
349.693
349.494
349.334
349.212
349.122
349.059
349.02
348.999
348.993
348.998
400
400
400
400
400
400
400
400
400
399.996
399.772
399.602
399.454
399.318
399.189
399.065
398.944
398.823
398.701
398.572
398.432
398.274
398.089
397.866
397.591
397.251
396.83
396.312
395.682
394.925
394.028
392.982
391.781
390.421
388.905
387.239
385.433
383.504
381.469
379.352
377.177
374.97
372.757
370.565
368.419
366.342
364.354
362.472
360.712
359.082
357.589
356.236
355.022
353.945
352.999
352.175
351.465
350.86
350.348
349.922
349.695
349.496
349.336
349.213
349.123
349.06
349.02
348.999
348.993
348.998
400
400
400
400
400
400
400
400
400
399.996
399.772
399.602
399.454
399.318
399.189
399.065
398.943
398.823
398.7
398.572
398.432
398.274
398.089
397.866
397.592
397.253
396.833
396.316
395.686
394.93
394.035
392.991
391.791
390.433
388.918
387.253
385.449
383.521
381.487
379.371
377.196
374.988
372.775
370.583
368.436
366.358
364.369
362.486
360.725
359.093
357.599
356.245
355.03
353.952
353.005
352.18
351.47
350.864
350.351
349.925
349.697
349.498
349.337
349.214
349.123
349.061
349.021
349
348.993
348.998
400
400
400
400
400
400
400
400
400
399.996
399.772
399.602
399.454
399.318
399.189
399.065
398.943
398.823
398.7
398.571
398.432
398.274
398.089
397.866
397.593
397.254
396.834
396.318
395.69
394.934
394.04
392.997
391.798
390.441
388.927
387.264
385.46
383.533
381.5
379.384
377.209
375.001
372.788
370.595
368.448
366.369
364.379
362.496
360.734
359.102
357.607
356.251
355.036
353.957
353.009
352.184
351.473
350.866
350.353
349.926
349.698
349.499
349.338
349.214
349.124
349.061
349.021
349
348.994
348.999
400
400
400
400
400
400
400
400
400
399.996
399.773
399.602
399.454
399.318
399.189
399.064
398.943
398.822
398.699
398.571
398.431
398.273
398.088
397.865
397.592
397.253
396.833
396.317
395.689
394.934
394.04
392.996
391.797
390.44
388.927
387.263
385.46
383.532
381.499
379.383
377.208
375
372.787
370.594
368.447
366.368
364.379
362.496
360.733
359.101
357.607
356.252
355.036
353.957
353.009
352.184
351.473
350.866
350.353
349.926
349.698
349.498
349.338
349.214
349.124
349.061
349.021
349
348.994
348.998
400
400
400
400
400
400
400
400
400
399.996
399.773
399.602
399.454
399.318
399.189
399.064
398.943
398.822
398.699
398.57
398.43
398.272
398.087
397.863
397.589
397.25
396.83
396.314
395.685
394.929
394.033
392.989
391.789
390.431
388.916
387.251
385.447
383.518
381.485
379.368
377.193
374.986
372.773
370.58
368.434
366.356
364.367
362.485
360.724
359.093
357.599
356.245
355.03
353.952
353.005
352.18
351.47
350.863
350.351
349.924
349.697
349.497
349.337
349.213
349.123
349.06
349.021
349
348.993
348.998
400
400
400
400
400
400
400
400
400
399.996
399.773
399.603
399.454
399.318
399.189
399.064
398.943
398.822
398.699
398.57
398.429
398.271
398.085
397.862
397.587
397.247
396.827
396.309
395.68
394.923
394.026
392.98
391.778
390.418
388.902
387.236
385.43
383.5
381.466
379.348
377.173
374.966
372.753
370.562
368.416
366.339
364.352
362.471
360.711
359.081
357.589
356.236
355.022
353.945
352.999
352.175
351.465
350.86
350.348
349.921
349.694
349.495
349.335
349.212
349.122
349.06
349.02
348.999
348.993
348.998
400
400
400
400
400
400
400
400
400
399.996
399.773
399.603
399.455
399.318
399.189
399.065
398.943
398.822
398.699
398.57
398.429
398.27
398.085
397.86
397.586
397.245
396.824
396.306
395.675
394.917
394.018
392.971
391.767
390.406
388.888
387.22
385.413
383.482
381.446
379.328
377.152
374.945
372.733
370.542
368.397
366.321
364.335
362.455
360.697
359.068
357.577
356.226
355.014
353.938
352.992
352.17
351.461
350.856
350.344
349.918
349.692
349.493
349.334
349.211
349.121
349.059
349.019
348.999
348.993
348.998
400
400
400
400
400
400
400
400
400
399.996
399.773
399.603
399.455
399.318
399.189
399.065
398.943
398.822
398.699
398.57
398.429
398.27
398.084
397.86
397.584
397.244
396.822
396.303
395.671
394.912
394.012
392.963
391.758
390.394
388.875
387.205
385.396
383.464
381.427
379.309
377.133
374.926
372.714
370.523
368.379
366.304
364.319
362.44
360.683
359.056
357.566
356.216
355.006
353.931
352.986
352.164
351.456
350.852
350.341
349.916
349.69
349.492
349.332
349.21
349.12
349.058
349.019
348.998
348.992
348.998
400
400
400
400
400
400
400
400
400
399.996
399.774
399.603
399.455
399.319
399.19
399.065
398.944
398.823
398.7
398.57
398.43
398.271
398.084
397.86
397.584
397.243
396.82
396.301
395.668
394.908
394.007
392.956
391.749
390.384
388.863
387.192
385.381
383.448
381.41
379.291
377.115
374.907
372.695
370.505
368.362
366.288
364.303
362.426
360.67
359.045
357.556
356.207
354.998
353.924
352.98
352.159
351.452
350.848
350.338
349.913
349.688
349.49
349.331
349.209
349.119
349.058
349.018
348.998
348.992
348.997
400
400
400
400
400
400
400
400
400
399.996
399.774
399.603
399.455
399.319
399.19
399.066
398.945
398.824
398.7
398.571
398.43
398.271
398.085
397.86
397.584
397.243
396.82
396.3
395.667
394.906
394.004
392.952
391.743
390.376
388.853
387.18
385.369
383.434
381.395
379.275
377.099
374.891
372.679
370.49
368.346
366.273
364.29
362.414
360.658
359.034
357.547
356.199
354.99
353.918
352.975
352.155
351.448
350.845
350.335
349.911
349.686
349.489
349.33
349.208
349.119
349.057
349.018
348.998
348.992
348.997
400
400
400
400
400
400
400
400
400
399.996
399.774
399.604
399.456
399.32
399.191
399.067
398.945
398.824
398.701
398.572
398.432
398.272
398.086
397.861
397.585
397.244
396.821
396.3
395.666
394.904
394.002
392.948
391.738
390.37
388.845
387.171
385.358
383.421
381.382
379.262
377.084
374.877
372.665
370.475
368.333
366.26
364.277
362.402
360.648
359.024
357.538
356.191
354.984
353.912
352.97
352.15
351.445
350.842
350.333
349.909
349.684
349.487
349.329
349.207
349.118
349.057
349.018
348.998
348.992
348.997
400
400
400
400
400
400
400
400
400
399.996
399.774
399.604
399.456
399.32
399.192
399.068
398.946
398.826
398.703
398.574
398.433
398.274
398.088
397.863
397.587
397.245
396.822
396.301
395.667
394.905
394.001
392.947
391.736
390.366
388.84
387.164
385.349
383.412
381.372
379.25
377.073
374.865
372.653
370.463
368.321
366.249
364.267
362.392
360.639
359.016
357.531
356.185
354.978
353.907
352.966
352.147
351.442
350.84
350.331
349.907
349.683
349.486
349.328
349.207
349.118
349.056
349.018
348.997
348.992
348.997
400
400
400
400
400
400
400
400
400
399.996
399.774
399.604
399.457
399.321
399.192
399.069
398.947
398.827
398.704
398.575
398.435
398.276
398.09
397.865
397.589
397.248
396.825
396.304
395.669
394.906
394.002
392.946
391.734
390.363
388.835
387.158
385.342
383.404
381.362
379.24
377.062
374.854
372.642
370.453
368.311
366.239
364.257
362.384
360.631
359.009
357.525
356.179
354.973
353.903
352.962
352.144
351.439
350.837
350.329
349.906
349.682
349.485
349.327
349.206
349.118
349.056
349.018
348.997
348.992
348.997
400
400
400
400
400
400
400
400
400
399.996
399.775
399.605
399.457
399.322
399.193
399.07
398.949
398.828
398.706
398.577
398.437
398.278
398.092
397.868
397.593
397.251
396.828
396.307
395.673
394.909
394.004
392.948
391.735
390.362
388.833
387.154
385.337
383.398
381.356
379.233
377.055
374.846
372.634
370.445
368.303
366.231
364.25
362.377
360.625
359.004
357.52
356.175
354.969
353.899
352.959
352.141
351.437
350.836
350.328
349.905
349.681
349.485
349.327
349.206
349.117
349.056
349.018
348.997
348.992
348.997
400
400
400
400
400
400
400
400
400
399.996
399.775
399.605
399.458
399.322
399.194
399.071
398.95
398.83
398.708
398.579
398.439
398.281
398.096
397.872
397.597
397.256
396.833
396.312
395.677
394.913
394.008
392.951
391.737
390.363
388.832
387.152
385.334
383.393
381.35
379.227
377.048
374.839
372.627
370.438
368.296
366.225
364.244
362.372
360.62
359
357.516
356.172
354.966
353.897
352.957
352.139
351.435
350.834
350.327
349.904
349.68
349.484
349.327
349.206
349.117
349.056
349.018
348.998
348.992
348.998
400
400
400
400
400
400
400
400
400
399.996
399.775
399.606
399.459
399.323
399.195
399.072
398.952
398.832
398.71
398.582
398.442
398.285
398.1
397.876
397.602
397.261
396.839
396.319
395.684
394.92
394.014
392.957
391.741
390.366
388.835
387.153
385.334
383.392
381.348
379.224
377.045
374.836
372.624
370.435
368.293
366.222
364.242
362.369
360.618
358.997
357.514
356.17
354.965
353.895
352.955
352.138
351.434
350.834
350.326
349.903
349.68
349.484
349.327
349.206
349.117
349.056
349.018
348.998
348.992
348.998
400
400
400
400
400
400
400
400
400
399.996
399.776
399.606
399.459
399.324
399.197
399.074
398.953
398.834
398.712
398.584
398.445
398.288
398.104
397.881
397.607
397.268
396.846
396.326
395.692
394.927
394.021
392.963
391.746
390.37
388.837
387.155
385.334
383.392
381.347
379.222
377.042
374.833
372.621
370.432
368.291
366.22
364.24
362.368
360.617
358.996
357.513
356.169
354.964
353.894
352.955
352.137
351.434
350.833
350.326
349.903
349.68
349.484
349.327
349.206
349.117
349.056
349.018
348.998
348.992
348.998
400
400
400
400
400
400
400
400
400
399.996
399.776
399.607
399.46
399.325
399.198
399.075
398.955
398.836
398.715
398.587
398.449
398.293
398.109
397.887
397.615
397.276
396.855
396.336
395.702
394.938
394.031
392.973
391.756
390.379
388.845
387.161
385.339
383.396
381.351
379.226
377.046
374.836
372.624
370.435
368.293
366.223
364.242
362.37
360.619
358.998
357.514
356.17
354.965
353.895
352.955
352.138
351.434
350.833
350.326
349.903
349.68
349.484
349.327
349.206
349.118
349.057
349.018
348.998
348.992
348.998
400
400
400
400
400
400
400
400
400
399.996
399.777
399.608
399.461
399.327
399.199
399.077
398.957
398.838
398.717
398.591
398.453
398.297
398.115
397.894
397.622
397.285
396.865
396.346
395.712
394.948
394.042
392.982
391.764
390.386
388.851
387.166
385.343
383.399
381.353
379.228
377.048
374.839
372.627
370.438
368.296
366.226
364.246
362.373
360.622
359.001
357.517
356.172
354.966
353.896
352.956
352.139
351.435
350.834
350.326
349.904
349.681
349.485
349.327
349.207
349.118
349.057
349.018
348.998
348.993
348.998
400
400
400
400
400
400
400
400
400
399.996
399.777
399.609
399.462
399.328
399.201
399.079
398.96
398.841
398.721
398.594
398.457
398.303
398.121
397.902
397.632
397.295
396.877
396.359
395.726
394.962
394.056
392.996
391.777
390.398
388.862
387.177
385.353
383.409
381.363
379.238
377.058
374.848
372.636
370.447
368.306
366.235
364.255
362.382
360.629
359.008
357.522
356.177
354.97
353.9
352.959
352.141
351.437
350.836
350.328
349.905
349.682
349.486
349.328
349.207
349.119
349.057
349.019
348.999
348.993
348.998
400
400
400
400
400
400
400
400
400
399.996
399.778
399.61
399.463
399.329
399.203
399.081
398.962
398.844
398.724
398.598
398.462
398.308
398.127
397.909
397.64
397.305
396.888
396.371
395.738
394.974
394.066
393.005
391.786
390.405
388.868
387.181
385.358
383.413
381.367
379.242
377.063
374.854
372.643
370.454
368.314
366.243
364.262
362.389
360.636
359.014
357.528
356.181
354.974
353.903
352.962
352.144
351.439
350.838
350.329
349.906
349.683
349.487
349.329
349.208
349.119
349.058
349.019
348.999
348.993
348.999
400
400
400
400
400
400
400
400
400
399.996
399.778
399.61
399.465
399.331
399.205
399.083
398.964
398.846
398.727
398.601
398.466
398.313
398.133
397.917
397.649
397.315
396.898
396.381
395.748
394.984
394.075
393.013
391.792
390.411
388.873
387.186
385.362
383.418
381.373
379.25
377.071
374.864
372.654
370.466
368.325
366.255
364.274
362.4
360.646
359.023
357.536
356.188
354.98
353.908
352.967
352.148
351.442
350.84
350.331
349.908
349.684
349.488
349.33
349.208
349.12
349.058
349.019
348.999
348.993
348.999
400
400
400
400
400
400
400
400
400
399.996
399.779
399.611
399.466
399.332
399.206
399.084
398.965
398.848
398.728
398.602
398.467
398.313
398.134
397.917
397.648
397.313
396.895
396.375
395.739
394.971
394.057
392.991
391.765
390.38
388.839
387.15
385.326
383.382
381.339
379.218
377.043
374.839
372.632
370.448
368.31
366.242
364.264
362.391
360.639
359.016
357.53
356.184
354.976
353.905
352.964
352.145
351.44
350.838
350.33
349.907
349.683
349.487
349.329
349.208
349.119
349.058
349.019
348.999
348.993
348.999
400
400
400
400
400
400
400
400
400
399.996
399.779
399.612
399.466
399.332
399.205
399.083
398.964
398.845
398.723
398.596
398.458
398.302
398.119
397.897
397.623
397.281
396.854
396.325
395.677
394.896
393.969
392.89
391.652
390.256
388.706
387.01
385.182
383.238
381.196
379.078
376.908
374.71
372.511
370.334
368.204
366.144
364.174
362.309
360.564
358.948
357.469
356.13
354.929
353.863
352.927
352.114
351.413
350.815
350.31
349.89
349.669
349.475
349.319
349.2
349.113
349.053
349.015
348.995
348.991
348.996
400
400
400
400
400
400
400
400
400
399.996
399.778
399.61
399.463
399.327
399.197
399.072
398.949
398.826
398.698
398.563
398.415
398.246
398.047
397.805
397.506
397.135
396.673
396.105
395.415
394.588
393.614
392.487
391.204
389.765
388.178
386.452
384.6
382.639
380.589
378.471
376.308
374.124
371.943
369.79
367.688
365.659
363.721
361.89
360.179
358.599
357.155
355.849
354.68
353.645
352.737
351.949
351.272
350.695
350.208
349.804
349.598
349.416
349.271
349.161
349.081
349.027
348.995
348.98
348.978
348.987
400
400
400
400
400
400
400
400
400
399.996
399.774
399.6
399.447
399.304
399.167
399.033
398.898
398.76
398.614
398.453
398.27
398.056
397.798
397.485
397.1
396.627
396.05
395.353
394.524
393.553
392.431
391.157
389.732
388.162
386.456
384.627
382.692
380.67
378.581
376.447
374.291
372.137
370.006
367.922
365.904
363.972
362.141
360.426
358.835
357.376
356.053
354.865
353.81
352.881
352.072
351.374
350.778
350.274
349.851
349.502
349.35
349.213
349.106
349.028
348.975
348.944
348.93
348.93
348.941
348.96
400
400
400
400
400
400
400
400
400
399.995
399.753
399.56
399.388
399.224
399.065
398.905
398.74
398.562
398.362
398.127
397.842
397.489
397.05
396.51
395.856
395.074
394.152
393.083
391.863
390.491
388.973
387.316
385.531
383.635
381.643
379.577
377.459
375.314
373.163
371.031
368.938
366.904
364.946
363.08
361.321
359.678
358.159
356.77
355.512
354.384
353.382
352.502
351.737
351.077
350.513
350.037
349.638
349.306
349.033
348.815
348.794
348.766
348.751
348.749
348.76
348.781
348.811
348.846
348.886
348.928
400
400
400
400
400
400
400
400
400
399.992
399.676
399.432
399.216
399.011
398.809
398.603
398.38
398.126
397.819
397.432
396.936
396.298
395.491
394.491
393.289
391.886
390.296
388.536
386.627
384.588
382.443
380.217
377.935
375.624
373.311
371.022
368.785
366.623
364.559
362.61
360.79
359.108
357.571
356.179
354.932
353.826
352.854
352.007
351.277
350.653
350.123
349.678
349.308
349.002
348.751
348.548
348.384
348.253
348.15
348.077
348.251
348.367
348.463
348.551
348.632
348.71
348.784
348.855
348.922
348.984
400
400
400
400
400
400
400
400
400
399.995
399.755
399.533
399.325
399.124
398.926
398.723
398.504
398.255
397.956
397.582
397.102
396.485
395.702
394.731
393.558
392.184
390.62
388.887
387.001
384.983
382.858
380.647
378.377
376.075
373.768
371.481
369.24
367.069
364.989
363.021
361.177
359.469
357.903
356.483
355.207
354.074
353.076
352.206
351.454
350.81
350.263
349.803
349.419
349.101
348.84
348.628
348.457
348.32
348.212
348.134
348.264
348.369
348.462
348.547
348.627
348.703
348.777
348.847
348.915
348.977
400
400
400
400
400
400
400
400
400
399.997
399.826
399.658
399.497
399.341
399.187
399.031
398.871
398.699
398.507
398.284
398.014
397.681
397.269
396.761
396.144
395.406
394.533
393.517
392.353
391.039
389.579
387.979
386.25
384.405
382.461
380.438
378.355
376.235
374.101
371.974
369.875
367.826
365.843
363.945
362.145
360.456
358.887
357.444
356.13
354.946
353.889
352.956
352.14
351.433
350.826
350.311
349.876
349.514
349.214
348.971
348.89
348.834
348.8
348.784
348.784
348.796
348.818
348.849
348.885
348.923
400
400
400
400
400
400
400
400
400
399.998
399.843
399.694
399.552
399.417
399.284
399.154
399.023
398.889
398.748
398.594
398.42
398.218
397.976
397.684
397.326
396.885
396.348
395.697
394.919
394.003
392.942
391.732
390.372
388.868
387.228
385.462
383.585
381.614
379.569
377.469
375.336
373.193
371.062
368.967
366.927
364.963
363.091
361.326
359.68
358.162
356.776
355.524
354.405
353.415
352.547
351.794
351.147
350.596
350.131
349.744
349.521
349.345
349.209
349.108
349.036
348.989
348.963
348.953
348.956
348.969
400
400
400
400
400
400
400
400
400
399.998
399.847
399.702
399.566
399.437
399.313
399.191
399.071
398.951
398.827
398.697
398.555
398.394
398.206
397.98
397.701
397.356
396.926
396.396
395.751
394.975
394.057
392.991
391.772
390.4
388.88
387.22
385.432
383.531
381.533
379.458
377.328
375.166
372.997
370.843
368.729
366.677
364.705
362.832
361.071
359.435
357.93
356.561
355.329
354.23
353.261
352.415
351.682
351.055
350.522
350.076
349.796
349.572
349.394
349.258
349.157
349.085
349.038
349.011
349
349.001
400
400
400
400
400
400
400
400
400
399.998
399.848
399.704
399.569
399.442
399.32
399.201
399.085
398.969
398.851
398.727
398.594
398.446
398.272
398.064
397.808
397.49
397.092
396.599
395.993
395.261
394.389
393.369
392.194
390.864
389.382
387.754
385.992
384.108
382.12
380.048
377.913
375.741
373.555
371.38
369.241
367.161
365.159
363.254
361.461
359.791
358.253
356.851
355.586
354.458
353.46
352.588
351.832
351.183
350.631
350.168
349.874
349.636
349.447
349.301
349.191
349.113
349.06
349.028
349.014
349.012
400
400
400
400
400
400
400
400
400
399.998
399.847
399.703
399.569
399.441
399.32
399.202
399.086
398.971
398.854
398.733
398.602
398.456
398.286
398.082
397.831
397.519
397.129
396.645
396.05
395.33
394.471
393.463
392.301
390.982
389.508
387.887
386.128
384.246
382.257
380.182
378.043
375.865
373.673
371.491
369.344
367.256
365.247
363.335
361.535
359.858
358.313
356.905
355.634
354.5
353.497
352.62
351.859
351.207
350.652
350.186
349.888
349.648
349.457
349.309
349.198
349.118
349.065
349.032
349.016
349.014
400
400
400
400
400
400
400
400
400
399.998
399.846
399.702
399.568
399.44
399.318
399.2
399.085
398.97
398.853
398.732
398.601
398.455
398.285
398.081
397.831
397.519
397.131
396.65
396.058
395.342
394.487
393.484
392.327
391.012
389.542
387.923
386.165
384.282
382.291
380.214
378.072
375.89
373.694
371.509
369.36
367.269
365.258
363.344
361.542
359.864
358.318
356.909
355.638