/*--------------------------------*- C++ -*----------------------------------*\
  =========                 |
  \\      /  F ield         | OpenFOAM: The Open Source CFD Toolbox
   \\    /   O peration     | Website:  https://openfoam.org
    \\  /    A nd           | Version:  12
     \\/     M anipulation  |
\*---------------------------------------------------------------------------*/
FoamFile
{
    format      ascii;
    class       volScalarField;
    location    "350/porous";
    object      rho;
}
// * * * * * * * * * * * * * * * * * * * * * * * * * * * * * * * * * * * * * //

dimensions      [1 -3 0 0 0 0 0];

internalField   nonuniform List<scalar> 
140000
(
933.891
933.891
933.891
933.891
933.891
933.891
933.891
933.891
933.892
933.899
934.195
934.422
934.622
934.808
934.985
935.157
935.326
935.49
935.653
935.814
935.972
936.129
936.284
936.439
936.592
936.745
936.897
937.051
937.209
937.372
937.543
937.727
937.927
938.148
938.395
938.672
938.986
939.34
939.738
940.183
940.676
941.22
941.814
942.459
943.153
943.896
944.686
945.521
946.398
947.313
948.263
949.243
950.248
951.276
952.318
953.373
954.434
955.495
956.553
957.589
958.315
959.138
959.992
960.853
961.709
962.551
963.373
964.17
964.936
965.619
933.891
933.891
933.891
933.891
933.891
933.891
933.891
933.891
933.891
933.896
934.124
934.304
934.463
934.613
934.757
934.897
935.033
935.168
935.302
935.433
935.564
935.693
935.822
935.95
936.077
936.204
936.33
936.456
936.584
936.713
936.845
936.982
937.125
937.277
937.439
937.616
937.81
938.024
938.262
938.527
938.822
939.148
939.508
939.904
940.338
940.811
941.325
941.881
942.479
943.12
943.804
944.53
945.297
946.102
946.944
947.818
948.722
949.651
950.602
951.561
952.301
953.126
953.993
954.884
955.791
956.705
957.622
958.537
959.443
960.294
933.891
933.891
933.891
933.891
933.891
933.891
933.891
933.891
933.891
933.895
934.105
934.267
934.409
934.541
934.665
934.786
934.903
935.018
935.131
935.242
935.352
935.461
935.569
935.675
935.781
935.886
935.99
936.094
936.198
936.301
936.405
936.511
936.617
936.726
936.838
936.954
937.076
937.206
937.346
937.497
937.663
937.844
938.043
938.262
938.504
938.772
939.068
939.395
939.756
940.154
940.59
941.067
941.587
942.15
942.756
943.406
944.098
944.831
945.602
946.404
947.02
947.738
948.517
949.344
950.209
951.106
952.03
952.977
953.938
954.87
933.891
933.891
933.891
933.891
933.891
933.891
933.891
933.891
933.891
933.895
934.101
934.259
934.395
934.521
934.639
934.752
934.861
934.968
935.072
935.174
935.275
935.374
935.471
935.568
935.663
935.757
935.85
935.942
936.034
936.125
936.215
936.306
936.396
936.487
936.577
936.669
936.762
936.858
936.959
937.066
937.179
937.301
937.432
937.576
937.734
937.909
938.104
938.323
938.569
938.844
939.153
939.498
939.881
940.306
940.774
941.286
941.844
942.445
943.092
943.778
944.29
944.912
945.607
946.361
947.166
948.017
948.909
949.838
950.797
951.742
933.891
933.891
933.891
933.891
933.891
933.891
933.891
933.891
933.891
933.895
934.1
934.257
934.393
934.516
934.632
934.743
934.849
934.953
935.054
935.153
935.25
935.345
935.438
935.531
935.621
935.711
935.799
935.886
935.973
936.058
936.144
936.228
936.312
936.395
936.478
936.561
936.644
936.729
936.816
936.908
937.003
937.104
937.212
937.329
937.457
937.598
937.757
937.934
938.135
938.363
938.62
938.911
939.238
939.604
940.011
940.463
940.959
941.502
942.091
942.722
943.184
943.759
944.411
945.127
945.9
946.725
947.596
948.511
949.462
950.406
933.891
933.891
933.891
933.891
933.891
933.891
933.891
933.891
933.891
933.895
934.101
934.258
934.394
934.517
934.632
934.742
934.848
934.951
935.051
935.148
935.244
935.338
935.43
935.521
935.61
935.698
935.784
935.87
935.954
936.038
936.121
936.203
936.285
936.365
936.445
936.525
936.604
936.685
936.769
936.855
936.944
937.039
937.139
937.247
937.364
937.494
937.64
937.803
937.988
938.198
938.437
938.707
939.013
939.357
939.742
940.171
940.645
941.165
941.733
942.344
942.788
943.347
943.984
944.687
945.449
946.265
947.131
948.041
948.99
949.934
933.891
933.891
933.891
933.891
933.891
933.891
933.891
933.891
933.891
933.895
934.102
934.259
934.395
934.518
934.634
934.743
934.849
934.951
935.051
935.148
935.244
935.337
935.429
935.519
935.608
935.696
935.781
935.866
935.95
936.033
936.116
936.197
936.278
936.358
936.437
936.515
936.594
936.674
936.756
936.84
936.928
937.02
937.118
937.222
937.336
937.463
937.603
937.762
937.941
938.145
938.377
938.64
938.938
939.274
939.651
940.072
940.538
941.051
941.612
942.217
942.656
943.21
943.844
944.544
945.304
946.119
946.984
947.894
948.844
949.789
933.891
933.891
933.891
933.891
933.891
933.891
933.891
933.891
933.891
933.895
934.102
934.26
934.396
934.52
934.635
934.745
934.851
934.953
935.053
935.15
935.245
935.339
935.431
935.521
935.61
935.697
935.783
935.868
935.952
936.035
936.117
936.199
936.28
936.36
936.438
936.517
936.595
936.675
936.756
936.84
936.927
937.018
937.115
937.219
937.332
937.456
937.595
937.752
937.929
938.131
938.36
938.621
938.916
939.249
939.623
940.041
940.504
941.015
941.573
942.177
942.615
943.169
943.802
944.503
945.263
946.078
946.944
947.856
948.807
949.753
933.891
933.891
933.891
933.891
933.891
933.891
933.891
933.891
933.891
933.895
934.103
934.261
934.398
934.521
934.637
934.747
934.852
934.954
935.054
935.151
935.247
935.34
935.432
935.523
935.612
935.699
935.786
935.87
935.954
936.038
936.121
936.202
936.284
936.364
936.443
936.521
936.6
936.679
936.761
936.845
936.932
937.023
937.119
937.222
937.335
937.459
937.598
937.754
937.93
938.131
938.359
938.618
938.912
939.244
939.617
940.033
940.495
941.005
941.563
942.166
942.604
943.158
943.792
944.493
945.253
946.07
946.936
947.848
948.8
949.747
933.891
933.891
933.891
933.891
933.891
933.891
933.891
933.891
933.891
933.895
934.104
934.262
934.399
934.523
934.638
934.748
934.854
934.956
935.055
935.152
935.248
935.341
935.434
935.524
935.614
935.702
935.788
935.873
935.958
936.041
936.124
936.207
936.288
936.369
936.448
936.527
936.606
936.686
936.767
936.851
936.938
937.029
937.125
937.229
937.341
937.465
937.604
937.76
937.936
938.136
938.364
938.623
938.916
939.247
939.619
940.034
940.496
941.004
941.562
942.165
942.603
943.157
943.791
944.492
945.253
946.07
946.937
947.85
948.802
949.749
933.891
933.891
933.891
933.891
933.891
933.891
933.891
933.891
933.891
933.895
934.104
934.263
934.4
934.524
934.639
934.749
934.854
934.957
935.056
935.153
935.248
935.342
935.434
935.525
935.615
935.703
935.79
935.876
935.96
936.044
936.128
936.211
936.293
936.374
936.454
936.533
936.612
936.693
936.774
936.858
936.945
937.036
937.132
937.236
937.348
937.472
937.611
937.766
937.943
938.143
938.37
938.628
938.921
939.251
939.623
940.037
940.498
941.006
941.563
942.166
942.604
943.158
943.792
944.493
945.254
946.071
946.938
947.851
948.804
949.752
933.891
933.891
933.891
933.891
933.891
933.891
933.891
933.891
933.891
933.895
934.104
934.264
934.401
934.525
934.64
934.75
934.855
934.957
935.056
935.153
935.248
935.342
935.435
935.526
935.616
935.704
935.791
935.877
935.962
936.047
936.131
936.214
936.297
936.378
936.459
936.539
936.619
936.699
936.781
936.865
936.952
937.043
937.139
937.243
937.356
937.48
937.618
937.773
937.949
938.149
938.376
938.634
938.927
939.256
939.627
940.041
940.501
941.009
941.565
942.167
942.605
943.159
943.793
944.494
945.255
946.072
946.94
947.853
948.806
949.753
933.891
933.891
933.891
933.891
933.891
933.891
933.891
933.891
933.891
933.895
934.105
934.264
934.401
934.525
934.641
934.75
934.855
934.957
935.056
935.153
935.248
935.342
935.434
935.526
935.616
935.705
935.792
935.878
935.964
936.049
936.133
936.217
936.3
936.382
936.463
936.544
936.624
936.705
936.787
936.872
936.959
937.05
937.146
937.25
937.362
937.486
937.625
937.78
937.956
938.156
938.382
938.64
938.932
939.261
939.631
940.044
940.503
941.01
941.566
942.167
942.605
943.159
943.792
944.493
945.255
946.072
946.939
947.852
948.805
949.753
933.891
933.891
933.891
933.891
933.891
933.891
933.891
933.891
933.891
933.895
934.105
934.265
934.402
934.526
934.641
934.751
934.856
934.957
935.056
935.152
935.247
935.341
935.434
935.525
935.615
935.704
935.792
935.879
935.965
936.05
936.135
936.22
936.303
936.385
936.467
936.548
936.63
936.711
936.794
936.878
936.965
937.056
937.153
937.256
937.369
937.493
937.631
937.786
937.962
938.161
938.388
938.645
938.936
939.265
939.634
940.047
940.505
941.011
941.566
942.167
942.604
943.158
943.791
944.492
945.253
946.07
946.937
947.85
948.803
949.751
933.891
933.891
933.891
933.891
933.891
933.891
933.891
933.891
933.891
933.895
934.105
934.265
934.402
934.526
934.642
934.751
934.855
934.957
935.055
935.152
935.247
935.34
935.433
935.524
935.614
935.703
935.791
935.878
935.965
936.051
936.136
936.221
936.305
936.388
936.471
936.552
936.634
936.716
936.799
936.884
936.971
937.062
937.159
937.262
937.375
937.499
937.637
937.792
937.967
938.166
938.392
938.649
938.939
939.267
939.636
940.048
940.506
941.011
941.566
942.166
942.603
943.156
943.789
944.489
945.25
946.067
946.934
947.847
948.8
949.747
933.891
933.891
933.891
933.891
933.891
933.891
933.891
933.891
933.891
933.895
934.105
934.265
934.402
934.526
934.642
934.751
934.855
934.956
935.055
935.151
935.246
935.339
935.432
935.523
935.613
935.702
935.79
935.878
935.964
936.051
936.137
936.223
936.307
936.39
936.473
936.556
936.638
936.72
936.804
936.889
936.976
937.068
937.164
937.268
937.38
937.504
937.641
937.796
937.971
938.17
938.396
938.652
938.942
939.269
939.637
940.048
940.505
941.01
941.564
942.163
942.6
943.153
943.785
944.485
945.246
946.063
946.93
947.843
948.795
949.743
933.891
933.891
933.891
933.891
933.891
933.891
933.891
933.891
933.891
933.895
934.105
934.265
934.402
934.526
934.642
934.751
934.855
934.956
935.054
935.151
935.245
935.338
935.43
935.522
935.612
935.701
935.789
935.877
935.964
936.051
936.138
936.223
936.308
936.392
936.475
936.558
936.641
936.724
936.808
936.893
936.981
937.072
937.169
937.272
937.384
937.508
937.645
937.8
937.975
938.173
938.398
938.654
938.943
939.27
939.638
940.048
940.504
941.008
941.561
942.16
942.597
943.148
943.781
944.48
945.241
946.057
946.924
947.837
948.789
949.737
933.891
933.891
933.891
933.891
933.891
933.891
933.891
933.891
933.891
933.895
934.105
934.265
934.402
934.526
934.642
934.751
934.855
934.956
935.054
935.15
935.245
935.338
935.43
935.52
935.61
935.699
935.788
935.875
935.963
936.051
936.138
936.224
936.31
936.394
936.477
936.56
936.643
936.727
936.811
936.897
936.984
937.076
937.172
937.276
937.388
937.511
937.648
937.802
937.977
938.175
938.4
938.655
938.944
939.27
939.637
940.046
940.502
941.005
941.558
942.157
942.593
943.144
943.775
944.475
945.235
946.051
946.917
947.83
948.782
949.73
933.891
933.891
933.891
933.891
933.891
933.891
933.891
933.891
933.891
933.895
934.105
934.265
934.402
934.526
934.642
934.75
934.855
934.955
935.054
935.15
935.244
935.337
935.429
935.52
935.609
935.698
935.786
935.874
935.962
936.05
936.138
936.225
936.31
936.395
936.478
936.561
936.644
936.729
936.813
936.899
936.987
937.079
937.175
937.278
937.39
937.513
937.65
937.804
937.978
938.176
938.4
938.655
938.944
939.269
939.635
940.044
940.499
941.001
941.554
942.152
942.587
943.138
943.769
944.468
945.227
946.043
946.909
947.822
948.774
949.721
933.891
933.891
933.891
933.891
933.891
933.891
933.891
933.891
933.891
933.895
934.105
934.265
934.402
934.526
934.641
934.75
934.854
934.955
935.053
935.15
935.244
935.337
935.429
935.519
935.609
935.697
935.786
935.874
935.962
936.05
936.138
936.225
936.311
936.395
936.478
936.562
936.645
936.729
936.814
936.9
936.989
937.08
937.176
937.279
937.391
937.514
937.651
937.804
937.978
938.176
938.4
938.654
938.942
939.267
939.632
940.04
940.494
940.996
941.548
942.146
942.58
943.131
943.761
944.46
945.219
946.034
946.9
947.812
948.765
949.711
933.891
933.891
933.891
933.891
933.891
933.891
933.891
933.891
933.891
933.895
934.105
934.264
934.401
934.525
934.641
934.75
934.854
934.955
935.053
935.15
935.244
935.337
935.429
935.519
935.609
935.697
935.785
935.874
935.962
936.051
936.139
936.226
936.311
936.395
936.479
936.562
936.645
936.729
936.814
936.901
936.989
937.081
937.177
937.28
937.391
937.514
937.65
937.804
937.977
938.174
938.398
938.652
938.939
939.263
939.628
940.035
940.489
940.99
941.542
942.14
942.573
943.123
943.753
944.45
945.209
946.024
946.89
947.802
948.754
949.701
933.891
933.891
933.891
933.891
933.891
933.891
933.891
933.891
933.891
933.895
934.105
934.265
934.401
934.525
934.64
934.749
934.854
934.955
935.053
935.15
935.245
935.338
935.43
935.52
935.609
935.698
935.786
935.874
935.963
936.051
936.139
936.226
936.311
936.395
936.479
936.562
936.645
936.729
936.814
936.901
936.989
937.081
937.177
937.28
937.391
937.513
937.649
937.802
937.976
938.172
938.396
938.649
938.936
939.259
939.623
940.029
940.482
940.983
941.535
942.132
942.565
943.113
943.743
944.44
945.199
946.013
946.879
947.791
948.743
949.689
933.891
933.891
933.891
933.891
933.891
933.891
933.891
933.891
933.891
933.895
934.105
934.264
934.401
934.524
934.64
934.749
934.853
934.955
935.054
935.151
935.246
935.339
935.431
935.521
935.61
935.699
935.787
935.876
935.964
936.053
936.14
936.227
936.312
936.396
936.479
936.562
936.646
936.729
936.814
936.901
936.989
937.081
937.177
937.279
937.39
937.512
937.648
937.801
937.974
938.17
938.393
938.645
938.931
939.254
939.617
940.023
940.476
940.977
941.528
942.125
942.556
943.105
943.733
944.43
945.188
946.002
946.868
947.779
948.731
949.678
933.891
933.891
933.891
933.891
933.891
933.891
933.891
933.891
933.891
933.895
934.104
934.263
934.4
934.523
934.639
934.748
934.853
934.955
935.054
935.151
935.247
935.34
935.432
935.522
935.612
935.701
935.789
935.878
935.966
936.055
936.142
936.228
936.313
936.397
936.48
936.563
936.646
936.73
936.815
936.901
936.99
937.081
937.177
937.279
937.389
937.511
937.646
937.799
937.971
938.167
938.389
938.642
938.927
939.249
939.611
940.017
940.469
940.97
941.521
942.118
942.549
943.096
943.724
944.421
945.179
945.993
946.858
947.769
948.721
949.667
933.891
933.891
933.891
933.891
933.891
933.891
933.891
933.891
933.891
933.895
934.104
934.263
934.4
934.523
934.638
934.748
934.853
934.955
935.054
935.152
935.248
935.341
935.433
935.524
935.614
935.703
935.791
935.88
935.969
936.057
936.144
936.23
936.315
936.399
936.482
936.565
936.648
936.731
936.816
936.902
936.99
937.082
937.177
937.279
937.389
937.51
937.645
937.797
937.969
938.165
938.387
938.639
938.924
939.245
939.607
940.013
940.464
940.965
941.516
942.112
942.543
943.09
943.718
944.415
945.172
945.986
946.851
947.762
948.714
949.661
933.891
933.891
933.891
933.891
933.891
933.891
933.891
933.891
933.891
933.895
934.104
934.262
934.398
934.522
934.637
934.747
934.852
934.955
935.055
935.153
935.249
935.343
935.435
935.526
935.616
935.705
935.794
935.883
935.971
936.059
936.146
936.232
936.317
936.4
936.484
936.566
936.649
936.733
936.817
936.903
936.992
937.082
937.178
937.279
937.388
937.509
937.644
937.796
937.968
938.163
938.385
938.636
938.921
939.243
939.605
940.011
940.463
940.964
941.515
942.112
942.543
943.09
943.718
944.414
945.172
945.985
946.85
947.762
948.714
949.66
933.891
933.891
933.891
933.891
933.891
933.891
933.891
933.891
933.891
933.895
934.104
934.262
934.398
934.522
934.637
934.746
934.852
934.955
935.056
935.154
935.25
935.344
935.437
935.528
935.618
935.707
935.796
935.885
935.974
936.061
936.148
936.234
936.319
936.402
936.485
936.568
936.651
936.734
936.819
936.905
936.993
937.083
937.178
937.279
937.388
937.509
937.644
937.796
937.968
938.163
938.385
938.636
938.921
939.243
939.606
940.012
940.465
940.966
941.518
942.116
942.547
943.094
943.723
944.419
945.177
945.991
946.856
947.768
948.72
949.667
933.891
933.891
933.891
933.891
933.891
933.891
933.891
933.891
933.891
933.895
934.103
934.261
934.397
934.521
934.636
934.746
934.852
934.956
935.056
935.155
935.251
935.345
935.438
935.529
935.619
935.709
935.798
935.887
935.975
936.063
936.15
936.236
936.32
936.404
936.487
936.57
936.652
936.736
936.82
936.906
936.994
937.084
937.179
937.279
937.389
937.509
937.644
937.796
937.968
938.163
938.385
938.637
938.922
939.245
939.608
940.015
940.469
940.972
941.524
942.122
942.554
943.102
943.731
944.428
945.186
946
946.866
947.778
948.73
949.677
933.891
933.891
933.891
933.891
933.891
933.891
933.891
933.891
933.891
933.895
934.103
934.26
934.396
934.52
934.635
934.746
934.852
934.956
935.057
935.155
935.251
935.346
935.439
935.53
935.621
935.711
935.8
935.889
935.977
936.064
936.151
936.237
936.322
936.405
936.488
936.571
936.653
936.737
936.822
936.908
936.995
937.085
937.179
937.28
937.389
937.509
937.644
937.796
937.968
938.164
938.386
938.638
938.924
939.247
939.611
940.019
940.474
940.977
941.531
942.13
942.562
943.11
943.74
944.437
945.196
946.011
946.877
947.789
948.741
949.688
933.891
933.891
933.891
933.891
933.891
933.891
933.891
933.891
933.891
933.895
934.102
934.26
934.396
934.519
934.635
934.746
934.852
934.956
935.057
935.156
935.252
935.347
935.439
935.531
935.622
935.712
935.801
935.89
935.978
936.065
936.152
936.238
936.323
936.406
936.489
936.571
936.654
936.738
936.822
936.908
936.995
937.085
937.179
937.28
937.389
937.51
937.644
937.796
937.969
938.164
938.386
938.639
938.925
939.249
939.614
940.023
940.479
940.983
941.537
942.138
942.57
943.119
943.749
944.447
945.207
946.022
946.888
947.8
948.753
949.7
933.891
933.891
933.891
933.891
933.891
933.891
933.891
933.891
933.891
933.895
934.102
934.259
934.395
934.518
934.634
934.745
934.852
934.956
935.057
935.156
935.252
935.347
935.44
935.531
935.622
935.712
935.801
935.89
935.978
936.065
936.152
936.238
936.322
936.406
936.489
936.571
936.654
936.738
936.822
936.908
936.995
937.084
937.178
937.279
937.388
937.509
937.644
937.796
937.969
938.164
938.387
938.64
938.927
939.251
939.617
940.027
940.484
940.989
941.544
942.145
942.578
943.128
943.758
944.457
945.217
946.032
946.899
947.812
948.764
949.712
933.891
933.891
933.891
933.891
933.891
933.891
933.891
933.891
933.891
933.895
934.101
934.258
934.394
934.518
934.634
934.745
934.852
934.956
935.057
935.155
935.252
935.347
935.44
935.531
935.622
935.712
935.801
935.89
935.977
936.064
936.151
936.236
936.321
936.405
936.487
936.57
936.653
936.736
936.821
936.906
936.993
937.082
937.176
937.277
937.387
937.508
937.643
937.796
937.968
938.164
938.387
938.641
938.928
939.253
939.62
940.03
940.488
940.994
941.55
942.152
942.585
943.136
943.767
944.466
945.226
946.042
946.909
947.822
948.775
949.722
933.891
933.891
933.891
933.891
933.891
933.891
933.891
933.891
933.891
933.895
934.101
934.258
934.393
934.517
934.633
934.744
934.851
934.955
935.056
935.155
935.252
935.347
935.439
935.531
935.622
935.711
935.8
935.889
935.976
936.063
936.149
936.234
936.319
936.402
936.485
936.568
936.65
936.734
936.818
936.903
936.989
937.079
937.173
937.275
937.385
937.506
937.642
937.795
937.967
938.164
938.387
938.641
938.929
939.255
939.622
940.034
940.492
940.999
941.556
942.158
942.592
943.143
943.775
944.474
945.235
946.051
946.918
947.831
948.784
949.732
933.891
933.891
933.891
933.891
933.891
933.891
933.891
933.891
933.891
933.895
934.1
934.257
934.392
934.516
934.633
934.744
934.851
934.955
935.056
935.155
935.251
935.346
935.439
935.53
935.621
935.71
935.799
935.887
935.974
936.06
936.146
936.231
936.315
936.399
936.481
936.564
936.647
936.73
936.813
936.898
936.985
937.075
937.17
937.271
937.382
937.504
937.64
937.793
937.966
938.162
938.386
938.64
938.929
939.256
939.624
940.036
940.495
941.003
941.561
942.164
942.598
943.15
943.782
944.481
945.242
946.059
946.926
947.839
948.792
949.74
933.891
933.891
933.891
933.891
933.891
933.891
933.891
933.891
933.891
933.895
934.1
934.256
934.392
934.516
934.632
934.743
934.85
934.954
935.055
935.154
935.251
935.345
935.438
935.529
935.62
935.709
935.798
935.885
935.972
936.058
936.143
936.227
936.311
936.394
936.477
936.559
936.642
936.725
936.808
936.893
936.98
937.07
937.165
937.267
937.378
937.5
937.637
937.79
937.964
938.161
938.385
938.64
938.929
939.257
939.625
940.038
940.498
941.006
941.565
942.169
942.603
943.155
943.788
944.488
945.249
946.066
946.933
947.846
948.8
949.747
933.891
933.891
933.891
933.891
933.891
933.891
933.891
933.891
933.891
933.895
934.1
934.256
934.391
934.515
934.632
934.743
934.85
934.953
935.055
935.153
935.25
935.344
935.437
935.528
935.618
935.707
935.796
935.883
935.969
936.055
936.139
936.223
936.307
936.389
936.472
936.554
936.636
936.719
936.803
936.888
936.975
937.065
937.16
937.262
937.374
937.497
937.633
937.787
937.961
938.158
938.383
938.638
938.928
939.256
939.626
940.04
940.5
941.009
941.568
942.173
942.608
943.16
943.792
944.493
945.254
946.071
946.939
947.852
948.805
949.753
933.891
933.891
933.891
933.891
933.891
933.891
933.891
933.891
933.891
933.895
934.099
934.256
934.391
934.515
934.631
934.742
934.849
934.953
935.054
935.152
935.249
935.343
935.436
935.527
935.617
935.706
935.793
935.88
935.966
936.051
936.135
936.219
936.302
936.384
936.466
936.548
936.63
936.713
936.797
936.881
936.968
937.059
937.154
937.257
937.369
937.492
937.629
937.783
937.957
938.155
938.38
938.637
938.927
939.256
939.626
940.04
940.502
941.011
941.571
942.176
942.611
943.163
943.796
944.497
945.259
946.076
946.943
947.857
948.81
949.758
933.891
933.891
933.891
933.891
933.891
933.891
933.891
933.891
933.891
933.895
934.099
934.255
934.39
934.514
934.63
934.741
934.848
934.952
935.053
935.151
935.248
935.342
935.434
935.525
935.615
935.704
935.791
935.878
935.963
936.048
936.131
936.214
936.296
936.378
936.46
936.542
936.624
936.706
936.79
936.875
936.962
937.052
937.148
937.251
937.363
937.486
937.624
937.779
937.953
938.151
938.377
938.634
938.925
939.254
939.625
940.04
940.502
941.012
941.572
942.178
942.613
943.166
943.799
944.5
945.261
946.078
946.946
947.859
948.813
949.76
933.891
933.891
933.891
933.891
933.891
933.891
933.891
933.891
933.891
933.895
934.099
934.255
934.39
934.513
934.63
934.74
934.847
934.951
935.052
935.15
935.246
935.34
935.433
935.524
935.613
935.702
935.789
935.875
935.96
936.044
936.127
936.209
936.291
936.372
936.453
936.535
936.617
936.699
936.783
936.867
936.954
937.045
937.141
937.244
937.356
937.48
937.618
937.773
937.948
938.147
938.373
938.63
938.922
939.252
939.624
940.039
940.502
941.012
941.573
942.179
942.614
943.167
943.8
944.501
945.263
946.08
946.947
947.861
948.814
949.762
933.891
933.891
933.891
933.891
933.891
933.891
933.891
933.891
933.891
933.895
934.099
934.254
934.389
934.513
934.629
934.739
934.846
934.95
935.05
935.148
935.245
935.339
935.431
935.522
935.611
935.699
935.786
935.872
935.957
936.041
936.123
936.205
936.286
936.366
936.447
936.528
936.61
936.692
936.775
936.86
936.947
937.038
937.134
937.237
937.349
937.473
937.611
937.766
937.942
938.141
938.368
938.626
938.919
939.249
939.621
940.037
940.5
941.011
941.572
942.178
942.614
943.167
943.8
944.501
945.263
946.079
946.947
947.86
948.813
949.761
933.891
933.891
933.891
933.891
933.891
933.891
933.891
933.891
933.891
933.895
934.098
934.254
934.389
934.512
934.628
934.738
934.845
934.948
935.049
935.147
935.243
935.337
935.429
935.52
935.609
935.697
935.784
935.87
935.954
936.037
936.12
936.201
936.281
936.361
936.441
936.521
936.603
936.685
936.768
936.852
936.94
937.03
937.126
937.23
937.342
937.466
937.605
937.76
937.936
938.136
938.363
938.622
938.915
939.247
939.619
940.036
940.499
941.011
941.572
942.178
942.614
943.167
943.8
944.501
945.262
946.079
946.946
947.859
948.811
949.759
933.891
933.891
933.891
933.891
933.891
933.891
933.891
933.891
933.891
933.895
934.098
934.253
934.388
934.511
934.627
934.737
934.844
934.947
935.047
935.145
935.241
935.335
935.427
935.518
935.607
935.695
935.781
935.867
935.951
936.034
936.116
936.197
936.276
936.356
936.435
936.515
936.596
936.678
936.761
936.846
936.933
937.023
937.12
937.223
937.335
937.46
937.598
937.754
937.931
938.131
938.359
938.619
938.913
939.245
939.619
940.036
940.5
941.011
941.573
942.179
942.615
943.168
943.801
944.501
945.262
946.078
946.945
947.857
948.81
949.757
933.891
933.891
933.891
933.891
933.891
933.891
933.891
933.891
933.891
933.895
934.097
934.253
934.387
934.51
934.626
934.736
934.842
934.945
935.045
935.143
935.239
935.333
935.425
935.516
935.605
935.693
935.779
935.865
935.949
936.032
936.113
936.193
936.273
936.352
936.431
936.511
936.592
936.673
936.756
936.841
936.928
937.019
937.115
937.219
937.332
937.456
937.596
937.752
937.93
938.131
938.361
938.622
938.917
939.251
939.625
940.044
940.509
941.021
941.583
942.19
942.626
943.178
943.811
944.511
945.271
946.087
946.953
947.864
948.816
949.762
933.891
933.891
933.891
933.891
933.891
933.891
933.891
933.891
933.891
933.895
934.097
934.252
934.386
934.509
934.625
934.735
934.841
934.944
935.044
935.142
935.238
935.332
935.424
935.515
935.604
935.692
935.778
935.864
935.948
936.031
936.112
936.193
936.272
936.351
936.43
936.51
936.591
936.673
936.756
936.841
936.929
937.02
937.117
937.222
937.336
937.462
937.603
937.761
937.941
938.145
938.377
938.641
938.939
939.276
939.654
940.075
940.542
941.057
941.621
942.229
942.666
943.219
943.852
944.552
945.312
946.126
946.991
947.902
948.853
949.798
933.891
933.891
933.891
933.891
933.891
933.891
933.891
933.891
933.891
933.895
934.097
934.251
934.386
934.509
934.624
934.734
934.841
934.943
935.044
935.142
935.238
935.333
935.425
935.517
935.606
935.695
935.782
935.868
935.953
936.036
936.118
936.199
936.279
936.359
936.439
936.52
936.602
936.685
936.769
936.856
936.945
937.039
937.139
937.246
937.364
937.493
937.639
937.802
937.988
938.198
938.437
938.708
939.014
939.359
939.745
940.174
940.649
941.171
941.741
942.355
942.797
943.355
943.991
944.694
945.456
946.272
947.137
948.048
948.997
949.941
933.891
933.891
933.891
933.891
933.891
933.891
933.891
933.891
933.891
933.895
934.096
934.251
934.386
934.509
934.625
934.736
934.843
934.947
935.048
935.147
935.244
935.34
935.434
935.527
935.619
935.709
935.798
935.886
935.972
936.058
936.142
936.225
936.308
936.39
936.473
936.557
936.642
936.729
936.818
936.909
937.004
937.105
937.212
937.328
937.456
937.597
937.755
937.933
938.135
938.362
938.62
938.911
939.239
939.605
940.013
940.465
940.962
941.506
942.097
942.731
943.191
943.765
944.417
945.132
945.905
946.729
947.601
948.516
949.467
950.411
933.891
933.891
933.891
933.891
933.891
933.891
933.891
933.891
933.891
933.895
934.097
934.253
934.389
934.514
934.632
934.746
934.855
934.962
935.067
935.169
935.27
935.37
935.468
935.565
935.661
935.756
935.85
935.942
936.034
936.125
936.214
936.303
936.392
936.482
936.573
936.665
936.761
936.859
936.961
937.068
937.181
937.302
937.432
937.575
937.733
937.908
938.103
938.322
938.568
938.843
939.153
939.498
939.882
940.307
940.775
941.287
941.845
942.448
943.096
943.784
944.295
944.916
945.61
946.363
947.168
948.019
948.911
949.84
950.799
951.744
933.891
933.891
933.891
933.891
933.891
933.891
933.891
933.891
933.891
933.895
934.102
934.262
934.404
934.535
934.66
934.781
934.899
935.014
935.127
935.239
935.349
935.458
935.567
935.674
935.781
935.886
935.991
936.095
936.199
936.302
936.405
936.509
936.614
936.722
936.834
936.951
937.075
937.206
937.347
937.499
937.665
937.845
938.043
938.262
938.503
938.77
939.066
939.393
939.754
940.152
940.588
941.066
941.586
942.148
942.755
943.404
944.096
944.829
945.602
946.405
947.02
947.737
948.515
949.341
950.205
951.102
952.026
952.973
953.933
954.865
933.891
933.891
933.891
933.891
933.891
933.891
933.891
933.891
933.891
933.896
934.121
934.3
934.459
934.609
934.753
934.893
935.03
935.165
935.299
935.431
935.562
935.692
935.822
935.95
936.078
936.205
936.332
936.458
936.585
936.714
936.844
936.979
937.121
937.271
937.434
937.612
937.807
938.023
938.262
938.528
938.822
939.148
939.507
939.902
940.334
940.806
941.32
941.875
942.472
943.113
943.797
944.523
945.289
946.094
946.935
947.808
948.712
949.641
950.592
951.553
952.291
953.116
953.981
954.872
955.778
956.692
957.609
958.523
959.429
960.28
933.891
933.891
933.891
933.891
933.891
933.891
933.891
933.891
933.892
933.899
934.193
934.419
934.618
934.804
934.982
935.154
935.323
935.488
935.651
935.813
935.972
936.129
936.286
936.441
936.594
936.748
936.901
937.054
937.211
937.372
937.542
937.723
937.921
938.141
938.387
938.666
938.982
939.338
939.737
940.182
940.675
941.217
941.81
942.453
943.145
943.887
944.676
945.509
946.385
947.299
948.249
949.228
950.233
951.259
952.301
953.354
954.414
955.476
956.534
957.572
958.296
959.119
959.972
960.833
961.689
962.531
963.353
964.15
964.916
965.6
933.891
933.891
933.891
933.891
933.891
933.891
933.891
933.891
933.891
933.896
934.12
934.328
934.52
934.703
934.879
935.049
935.217
935.382
935.545
935.706
935.865
936.022
936.178
936.333
936.487
936.64
936.794
936.948
937.106
937.269
937.44
937.622
937.821
938.04
938.284
938.559
938.869
939.218
939.611
940.051
940.539
941.077
941.665
942.304
942.992
943.73
944.514
945.344
946.215
947.126
948.071
949.046
950.048
951.072
952.112
953.164
954.223
955.284
956.342
957.383
958.157
958.988
959.845
960.708
961.567
962.412
963.238
964.04
964.811
965.507
933.891
933.891
933.891
933.891
933.891
933.891
933.891
933.891
933.891
933.894
934.055
934.212
934.361
934.505
934.644
934.781
934.916
935.049
935.18
935.311
935.44
935.569
935.697
935.824
935.951
936.077
936.203
936.328
936.455
936.583
936.714
936.85
936.991
937.14
937.299
937.471
937.66
937.867
938.098
938.354
938.639
938.955
939.303
939.687
940.107
940.566
941.066
941.606
942.189
942.814
943.483
944.193
944.944
945.734
946.561
947.421
948.312
949.229
950.169
951.121
951.906
952.737
953.601
954.489
955.393
956.306
957.223
958.139
959.048
959.914
933.891
933.891
933.891
933.891
933.891
933.891
933.891
933.891
933.891
933.894
934.039
934.178
934.31
934.435
934.556
934.674
934.789
934.902
935.013
935.123
935.232
935.339
935.446
935.552
935.657
935.761
935.864
935.967
936.07
936.173
936.276
936.381
936.486
936.594
936.704
936.818
936.937
937.063
937.199
937.345
937.504
937.678
937.869
938.079
938.311
938.568
938.851
939.165
939.511
939.892
940.312
940.771
941.272
941.815
942.402
943.031
943.703
944.415
945.166
945.951
946.605
947.319
948.086
948.898
949.749
950.632