/*--------------------------------*- C++ -*----------------------------------*\
  =========                 |
  \\      /  F ield         | OpenFOAM: The Open Source CFD Toolbox
   \\    /   O peration     | Website:  https://openfoam.org
    \\  /    A nd           | Version:  12
     \\/     M anipulation  |
\*---------------------------------------------------------------------------*/
FoamFile
{
    format      ascii;
    class       volScalarField;
    location    "350/porous";
    object      T;
}
// * * * * * * * * * * * * * * * * * * * * * * * * * * * * * * * * * * * * * //

dimensions      [0 0 0 1 0 0 0];

internalField   nonuniform List<scalar> 
140000
(
400
400
400
400
400
400
400
400
400
399.992
399.674
399.43
399.216
399.015
398.824
398.638
398.456
398.278
398.102
397.928
397.756
397.586
397.417
397.249
397.082
396.916
396.749
396.581
396.409
396.231
396.043
395.841
395.622
395.379
395.107
394.801
394.454
394.063
393.621
393.126
392.575
391.966
391.298
390.57
389.782
388.935
388.029
387.066
386.049
384.98
383.862
382.7
381.498
380.26
378.992
377.698
376.385
375.058
373.721
372.4
371.465
370.398
369.281
368.144
367.004
365.871
364.755
363.663
362.604
361.65
400
400
400
400
400
400
400
400
400
399.995
399.751
399.557
399.386
399.225
399.07
398.919
398.772
398.626
398.482
398.34
398.198
398.058
397.919
397.78
397.642
397.504
397.367
397.23
397.091
396.95
396.806
396.657
396.5
396.335
396.157
395.963
395.751
395.515
395.253
394.961
394.636
394.275
393.876
393.436
392.953
392.424
391.848
391.223
390.547
389.82
389.04
388.209
387.326
386.393
385.412
384.386
383.318
382.213
381.073
379.915
379.013
378.002
376.932
375.823
374.686
373.528
372.357
371.178
370
368.883
400
400
400
400
400
400
400
400
400
399.996
399.771
399.597
399.444
399.303
399.168
399.039
398.912
398.788
398.666
398.546
398.427
398.31
398.193
398.078
397.963
397.849
397.736
397.623
397.511
397.398
397.285
397.171
397.054
396.936
396.814
396.687
396.554
396.412
396.259
396.093
395.911
395.713
395.494
395.253
394.986
394.691
394.364
394.001
393.601
393.158
392.671
392.137
391.554
390.919
390.233
389.494
388.704
387.863
386.973
386.042
385.323
384.481
383.561
382.58
381.546
380.465
379.343
378.185
377
375.84
400
400
400
400
400
400
400
400
400
399.996
399.775
399.606
399.459
399.324
399.197
399.075
398.958
398.843
398.73
398.62
398.511
398.404
398.299
398.194
398.091
397.989
397.888
397.788
397.689
397.59
397.492
397.393
397.295
397.197
397.098
396.998
396.897
396.791
396.681
396.565
396.441
396.308
396.164
396.007
395.834
395.641
395.427
395.186
394.915
394.611
394.27
393.888
393.461
392.988
392.465
391.891
391.265
390.585
389.851
389.07
388.484
387.769
386.967
386.092
385.152
384.152
383.096
381.989
380.838
379.694
400
400
400
400
400
400
400
400
400
399.996
399.776
399.607
399.462
399.329
399.204
399.085
398.97
398.859
398.75
398.643
398.538
398.435
398.334
398.234
398.136
398.039
397.943
397.849
397.755
397.662
397.57
397.478
397.387
397.296
397.206
397.116
397.025
396.933
396.837
396.738
396.633
396.523
396.405
396.277
396.137
395.982
395.809
395.613
395.393
395.142
394.859
394.538
394.176
393.77
393.317
392.813
392.258
391.649
390.986
390.272
389.747
389.091
388.345
387.521
386.627
385.668
384.647
383.569
382.439
381.309
400
400
400
400
400
400
400
400
400
399.996
399.775
399.606
399.461
399.328
399.204
399.086
398.972
398.861
398.753
398.648
398.545
398.443
398.343
398.245
398.148
398.053
397.959
397.867
397.775
397.685
397.594
397.505
397.416
397.329
397.242
397.155
397.068
396.98
396.889
396.795
396.697
396.594
396.485
396.367
396.238
396.096
395.937
395.758
395.554
395.324
395.061
394.762
394.425
394.044
393.616
393.139
392.61
392.027
391.389
390.699
390.196
389.561
388.834
388.028
387.149
386.203
385.193
384.124
383
381.875
400
400
400
400
400
400
400
400
400
399.996
399.774
399.605
399.46
399.327
399.203
399.084
398.971
398.86
398.753
398.648
398.545
398.444
398.344
398.247
398.15
398.056
397.963
397.871
397.78
397.69
397.6
397.511
397.423
397.337
397.251
397.165
397.08
396.993
396.904
396.811
396.716
396.615
396.508
396.394
396.269
396.131
395.977
395.803
395.606
395.382
395.127
394.837
394.508
394.136
393.717
393.25
392.73
392.156
391.526
390.844
390.347
389.717
388.995
388.193
387.317
386.373
385.365
384.297
383.173
382.048
400
400
400
400
400
400
400
400
400
399.996
399.774
399.604
399.458
399.325
399.201
399.082
398.969
398.858
398.751
398.646
398.543
398.442
398.343
398.245
398.149
398.054
397.961
397.869
397.778
397.688
397.598
397.51
397.422
397.335
397.249
397.164
397.079
396.992
396.903
396.812
396.717
396.617
396.511
396.398
396.274
396.138
395.985
395.814
395.619
395.397
395.145
394.858
394.532
394.163
393.748
393.284
392.768
392.196
391.569
390.889
390.393
389.764
389.042
388.24
387.365
386.42
385.411
384.342
383.218
382.091
400
400
400
400
400
400
400
400
400
399.996
399.773
399.603
399.457
399.323
399.199
399.081
398.967
398.857
398.75
398.645
398.542
398.44
398.341
398.243
398.146
398.052
397.958
397.866
397.775
397.685
397.595
397.506
397.418
397.33
397.244
397.159
397.073
396.987
396.898
396.807
396.712
396.612
396.507
396.394
396.271
396.135
395.983
395.812
395.618
395.397
395.146
394.86
394.536
394.169
393.755
393.292
392.777
392.207
391.58
390.901
390.405
389.776
389.054
388.252
387.376
386.431
385.421
384.351
383.225
382.098
400
400
400
400
400
400
400
400
400
399.996
399.772
399.602
399.455
399.322
399.197
399.079
398.966
398.856
398.748
398.643
398.54
398.439
398.339
398.241
398.144
398.049
397.955
397.863
397.772
397.681
397.59
397.501
397.412
397.325
397.238
397.153
397.067
396.98
396.891
396.799
396.704
396.605
396.5
396.387
396.264
396.128
395.976
395.805
395.612
395.392
395.141
394.856
394.532
394.166
393.753
393.291
392.777
392.208
391.581
390.902
390.406
389.778
389.055
388.252
387.376
386.43
385.42
384.349
383.223
382.095
400
400
400
400
400
400
400
400
400
399.996
399.772
399.601
399.454
399.321
399.196
399.078
398.965
398.855
398.748
398.643
398.54
398.438
398.339
398.24
398.143
398.047
397.953
397.861
397.769
397.677
397.587
397.497
397.408
397.32
397.233
397.146
397.06
396.972
396.883
396.792
396.697
396.598
396.492
396.379
396.256
396.12
395.969
395.798
395.605
395.385
395.134
394.85
394.526
394.161
393.749
393.288
392.774
392.206
391.58
390.901
390.405
389.777
389.054
388.251
387.374
386.429
385.418
384.347
383.221
382.093
400
400
400
400
400
400
400
400
400
399.996
399.771
399.6
399.453
399.32
399.195
399.077
398.964
398.854
398.747
398.642
398.54
398.438
398.338
398.239
398.142
398.046
397.952
397.859
397.766
397.675
397.583
397.493
397.403
397.315
397.227
397.14
397.053
396.965
396.876
396.784
396.689
396.59
396.484
396.371
396.248
396.112
395.961
395.79
395.597
395.377
395.127
394.843
394.52
394.155
393.744
393.284
392.771
392.203
391.578
390.9
390.404
389.776
389.053
388.25
387.373
386.428
385.417
384.346
383.219
382.091
400
400
400
400
400
400
400
400
400
399.996
399.771
399.6
399.453
399.319
399.195
399.077
398.964
398.854
398.747
398.643
398.54
398.439
398.338
398.24
398.142
398.046
397.951
397.858
397.765
397.673
397.581
397.49
397.4
397.31
397.222
397.134
397.047
396.958
396.869
396.777
396.682
396.582
396.477
396.364
396.241
396.105
395.953
395.783
395.59
395.37
395.121
394.837
394.515
394.15
393.74
393.28
392.768
392.201
391.577
390.9
390.404
389.776
389.054
388.251
387.374
386.428
385.418
384.346
383.22
382.092
400
400
400
400
400
400
400
400
400
399.996
399.771
399.599
399.452
399.319
399.194
399.077
398.964
398.854
398.748
398.643
398.541
398.439
398.339
398.24
398.143
398.046
397.951
397.857
397.764
397.671
397.579
397.487
397.396
397.307
397.218
397.129
397.041
396.952
396.862
396.77
396.675
396.575
396.47
396.357
396.234
396.098
395.946
395.776
395.583
395.364
395.115
394.831
394.51
394.146
393.737
393.278
392.766
392.2
391.577
390.9
390.405
389.777
389.055
388.252
387.376
386.43
385.42
384.348
383.222
382.094
400
400
400
400
400
400
400
400
400
399.996
399.771
399.599
399.452
399.318
399.194
399.076
398.964
398.855
398.748
398.644
398.542
398.44
398.34
398.241
398.144
398.047
397.952
397.858
397.764
397.67
397.577
397.485
397.394
397.304
397.214
397.125
397.036
396.947
396.856
396.764
396.668
396.569
396.463
396.35
396.227
396.091
395.94
395.77
395.578
395.359
395.11
394.827
394.506
394.143
393.734
393.276
392.766
392.2
391.577
390.901
390.407
389.779
389.058
388.256
387.379
386.434
385.423
384.352
383.226
382.098
400
400
400
400
400
400
400
400
400
399.996
399.771
399.599
399.452
399.318
399.194
399.076
398.964
398.855
398.749
398.645
398.542
398.441
398.342
398.243
398.145
398.049
397.953
397.858
397.764
397.67
397.577
397.484
397.392
397.301
397.211
397.122
397.032
396.942
396.851
396.758
396.663
396.563
396.458
396.344
396.221
396.086
395.935
395.765
395.573
395.355
395.106
394.824
394.503
394.141
393.733
393.275
392.766
392.201
391.579
390.904
390.41
389.783
389.062
388.26
387.384
386.439
385.428
384.357
383.232
382.104
400
400
400
400
400
400
400
400
400
399.996
399.77
399.599
399.451
399.318
399.194
399.076
398.964
398.855
398.749
398.645
398.543
398.442
398.343
398.244
398.147
398.05
397.955
397.86
397.765
397.67
397.576
397.483
397.391
397.299
397.209
397.119
397.029
396.938
396.847
396.754
396.658
396.558
396.453
396.34
396.217
396.081
395.931
395.761
395.569
395.351
395.103
394.821
394.501
394.14
393.732
393.276
392.767
392.204
391.582
390.907
390.414
389.787
389.067
388.266
387.39
386.445
385.435
384.364
383.239
382.111
400
400
400
400
400
400
400
400
400
399.996
399.771
399.599
399.452
399.318
399.194
399.077
398.964
398.856
398.75
398.646
398.544
398.443
398.344
398.245
398.148
398.052
397.956
397.861
397.766
397.671
397.576
397.482
397.389
397.298
397.207
397.117
397.026
396.935
396.843
396.75
396.654
396.554
396.449
396.336
396.213
396.078
395.928
395.758
395.567
395.349
395.101
394.82
394.501
394.14
393.733
393.278
392.77
392.207
391.586
390.911
390.418
389.793
389.073
388.272
387.397
386.453
385.443
384.372
383.247
382.119
400
400
400
400
400
400
400
400
400
399.996
399.77
399.599
399.452
399.318
399.194
399.077
398.965
398.856
398.75
398.646
398.544
398.444
398.344
398.246
398.149
398.053
397.957
397.862
397.766
397.671
397.576
397.481
397.388
397.297
397.206
397.116
397.025
396.933
396.841
396.747
396.651
396.551
396.446
396.333
396.21
396.076
395.926
395.757
395.565
395.348
395.101
394.82
394.501
394.141
393.735
393.281
392.774
392.211
391.591
390.917
390.425
389.8
389.081
388.28
387.406
386.462
385.452
384.382
383.257
382.129
400
400
400
400
400
400
400
400
400
399.996
399.771
399.599
399.452
399.318
399.194
399.077
398.965
398.856
398.75
398.646
398.544
398.444
398.345
398.247
398.15
398.054
397.958
397.863
397.767
397.671
397.576
397.481
397.388
397.296
397.206
397.115
397.024
396.932
396.84
396.746
396.649
396.549
396.444
396.331
396.209
396.075
395.925
395.756
395.565
395.348
395.102
394.821
394.503
394.144
393.739
393.285
392.779
392.217
391.597
390.923
390.432
389.808
389.089
388.29
387.416
386.472
385.463
384.393
383.268
382.141
400
400
400
400
400
400
400
400
400
399.996
399.771
399.6
399.452
399.319
399.195
399.078
398.965
398.856
398.75
398.646
398.544
398.443
398.344
398.247
398.15
398.054
397.958
397.863
397.767
397.671
397.575
397.481
397.388
397.296
397.205
397.115
397.024
396.932
396.839
396.745
396.649
396.549
396.443
396.331
396.209
396.075
395.925
395.757
395.566
395.35
395.103
394.824
394.506
394.147
393.743
393.29
392.785
392.223
391.604
390.93
390.44
389.817
389.099
388.3
387.427
386.483
385.475
384.405
383.281
382.154
400
400
400
400
400
400
400
400
400
399.996
399.771
399.6
399.453
399.319
399.195
399.078
398.966
398.857
398.75
398.646
398.543
398.443
398.344
398.246
398.149
398.053
397.958
397.862
397.766
397.67
397.574
397.48
397.387
397.296
397.205
397.115
397.024
396.932
396.84
396.745
396.649
396.549
396.443
396.331
396.209
396.076
395.926
395.758
395.568
395.352
395.106
394.827
394.51
394.152
393.749
393.297
392.792
392.231
391.612
390.939
390.45
389.827
389.11
388.312
387.439
386.496
385.488
384.419
383.294
382.167
400
400
400
400
400
400
400
400
400
399.996
399.771
399.6
399.453
399.32
399.196
399.079
398.966
398.857
398.75
398.645
398.542
398.442
398.342
398.245
398.148
398.052
397.956
397.86
397.764
397.668
397.573
397.479
397.387
397.295
397.205
397.114
397.024
396.932
396.839
396.745
396.649
396.549
396.444
396.332
396.21
396.077
395.928
395.76
395.57
395.355
395.109
394.831
394.515
394.158
393.755
393.303
392.799
392.239
391.62
390.947
390.459
389.837
389.121
388.323
387.451
386.509
385.501
384.432
383.308
382.181
400
400
400
400
400
400
400
400
400
399.996
399.772
399.601
399.454
399.321
399.197
399.08
398.967
398.857
398.75
398.644
398.541
398.44
398.341
398.243
398.146
398.05
397.954
397.858
397.762
397.666
397.571
397.478
397.385
397.294
397.204
397.113
397.023
396.931
396.839
396.745
396.648
396.548
396.444
396.332
396.211
396.078
395.93
395.762
395.573
395.358
395.113
394.835
394.52
394.163
393.761
393.31
392.806
392.246
391.628
390.955
390.468
389.847
389.131
388.334
387.462
386.52
385.513
384.444
383.32
382.194
400
400
400
400
400
400
400
400
400
399.996
399.772
399.601
399.454
399.321
399.198
399.08
398.967
398.857
398.749
398.644
398.54
398.439
398.339
398.241
398.144
398.048
397.952
397.856
397.76
397.664
397.569
397.476
397.384
397.293
397.202
397.112
397.021
396.93
396.838
396.744
396.647
396.548
396.443
396.332
396.212
396.079
395.931
395.764
395.575
395.36
395.116
394.838
394.523
394.167
393.766
393.315
392.812
392.252
391.634
390.962
390.475
389.854
389.138
388.341
387.469
386.528
385.52
384.452
383.328
382.202
400
400
400
400
400
400
400
400
400
399.996
399.772
399.602
399.456
399.323
399.199
399.081
398.967
398.856
398.748
398.642
398.539
398.437
398.338
398.239
398.142
398.045
397.949
397.853
397.757
397.661
397.567
397.474
397.381
397.29
397.2
397.11
397.019
396.928
396.836
396.742
396.646
396.547
396.443
396.332
396.212
396.08
395.932
395.765
395.576
395.362
395.118
394.841
394.526
394.17
393.769
393.318
392.813
392.253
391.634
390.962
390.475
389.854
389.139
388.342
387.47
386.528
385.521
384.452
383.328
382.202
400
400
400
400
400
400
400
400
400
399.996
399.772
399.602
399.456
399.323
399.199
399.081
398.967
398.856
398.748
398.642
398.538
398.436
398.336
398.238
398.14
398.043
397.947
397.85
397.754
397.659
397.565
397.471
397.379
397.288
397.198
397.108
397.018
396.927
396.835
396.741
396.645
396.546
396.442
396.332
396.212
396.08
395.932
395.766
395.577
395.362
395.118
394.841
394.526
394.17
393.768
393.316
392.811
392.25
391.631
390.958
390.47
389.849
389.133
388.336
387.464
386.522
385.514
384.445
383.321
382.194
400
400
400
400
400
400
400
400
400
399.996
399.773
399.603
399.457
399.324
399.2
399.081
398.967
398.856
398.747
398.641
398.537
398.435
398.335
398.236
398.138
398.041
397.944
397.848
397.752
397.657
397.563
397.469
397.377
397.287
397.196
397.106
397.016
396.925
396.833
396.739
396.643
396.545
396.441
396.331
396.212
396.08
395.932
395.765
395.577
395.362
395.118
394.84
394.525
394.168
393.765
393.313
392.806
392.244
391.624
390.95
390.463
389.841
389.124
388.326
387.454
386.511
385.503
384.434
383.309
382.182
400
400
400
400
400
400
400
400
400
399.996
399.774
399.604
399.458
399.325
399.201
399.082
398.967
398.856
398.747
398.64
398.536
398.434
398.334
398.235
398.137
398.04
397.943
397.846
397.751
397.656
397.561
397.468
397.376
397.285
397.195
397.105
397.015
396.924
396.832
396.738
396.642
396.544
396.441
396.331
396.212
396.08
395.932
395.765
395.576
395.361
395.117
394.839
394.523
394.166
393.762
393.308
392.801
392.238
391.617
390.941
390.453
389.831
389.113
388.315
387.442
386.499
385.49
384.42
383.296
382.168
400
400
400
400
400
400
400
400
400
399.996
399.774
399.604
399.458
399.326
399.201
399.082
398.967
398.855
398.746
398.64
398.536
398.433
398.333
398.234
398.136
398.038
397.942
397.845
397.75
397.655
397.561
397.467
397.375
397.284
397.194
397.104
397.014
396.923
396.831
396.737
396.642
396.544
396.441
396.331
396.212
396.08
395.932
395.765
395.576
395.361
395.116
394.838
394.522
394.163
393.759
393.304
392.796
392.232
391.609
390.933
390.444
389.821
389.103
388.304
387.43
386.486
385.477
384.407
383.282
382.154
400
400
400
400
400
400
400
400
400
399.996
399.774
399.605
399.46
399.327
399.202
399.083
398.968
398.856
398.747
398.64
398.536
398.433
398.333
398.234
398.135
398.038
397.941
397.845
397.75
397.655
397.561
397.467
397.375
397.285
397.194
397.105
397.014
396.923
396.831
396.738
396.643
396.545
396.442
396.332
396.212
396.08
395.932
395.765
395.576
395.361
395.116
394.837
394.52
394.161
393.755
393.3
392.79
392.225
391.601
390.924
390.435
389.811
389.092
388.292
387.418
386.474
385.464
384.394
383.268
382.141
400
400
400
400
400
400
400
400
400
399.996
399.775
399.606
399.461
399.328
399.202
399.083
398.968
398.856
398.747
398.64
398.536
398.433
398.333
398.234
398.135
398.038
397.941
397.846
397.75
397.656
397.562
397.469
397.377
397.286
397.196
397.106
397.016
396.924
396.833
396.74
396.645
396.547
396.444
396.334
396.214
396.081
395.933
395.766
395.576
395.361
395.115
394.836
394.519
394.159
393.752
393.295
392.785
392.219
391.595
390.916
390.426
389.802
389.083
388.282
387.407
386.463
385.453
384.382
383.256
382.128
400
400
400
400
400
400
400
400
400
399.996
399.775
399.607
399.461
399.328
399.203
399.083
398.968
398.856
398.747
398.64
398.536
398.434
398.333
398.234
398.136
398.039
397.942
397.847
397.752
397.658
397.564
397.471
397.379
397.288
397.198
397.108
397.018
396.927
396.836
396.743
396.648
396.55
396.447
396.337
396.216
396.083
395.934
395.767
395.577
395.362
395.116
394.836
394.518
394.157
393.75
393.292
392.781
392.214
391.588
390.909
390.419
389.794
389.074
388.273
387.397
386.452
385.442
384.371
383.245
382.117
400
400
400
400
400
400
400
400
400
399.996
399.776
399.608
399.462
399.329
399.204
399.084
398.969
398.857
398.747
398.641
398.536
398.434
398.334
398.235
398.137
398.04
397.944
397.848
397.754
397.66
397.567
397.475
397.383
397.292
397.202
397.112
397.022
396.932
396.84
396.748
396.653
396.555
396.452
396.341
396.22
396.086
395.937
395.769
395.579
395.363
395.117
394.836
394.517
394.156
393.748
393.289
392.777
392.209
391.583
390.903
390.412
389.786
389.066
388.264
387.389
386.443
385.433
384.361
383.235
382.107
400
400
400
400
400
400
400
400
400
399.996
399.777
399.608
399.463
399.33
399.204
399.085
398.969
398.857
398.748
398.641
398.537
398.435
398.335
398.236
398.138
398.041
397.945
397.85
397.756
397.663
397.57
397.479
397.387
397.297
397.207
397.117
397.027
396.937
396.846
396.753
396.659
396.56
396.456
396.345
396.223
396.089
395.94
395.772
395.581
395.365
395.118
394.837
394.517
394.155
393.746
393.287
392.774
392.205
391.579
390.898
390.406
389.78
389.059
388.257
387.381
386.435
385.424
384.353
383.226
382.098
400
400
400
400
400
400
400
400
400
399.996
399.777
399.609
399.463
399.33
399.205
399.085
398.97
398.858
398.749
398.642
398.538
398.436
398.336
398.237
398.139
398.043
397.947
397.853
397.759
397.666
397.574
397.483
397.393
397.302
397.213
397.123
397.033
396.943
396.852
396.76
396.665
396.566
396.462
396.35
396.228
396.094
395.944
395.775
395.584
395.367
395.12
394.838
394.518
394.155
393.745
393.285
392.772
392.202
391.575
390.893
390.401
389.775
389.053
388.251
387.375
386.429
385.418
384.346
383.22
382.091
400
400
400
400
400
400
400
400
400
399.996
399.777
399.609
399.464
399.331
399.206
399.086
398.971
398.859
398.75
398.643
398.539
398.437
398.337
398.238
398.141
398.045
397.95
397.855
397.762
397.67
397.579
397.488
397.398
397.308
397.219
397.13
397.04
396.95
396.859
396.766
396.671
396.573
396.468
396.356
396.234
396.099
395.948
395.779
395.588
395.371
395.123
394.84
394.519
394.156
393.745
393.284
392.77
392.2
391.572
390.89
390.397
389.77
389.049
388.246
387.37
386.424
385.413
384.341
383.214
382.086
400
400
400
400
400
400
400
400
400
399.996
399.777
399.61
399.464
399.331
399.206
399.087
398.972
398.86
398.751
398.645
398.541
398.439
398.338
398.24
398.143
398.047
397.952
397.858
397.766
397.674
397.583
397.493
397.404
397.315
397.226
397.137
397.047
396.957
396.866
396.774
396.679
396.58
396.475
396.363
396.24
396.105
395.954
395.785
395.593
395.375
395.126
394.843
394.522
394.157
393.746
393.285
392.77
392.199
391.57
390.888
390.395
389.768
389.046
388.243
387.366
386.42
385.409
384.338
383.211
382.082
400
400
400
400
400
400
400
400
400
399.996
399.778
399.61
399.465
399.332
399.207
399.088
398.973
398.861
398.752
398.646
398.542
398.44
398.34
398.242
398.145
398.049
397.955
397.861
397.769
397.678
397.587
397.498
397.409
397.321
397.233
397.144
397.055
396.965
396.874
396.782
396.687
396.588
396.483
396.37
396.247
396.112
395.961
395.791
395.599
395.38
395.131
394.847
394.525
394.16
393.748
393.286
392.77
392.199
391.57
390.887
390.394
389.766
389.044
388.242
387.365
386.419
385.408
384.336
383.21
382.081
400
400
400
400
400
400
400
400
400
399.996
399.778
399.611
399.466
399.333
399.208
399.089
398.974
398.862
398.754
398.648
398.544
398.442
398.342
398.244
398.147
398.052
397.957
397.864
397.772
397.681
397.592
397.503
397.415
397.328
397.24
397.152
397.063
396.973
396.882
396.79
396.695
396.596
396.491
396.378
396.255
396.119
395.968
395.798
395.605
395.386
395.136
394.852
394.529
394.163
393.75
393.288
392.772
392.2
391.57
390.887
390.394
389.766
389.044
388.242
387.365
386.419
385.408
384.337
383.211
382.082
400
400
400
400
400
400
400
400
400
399.996
399.778
399.611
399.466
399.334
399.209
399.09
398.975
398.864
398.755
398.649
398.545
398.444
398.344
398.246
398.149
398.054
397.96
397.867
397.775
397.685
397.596
397.508
397.42
397.334
397.246
397.159
397.07
396.981
396.89
396.798
396.703
396.604
396.499
396.386
396.263
396.127
395.975
395.805
395.612
395.392
395.142
394.857
394.533
394.166
393.753
393.289
392.773
392.201
391.571
390.887
390.394
389.767
389.045
388.242
387.366
386.42
385.41
384.339
383.213
382.084
400
400
400
400
400
400
400
400
400
399.996
399.779
399.612
399.467
399.334
399.21
399.091
398.976
398.865
398.757
398.651
398.548
398.446
398.346
398.248
398.152
398.057
397.963
397.87
397.779
397.689
397.6
397.512
397.426
397.339
397.253
397.165
397.077
396.988
396.898
396.805
396.71
396.611
396.506
396.393
396.27
396.134
395.982
395.811
395.618
395.397
395.146
394.86
394.535
394.168
393.754
393.29
392.772
392.2
391.57
390.886
390.393
389.765
389.044
388.242
387.366
386.421
385.411
384.34
383.215
382.087
400
400
400
400
400
400
400
400
400
399.996
399.779
399.612
399.468
399.336
399.211
399.092
398.978
398.867
398.759
398.653
398.55
398.448
398.348
398.25
398.154
398.059
397.965
397.872
397.781
397.691
397.603
397.515
397.429
397.343
397.257
397.17
397.082
396.993
396.903
396.811
396.716
396.616
396.511
396.398
396.274
396.138
395.985
395.813
395.619
395.397
395.145
394.857
394.531
394.162
393.746
393.281
392.762
392.189
391.558
390.874
390.381
389.753
389.032
388.231
387.355
386.411
385.402
384.332
383.207
382.08
400
400
400
400
400
400
400
400
400
399.996
399.78
399.613
399.469
399.337
399.212
399.094
398.979
398.869
398.761
398.655
398.551
398.45
398.35
398.252
398.155
398.06
397.966
397.873
397.782
397.692
397.604
397.516
397.43
397.344
397.258
397.171
397.083
396.994
396.903
396.81
396.715
396.615
396.509
396.394
396.27
396.132
395.977
395.803
395.606
395.382
395.126
394.836
394.506
394.134
393.715
393.246
392.725
392.149
391.516
390.83
390.336
389.707
388.986
388.184
387.309
386.365
385.356
384.287
383.164
382.038
400
400
400
400
400
400
400
400
400
399.996
399.78
399.614
399.469
399.337
399.213
399.094
398.98
398.869
398.76
398.655
398.551
398.449
398.348
398.25
398.152
398.056
397.962
397.869
397.777
397.686
397.597
397.509
397.422
397.335
397.248
397.16
397.071
396.981
396.888
396.794
396.697
396.594
396.485
396.368
396.239
396.097
395.938
395.758
395.555
395.324
395.06
394.761
394.423
394.042
393.613
393.136
392.606
392.021
391.38
390.687
390.187
389.553
388.826
388.02
387.142
386.196
385.186
384.116
382.992
381.866
400
400
400
400
400
400
400
400
400
399.996
399.78
399.614
399.469
399.337
399.212
399.093
398.977
398.865
398.756
398.649
398.544
398.44
398.339
398.238
398.139
398.041
397.945
397.85
397.756
397.663
397.571
397.481
397.391
397.302
397.212
397.12
397.027
396.933
396.836
396.736
396.632
396.522
396.405
396.278
396.138
395.983
395.81
395.615
395.393
395.143
394.858
394.537
394.175
393.768
393.315
392.811
392.255
391.645
390.979
390.262
389.739
389.085
388.339
387.516
386.622
385.662
384.641
383.563
382.433
381.303
400
400
400
400
400
400
400
400
400
399.996
399.779
399.612
399.466
399.331
399.204
399.082
398.964
398.849
398.736
398.625
398.516
398.408
398.302
398.197
398.093
397.99
397.889
397.788
397.689
397.59
397.493
397.396
397.299
397.202
397.103
397.002
396.898
396.791
396.679
396.563
396.439
396.307
396.164
396.008
395.835
395.643
395.428
395.187
394.916
394.612
394.27
393.887
393.461
392.987
392.464
391.89
391.263
390.582
389.847
389.063
388.479
387.765
386.963
386.089
385.149
384.149
383.094
381.987
380.836
379.692
400
400
400
400
400
400
400
400
400
399.996
399.774
399.602
399.45
399.309
399.174
399.044
398.917
398.793
398.671
398.55
398.431
398.312
398.195
398.079
397.964
397.849
397.735
397.622
397.51
397.398
397.286
397.173
397.058
396.941
396.818
396.69
396.555
396.411
396.257
396.091
395.91
395.712
395.494
395.254
394.988
394.693
394.366
394.004
393.603
393.161
392.673
392.139
391.555
390.921
390.235
389.496
388.706
387.864
386.973
386.04
385.323
384.482
383.563
382.583
381.55
380.469
379.348
378.191
377.006
375.846
400
400
400
400
400
400
400
400
400
399.995
399.754
399.562
399.391
399.229
399.074
398.923
398.775
398.63
398.485
398.342
398.2
398.059
397.919
397.78
397.641
397.503
397.365
397.227
397.089
396.949
396.807
396.66
396.505
396.34
396.162
395.968
395.753
395.516
395.253
394.96
394.636
394.276
393.878
393.439
392.957
392.429
391.854
391.23
390.554
389.828
389.048
388.217
387.335
386.403
385.423
384.398
383.331
382.225
381.084
379.924
379.025
378.015
376.946
375.838
374.702
373.545
372.374
371.196
370.019
368.902
400
400
400
400
400
400
400
400
400
399.992
399.677
399.434
399.219
399.019
398.827
398.641
398.459
398.28
398.104
397.929
397.756
397.585
397.415
397.247
397.079
396.912
396.745
396.577
396.407
396.23
396.044
395.846
395.628
395.387
395.115
394.808
394.459
394.065
393.622
393.127
392.576
391.969
391.303
390.577
389.791
388.945
388.041
387.08
386.064
384.996
383.878
382.718
381.517
380.28
379.014
377.721
376.409
375.082
373.745
372.422
371.489
370.423
369.307
368.171
367.031
365.899
364.783
363.691
362.632
361.677
400
400
400
400
400
400
400
400
400
399.995
399.754
399.532
399.325
399.128
398.939
398.754
398.573
398.395
398.219
398.044
397.872
397.701
397.532
397.363
397.196
397.029
396.862
396.693
396.521
396.343
396.156
395.956
395.738
395.497
395.228
394.926
394.584
394.197
393.762
393.273
392.729
392.127
391.466
390.745
389.965
389.125
388.227
387.271
386.261
385.199
384.088
382.933
381.738
380.506
379.244
377.955
376.646
375.322
373.988
372.664
371.67
370.593
369.474
368.336
367.194
366.059
364.939
363.842
362.777
361.807
400
400
400
400
400
400
400
400
400
399.997
399.825
399.657
399.496
399.342
399.191
399.044
398.899
398.755
398.613
398.472
398.332
398.193
398.054
397.916
397.779
397.642
397.506
397.369
397.231
397.091
396.949
396.801
396.647
396.484
396.31
396.122
395.915
395.687
395.434
395.152
394.838
394.489
394.103
393.678
393.21
392.698
392.139
391.532
390.875
390.167
389.407
388.595
387.733
386.82
385.859
384.853
383.804
382.716
381.593
380.447
379.494
378.48
377.417
376.315
375.186
374.034
372.868
371.692
370.515
369.384
400
400
400
400
400
400
400
400
400
399.998
399.842
399.692
399.551
399.416
399.286
399.159
399.036
398.914
398.794
398.675
398.558
398.441
398.326
398.212
398.098
397.985
397.873
397.761
397.649
397.538
397.425
397.312
397.197
397.08
396.96
396.836
396.706
396.568
396.42
396.26
396.085
395.895
395.685
395.454
395.199
394.916
394.603
394.257
393.873
393.449
392.982
392.469
391.908
391.297
390.634
389.921
389.156
388.341
387.476
386.568
385.807
384.972
384.07
383.11
382.097
381.036
379.934
378.795
377.625
376.465
400
400
400
400
400
400
400
400
400
399.998
399.846
399.701
399.564
399.436
399.313
399.194
399.079
398.966
398.855
398.746
398.639
398.533
398.428
398.325
398.223
398.121
398.021
397.922
397.823
397.725
397.627
397.53
397.432
397.334
397.236
397.138
397.037
396.934
396.826
396.713
396.593
396.464
396.325
396.174
396.008
395.824
395.618
395.388
395.13
394.84
394.514
394.149
393.742
393.289
392.788
392.237
391.635
390.981
390.273
389.516
388.89
388.184
387.404
386.554
385.64
384.667
383.638
382.557
381.429
380.295
400
400
400
400
400
400
400
400
400
399.998
399.846
399.702
399.567
399.44
399.319
399.203
399.09
398.981
398.873
398.768
398.665
398.563
398.463
398.364
398.266
398.17
398.074
397.98
397.887
397.795
397.703
397.611
397.521
397.43
397.341
397.251
397.161
397.07
396.975
396.878
396.776
396.668
396.553
396.43
396.295
396.145
395.979
395.792
395.581
395.342
395.071
394.765
394.419
394.031
393.597
393.115
392.582
391.997
391.358
390.668
390.103
389.456
388.731
387.933
387.067
386.135
385.143
384.092
382.989
381.872
400
400
400
400
400
400
400
400
400
399.998
399.846
399.701
399.566
399.439
399.319
399.203
399.092
398.983
398.877
398.773
398.67
398.57
398.471
398.374
398.278
398.183
398.09
397.998
397.907
397.816
397.727
397.637
397.549
397.462
397.375
397.289
397.202
397.115
397.025
396.933
396.837
396.736
396.629
396.515
396.39
396.253
396.099
395.927
395.733
395.512
395.261
394.976
394.653
394.289
393.88
393.423
392.916
392.356
391.742
391.075
390.53
389.904
389.198
388.418
387.567
386.649
385.668
384.627
383.53
382.418
400
400
400
400
400
400
400
400
400
399.998
399.845
399.7
399.565
399.438
399.318
399.202
399.091
398.982
398.876
398.772
398.67
398.57
398.472
398.375
398.279
398.185
398.093
398.001
397.911
397.821
397.732
397.644
397.556
397.469
397.384
397.298
397.213
397.127
397.039
396.948
396.854
396.755
396.651
396.54
396.419
396.285
396.137
395.97
395.781
395.567