/*--------------------------------*- C++ -*----------------------------------*\
  =========                 |
  \\      /  F ield         | OpenFOAM: The Open Source CFD Toolbox
   \\    /   O peration     | Website:  https://openfoam.org
    \\  /    A nd           | Version:  12
     \\/     M anipulation  |
\*---------------------------------------------------------------------------*/
FoamFile
{
    format      ascii;
    class       volScalarField;
    location    "1650/air";
    object      alphat;
}
// * * * * * * * * * * * * * * * * * * * * * * * * * * * * * * * * * * * * * //

dimensions      [1 -1 -1 0 0 0 0];

internalField   nonuniform List<scalar> 
243000
(
0.000144067
0.000147872
0.000147995
0.000146185
0.000142964
0.000138777
0.000134011
0.000128969
0.000123876
0.000118908
0.000114165
0.000109741
0.000105736
0.000102223
9.91681e-05
9.65306e-05
9.42487e-05
9.23387e-05
9.08574e-05
8.98757e-05
8.93771e-05
8.91821e-05
8.89207e-05
8.80655e-05
0.000397094
0.000385168
0.000373612
0.000344767
0.00029927
0.000255741
0.00053665
0.000547859
0.000540078
0.000523199
0.000502344
0.000479912
0.000457234
0.000435155
0.000414198
0.000394689
0.000376804
0.000360734
0.000346565
0.000334355
0.000324064
0.000315632
0.000308946
0.000304238
0.000301734
0.000301759
0.000304255
0.000308599
0.000313447
0.000316913
0.000318788
0.000315181
0.000303771
0.000287962
0.000267044
0.000237757
0.000657816
0.00071515
0.000737449
0.000744006
0.000741192
0.000732606
0.000720278
0.000705566
0.000689352
0.000672302
0.000654853
0.000637496
0.000620504
0.000604169
0.000588694
0.000574247
0.000560914
0.00054939
0.00054011
0.000533497
0.000529326
0.000526583
0.000523335
0.000516997
0.000505369
0.000486069
0.000458743
0.000421825
0.000379692
0.000326727
0.000643491
0.000712207
0.000746824
0.000761361
0.000763671
0.000758438
0.000748377
0.000735194
0.000719995
0.000703617
0.000686628
0.000669566
0.000652754
0.000636579
0.000621325
0.000607244
0.000594508
0.000583874
0.00057565
0.00057002
0.000566561
0.000564281
0.000561496
0.000555925
0.000545213
0.000527219
0.00050137
0.000465731
0.000424089
0.000372026
0.000612588
0.000684892
0.000730467
0.000754736
0.000764782
0.000765363
0.000759692
0.000749848
0.000737194
0.000722797
0.00070738
0.000691538
0.000675693
0.00066035
0.000645879
0.00063264
0.000620883
0.000611379
0.000604283
0.000599529
0.00059651
0.000594278
0.000591419
0.000586025
0.000575948
0.000559192
0.000534949
0.000501585
0.000461819
0.000412668
0.000582458
0.000641686
0.000694611
0.000729242
0.0007488
0.000757194
0.000757694
0.000752562
0.000743638
0.000732287
0.000719359
0.000705492
0.000691251
0.000677274
0.000664006
0.000651958
0.000641435
0.000633186
0.000627214
0.000623244
0.000620542
0.000618195
0.000615039
0.000609522
0.0005998
0.000584083
0.000561452
0.0005306
0.000493309
0.000447574
0.000580992
0.000611407
0.000654364
0.000691507
0.000719662
0.000736544
0.000744287
0.000745242
0.000741275
0.000733869
0.000724068
0.00071281
0.000700719
0.000688556
0.000676836
0.000666249
0.000657137
0.000650196
0.000645314
0.000642057
0.000639612
0.000637112
0.000633593
0.000627815
0.000618264
0.000603387
0.000582271
0.000553862
0.000519273
0.000477017
0.000601298
0.000602707
0.000626906
0.000658716
0.000687782
0.000708834
0.000722547
0.000729676
0.000731249
0.000728544
0.000722648
0.000714532
0.000704995
0.000695042
0.000685187
0.000676274
0.000668702
0.000663087
0.000659254
0.000656661
0.000654456
0.000651821
0.000647957
0.000641884
0.000632397
0.000618196
0.000598453
0.000572308
0.000540511
0.000501547
0.000632031
0.000614712
0.000616415
0.000634767
0.000659498
0.000681834
0.000698682
0.000709473
0.000715563
0.000717538
0.000715905
0.000711436
0.000704968
0.000697447
0.000689689
0.000682617
0.000676671
0.000672386
0.000669568
0.000667609
0.000665651
0.000662933
0.000658792
0.000652455
0.000642989
0.000629344
0.000610838
0.000586817
0.000557614
0.000521747
0.000664818
0.000640055
0.00062432
0.0006247
0.000638567
0.000657529
0.000675226
0.000688708
0.000697758
0.000702754
0.000704962
0.000704227
0.000701037
0.000696274
0.000690832
0.000685736
0.000681476
0.000678526
0.000676694
0.000675353
0.000673668
0.000670941
0.000666615
0.000660085
0.000650653
0.000637517
0.00062015
0.000597899
0.000571052
0.000538125
0.000698228
0.000673106
0.000647796
0.000631936
0.000630224
0.000639877
0.000654347
0.000668335
0.000679473
0.000687069
0.000691579
0.000693897
0.000693901
0.000692034
0.000689037
0.000686011
0.000683477
0.000681862
0.000681
0.000680277
0.000678903
0.000676247
0.000671842
0.000665219
0.000655897
0.000643206
0.000626731
0.000606043
0.000581331
0.000551302
0.00073133
0.000707343
0.000679418
0.000654238
0.00063794
0.000633939
0.00063994
0.000650665
0.000661821
0.000671059
0.00067766
0.000681867
0.000684377
0.000685232
0.000684715
0.000683791
0.00068299
0.000682713
0.000682807
0.00068272
0.000681708
0.000679202
0.00067483
0.000668236
0.000659016
0.000646702
0.000631039
0.00061172
0.000588904
0.00056148
0.000763498
0.000740371
0.000713303
0.000685206
0.000660029
0.000642951
0.000636686
0.000639473
0.000647151
0.000655968
0.000663703
0.000669536
0.00067356
0.000676538
0.0006783
0.000679426
0.000680328
0.000681365
0.00068241
0.000682965
0.000682355
0.00068008
0.000675812
0.000669296
0.000660249
0.000648355
0.000633431
0.000615319
0.00059416
0.00056906
0.000794525
0.00077237
0.000747894
0.000719827
0.000691213
0.000665603
0.000647422
0.000638986
0.000639012
0.000644121
0.000650985
0.000657466
0.000662684
0.000666796
0.000670342
0.000673304
0.000675817
0.000678119
0.000680092
0.000681302
0.000681123
0.000679146
0.000675058
0.000668686
0.000659869
0.000648373
0.000634177
0.000617172
0.000597481
0.000574456
0.000824273
0.000803085
0.000780122
0.000753936
0.000725641
0.000696769
0.000670703
0.000651414
0.000641045
0.000638752
0.000641705
0.000646913
0.000652338
0.000657171
0.000661575
0.000665915
0.000669819
0.000673285
0.000676142
0.000678
0.00067829
0.000676669
0.000672883
0.000666788
0.000658273
0.000647227
0.000633681
0.000617642
0.000599232
0.000578066
0.00085261
0.000832381
0.000810776
0.000786666
0.000760105
0.000731323
0.000701975
0.000675296
0.000654921
0.000642916
0.000638715
0.000639887
0.000643711
0.00064832
0.00065295
0.000657887
0.000662773
0.000667206
0.000670859
0.000673334
0.000674112
0.000672892
0.000669478
0.000663762
0.00065568
0.000645186
0.00063255
0.000617633
0.000600577
0.000581184
0.000879368
0.000860121
0.000839853
0.000817737
0.000793223
0.000765996
0.000736497
0.000706503
0.000679141
0.00065783
0.000644534
0.000638846
0.000638597
0.000641329
0.000645325
0.000650013
0.000655238
0.000660296
0.000664579
0.0006676
0.00066886
0.000668074
0.000665103
0.000659886
0.000652609
0.000643053
0.000631375
0.000617526
0.0006017
0.000583832
0.00090434
0.00088605
0.000867047
0.000846779
0.000824294
0.000799099
0.000771021
0.000740688
0.000709992
0.000682029
0.000660032
0.000645846
0.000639083
0.000637766
0.00063967
0.000643335
0.000647994
0.0006531
0.00065771
0.000661142
0.000662849
0.000662591
0.000660347
0.000655938
0.000649473
0.000640809
0.00063007
0.000617248
0.000602561
0.000586033
0.000927278
0.000909895
0.000892081
0.000873503
0.000852963
0.000829893
0.000803851
0.000774804
0.000743581
0.000712237
0.000683862
0.000661526
0.000646856
0.000639403
0.000637339
0.000638709
0.000642069
0.000646459
0.000650878
0.000654514
0.000656721
0.000657101
0.000655542
0.000651897
0.000646218
0.000638411
0.000628581
0.000616743
0.000603121
0.000587797
0.000947989
0.000931513
0.000914927
0.000897911
0.000879179
0.000858149
0.000834281
0.000807221
0.000777117
0.000745035
0.000713213
0.000684731
0.00066244
0.000647647
0.000639831
0.000637311
0.000638253
0.000641204
0.000644919
0.000648388
0.000650829
0.000651692
0.000650729
0.000647782
0.000642846
0.000635859
0.000626896
0.000615995
0.00060336
0.000589129
0.000966409
0.000950966
0.000936073
0.000920317
0.000903131
0.000883922
0.000862121
0.00083724
0.000809046
0.000777897
0.000745115
0.000713106
0.000684913
0.00066298
0.00064836
0.000640445
0.000637603
0.000638088
0.00064036
0.000643138
0.000645431
0.00064653
0.000646016
0.000643666
0.00063941
0.000633193
0.000625048
0.000615028
0.000603307
0.000590075
0.000982653
0.00096878
0.000954866
0.000940324
0.000924605
0.00090712
0.000887301
0.000864613
0.000838654
0.000809358
0.000777332
0.000744164
0.000712393
0.000684761
0.000663462
0.000649245
0.000641332
0.000638139
0.000637985
0.000639334
0.000640952
0.000641917
0.000641613
0.000639703
0.000636026
0.000630506
0.000623118
0.000613916
0.000603048
0.000590719
0.000996479
0.000983637
0.000970859
0.000957625
0.000943415
0.00092767
0.000909835
0.000889374
0.00086581
0.000838856
0.000808646
0.000776086
0.000742967
0.000711718
0.000684954
0.000664479
0.000650679
0.000642647
0.000638921
0.000637879
0.000638083
0.000638361
0.000637899
0.000636177
0.000632916
0.000627961
0.000621245
0.000612782
0.0006027
0.000591193
0.00100758
0.00099588
0.000984338
0.000972477
0.000959824
0.000945869
0.000930089
0.000911954
0.000890952
0.000866675
0.000838975
0.000808254
0.00077562
0.000742896
0.000712527
0.000686785
0.000667024
0.000653327
0.000644869
0.000640267
0.000638023
0.000636818
0.000635602
0.000633665
0.000630518
0.000625925
0.000619722
0.000611886
0.000602489
0.000591727
0.00101659
0.00100624
0.000996056
0.000985685
0.000974717
0.000962716
0.00094919
0.000933625
0.000915496
0.000894314
0.000869746
0.000841828
0.000811184
0.000778953
0.000747071
0.000717719
0.000692725
0.000673067
0.000658881
0.000649382
0.000643333
0.000639413
0.000636426
0.000633424
0.000629788
0.000625097
0.000619084
0.00061165
0.0006028
0.000592696
0.00102425
0.00101564
0.00100724
0.000998789
0.000989985
0.000980462
0.00096978
0.00095744
0.000942898
0.000925598
0.000905057
0.000881041
0.000853744
0.000823895
0.0007927
0.000761842
0.000733044
0.000707845
0.000687335
0.000671567
0.000659919
0.000651389
0.000644857
0.000639305
0.000633936
0.000628168
0.000621575
0.000613927
0.000605152
0.00059537
0.00103388
0.00102811
0.00102256
0.0010171
0.00101156
0.00100566
0.000999038
0.000991204
0.000981598
0.000969571
0.00095448
0.00093587
0.000913604
0.000888044
0.000859983
0.000830155
0.000799642
0.000770304
0.000743748
0.000720856
0.000701802
0.000686233
0.000673441
0.000662616
0.000652996
0.000643914
0.00063484
0.000625411
0.000615411
0.000604936
0.00105875
0.00105778
0.00105691
0.00105626
0.00105592
0.00105579
0.00105554
0.00105462
0.00105232
0.00104784
0.00104033
0.00102923
0.00101422
0.000995381
0.000973225
0.00094751
0.000918275
0.00088763
0.000857181
0.000828299
0.000801735
0.000777766
0.000756291
0.000737042
0.000719639
0.000703511
0.000688201
0.000673407
0.000658916
0.000645323
0.00115442
0.0011595
0.00116416
0.0011701
0.00117792
0.00118704
0.00119647
0.0012051
0.0012121
0.00121674
0.00121785
0.00121533
0.00120899
0.00119905
0.00118544
0.00116739
0.00114374
0.00111708
0.00108897
0.00106062
0.00103277
0.00100574
0.000979832
0.000955232
0.000932015
0.000908942
0.000886059
0.000863671
0.000842235
0.000823531
0.0015198
0.00151902
0.00152132
0.00153023
0.00154232
0.0015535
0.00156228
0.00156893
0.00157379
0.00157666
0.00157641
0.0015747
0.00157165
0.00156779
0.00156213
0.00155447
0.00154179
0.00152926
0.00151721
0.0015065
0.00149681
0.00148823
0.00148059
0.00147407
0.00146856
0.00145855
0.00144669
0.00143428
0.00142309
0.00141398
0.000184749
0.00018945
0.000187723
0.000183277
0.000177187
0.00017013
0.000162606
0.000155019
0.00014765
0.000140706
0.000134298
0.000128565
0.00012357
0.000119383
0.000115969
0.000113338
0.000111456
0.000110473
0.000110663
0.000112201
0.000114682
0.000117219
0.000118853
0.000118751
0.000116303
0.000110842
0.000102037
8.8831e-05
0.000375514
0.000350889
0.000786095
0.000886996
0.000865933
0.000801393
0.000725553
0.000652676
0.000588124
0.000532489
0.000484951
0.00044441
0.000410151
0.000381739
0.000357674
0.00033764
0.000320631
0.000306382
0.000293946
0.000284504
0.000278325
0.000276311
0.000279238
0.00028719
0.000298069
0.00030767
0.00031057
0.000304139
0.000288912
0.000263496
0.000275938
0.000325748
0.00122637
0.00141173
0.00142873
0.00136732
0.00127483
0.00117382
0.00107644
0.00098785
0.0009092
0.00084046
0.000781277
0.000731473
0.000689016
0.000653583
0.000623695
0.000598182
0.000575024
0.00055557
0.00053793
0.000522809
0.000513812
0.000514343
0.000522959
0.000532729
0.000535883
0.000524316
0.000497524
0.000452527
0.000421223
0.000421583
0.00151506
0.00174036
0.00178503
0.00174648
0.00166554
0.00156444
0.00145955
0.00135934
0.0012665
0.00118316
0.00110999
0.0010474
0.000993927
0.000949631
0.00091315
0.000882508
0.000854938
0.000830951
0.000805476
0.000778644
0.000755561
0.000743309
0.000742673
0.000747633
0.000746259
0.0007293
0.000693896
0.000635515
0.000578797
0.000547986
0.00167371
0.00188994
0.00197674
0.00197286
0.00191408
0.00182554
0.00172878
0.0016328
0.0015382
0.00145127
0.00137366
0.001306
0.00124812
0.00120083
0.00116292
0.00113225
0.00110563
0.00108149
0.0010519
0.0010164
0.000981882
0.000956994
0.000945832
0.000943036
0.000936394
0.000914892
0.000874116
0.000808422
0.000736696
0.000685558
0.00174938
0.00195669
0.00205571
0.0020809
0.00205038
0.0019918
0.00190996
0.00181948
0.00172906
0.00164787
0.00157422
0.00150773
0.00145106
0.00140552
0.00137035
0.00134341
0.00132155
0.00130013
0.00126959
0.00122865
0.001185
0.00114963
0.00112884
0.00111914
0.00110647
0.00108123
0.00103719
0.00096828
0.000889116
0.000825286
0.00178571
0.00194009
0.00203752
0.0020857
0.00208491
0.00205355
0.00199882
0.00193035
0.00186054
0.00178738
0.00171855
0.001657
0.00160677
0.00156704
0.00153788
0.00151776
0.00150333
0.00148654
0.00145601
0.00141215
0.00136321
0.00132053
0.00129112
0.00127393
0.00125745
0.00122922
0.00118355
0.00111458
0.00103228
0.000959846
0.00178783
0.00187484
0.00194652
0.00199865
0.00202655
0.00203235
0.00201114
0.0019708
0.0019222
0.00186778
0.00181302
0.00176399
0.00172087
0.00168933
0.00166891
0.00165835
0.00165266
0.00164181
0.00161429
0.00156985
0.0015185
0.00146983
0.00143339
0.00140919
0.00138847
0.00135968
0.00131397
0.00124709
0.0011653
0.00108761
0.00179296
0.00181812
0.00185305
0.00189024
0.00192321
0.00194665
0.00195437
0.00194775
0.00192788
0.00189718
0.00186162
0.00182747
0.00179732
0.00177681
0.00176698
0.00176785
0.00177175
0.0017677
0.00174491
0.00170287
0.00165058
0.00159843
0.00155669
0.00152643
0.00150106
0.00147183
0.00142993
0.00136707
0.00128856
0.0012067
0.00183867
0.00180395
0.0017861
0.00179062
0.00181132
0.00183763
0.00186086
0.00187666
0.0018832
0.0018811
0.00186866
0.00185359
0.0018398
0.00183315
0.0018355
0.0018485
0.00186276
0.00186684
0.00185016
0.00181186
0.00176079
0.00170754
0.00166225
0.00162717
0.00159809
0.00156908
0.00152912
0.00147196
0.00139735
0.00131532
0.00190195
0.00182984
0.0017617
0.0017218
0.0017161
0.00173052
0.00175468
0.00178162
0.00180583
0.00182581
0.00183865
0.00184612
0.00185152
0.00186137
0.00187731
0.00190302
0.001928
0.00194078
0.00193142
0.00189846
0.00185085
0.00179857
0.00175127
0.0017132
0.00168091
0.00164941
0.00161092
0.00155983
0.00149183
0.00141426
0.0019964
0.00189036
0.00178679
0.00170863
0.00166062
0.00164895
0.00165931
0.00168396
0.00171515
0.0017485
0.00178027
0.00180965
0.00183627
0.00186401
0.00189504
0.001934
0.00197002
0.00199189
0.00199071
0.00196634
0.0019244
0.00187371
0.0018238
0.00178146
0.00174453
0.00171145
0.00167652
0.00163117
0.00157199
0.00150124
0.00211411
0.00198703
0.00185704
0.00174501
0.00166402
0.00161513
0.00159557
0.00160531
0.00163074
0.00166687
0.00170845
0.0017529
0.00179841
0.0018449
0.00189172
0.00194416
0.00199127
0.0020225
0.00203034
0.00201447
0.00197933
0.00193297
0.00188342
0.00183976
0.00179935
0.00176282
0.00172699
0.00168766
0.00163671
0.0015757
0.00225925
0.00212248
0.0019765
0.00183931
0.0017257
0.00164053
0.00158813
0.00156804
0.00157185
0.00159913
0.00163943
0.00168975
0.00174678
0.0018091
0.00187115
0.00193658
0.00199453
0.00203522
0.00205281
0.00204576
0.00201824
0.00197756
0.00193028
0.00188674
0.00184586
0.00180723
0.00177042
0.00173371
0.00169217
0.00164183
0.00242796
0.0022898
0.00213832
0.00198692
0.00184905
0.00173138
0.001642
0.00158556
0.00156043
0.00156423
0.00158989
0.00163545
0.0016943
0.00176341
0.00183809
0.00191504
0.00198294
0.00203294
0.00206001
0.00206207
0.00204272
0.00200864
0.00196557
0.00192348
0.00188361
0.00184577
0.0018101
0.00177491
0.00174003
0.00169834
0.00261329
0.00248297
0.00233537
0.00217933
0.00202699
0.00188438
0.00176212
0.00166836
0.00160669
0.00157779
0.0015784
0.00160583
0.001655
0.00172149
0.00179919
0.00188447
0.0019604
0.00201862
0.00205456
0.00206561
0.00205473
0.00202805
0.00199094
0.00195173
0.00191498
0.00187987
0.0018447
0.00180978
0.00177572
0.00174056
0.00281088
0.00269568
0.00255869
0.00240487
0.00224596
0.00208819
0.00194156
0.00181547
0.00171702
0.00165055
0.00161713
0.0016161
0.00164372
0.00169545
0.00176672
0.00185167
0.00193192
0.00199611
0.00203968
0.00205935
0.00205713
0.00203878
0.00200946
0.00197447
0.00193979
0.00190561
0.00187168
0.0018369
0.00180337
0.00177107
0.00301323
0.002916
0.00279386
0.00264902
0.0024914
0.00232803
0.00216691
0.00201708
0.00188714
0.00178418
0.00171284
0.00167582
0.00167201
0.00169798
0.00175175
0.00182584
0.00190382
0.00197036
0.00201953
0.00204749
0.00205434
0.00204373
0.00202014
0.00198846
0.00195602
0.00192358
0.00189151
0.00185793
0.00182484
0.00179328
0.00321165
0.00313228
0.00302791
0.00289805
0.00274942
0.00258857
0.00242202
0.00225779
0.00210456
0.00197065
0.00186299
0.00178724
0.00174554
0.00173685
0.00176278
0.00181528
0.00188114
0.00194562
0.00199807
0.00203128
0.00204439
0.00203973
0.00202197
0.00199497
0.00196493
0.00193477
0.00190457
0.00187336
0.0018412
0.00181063
0.00339802
0.00333692
0.00325201
0.00314049
0.00300618
0.00285404
0.00268957
0.00251934
0.00235133
0.00219392
0.00205502
0.00194218
0.0018605
0.00181237
0.00180158
0.00182286
0.00186748
0.00192138
0.00196989
0.00200578
0.00202581
0.00202737
0.00201607
0.00199452
0.00196764
0.00194032
0.00191253
0.00188419
0.00185353
0.00182438
0.00356779
0.00352327
0.00345706
0.00336459
0.00324717
0.00310777
0.0029507
0.00278097
0.00260523
0.00243119
0.00226695
0.00212109
0.00200105
0.00191342
0.00186006
0.00184416
0.00185796
0.00189254
0.00193429
0.00197058
0.00199272
0.00200326
0.00200063
0.0019859
0.00196388
0.00194045
0.00191631
0.00189104
0.00186264
0.00183562
0.00371436
0.00368266
0.00363195
0.00355664
0.00345587
0.00333048
0.00318317
0.00301735
0.00283804
0.00265188
0.00246699
0.00229267
0.00213823
0.00201332
0.0019188
0.00186221
0.00184049
0.0018481
0.001875
0.00190843
0.00193777
0.00195764
0.0019657
0.00196192
0.0019489
0.00193234
0.00191415
0.00189263
0.00186811
0.00184417
0.00382514
0.00380057
0.00376016
0.00369764
0.00361024
0.00349674
0.00335784
0.00319528
0.00301263
0.00281596
0.0026138
0.00241646
0.00223445
0.00207811
0.00195111
0.00185656
0.00179717
0.00177242
0.00177705
0.00180147
0.00183475
0.00186748
0.00189229
0.00190571
0.00190871
0.00190455
0.00189382
0.00188055
0.00186482
0.00184915
0.00387707
0.00385252
0.00381534
0.00375869
0.00367838
0.00357129
0.00343602
0.003273
0.00308556
0.00288074
0.0026683
0.00245932
0.00226394
0.00209052
0.00194565
0.00182568
0.00173231
0.00167271
0.00164544
0.00164711
0.00167132
0.00170924
0.00175015
0.00178567
0.00181277
0.00183124
0.00184126
0.00184512
0.0018436
0.00184074
0.00382934
0.00379665
0.00375546
0.00369718
0.00361807
0.00351306
0.00337914
0.00321733
0.00303276
0.00283463
0.00263274
0.00243713
0.00225468
0.00208985
0.00194878
0.00182427
0.00171214
0.00162164
0.00155587
0.00151697
0.00150538
0.00151882
0.00155008
0.00159126
0.00163573
0.00167844
0.00171579
0.00174663
0.00177048
0.00179047
0.00361561
0.00357544
0.00353181
0.00347782
0.00340743
0.00331549
0.00319997
0.00306375
0.00291328
0.00275619
0.0025985
0.00244652
0.00230324
0.00217152
0.00205599
0.00194743
0.00183733
0.00173315
0.00163856
0.001558
0.00149512
0.00145319
0.00143298
0.00143322
0.00145107
0.00148237
0.00152217
0.00156602
0.00161017
0.00165528
0.00322318
0.00320224
0.00318724
0.00317012
0.00314289
0.00309942
0.0030379
0.00296127
0.00287451
0.00278171
0.00268552
0.00258753
0.00248908
0.00239451
0.00230928
0.00222551
0.0021317
0.00203376
0.00193442
0.0018375
0.00174537
0.00166144
0.00158894
0.00153033
0.00148733
0.00146038
0.00144893
0.00145138
0.0014659
0.00149854
0.00290268
0.0029471
0.0029993
0.00304215
0.00306896
0.00307641
0.00306506
0.00303854
0.00299977
0.00295066
0.00289352
0.00282955
0.00276072
0.00269111
0.00262752
0.00256393
0.00249228
0.00241673
0.00233757
0.00225709
0.00217667
0.00209694
0.00201914
0.00194466
0.00187514
0.00181194
0.00175657
0.00170983
0.00167333
0.00166721
0.00293849
0.00299553
0.00305713
0.00311325
0.00315283
0.00317351
0.00317773
0.00316511
0.00313966
0.00310435
0.00306168
0.00301244
0.00295743
0.00290474
0.00285473
0.00280393
0.00275321
0.00270324
0.00265476
0.0026086
0.00256734
0.00252783
0.00249168
0.00245747
0.00242395
0.00238966
0.00235535
0.00232245
0.0022926
0.00228792
0.00309291
0.00313049
0.00316683
0.00319997
0.00321655
0.00321965
0.00321279
0.0031968
0.00317332
0.00314413
0.00311024
0.0030723
0.00303056
0.00299199
0.00295365
0.00291957
0.00289105
0.00286628
0.00284727
0.00283542
0.00283053
0.00283551
0.00284563
0.00285959
0.00287473
0.00288758
0.00289876
0.00291127
0.00292062
0.00292289
0.000220292
0.000223766
0.0002185
0.000211252
0.000202987
0.000193962
0.000184579
0.000175247
0.000166268
0.000157884
0.000150234
0.000143465
0.000137602
0.00013276
0.000128915
0.000126158
0.000124533
0.000124563
0.000127148
0.000132467
0.000138935
0.000144496
0.000147851
0.000148341
0.000145648
0.000139277
0.000128908
0.000113217
9.43454e-05
8.59671e-05
0.00102331
0.00114929
0.00114283
0.00107961
0.000988377
0.000895874
0.000812066
0.000739163
0.000676649
0.000623306
0.000577855
0.000539539
0.000506374
0.000478481
0.000453588
0.000431379
0.000409727
0.000393747
0.000385788
0.000389221
0.000404258
0.000427081
0.0004509
0.000467795
0.00047026
0.000453086
0.00041999
0.000373646
0.000332226
0.000298041
0.00162984
0.00187879
0.0019283
0.00186855
0.00176066
0.00163536
0.00151047
0.00139462
0.00129098
0.00120028
0.00112168
0.00105461
0.000996426
0.00094766
0.000905362
0.00086736
0.000829381
0.000796972
0.000768517
0.000751779
0.000754226
0.000774762
0.0008036
0.000826937
0.000826944
0.00080016
0.000744685
0.000662129
0.000578563
0.000513291
0.00206629
0.00236
0.00244732
0.00241268
0.00231687
0.00219072
0.00205471
0.00192116
0.00179726
0.00168595
0.00158758
0.00150272
0.00142938
0.00136871
0.00131801
0.00127385
0.00123028
0.00118951
0.00114499
0.00110834
0.00109069
0.00109783
0.00112083
0.0011435
0.00114288
0.00110894
0.00103974
0.000934932
0.000820612
0.000725538
0.00237247
0.00267513
0.0027808
0.00277117
0.00269587
0.00258304
0.00245167
0.00231577
0.00218682
0.00206784
0.00196042
0.00186695
0.00178661
0.00172093
0.00166847
0.00162466
0.00158192
0.00153522
0.00147644
0.00142462
0.00139073
0.00138148
0.00139389
0.00141234
0.00141181
0.00137579
0.00130132
0.00118573
0.0010532
0.000934704
0.00259014
0.00285539
0.00298017
0.00300409
0.00295032
0.00285068
0.00272534
0.00259601
0.00247493
0.00235833
0.00224996
0.00215567
0.00207477
0.00201011
0.00196094
0.00192192
0.00188365
0.00183392
0.00176473
0.00169649
0.00164791
0.00162453
0.00162549
0.00163787
0.00163709
0.00160511
0.0015309
0.00141385
0.00127307
0.00113852
0.00274761
0.0029701
0.00308595
0.00311782
0.00308599
0.00301121
0.00291676
0.00280636
0.00268771
0.00257006
0.00246655
0.00237892
0.00230241
0.00224413
0.00220212
0.00217147
0.00213937
0.00208737
0.00201019
0.00192807
0.00186652
0.00183068
0.00182078
0.00182575
0.0018238
0.00179689
0.00173239
0.00162042
0.00147999
0.00133387
0.00287313
0.00302738
0.00311241
0.00314321
0.00312893
0.00307919
0.00300798
0.0029205
0.00282226
0.00272569
0.00263239
0.00254735
0.00247746
0.00242935
0.00239809
0.00237892
0.00235276
0.00229908
0.00221512
0.00212344
0.00205294
0.00200535
0.0019853
0.00198203
0.00197699
0.00195644
0.00190479
0.00180548
0.00166982
0.00151752
0.00296035
0.00303116
0.00307465
0.00309736
0.0030965
0.00307095
0.00302753
0.00296718
0.00289261
0.00281532
0.00273862
0.00266706
0.00261105
0.002573
0.00255433
0.00254823
0.00252793
0.00246977
0.00238134
0.00228766
0.00221003
0.00215335
0.00212416
0.00211216
0.00210444
0.00208692
0.00204339
0.00196088
0.00183582
0.00168621
0.00301671
0.00302233
0.0030272
0.00303109
0.00303055
0.00301874
0.00299509
0.00295808
0.00290884
0.00285568
0.00279923
0.00274582
0.00270416
0.00268041
0.00267552
0.0026825
0.00266863
0.00261206
0.00252267
0.00242671
0.00234261
0.00227913
0.00224172
0.00221937
0.00220279
0.00218481
0.00215024
0.00208421
0.00197878
0.00184244
0.00308549
0.00303907
0.00299881
0.00297245
0.00295791
0.00294652
0.00293409
0.00291512
0.00288786
0.00285576
0.00282197
0.0027888
0.00276456
0.00275724
0.00276656
0.00278574
0.00277764
0.00272467
0.00263798
0.00254203
0.00245499
0.00238606
0.00233899
0.00230733
0.00228333
0.00226038
0.00223041
0.00218039
0.00209736
0.00198185
0.00318043
0.00311268
0.00302679
0.00294586
0.00290526
0.00287875
0.00286606
0.00285603
0.00284446
0.0028306
0.00281564
0.00280318
0.00279807
0.00280801
0.00283149
0.00286193
0.00286131
0.0028129
0.00273153
0.00263902
0.00255256
0.00247826
0.00242495
0.00238618
0.00235493
0.00232752
0.00229758
0.00225813
0.00219773
0.00210358
0.00327977
0.00318862
0.00307864
0.00298007
0.00289552
0.00283742
0.00281416
0.00280074
0.00279573
0.00279383
0.00279395
0.00279796
0.00281161
0.00283715
0.00287456
0.00291511
0.00292062
0.00287938
0.00280546
0.00271935
0.00263439
0.00255774
0.00249982
0.00245538
0.00242
0.00238871
0.0023587
0.0023256
0.00228269
0.00220918
0.00340995
0.00330091
0.0031685
0.00304002
0.00293071
0.00285392
0.0028022
0.00276878
0.00276036
0.00276117
0.00276954
0.00278575
0.00281138
0.00285041
0.00290053
0.00294957
0.00296178
0.0029291
0.0028646
0.00278567
0.00270374
0.00262649
0.00256559
0.00251706
0.00247839
0.00244599
0.00241698
0.00238612
0.00235183
0.00229419
0.0035673
0.00344382
0.00330157
0.00315753
0.00302408
0.00291556
0.00283382
0.00278379
0.00275753
0.00274899
0.00275601
0.00277673
0.00280898
0.00285389
0.00291402
0.00296945
0.00298828
0.00296509
0.00291105
0.00284017
0.00276271
0.00268642
0.00262416
0.0025734
0.00253343
0.00250108
0.00247122
0.00244091
0.00240743
0.00236254
0.00374667
0.00362977
0.00348775
0.00333217
0.00317906
0.00304214
0.00292992
0.00284864
0.00279688
0.00277016
0.00276587
0.002781
0.00281227
0.00285695
0.00291894
0.00297797
0.0030028
0.00298942
0.00294633
0.00288444
0.00281298
0.00273932
0.00267731
0.00262654
0.00258498
0.00255125
0.00252104
0.00249053
0.00245796
0.00241949
0.00396055
0.0038498
0.00371185
0.0035532
0.00338803
0.00322921
0.00308804
0.00297349
0.00288932
0.00283512
0.00280861
0.00280688
0.00282588
0.00286328
0.00291797
0.00297589
0.00300535
0.0030018
0.00297036
0.00291866
0.00285495
0.00278542
0.00272427
0.00267344
0.00263126
0.00259655
0.00256671
0.00253627
0.002504
0.00246682
0.00418914
0.00408878
0.00396012
0.00380531
0.00363578
0.00346294
0.00329853
0.00315316
0.00303426
0.00294541
0.00288695
0.00285737
0.00285339
0.00287192
0.00291148
0.00295893
0.00299072
0.00299692
0.00297858
0.00293863
0.00288392
0.0028206
0.00276258
0.0027135
0.00267182
0.00263706
0.00260829
0.00257828
0.00254588
0.00250997
0.00441869
0.00433226
0.0042164
0.00407023
0.00390255
0.003723
0.00354243
0.0033717
0.00322001
0.00309373
0.00299625
0.00292866
0.00288983
0.00287834
0.00289148
0.00292077
0.00294821
0.00296153
0.00295665
0.0029333
0.00289165
0.00283917
0.00278835
0.00274375
0.00270439
0.00267122
0.00264428
0.00261503
0.00258284
0.0025486
0.00463889
0.00456611
0.00446341
0.00432789
0.00416589
0.00398501
0.00379454
0.00360439
0.00342393
0.00326081
0.0031208
0.00300784
0.00292405
0.00287064
0.0028474
0.00284769
0.00286232
0.00287765
0.00288631
0.00288168
0.00286129
0.00282792
0.00279145
0.00275685
0.00272261
0.00269442
0.00266992
0.00264249
0.00261249
0.0025812
0.00483747
0.00477415
0.00468192
0.00455631
0.00440116
0.00422173
0.0040253
0.00382007
0.00361455
0.00341666
0.00323394
0.00307296
0.00293936
0.00283714
0.00276991
0.00273153
0.00272102
0.00272892
0.00274602
0.00276136
0.00276726
0.00276156
0.0027479
0.00272886
0.00271
0.00269195
0.00267607
0.00265567
0.00263047
0.00260439
0.00499379
0.00493475
0.00484858
0.00472996
0.00458026
0.00440227
0.00420102
0.00398273
0.00375477
0.00352539
0.00330408
0.0031
0.00292171
0.00277491
0.00266568
0.00258764
0.00254293
0.00252841
0.00253768
0.00256072
0.00258752
0.00261099
0.0026285
0.00263943
0.00264542
0.00264697
0.00264074
0.00263554
0.00262699
0.00261371
0.00508041
0.00501905
0.00493334
0.00481725
0.00466977
0.00449134
0.00428505
0.00405545
0.00380947
0.00355701
0.0033102
0.00308048
0.00287755
0.00270648
0.0025725
0.00246894
0.0023934
0.00234641
0.00232621
0.00232914
0.00234997
0.0023825
0.002421
0.00246059
0.00249779
0.00252992
0.00255364
0.00257036
0.00257925
0.00258523
0.0050565
0.00498782
0.00489784
0.00478057
0.00463331
0.00445485
0.00424778
0.00401543
0.00376556
0.00351144
0.00326726
0.00304441
0.00285036
0.0026873
0.00255596
0.00245261
0.00236285
0.00228805
0.00222903
0.00218796
0.00216747
0.00216814
0.00218883
0.00222612
0.0022749
0.002329
0.00238186
0.00242967
0.00246923
0.00250047
0.00487465
0.0047987
0.00470494
0.00459045
0.00445153
0.00428576
0.00409434
0.00388303
0.00366123
0.00344332
0.00324098
0.00306101
0.00290763
0.00277965
0.00267385
0.0025884
0.00250096
0.00241298
0.00232535
0.00224229
0.00216979
0.00211317
0.00207732
0.00206536
0.00207757
0.00211108
0.00215984
0.00221726
0.00227666
0.002334
0.00450944
0.00443389
0.00435647
0.00427139
0.0041709
0.00405085
0.00391175
0.00375928
0.00360266
0.00345182
0.00331387
0.00319132
0.00308656
0.00299753
0.00292107
0.00285344
0.0027741
0.00268572
0.00258881
0.00248672
0.00238413
0.00228517
0.00219548
0.00212116
0.0020675
0.00203788
0.00203191
0.00204683
0.00207867
0.00212949
0.00405378
0.00401892
0.00400056
0.00398729
0.00395899
0.00391157
0.00384482
0.00376348
0.00367513
0.00358682
0.00350239
0.00342256
0.00334986
0.00328298
0.00322083
0.00315879
0.00308357
0.00300085
0.00291161
0.00281738