/*--------------------------------*- C++ -*----------------------------------*\
  =========                 |
  \\      /  F ield         | OpenFOAM: The Open Source CFD Toolbox
   \\    /   O peration     | Website:  https://openfoam.org
    \\  /    A nd           | Version:  12
     \\/     M anipulation  |
\*---------------------------------------------------------------------------*/
FoamFile
{
    format      ascii;
    class       volScalarField;
    location    "1650/air";
    object      epsilon;
}
// * * * * * * * * * * * * * * * * * * * * * * * * * * * * * * * * * * * * * //

dimensions      [0 2 -3 0 0 0 0];

internalField   nonuniform List<scalar> 
243000
(
2.24389
2.82119
3.2781
3.64602
3.91348
4.07972
4.15271
4.14467
4.06911
3.93938
3.76653
3.56366
3.34496
3.12199
2.89706
2.67139
2.44523
2.22551
2.01988
1.83527
1.67091
1.51689
1.35753
1.17772
1.07269
0.900303
0.182072
0.148532
0.111377
0.0817877
1.42623
1.76283
1.9566
2.05215
2.08385
2.07022
2.02336
1.95264
1.86501
1.76608
1.65993
1.55124
1.44317
1.33854
1.23857
1.14411
1.05526
0.975316
0.906664
0.851487
0.808149
0.770693
0.729348
0.673399
0.600338
0.506734
0.402597
0.29596
0.203772
0.123721
1.35534
1.73622
1.90084
1.95023
1.92701
1.85993
1.76692
1.66027
1.54793
1.43544
1.32615
1.22311
1.12756
1.04053
0.962352
0.893012
0.832094
0.781804
0.742932
0.716196
0.69986
0.689414
0.677083
0.653019
0.609538
0.542275
0.456418
0.354909
0.258911
0.16516
1.27162
1.71785
1.97652
2.09154
2.10877
2.06441
1.98235
1.87864
1.76386
1.64564
1.52879
1.41718
1.31268
1.21712
1.13139
1.05595
0.990723
0.938464
0.899471
0.873608
0.858199
0.848331
0.836246
0.81191
0.766011
0.692768
0.595901
0.477707
0.360747
0.243661
1.09922
1.5313
1.85274
2.03986
2.11974
2.12269
2.07442
1.99378
1.89367
1.78415
1.67178
1.5614
1.45601
1.35863
1.27088
1.19404
1.12851
1.07743
1.04048
1.01643
1.0016
0.990907
0.977146
0.951023
0.903047
0.826663
0.723836
0.596743
0.465831
0.33246
0.944869
1.26247
1.59675
1.84324
1.99206
2.05722
2.05943
2.01638
1.94437
1.85576
1.7584
1.65798
1.559
1.46582
1.38092
1.30677
1.2443
1.19687
1.16347
1.14186
1.12755
1.11536
1.09888
1.07001
1.01992
0.942013
0.836812
0.706382
0.567731
0.424096
0.93684
1.09198
1.33668
1.57464
1.77122
1.89565
1.95368
1.95933
1.92674
1.86837
1.79351
1.71034
1.62408
1.54036
1.46254
1.3946
1.33792
1.29593
1.26711
1.24837
1.23467
1.22082
1.20126
1.16917
1.11697
1.03849
0.933361
0.803393
0.662138
0.513368
1.03721
1.04525
1.17593
1.36241
1.54789
1.69138
1.78916
1.8405
1.85069
1.82878
1.78356
1.72313
1.65422
1.58443
1.51741
1.45852
1.40981
1.37453
1.35098
1.33545
1.32256
1.30724
1.28471
1.24944
1.19525
1.11678
1.01332
0.886333
0.746715
0.596663
1.20439
1.10775
1.11737
1.21968
1.36601
1.50697
1.61905
1.69299
1.73524
1.74807
1.73478
1.70131
1.65434
1.60113
1.54763
1.5
1.46083
1.43316
1.41534
1.4033
1.3915
1.37511
1.35011
1.31206
1.25621
1.17822
1.07749
0.955424
0.819833
0.67166
1.40249
1.25039
1.16009
1.16232
1.24069
1.35277
1.46276
1.54991
1.6099
1.64318
1.65722
1.65071
1.62723
1.59334
1.5555
1.52075
1.49221
1.47277
1.46097
1.45263
1.44226
1.4254
1.39862
1.35848
1.30153
1.22462
1.12746
1.01055
0.880518
0.736888
1.6255
1.4545
1.29568
1.20257
1.19262
1.2474
1.33235
1.41763
1.48773
1.53645
1.56531
1.57976
1.57854
1.56476
1.54364
1.52272
1.50547
1.49462
1.489
1.48455
1.47603
1.45934
1.4316
1.39025
1.33311
1.25759
1.16366
1.05236
0.928897
0.792329
1.86875
1.68955
1.49582
1.33455
1.23672
1.21311
1.24694
1.30916
1.37585
1.43248
1.47349
1.49963
1.51498
1.51951
1.51508
1.50818
1.50236
1.50026
1.50086
1.50051
1.49426
1.47838
1.45061
1.40907
1.35205
1.27807
1.18772
1.08214
0.965631
0.836998
2.1274
1.93872
1.73227
1.53407
1.36996
1.26557
1.22824
1.24341
1.28729
1.33895
1.38519
1.42046
1.44483
1.46289
1.47327
1.47974
1.48501
1.49145
1.49823
1.50205
1.49838
1.48395
1.45674
1.41556
1.35944
1.28771
1.20115
1.10126
0.991664
0.871321
2.3986
2.2024
1.9979
1.77988
1.57447
1.40459
1.29164
1.2409
1.23996
1.26854
1.30793
1.34579
1.3766
1.40113
1.42245
1.44042
1.45587
1.47034
1.48303
1.49104
1.49016
1.47767
1.45168
1.4115
1.3569
1.28764
1.20524
1.11113
1.00831
0.896291
2.6795
2.4771
2.26942
2.04698
1.82339
1.61259
1.4368
1.31515
1.25227
1.2377
1.25355
1.28279
1.31382
1.34187
1.36784
1.39388
1.41771
1.43926
1.45737
1.46941
1.47152
1.46138
1.43748
1.39931
1.34687
1.28064
1.20225
1.11351
1.01709
0.913173
2.96678
2.7596
2.54915
2.32705
2.0976
1.86641
1.64874
1.46612
1.33596
1.26259
1.23673
1.24215
1.26309
1.28899
1.31552
1.34448
1.37374
1.40081
1.42355
1.43925
1.44439
1.43687
1.41555
1.38009
1.33078
1.26834
1.19557
1.11322
1.02373
0.927873
3.25632
3.04619
2.83483
2.61544
2.3857
2.1466
1.90605
1.68049
1.49082
1.35323
1.27144
1.23673
1.23388
1.24837
1.27051
1.29721
1.32776
1.35797
1.38406
1.40279
1.41079
1.40606
1.38776
1.35577
1.31186
1.25549
1.18865
1.1124
1.02927
0.94044
3.54305
3.33148
3.12068
2.90568
2.67887
2.43898
2.18887
1.93839
1.70502
1.50933
1.3662
1.27848
1.23733
1.2283
1.23797
1.25812
1.28458
1.31434
1.34175
1.36252
1.37304
1.37156
1.35797
1.33131
1.29273
1.24208
1.18102
1.11065
1.03347
0.950928
3.82087
3.60911
3.40027
3.19106
2.96983
2.73372
2.4825
2.22085
1.96066
1.72062
1.52085
1.37477
1.28373
1.23842
1.22508
1.2317
1.2501
1.27497
1.30058
1.32205
1.33528
1.33764
1.32835
1.30662
1.27311
1.2279
1.17238
1.10767
1.03613
0.959342
4.08387
3.8738
3.66969
3.46759
3.25373
3.02422
2.77704
2.51341
2.24021
1.97149
1.72694
1.52588
1.3797
1.28768
1.24014
1.2242
1.22843
1.24452
1.26546
1.28543
1.2997
1.30481
1.29915
1.28182
1.25303
1.21295
1.16271
1.10339
1.03711
0.965661
4.32759
4.12269
3.93117
3.73493
3.52832
3.30645
3.06606
2.80618
2.52984
2.24617
1.97125
1.72528
1.52626
1.38228
1.29116
1.24299
1.22523
1.22692
1.23916
1.25468
1.26773
1.27405
1.27102
1.25736
1.23281
1.19752
1.15219
1.09794
1.03661
0.970106
4.55025
4.35961
4.17363
3.98483
3.78711
3.57488
3.344
3.09209
2.81967
2.53188
2.2403
1.96271
1.71915
1.52435
1.38448
1.29571
1.24749
1.22773
1.22584
1.23285
1.2417
1.24702
1.24516
1.23414
1.21314
1.18208
1.14129
1.09174
1.03503
0.973064
4.74532
4.56366
4.38738
4.20949
4.02376
3.82431
3.6064
3.36673
3.10409
2.82073
2.52414
2.22842
1.95215
1.71325
1.52474
1.39007
1.30361
1.25457
1.23174
1.22483
1.22534
1.22654
1.22368
1.21376
1.19527
1.16761
1.13078
1.08544
1.03299
0.975173
4.90553
4.73619
4.57281
4.4087
4.23784
4.05446
3.85346
3.63074
3.38369
3.11232
2.82077
2.51923
2.22316
1.95042
1.71808
1.53612
1.40535
1.31895
1.26709
1.23912
1.22535
1.21788
1.21059
1.1994
1.18161
1.15609
1.12225
1.08045
1.03167
0.977586
5.03761
4.88507
4.73776
4.59066
4.43827
4.27527
4.09627
3.89649
3.67206
3.42092
3.14423
2.84828
2.54535
2.25061
1.98229
1.75488
1.57547
1.44318
1.35228
1.2934
1.25665
1.23313
1.21547
1.1981
1.17749
1.1514
1.11863
1.079
1.03303
0.982166
5.15091
5.02209
4.89835
4.77558
4.64974
4.51594
4.36876
4.20264
4.01232
3.79348
3.54414
3.26673
2.96935
2.66533
2.37047
2.101
1.86871
1.6801
1.53626
1.43138
1.35698
1.30414
1.26468
1.23189
1.2009
1.16835
1.13201
1.09086
1.04493
0.995266
5.29544
5.20748
5.12352
5.04168
4.9592
4.87219
4.77543
4.66257
4.52661
4.36026
4.15746
3.91627
3.64025
3.33971
3.02926
2.72103
2.42824
2.16743
1.9482
1.77161
1.63311
1.52553
1.44087
1.37186
1.31258
1.25837
1.20587
1.15299
1.09871
1.04374
5.68245
5.66726
5.65324
5.64261
5.63678
5.63388
5.62863
5.61226
5.57371
5.50058
5.38056
5.2071
4.97928
4.70308
4.39172
4.04812
3.68018
3.31945
2.98545
2.69034
2.43697
2.2227
2.04198
1.88882
1.75734
1.64129
1.53618
1.43913
1.34826
1.26669
7.3489
7.4462
7.53611
7.6517
7.80522
7.98652
8.17623
8.35177
8.4951
8.58946
8.60889
8.5515
8.41403
8.20361
7.92228
7.56019
7.10383
6.61261
6.11994
5.6488
5.21053
4.80802
4.44258
4.1137
3.819
3.54084
3.27904
3.03605
2.81524
2.63176
16.5997
16.5729
16.6509
16.9476
17.3526
17.73
18.0288
18.2565
18.423
18.5175
18.5042
18.4394
18.3278
18.1884
17.9868
17.7181
17.2825
16.859
16.4576
16.1056
15.7912
15.5159
15.2739
15.0693
14.8979
14.5922
14.2367
13.8718
13.5489
13.2893
4.72092
5.9231
6.68232
7.17874
7.44529
7.51247
7.41549
7.1954
6.8889
6.52652
6.1311
5.73032
5.3396
4.97359
4.6339
4.32485
4.04521
3.81273
3.65172
3.57306
3.53181
3.44523
3.24088
2.88599
2.39658
1.81865
1.2379
0.707099
0.135244
0.111048
3.12043
3.51532
3.74266
3.86965
3.90238
3.85051
3.72769
3.55476
3.35132
3.13408
2.91456
2.70223
2.50583
2.33125
2.18256
2.06243
1.97426
1.92881
1.94352
2.02265
2.13064
2.20289
2.18304
2.04774
1.8078
1.48507
1.12401
0.755241
0.434996
0.240304
2.8615
3.11794
3.22859
3.26332
3.23505
3.15498
3.03164
2.87685
2.70334
2.5224
2.3429
2.17224
2.01604
1.87934
1.7659
1.68101
1.62929
1.62103
1.67119
1.78222
1.92176
2.03239
2.06181
1.98804
1.81035
1.55151
1.24512
0.913239
0.622482
0.383529
2.72513
2.90442
2.96521
2.9674
2.92181
2.83952
2.72671
2.59107
2.4412
2.28557
2.13155
1.98549
1.85181
1.73525
1.63991
1.5724
1.53831
1.54775
1.61223
1.73126
1.87682
1.99835
2.04878
2.00292
1.8619
1.63913
1.36498
1.05442
0.771328
0.517794
2.59339
2.69839
2.72769
2.71725
2.67228
2.59986
2.5043
2.39051
2.26428
2.13241
2.00123
1.87634
1.76178
1.66216
1.58214
1.5289
1.50876
1.53206
1.60637
1.72848
1.87134
1.99258
2.04984
2.02083
1.90353
1.70825
1.46039
1.17076
0.897651
0.641865
2.43069
2.46487
2.4698
2.45753
2.4235
2.36918
2.29584
2.20633
2.10486
1.99711
1.88848
1.78407
1.68795
1.60481
1.53949
1.49995
1.49277
1.52811
1.60968
1.73207
1.87006
1.98566
2.04274
2.02112
1.9223
1.7508
1.52728
1.26097
1.00151
0.752229
2.21988
2.18379
2.17633
2.17487
2.15964
2.12911
2.0822
2.01947
1.94439
1.86132
1.77527
1.69121
1.61348
1.54686
1.49615
1.47009
1.47529
1.52109
1.60957
1.73094
1.86125
1.96799
2.02243
2.00588
1.91821
1.76745
1.56712
1.32537
1.08367
0.847181
2.02733
1.90514
1.87072
1.87597
1.88451
1.88211
1.86334
1.82787
1.779
1.72045
1.65688
1.59306
1.53346
1.4832
1.44699
1.43398
1.45089
1.50575
1.59815
1.71725
1.83904
1.93777
1.98833
1.97501
1.89726
1.76225
1.58359
1.36655
1.14446
0.923858
1.88514
1.70833
1.63782
1.62907
1.64211
1.65367
1.65382
1.63926
1.61337
1.5768
1.53416
1.4896
1.44746
1.41291
1.39085
1.39015
1.41767
1.4802
1.57493
1.69005
1.80437
1.8951
1.94154
1.9306
1.86247
1.74182
1.5807
1.38776
1.18608
0.982731
1.84981
1.62212
1.49794
1.4516
1.45001
1.4625
1.47294
1.47303
1.46055
1.43802
1.41159
1.38361
1.35722
1.33715
1.32824
1.3388
1.37544
1.44376
1.53948
1.65041
1.75754
1.84086
1.88363
1.87489
1.81548
1.70854
1.56463
1.3919
1.21074
1.02505
1.88138
1.63647
1.46032
1.35778
1.32103
1.31674
1.32431
1.33072
1.3286
1.31629
1.29717
1.28005
1.26604
1.25829
1.2608
1.28105
1.32504
1.39721
1.49258
1.59906
1.69931
1.77628
1.81619
1.80994
1.75881
1.66525
1.53767
1.38374
1.22128
1.05289
1.96869
1.70921
1.50241
1.35958
1.27179
1.23018
1.21801
1.218
1.21837
1.21267
1.2004
1.18607
1.17863
1.17968
1.19084
1.21871
1.26801
1.34202
1.43563
1.53721
1.63114
1.70281
1.74083
1.73751
1.6944
1.61374
1.50177
1.36597
1.21988
1.06827
2.10474
1.83347
1.60567
1.43009
1.30335
1.21782
1.1688
1.14659
1.13709
1.13014
1.12081
1.10912
1.10106
1.10552
1.12165
1.15428
1.20642
1.28018
1.37051
1.46669
1.55474
1.62209
1.6592
1.65938
1.62421
1.55574
1.45881
1.3404
1.21042
1.07459
2.28067
2.00497
1.77006
1.57311
1.41418
1.28608
1.19281
1.13334
1.09814
1.07733
1.0629
1.05009
1.04064
1.04135
1.05745
1.091
1.14299
1.21424
1.29971
1.38986
1.47225
1.53601
1.57295
1.57725
1.55003
1.4933
1.41134
1.30954
1.19625
1.07493
2.49064
2.21801
1.98306
1.77548
1.5938
1.43116
1.29398
1.18909
1.11567
1.06739
1.03611
1.01423
0.999449
0.993776
1.0034
1.03307
1.08125
1.14741
1.22635
1.30961
1.38626
1.44681
1.48409
1.49293
1.47376
1.42858
1.36179
1.27609
1.17807
1.0706
2.73056
2.46834
2.24006
2.02875
1.83332
1.64351
1.46871
1.31903
1.2004
1.11298
1.05191
1.01072
0.983237
0.967137
0.965568
0.985689
1.02574
1.08371
1.15417
1.22944
1.29992
1.35734
1.39533
1.40908
1.39887
1.36574
1.31224
1.24048
1.15613
1.06164
2.99379
2.75454
2.53885
2.32522
2.11696
1.90757
1.70433
1.51687
1.35433
1.22242
1.12212
1.04997
1.00012
0.967115
0.95063
0.955418
0.982312
1.02831
1.08791
1.15381
1.21747
1.27208
1.31165
1.33088
1.32829
1.30523
1.26319
1.20384
1.13155
1.04898
3.27282
3.05633
2.85336
2.64243
2.42682
2.20618
1.98438
1.76909
1.57
1.39587
1.25267
1.14173
1.05985
1.00059
0.965237
0.950971
0.95903
0.988339
1.03412
1.08937
1.146
1.19707
1.23656
1.25933
1.26307
1.24818
1.21578
1.167
1.10559
1.03367
3.54306
3.34521
3.15705
2.9575
2.74643
2.52416
2.29354
2.06093
1.83549
1.62688
1.44404
1.29227
1.17258
1.07977
1.01778
0.979627
0.965323
0.974179
1.00212
1.04352
1.09009
1.13503
1.17237
1.19681
1.20494
1.19621
1.17154
1.13163
1.07961
1.01703
3.78482
3.6119
3.44575
3.26493
3.06705
2.85179
2.62171
2.38215
2.14155
1.9093
1.69517
1.50662
1.34829
1.21783
1.12176
1.05387
1.01183
0.995591
1.0017
1.02354
1.05528
1.09107
1.12357
1.14664
1.15662
1.15177
1.13267
1.09975
1.05539
1.0007
4.00394
3.86066
3.72157
3.56522
3.38762
3.18766
2.9678
2.73275
2.48988
2.2474
2.01428
1.79814
1.60574
1.43979
1.30174
1.19702
1.11944
1.06999
1.04582
1.04227
1.05418
1.07469
1.09732
1.11494
1.12314
1.11907
1.10274
1.07449
1.03549
0.986834
4.21095
4.10201
3.99458
3.8687
3.71929
3.54477
3.34776
3.13279
2.90573
2.67205
2.43804
2.20923
1.99257
1.79344
1.614
1.46138
1.33609
1.23925
1.17055
1.12817
1.10857
1.10546
1.11015
1.11497
1.11505
1.10665
1.08867
1.06101
1.02384
0.978613
4.4278
4.35945
4.2913
4.20573
4.09759
3.9658
3.8137
3.6459
3.46588
3.27399
3.07043
2.85531
2.63349
2.41039
2.19316
1.98033
1.784
1.61015
1.46594
1.35566
1.27895
1.23018
1.19916
1.17624
1.15566
1.13273
1.10481
1.07007
1.02846
0.982323
4.70661
4.69158
4.67882
4.65441
4.61503
4.56224
4.50124
4.43651
4.36725
4.28446
4.17663
4.03222
3.84949
3.63013
3.38416
3.10261
2.78795
2.47318
2.18097
1.93105
1.73168
1.58074
1.46698
1.37796
1.30582
1.24369
1.18654
1.13081
1.0744
1.01903
5.17122
5.24196
5.32533
5.41361
5.50969
5.62154
5.75782
5.92289
6.10869
6.28712
6.42493
6.48631
6.45529
6.32332
6.09483
5.7456
5.24384
4.65283
4.04513
3.47663
2.97899
2.56587
2.22994
1.96192
1.74908
1.57838
1.43884
1.32177
1.22028
1.13574
6.16528
6.40384
6.68965
7.02668
7.43001
7.91625
8.49978
9.1825
9.94143
10.7076
11.4117
11.9707
12.3453
12.5009
12.4266
12.0565
11.3001
10.2432
9.01886
7.75692
6.54375
5.44867
4.50844
3.7314
3.10636
2.61194
2.22427
1.92063
1.68027
1.5031
8.79496
9.43765
10.2075
11.128
12.2286
13.5317
15.0575
16.7932
18.6731
20.5517
22.2758
23.7267
24.8375
25.5592
25.8424
25.5456
24.5064
22.8211
20.6848
18.2998
15.803
13.3572
11.0927
9.09177
7.39557
6.00386
4.89179
4.01733
3.33541
2.8566
16.7201
18.2671
19.9394
21.9154
24.2019
26.8131
29.7767
33.0097
36.331
39.4678
42.2401
44.5602
46.3162
47.4866
48.0088
47.6597
46.3935
44.2962
41.4965
38.1582
34.4088
30.4595
26.4868
22.6799
19.2008
16.14
13.5284
11.3362
9.52751
8.23994
35.372
36.9445
39.152
41.8507
44.9603
48.4551
52.334
56.0955
59.5487
62.498
64.8951
66.7251
67.6972
68.021
67.6317
66.265
64.5017
62.4152
59.9471
57.0233
53.7779
50.3292
46.7478
43.1453
39.6168
36.1935
32.9088
29.7905
26.8946
24.7351
48.5754
47.7136
48.5477
50.5594
53.0787
55.6205
57.915
59.8146
61.2907
62.2798
62.8442
63.135
62.9719
62.4256
61.0988
58.7013
56.5279
54.3053
52.261
50.3505
48.6571
47.2385
46.1763
45.5106
45.1628
44.8999
44.643
44.3445
43.854
43.0762
7.99552
9.75386
10.5326
10.9894
11.1912
11.1303
10.8445
10.3946
9.83675
9.22049
8.5832
7.96302
7.37365
6.84055
6.36629
5.96549
5.64345
5.4665
5.54022
5.88125
6.27966
6.45114
6.23488
5.62092
4.70463
3.60814
2.49211
1.46244
0.730807
0.523526
4.73314
5.23511
5.42892
5.51853
5.51895
5.41552
5.21632
4.94609
4.63141
4.2973
3.96361
3.64562
3.3547
3.09796
2.88577
2.72495
2.63312
2.6508
2.84772
3.22989
3.65483
3.92868
3.94217
3.69896
3.26144
2.70281
2.07742
1.42231
0.880478
0.506559
4.34613
4.60361
4.68293
4.68378
4.61157
4.4768
4.28467
4.04724
3.78098
3.5023
3.22628
2.96476
2.72625
2.51751
2.34728
2.22643
2.17081
2.21666
2.42149
2.78869
3.20162
3.49775
3.57745
3.4364
3.12819
2.68661
2.17237
1.60981
1.10799
0.684897
4.22622
4.34701
4.36306
4.32228
4.22864
4.09104
3.91263
3.70035
3.46539
3.22008
2.97696
2.74602
2.53475
2.35026
2.20204
2.10214
2.06662
2.12848
2.33055
2.66997
3.05538
3.34514
3.44866
3.35619
3.10716
2.73671
2.28766
1.78049
1.30516
0.869458
4.14442
4.1415
4.09971
4.03375
3.93685
3.80942
3.65109
3.46536
3.26
3.04473
2.83023
2.62524
2.43694
2.27374
2.14516
2.06476
2.04926
2.12989
2.33435
2.64541
2.99087
3.25943
3.36636
3.29911
3.08698
2.76638
2.36931
1.911
1.46565
1.03788
4.03578
3.9119
3.81968
3.73762
3.64656
3.53668
3.40317
3.24676
3.07259
2.8879
2.70187
2.52263
2.35752
2.21558
2.10717
2.04739
2.05297
2.15055
2.35542
2.6461
2.95321
3.1901
3.28816
3.23318
3.04734
2.76139
2.41048
1.99904
1.58883
1.18178
3.88836
3.65639
3.5132
3.41673
3.33537
3.24764
3.14327
3.01909
2.87751
2.72422
2.56752
2.41497
2.27421
2.15432
2.06711
2.02913
2.05671
2.17078
2.3754
2.64647
2.91751
3.12055
3.20306
3.15287
2.98683
2.73089
2.41388
2.0486
1.67593
1.29678
3.70598
3.38002
3.18401
3.07215
3.0014
2.93795
2.86532
2.77564
2.66803
2.54737
2.4208
2.29562
2.17997
2.0832
2.01789
2.00234
2.05213
2.18175
2.38618
2.63672
2.87187
3.0433
3.10797
3.05834
2.90887
2.67824
2.39268
2.06615
1.73111
1.38361
3.51866
3.08738
2.83614
2.70963
2.64992
2.61155
2.57317
2.51972
2.44579
2.35795
2.26177
2.1642
2.07392
2.0007
1.95759
1.96426
2.03532
2.18172
2.38488
2.61106
2.81445
2.9557
3.00261
2.95151
2.81502
2.6071
2.35135
2.05829
1.75919
1.44461
3.32249
2.83263
2.54802
2.39842
2.33398
2.30712
2.28893
2.2614
2.21704
2.16132
2.09428
2.02349
1.95792
1.90772
1.88655
1.91426
2.00438
2.16071
2.3593
2.56542
2.7423
2.8567
2.88755
2.83469
2.70916
2.52277
2.29418
2.03325
1.76493
1.4828
3.17866
2.67425
2.34691
2.16272
2.0758
2.04311
2.03255
2.02198
2.00033
1.96686
1.925
1.8783
1.83552
1.80692
1.80613
1.85282
1.95875
2.12153
2.31344
2.50135
2.65401
2.74596
2.76355
2.70992
2.5948
2.42863
2.22485
1.99467
1.75666
1.50687
3.11343
2.61437
2.25248
2.02056
1.89793
1.84031
1.8205
1.81365
1.80472
1.78781
1.76333
1.73524
1.71177
1.70221
1.71853
1.78128
1.89897
2.06414
2.24707
2.41826
2.54986
2.62391
2.63182
2.57933
2.47502
2.3277
2.14763
1.94714
1.74011
1.51864
3.12544
2.64155
2.26904
1.99746
1.81815
1.71826
1.67169
1.65215
1.6427
1.63296
1.61967
1.60343
1.59335
1.59808
1.62744
1.702
1.82617
1.98903
2.16159
2.31672
2.43096
2.49168
2.49377
2.44476
2.35219
2.22325
2.06754
1.89586
1.71573
1.51774
3.19521
2.73137
2.3561
2.06025
1.84386
1.69607
1.6043
1.55485
1.52941
1.51419
1.50295
1.49243
1.48817
1.50056
1.53774
1.61868
1.74351
1.89936
2.05972
2.19956
2.29973
2.35126
2.35134
2.30819
2.22864
2.11919
1.9886
1.84081
1.68302
1.50701
3.3276
2.88457
2.51047
2.19704
1.94889
1.76041
1.62647
1.53695
1.4808
1.4453
1.42478
1.41118
1.40656
1.41744
1.45613
1.53693
1.65615
1.80046
1.94628
2.07142
2.16017
2.20592
2.20763
2.17278
2.10946
2.02032
1.90984
1.78208
1.64417
1.48841
3.52085
3.09753
2.73223
2.41187
2.13996
1.91521
1.73726
1.60299
1.50696
1.44156
1.39863
1.37101
1.35766
1.36124
1.39195
1.46493
1.57199
1.70002
1.82882
1.93927
2.01859
2.06138
2.06936
2.04686
1.99742
1.92439
1.8317
1.72227
1.6018
1.46416
3.76819
3.37008
3.01812
2.69571
2.4068
2.15219
1.93462
1.75574
1.61531
1.51015
1.43522
1.38408
1.35357
1.34282
1.35804
1.41444
1.50263
1.6094
1.71838
1.81358
1.88581
1.92965
1.94303
1.92939
1.89206
1.83324
1.75609
1.66285
1.55793
1.43622
4.06389
3.69222
3.35602
3.03607
2.73648
2.45932
2.20908
1.99041
1.80686
1.65937
1.54655
1.46404
1.40845
1.37685
1.37175
1.40232
1.46533
1.54603
1.632
1.71238
1.7756
1.8161
1.83203
1.82477
1.79697
1.74978
1.68555
1.60598
1.51452
1.4067
4.39137
4.04797
3.73058
3.41835
3.1152
2.82397
2.55017
2.30027
2.08045
1.89454
1.74439
1.62791
1.5428
1.48537
1.45606
1.45828
1.49002
1.53948
1.59768
1.65482
1.70204
1.73307
1.74623
1.74089
1.71846
1.67896
1.62406
1.55513
1.4743
1.37798
4.73344
4.42185
4.12812
3.83053
3.53262
3.23773
2.95229
2.68388
2.44034
2.22722
2.04831
1.90305
1.79055
1.70698
1.65218
1.62328
1.62039
1.63145
1.65178
1.6739
1.69232
1.70305
1.70373
1.6922
1.66826
1.6297
1.5787
1.51577
1.44123
1.35315
5.08093
4.80698
4.54369
4.27002
3.98918
3.70495
3.42459
3.15659
2.9098
2.69022
2.50204
2.34459
2.2178
2.11736
2.0426
1.98498
1.94162
1.90186
1.86492
1.83074
1.79955
1.77014
1.74012
1.70624
1.66531
1.6162
1.55903
1.4943
1.4207
1.3365
5.44565
5.21583
4.99213
4.75578
4.50955
4.2577
4.00845
3.77123
3.55545
3.36645
3.20677
3.07341
2.96557
2.87687
2.80451
2.73157
2.64231
2.52781
2.39641
2.26224
2.13692
2.02514
1.92662
1.83796
1.7548
1.67388
1.59297
1.50838
1.4217
1.3335
5.87065
5.69559
5.52739
5.35084
5.16869
4.98617
4.81283
4.65972
4.53702
4.44819
4.39101
4.35683
4.34247
4.33597
4.32785
4.28028
4.14667
3.9167
3.61652
3.28856
2.96941
2.67912
2.42699
2.21156
2.02724
1.86802
1.72807
1.6015
1.48418
1.37616
6.46613
6.36729
6.28643
6.21269
6.14984
6.10585
6.09267
6.12524
6.21581
6.36364
6.55649
6.7734
7.00677
7.23308
7.43162
7.50146
7.3462
6.94361
6.34457
5.63818
4.91503
4.2343
3.63406
3.12507
2.70371
2.36007
2.08113
1.85323
1.66316
1.50868
7.48937
7.51695
7.59535
7.7154
7.88488
8.1187
8.43721
8.8569
9.39119
10.0294
10.7387
11.4728
12.2182
12.931
13.5717
13.9059
13.7739
13.1331
12.0572
10.7018
9.23362
7.7784
6.44387
5.28765
4.32791
3.55852
2.956
2.48967
2.12787
1.86475
9.58658
9.88462
10.2858
10.7883
11.4158
12.1933
13.1506
14.3006
15.6502
17.16
18.7493
20.3293
21.8876
23.3488
24.6413
25.3198
25.199
24.2424
22.55
20.3248
17.7861
15.1077
12.5174
10.1643
8.13874
6.47868
5.17058
4.16486
3.40094
2.87843
14.4793
15.3904
16.4271
17.5879
19.01
20.6985
22.6798
24.941
27.4537
30.1188
32.7833
35.3155
37.7191
39.8679
41.6202
42.3372
41.9532
40.5507
38.2702
35.2931
31.7773
27.8506
23.8551
19.9777
16.405
13.3051
10.7611
8.72325
7.1225
6.03321
25.8848
27.5257
29.3976
31.5572
33.9358
36.635
39.6743
42.959
46.3818
49.7738
52.9457
55.7693
58.0996
59.6458
60.4504
59.7548
58.2435
56.1054
53.5919
50.7245
47.5255
44.0607
40.0328
35.712
31.3473
27.156
23.4414
20.1942
17.4271
15.4435
45.3109
46.211
47.9902
50.5096
53.5358
56.8221
60.1662
63.3389
66.2022
68.6573
70.6548
72.135
72.9317
72.8277
71.8035
69.0801
66.1702
63.1545
60.3615
57.7187
55.2429
52.9371
50.8448
48.9564
47.2232
45.352
43.0157
40.5135
37.9513
35.751
54.3343
53.9585
55.0567
57.2355
59.9616
62.7463
65.2672
67.3416
68.8804
69.8397
70.2626
70.2022
69.4632
67.8551
65.1003
60.9548
57.1906
53.6903
50.8293
48.5536
46.9171
45.8615
45.4403
45.6516
46.386
47.3673
48.4226
49.3159
49.7952
49.7017
11.7453
14.1229
14.8926
15.144
15.1953
14.9625
14.4597
13.7553
12.9211
12.0286
11.1221
10.248
9.4199
8.67976
8.03118
7.50859
7.14382
7.15574
7.89221
9.29269
10.6275
11.2166
10.8842
9.79438
8.22644
6.41336
4.58304
2.88583
1.6487
0.870304
6.54068
7.14782
7.3141
7.31381
7.25017
7.08123
6.80053
6.42814
5.99668
5.53929
5.08329
4.64523
4.24282
3.88452
3.59048
3.37037
3.27232
3.42158
4.01897
5.01753
5.9704
6.46731
6.41428
5.94231
5.21739
4.36158
3.44857
2.4871
1.64494
1.02214
5.97089
6.21233
6.24234
6.17837
6.04985
5.85725
5.59813
5.28089
4.92355
4.5477
4.17324
3.81315
3.4809
3.18566
2.94472
2.77472
2.71364
2.86586
3.39355
4.24812
5.0844
5.57265
5.61752
5.31429
4.79423
4.15198
3.41909
2.61942
1.88156
1.25836
5.85438
5.88775
5.83401
5.73066
5.58368
5.39239
5.1535
4.87073
4.55555
4.22398
3.89202
3.57054
3.27207
3.00742
2.79437
2.65145
2.61701
2.78758
3.27814
4.02096
4.76455
5.22211
5.30193
5.07602
4.65204
4.10204
3.47193
2.76748
2.08976
1.47932
5.80576
5.66364
5.53476
5.40171
5.25188
5.0742
4.86096
4.61194
4.33431
4.04027
3.74333
3.4527
3.1828
2.94456
2.75689
2.64145
2.63871
2.83719
3.31536
3.97564
4.61362
5.01999
5.10077
4.91316
4.54316
4.05572
3.49584
2.86949
2.24671
1.65877
5.72751
5.4322
5.22963
5.07056
4.92492
4.76834
4.58663
4.37458
4.13573
3.87937
3.61733
3.35809
3.11701
2.90611
2.74597
2.66208
2.69657
2.9292
3.3931
3.98881
4.52882
4.87018
4.93151
4.76067
4.42594
3.9861
3.47858
2.92
2.35207
1.79632
5.59959
5.17025
4.89579
4.71062
4.57174
4.44044
4.29355
4.12073
3.92244
3.70561
3.48044
3.25522
3.04489
2.86368
2.7346
2.68685
2.76384
3.03295
3.48503
4.01403
4.46917
4.73919
4.76941
4.60275
4.2942
3.89118
3.42922
2.92113
2.41032
1.89384
5.42283
4.88008
4.53617
4.32351
4.1898
4.08385
3.97307
3.84111
3.68534
3.5093
3.32252
3.13363
2.95687
2.80778
2.71318
2.70569
2.82889
3.1329
3.57138
4.03539
4.40979
4.61049
4.60526
4.436
4.14684
3.774
3.35297
2.89323
2.43141
1.95739
5.2197
4.57084
4.16479
3.92274
3.79054
3.70736
3.63052
3.53822
3.42515
3.29046
3.14325
2.99192
2.85074
2.73616
2.6787
2.7143
2.88494
3.21852
3.63789
4.04244
4.33955
4.47498
4.4358
4.26101
3.98659
3.64092
3.25726
2.84387
2.42784
1.99936
4.99925
4.25733
3.80166
3.53497
3.39916
3.32933
3.27959
3.22199
3.14927
3.05461
2.94644
2.83273
2.72791
2.64975
2.63106
2.71066
2.92667
3.28081
3.67703
4.02501
4.25205
4.3281
4.25932
4.08017
3.81919
3.49987
3.15035
2.78242
2.41266
2.02329
4.76952
4.00402
3.50511
3.20646
3.05382
2.98369
2.94871
2.91622
2.87246
2.81113
2.73926
2.66125
2.59254
2.55142
2.57095
2.69368
2.94859
3.31245
3.68674
3.97284
4.13988
4.1667
4.07528
3.89516
3.64864
3.35568
3.04041
2.71732
2.38548
2.02585
4.59222
3.8265
3.28668
2.95755
2.77697
2.69094
2.65548
2.63534
2.61208
2.57656
2.53227
2.48549
2.45064
2.44504
2.50024
2.66279
2.95179
3.31648
3.64926
3.88564
4.00034
3.98994
3.88397
3.70764
3.47841
3.21316
2.9368
2.64888
2.34718
2.01555
4.48623
3.73874
3.1855
2.80659
2.58972
2.47171
2.41926
2.39619
2.38164
2.36293
2.34009
2.31575
2.31012
2.33487
2.42261
2.61821
2.92402
3.27291
3.56856
3.76095
3.834
3.79927
3.68756
3.5209
3.31296
3.08259
2.83794
2.57691
2.302
1.99634
4.46547
3.75154
3.19935
2.79045
2.50974
2.34331
2.25924
2.21659
2.1968
2.18348
2.17359
2.1666
2.17931
2.22852
2.34304
2.56225
2.87028
3.19247
3.44927
3.60284
3.64601
3.59915
3.49156
3.34203
3.1644
2.9623
2.74159
2.50426
2.25279
1.97065
4.51192
3.83121
3.28573
2.85894
2.54501
2.33037
2.19204
2.11288
2.07397
2.05297
2.04559
2.04804
2.07302
2.13622
2.26945
2.50095
2.79643
3.08383
3.30187
3.42279
3.44736
3.40005
3.30952
3.18518
3.02936
2.84845
2.64923
2.43258
2.20146
1.94055
4.63032
3.98374
3.44827
3.00585
2.65904
2.40143
2.2211
2.10228
2.0288
1.98657
1.97033
1.97268
2.00282
2.07023
2.21409
2.44626
2.71686
2.96434
3.14542
3.24129
3.2586
3.22714
3.15256
3.04383
2.90567
2.74312
2.56254
2.36341
2.14955
1.90769
4.82481
4.20997
3.68403
3.23629
2.86544
2.56929
2.34351
2.17976
2.06827
1.99802
1.96348
1.95599
1.98517
2.05395
2.19604
2.41919
2.65673
2.86303
3.01066
3.09355
3.11663
3.08909
3.02181
2.92381
2.79868
2.65031
2.48406
2.2987
2.09878
1.87359
5.09001
4.50309
3.99731
3.5483
3.15895
2.83021
2.563
2.35524
2.20313
2.09975
2.04128
2.01938
2.04214
2.11085
2.24764
2.45462
2.66025
2.82648
2.95282
3.02385
3.03666
3.00288
2.93201
2.83753
2.71816
2.57722
2.41782
2.24134
2.05147
1.84027
5.41276
4.86456
4.37711
3.93105
3.53028
3.17766
2.87742
2.63232
2.44381
2.30918
2.22749
2.19169
2.20965
2.2803
2.42131
2.61086
2.79062
2.93478
3.03558
3.07609
3.05672
2.99436
2.91417
2.80518
2.67709
2.53072
2.36938
2.19553
2.01087
1.81034
5.78944
5.27733
4.81167
4.37532
3.97327
3.60932
3.29001
3.02151
2.80959
2.65544
2.56136
2.52189
2.54764
2.6343
2.79744
2.99749
3.16876
3.29042
3.34828
3.3239
3.24212
3.13801
3.01701
2.86741
2.69693
2.52021
2.34578
2.16723
1.98146
1.78727
6.21552
5.7382
5.29955
4.88346
4.49497
4.13839
3.82181
3.55396
3.34404
3.19668
3.11732
3.10235
3.16873
3.30701
3.53243
3.78574
3.9771
4.06947
4.04537
3.91909
3.73908
3.54979
3.32676
3.08539
2.84156
2.60529
2.37755
2.16655
1.96915
1.77546
6.70492
6.26672
5.8649
5.48567
5.13352
4.8132
4.53389
4.30669
4.14375
4.05324
4.04323
4.11642
4.29259
4.55744
4.9316
5.30892
5.56187
5.61583
5.46504
5.17343
4.83194
4.44537
4.00955
3.58024
3.1848
2.83299
2.52166
2.24596
2.00285
1.7898
7.31725
6.92955
6.58344
6.26876
5.99049
5.75393
5.56897
5.45059
5.41323
5.47164
5.64126
5.92115
6.3397
6.87196
7.55514
8.1642
8.53691
8.56716
8.24015
7.71225
7.03571
6.2192
5.37461
4.5832
3.89425
3.3193
2.8471
2.46009
2.13983
1.88272
8.20085
7.88698
7.63316
7.43396
7.2963
7.22657
7.2337
7.34382
7.57759
7.95175
8.4847
9.17118
10.0493
11.0705
12.2988
13.2655
13.8467
13.9078
13.4136
12.4122
11.0634
9.51699
7.95914
6.5246
5.29876
4.30822
3.53134
2.93004
2.46412
2.11973
9.68557
9.50211
9.41266
9.42355
9.54953
9.79602
10.1773
10.7176
11.4493
12.3889
13.5497
14.9072
16.5112
18.2737
20.2662
21.6387
22.4104
22.4186
21.5218
19.9002
17.7034
15.1618
12.5697
10.133
8.02678
6.31474
4.98442
3.97737
3.22563
2.71311
12.5026
12.5839
12.8071
13.2194
13.8133
14.6021
15.6039
16.841
18.346
20.1212
22.15
24.376
26.8628
29.4604
32.1432
33.1135
33.3499
32.6861
31.3111
29.3155
26.7686
23.6413
20.0426
16.4177
13.1569
10.3815
8.15292
6.43017
5.13725
4.29426
18.2182
18.8133
19.6447
20.6513
21.9094
23.4489
25.2636
27.3629
29.7543
32.4046
35.2522
38.2012
41.3055
43.9147
46.1253
45.6498
44.5816
42.8579
40.8777
38.5857
35.9748
33.0159
29.7176
26.0348
22.0047
18.2171
14.9321
12.2065
10.0597
8.64963
29.3034
30.3453
31.752
33.5011
35.4839
37.6918
40.1496
42.8381
45.7083
48.6978
51.6219
54.2256
56.7409
58.219
58.8728
56.0238
53.1154
50.1236
47.5835
45.2426
43.0288
40.8713
38.6386
36.3033
33.8044
30.806
27.44
24.1798
21.3475
19.327
44.7125
45.3018
46.705
48.7323
51.1514
53.7569
56.3876
58.9005
61.2634
63.3728
65.1652
66.5308
67.3083
66.8317
65.0813
59.5511
54.9587
50.9189
47.8965
45.6275
43.9991
42.9244
42.3356
42.1359
42.157
42.1303
41.7362
40.7756
39.191
37.5903
49.8103
50.2477
51.6693
53.8654
56.466
59.0832
61.4815
63.5061
65.0744
66.1434
66.6914
66.6908
65.8352
63.5074
59.5355
52.4064
47.0627
42.6716
39.5543
37.3495
36.1218
35.7399
36.1837
37.3942
39.1894
41.2879
43.4143
45.2815
46.6173
47.1869
16.09
19.1469
19.8189
19.8921
19.6605
19.1888
18.4205
17.4187
16.2675
15.0516
13.8142
12.6143
11.4639
10.4278
9.51773
8.80905
8.40244
8.88547
11.1669
14.7306
17.5781
18.5432
17.7449
15.7922
13.2675
10.5181
7.80289
5.25817
3.30888
1.9225
8.57001
9.29706
9.41685
9.33651
9.14668
8.88659
8.51121
8.02688
7.47301
6.88409
6.29201
5.71222
5.17153
4.67391
4.26319
3.94994
3.83806
4.22544
5.63807
7.71997
9.3793
9.9929
9.67607
8.8074
7.69492
6.49729
5.28607
4.03038
2.89669
1.97779
7.76902
8.00361
7.96181
7.8188
7.60263
7.33398
6.99776
6.5954
6.1461
5.67103
5.19171
4.72088
4.27909
3.87563
3.54264
3.30079
3.23097
3.59433
4.77118
6.46434
7.84173
8.42273
8.26886
7.66514
6.84891
5.96311
5.03562
4.01265
3.0652
2.25443
7.63929
7.58648
7.44143
7.26007
7.03885
6.77921
6.47124
6.11461