/*--------------------------------*- C++ -*----------------------------------*\
  =========                 |
  \\      /  F ield         | OpenFOAM: The Open Source CFD Toolbox
   \\    /   O peration     | Website:  https://openfoam.org
    \\  /    A nd           | Version:  12
     \\/     M anipulation  |
\*---------------------------------------------------------------------------*/
FoamFile
{
    format      ascii;
    class       volScalarField;
    location    "1650/air";
    object      k;
}
// * * * * * * * * * * * * * * * * * * * * * * * * * * * * * * * * * * * * * //

dimensions      [0 2 -2 0 0 0 0];

internalField   nonuniform List<scalar> 
243000
(
0.0556925
0.0632653
0.0682241
0.071509
0.0732638
0.0736995
0.0730673
0.0716094
0.0695381
0.0670341
0.064226
0.0612495
0.0582469
0.055329
0.0524955
0.049734
0.0470156
0.0443958
0.041953
0.0397712
0.0378407
0.0360124
0.034016
0.0315266
0.030027
0.0271053
0.0255858
0.0221995
0.0178821
0.0141521
0.0857092
0.0962685
0.100695
0.101497
0.100216
0.0976301
0.0942092
0.0902847
0.0860836
0.0817718
0.0774585
0.0732647
0.0692642
0.0655199
0.0620476
0.0588529
0.0559188
0.0533464
0.0512206
0.049637
0.0485536
0.0477486
0.0468108
0.0452235
0.0425597
0.0388357
0.0342293
0.0285742
0.0228314
0.0167839
0.0925222
0.109167
0.115983
0.117994
0.117063
0.114337
0.110497
0.106009
0.101175
0.0962158
0.0912714
0.0864833
0.0819217
0.0776531
0.0737154
0.0701323
0.0669063
0.0641815
0.0620325
0.0605289
0.0595961
0.0589917
0.058277
0.0568787
0.0543055
0.0502296
0.0447832
0.0378667
0.0306827
0.0227309
0.0886634
0.108381
0.119028
0.123617
0.124307
0.122565
0.119302
0.115109
0.110377
0.105392
0.100346
0.0954048
0.0906588
0.0862074
0.0821129
0.0784229
0.0751597
0.0724914
0.0704649
0.0691004
0.0682756
0.0677401
0.0670847
0.0657668
0.0632557
0.0591515
0.0534972
0.046162
0.0382772
0.029462
0.0804607
0.100368
0.113986
0.121558
0.124726
0.124853
0.122963
0.119762
0.115725
0.111224
0.106508
0.101772
0.0971437
0.092766
0.0887307
0.0851188
0.0819758
0.0794815
0.0776488
0.0764395
0.0756839
0.0751323
0.0744235
0.0730805
0.0705931
0.066548
0.0609037
0.0535436
0.0453909
0.0362465
0.0727766
0.0882396
0.103209
0.113596
0.11965
0.122261
0.12236
0.120659
0.117777
0.114178
0.110155
0.105926
0.101672
0.0975834
0.0937813
0.0903959
0.087492
0.085252
0.0836534
0.0826055
0.0819032
0.0812993
0.0804843
0.0790568
0.0765608
0.072604
0.0670874
0.059917
0.0517912
0.0426353
0.0724042
0.0801427
0.0916842
0.10226
0.110618
0.115758
0.118123
0.118363
0.117057
0.11469
0.111614
0.108143
0.104481
0.100864
0.0974416
0.0944024
0.0918276
0.0898933
0.0885503
0.0876662
0.0870124
0.0863479
0.0854104
0.0838708
0.0813457
0.0774814
0.0721543
0.0652855
0.0573856
0.0484275
0.0775275
0.0778827
0.0842043
0.0928645
0.101114
0.107281
0.111385
0.113519
0.113949
0.113058
0.111196
0.108678
0.105768
0.102778
0.0998634
0.0972658
0.0950883
0.0934927
0.0924162
0.091698
0.0910953
0.0903776
0.0893234
0.0876689
0.0851049
0.0813302
0.0762198
0.0697061
0.062175
0.0535349
0.0856596
0.0809989
0.0814256
0.0862861
0.0930402
0.0993356
0.104207
0.107366
0.109153
0.109701
0.109154
0.107756
0.105771
0.103498
0.101185
0.0991013
0.0973692
0.0961334
0.0953294
0.094779
0.0942356
0.0934817
0.0923319
0.0905767
0.0879769
0.0842882
0.0794065
0.0732845
0.0661715
0.0579331
0.0948093
0.0878291
0.0835286
0.0835967
0.0872824
0.0924482
0.0973914
0.101227
0.10383
0.105263
0.105871
0.105604
0.10461
0.10316
0.101527
0.100013
0.0987589
0.0978975
0.0973686
0.0969887
0.0965159
0.0957497
0.0945334
0.0927035
0.0900831
0.0864893
0.0818448
0.0760782
0.0693991
0.0616269
0.104606
0.0971521
0.0899416
0.0855557
0.0850488
0.0876056
0.0915243
0.0953864
0.0985083
0.100653
0.101918
0.102553
0.10251
0.101921
0.101009
0.100099
0.0993432
0.0988639
0.0986113
0.0984061
0.0980187
0.0972661
0.0960169
0.0941464
0.0915373
0.0880371
0.0835893
0.0781641
0.0719198
0.0646817
0.114791
0.107341
0.0989805
0.0917291
0.0871688
0.0860255
0.0875918
0.0904681
0.0935107
0.0960611
0.0978919
0.0990537
0.0997364
0.0999438
0.0997573
0.0994599
0.0992065
0.0991131
0.0991355
0.0991125
0.0988269
0.0981135
0.096868
0.0949974
0.0924055
0.0889932
0.0847401
0.0796341
0.0738053
0.0670918
0.125145
0.117641
0.109147
0.100663
0.0933453
0.0885221
0.0867455
0.0874347
0.0894657
0.0918388
0.0939424
0.0955357
0.0966322
0.0974432
0.0979114
0.0982045
0.098441
0.0987256
0.099021
0.0991824
0.0990113
0.098363
0.0971446
0.0952932
0.0927461
0.0894439
0.0853806
0.0805719
0.0751278
0.0689152
0.135559
0.12807
0.12003
0.111142
0.102424
0.0949131
0.0897364
0.0873464
0.0872805
0.0886025
0.0904224
0.09216
0.0935661
0.09468
0.0956454
0.0964556
0.0971485
0.0977921
0.0983515
0.0986994
0.0986515
0.0980886
0.0969232
0.0951145
0.0926344
0.0894445
0.0855777
0.0810552
0.0759683
0.0702274
0.145937
0.138499
0.130655
0.121984
0.112944
0.104069
0.0963586
0.0908247
0.0878842
0.087181
0.0879105
0.0892673
0.0907019
0.0919923
0.0931806
0.0943657
0.0954428
0.0964096
0.0972153
0.0977448
0.0978302
0.0973703
0.0962943
0.0945699
0.0921813
0.0891238
0.0854397
0.0811746
0.0764118
0.0711097
0.156181
0.148828
0.14117
0.132857
0.123987
0.114713
0.105619
0.0976652
0.091782
0.0883704
0.0871411
0.0873835
0.0883577
0.0895622
0.0907903
0.0921226
0.0934588
0.0946854
0.0957068
0.0964052
0.0966272
0.0962825
0.095317
0.0937071
0.0914503
0.0885567
0.085128
0.0811654
0.0767488
0.0718745
0.166175
0.158952
0.151518
0.143605
0.135079
0.12591
0.116331
0.10697
0.0987594
0.0925732
0.0887862
0.087146
0.0870013
0.0876764
0.0887104
0.0899519
0.091362
0.0927454
0.0939298
0.0947725
0.0951263
0.094905
0.0940699
0.0926083
0.0905874
0.0879634
0.0848046
0.0811306
0.0770299
0.072526
0.175782
0.168716
0.161527
0.154028
0.145916
0.137082
0.127557
0.117643
0.108008
0.0995751
0.0931643
0.0891164
0.0871787
0.0867444
0.0871951
0.0881386
0.0893722
0.0907489
0.0920071
0.0929522
0.0934247
0.0933506
0.0927238
0.0914967
0.0897105
0.0873419
0.0844467
0.0810506
0.0772443
0.0730685
0.184843
0.177952
0.171024
0.163942
0.156284
0.147899
0.138707
0.128796
0.118543
0.108665
0.10008
0.0935541
0.0893623
0.0872337
0.0865978
0.0869057
0.0877687
0.0889299
0.0901172
0.0911044
0.0917075
0.0918092
0.0913754
0.090367
0.0888061
0.0866817
0.0840401
0.0809109
0.0773814
0.0735033
0.193219
0.186537
0.179928
0.173266
0.166076
0.158183
0.149455
0.139856
0.129544
0.118979
0.108931
0.100301
0.0937778
0.0895467
0.0873177
0.0865605
0.0867563
0.0875113
0.0884898
0.089417
0.090074
0.0903046
0.090036
0.089225
0.0878754
0.0859827
0.0835828
0.0807075
0.0774355
0.0738305
0.200819
0.19443
0.188364
0.182047
0.175278
0.167861
0.159636
0.150499
0.140465
0.129775
0.11897
0.108861
0.100316
0.093894
0.0897094
0.0874542
0.0866127
0.0866888
0.0872627
0.0879882
0.0885942
0.0888833
0.0887361
0.0880916
0.0869331
0.085257
0.0830838
0.0804474
0.0774155
0.0740618
0.207636
0.201795
0.196017
0.190065
0.183732
0.176812
0.169127
0.160538
0.150982
0.140543
0.12955
0.118626
0.108602
0.100231
0.0939934
0.089921
0.0876676
0.0867338
0.0866408
0.0869683
0.0873806
0.0876258
0.0875328
0.0870087
0.0860114
0.0845289
0.0825649
0.0801497
0.0773425
0.0742173
0.213514
0.20803
0.20264
0.197129
0.191294
0.184929
0.177847
0.169892
0.160954
0.151022
0.140259
0.129094
0.118201
0.108352
0.100247
0.0942455
0.0902874
0.0880011
0.086925
0.0865956
0.0866159
0.086668
0.0865277
0.0860533
0.0851701
0.0838435
0.0820632
0.0798473
0.0772465
0.0743299
0.218279
0.213226
0.208296
0.203286
0.198006
0.192261
0.185865
0.178646
0.170464
0.161241
0.151026
0.14008
0.128892
0.118131
0.108554
0.100744
0.0949348
0.0909952
0.0885875
0.0872735
0.0866215
0.0862643
0.0859145
0.0853788
0.0845261
0.0832974
0.0816565
0.0796082
0.0771866
0.0744581
0.222165
0.217657
0.213261
0.208828
0.204187
0.199165
0.193578
0.187246
0.180001
0.171715
0.162345
0.152011
0.141049
0.129952
0.119414
0.110098
0.102456
0.0966313
0.0925232
0.0898116
0.0880965
0.0869886
0.0861509
0.0853225
0.0843348
0.0830778
0.0814865
0.079543
0.0772607
0.0746963
0.225468
0.221693
0.218039
0.214385
0.210609
0.206558
0.202057
0.196915
0.190941
0.183951
0.175819
0.16654
0.156292
0.14545
0.134526
0.124133
0.114807
0.106943
0.100743
0.0960981
0.0927331
0.0903042
0.0884676
0.0869261
0.085456
0.0838982
0.082142
0.0801323
0.0778595
0.0753657
0.229651
0.227102
0.224657
0.222264
0.219841
0.217272
0.214398
0.211021
0.206915
0.201832
0.195545
0.187927
0.17901
0.169034
0.158404
0.147478
0.136705
0.126733
0.118034
0.110785
0.104928
0.100262
0.0965121
0.0933996
0.090683
0.0881622
0.0856858
0.083155
0.0805166
0.0778008
0.240694
0.240269
0.239879
0.239586
0.239431
0.23936
0.239225
0.238777
0.237699
0.235635
0.232214
0.227217
0.22056
0.212345
0.202882
0.192168
0.180348
0.168366
0.156874
0.146357
0.137014
0.128856
0.121769
0.115596
0.110162
0.105251
0.100701
0.0964071
0.0922974
0.088528
0.285725
0.288251
0.290576
0.293549
0.297472
0.302073
0.306853
0.311244
0.314811
0.317157
0.317653
0.316258
0.312876
0.307653
0.300591
0.291371
0.279531
0.266496
0.25309
0.239927
0.227348
0.21548
0.204414
0.194193
0.184799
0.175709
0.166932
0.158574
0.150782
0.144149
0.492027
0.491501
0.493039
0.498874
0.506793
0.514125
0.519894
0.524271
0.527459
0.529282
0.529038
0.527811
0.52569
0.523028
0.51916
0.513979
0.505522
0.497228
0.489301
0.482293
0.475992
0.470437
0.465527
0.461355
0.457845
0.45156
0.444193
0.436567
0.429758
0.424246
0.0914822
0.103761
0.109704
0.11235
0.112497
0.110729
0.10755
0.103439
0.0987758
0.0938536
0.0888696
0.0840609
0.0795515
0.0754636
0.0717908
0.068563
0.065755
0.0635531
0.0622469
0.0619945
0.0623082
0.0622114
0.0607524
0.0573008
0.0516454
0.0439138
0.0347773
0.0245254
0.0222235
0.0195623
0.153432
0.172977
0.176345
0.172496
0.16482
0.155277
0.145026
0.134755
0.124863
0.115589
0.107083
0.0994721
0.0927199
0.0868903
0.0819275
0.0778499
0.0746035
0.0725422
0.0720178
0.0731955
0.0755116
0.0778576
0.0789519
0.0776815
0.0733261
0.065763
0.0557608
0.0436508
0.0342199
0.027559
0.183534
0.205533
0.210393
0.206918
0.198925
0.188499
0.176943
0.165119
0.153556
0.142608
0.132511
0.123458
0.115432
0.108545
0.102783
0.0982077
0.0947917
0.0929329
0.0928425
0.0945102
0.0972804
0.10008
0.101631
0.100714
0.0963848
0.0882547
0.0770112
0.0628978
0.0501552
0.0393837
0.199099
0.220268
0.225385
0.22301
0.216093
0.206455
0.195407
0.183824
0.172226
0.161067
0.150657
0.141242
0.132876
0.125725
0.11985
0.115368
0.11231
0.111056
0.111586
0.113679
0.11658
0.119301
0.120731
0.119758
0.115349
0.106985
0.0952243
0.0800916
0.0653786
0.052113
0.204159
0.221273
0.227501
0.226827
0.221554
0.213408
0.203816
0.19352
0.182799
0.172308
0.162397
0.153324
0.145238
0.138372
0.132849
0.128857
0.126487
0.126053
0.127287
0.129777
0.132706
0.135175
0.136286
0.135103
0.130649
0.122328
0.11055
0.0951851
0.0795616
0.0648939
0.202089
0.215207
0.220783
0.221562
0.218388
0.212809
0.20513
0.196263
0.186867
0.177693
0.168884
0.160642
0.153288
0.147098
0.142256
0.139026
0.137553
0.138031
0.139983
0.142835
0.14574
0.147902
0.148634
0.147192
0.14272
0.134632
0.123149
0.108112
0.0923231
0.0770818
0.195152
0.201734
0.206358
0.208696
0.207905
0.204857
0.199857
0.193414
0.186315
0.178666
0.171091
0.16397
0.157708
0.152494
0.148568
0.146296
0.145848
0.147257
0.149905
0.153081
0.155949
0.157811
0.15817
0.156452
0.151988
0.144234
0.133258
0.118918
0.103479
0.088221
0.186645
0.18527
0.18704
0.189767
0.191496
0.191627
0.18966
0.18594
0.181153
0.175602
0.169777
0.164204
0.159118
0.155044
0.152206
0.151034
0.151652
0.153975
0.157283
0.160766
0.16361
0.165214
0.16525
0.163282
0.158839
0.151475
0.141147
0.12773
0.112987
0.098068
0.180273
0.172805
0.170797
0.172014
0.174172
0.175821
0.176157
0.175066
0.172781
0.169438
0.165552
0.161621
0.157994
0.155199
0.15355
0.153542
0.155216
0.15841
0.162332
0.166109
0.168964
0.170386
0.170177
0.168022
0.163637
0.156686
0.147112
0.134769
0.120955
0.106539
0.180861
0.167764
0.160401
0.158076
0.158872
0.160681
0.162244
0.162916
0.162492
0.161134
0.15911
0.156882
0.154794
0.153361
0.152941
0.154083
0.156768
0.160778
0.165267
0.169324
0.172238
0.173571
0.173214
0.170961
0.166705
0.160231
0.151358
0.140055
0.127262
0.113603
0.185531
0.169734
0.157322
0.149952
0.14764
0.14799
0.149418
0.150899
0.15178
0.151895
0.151306
0.150602
0.149987
0.149918
0.150701
0.152934
0.156544
0.161271
0.166269
0.17061
0.173641
0.174989
0.174586
0.172363
0.168286
0.162192
0.154013
0.143755
0.132068
0.119389
0.194463
0.176331
0.16073
0.149513
0.142539
0.139669
0.139382
0.140384
0.141675
0.142692
0.143238
0.143539
0.144129
0.14527
0.147157
0.150382
0.154804
0.160127
0.165555
0.170246
0.173475
0.174878
0.174432
0.172214
0.168277
0.162644
0.155277
0.146063
0.135495
0.123903
0.206932
0.187257
0.169418
0.154989
0.144476
0.137566
0.133926
0.133021
0.133487
0.134521
0.135605
0.136625
0.137872
0.139917
0.142702
0.146744
0.151816
0.157597
0.163364
0.168323
0.171769
0.173366
0.17306
0.171035
0.167328
0.162079
0.155333
0.147178
0.137724
0.127317
0.222697
0.202398
0.183527
0.166908
0.153282
0.142509
0.135012
0.130741
0.128824
0.128672
0.129383
0.130541
0.132112
0.134483
0.137811
0.142395
0.1479
0.153974
0.159973
0.165129
0.168791
0.170644
0.17059
0.16887
0.165567
0.160787
0.154699
0.147452
0.13922
0.129986
0.241276
0.221128
0.202065
0.18431
0.168459
0.154465
0.143018
0.134699
0.129407
0.126702
0.125824
0.126236
0.127529
0.129718
0.133064
0.1378
0.143441
0.149601
0.155673
0.160936
0.164784
0.166918
0.167215
0.165892
0.163092
0.158937
0.153658
0.147281
0.140104
0.131941
0.262114
0.242929
0.224448
0.206348
0.189181
0.172705
0.157868
0.145555
0.136239
0.129972
0.12635
0.124897
0.125035
0.126455
0.129155
0.133536
0.138924
0.144886
0.150831
0.156074
0.160047
0.162462
0.163188
0.162353
0.160218
0.156838
0.152276
0.146635
0.140213
0.133014
0.284664
0.267407
0.250124
0.23207
0.213998
0.195877
0.178526
0.162849
0.149627
0.139348
0.132122
0.127734
0.125698
0.125512
0.127007
0.130334
0.134972
0.140355
0.145916
0.150977
0.154986
0.1577
0.158961
0.158707
0.157139
0.154376
0.150497
0.145536
0.139794
0.133377
0.30818
0.292974
0.277092
0.259655
0.241325
0.222425
0.203517
0.185391
0.168914
0.154844
0.143697
0.135666
0.130532
0.127784
0.127455
0.129136
0.132403
0.136722
0.14157
0.146288
0.150277
0.153175
0.154763
0.154935
0.15388
0.151681
0.148434
0.144115
0.139006
0.133232
0.331053
0.31768
0.303434
0.287325
0.269693
0.250876
0.231321
0.211709
0.192886
0.175706
0.160929
0.149082
0.140313
0.134281
0.131311
0.130706
0.132059
0.134898
0.138633
0.14262
0.14622
0.149017
0.15077
0.151296
0.150647
0.148929
0.146218
0.142509
0.137984
0.132798
0.351957
0.340717
0.328529
0.314265
0.298011
0.28
0.260619
0.240436
0.220232
0.200853
0.183147
0.167829
0.155362
0.145701
0.139389
0.135873
0.134728
0.135536
0.137635
0.140372
0.143224
0.14567
0.147394
0.148084
0.147707
0.146354
0.14408
0.1409
0.136889
0.132232
0.370935
0.361957
0.352022
0.33991
0.325506
0.308903
0.290433
0.27056
0.249961
0.2294
0.209698
0.191626
0.175858
0.162805
0.152598
0.145673
0.141371
0.139468
0.139372
0.140414
0.141986
0.143721
0.145114
0.145718
0.145424
0.144276
0.142312
0.139533
0.135932
0.131723
0.388131
0.381437
0.373809
0.364039
0.35185
0.337209
0.320378
0.301741
0.281833
0.261242
0.240673
0.220841
0.20252
0.186409
0.172604
0.161768
0.153742
0.148341
0.14519
0.143779
0.143594
0.144107
0.144692
0.144849
0.144356
0.143182
0.14133
0.138721
0.13537
0.131484
0.403875
0.399455
0.394209
0.387003
0.377456
0.365455
0.351191
0.334965
0.317118
0.29798
0.278008
0.257758
0.238017
0.219574
0.202913
0.188052
0.175574
0.165615
0.1582
0.153147
0.150094
0.14849
0.147557
0.14664
0.145449
0.143826
0.141626
0.138877
0.135565
0.131919
0.419187
0.41719
0.414609
0.410447
0.40432
0.39611
0.385932
0.373949
0.360239
0.34476
0.327596
0.309008
0.289665
0.270277
0.251724
0.233441
0.215516
0.199426
0.185706
0.174798
0.16671
0.16105
0.15697
0.153649
0.150685
0.147787
0.14473
0.141423
0.137778
0.134063
0.436637
0.437734
0.438804
0.438986
0.438103
0.436061
0.432825
0.428349
0.422355
0.414246
0.403569
0.390127
0.374327
0.356657
0.338098
0.317571
0.293874
0.269359
0.245965
0.225118
0.207549
0.193445
0.182155
0.173087
0.165674
0.159403
0.15386
0.14877
0.143902
0.139594
0.463204
0.469452
0.476879
0.484999
0.493655
0.502637
0.511685
0.520401
0.528021
0.533015
0.534288
0.530964
0.523165
0.511152
0.495853
0.475299
0.446903
0.413198
0.376933
0.340816
0.306599
0.275776
0.249065
0.226571
0.207978
0.192728
0.180199
0.169822
0.161045
0.15442
0.522246
0.53923
0.559481
0.582598
0.608114
0.635271
0.663463
0.691779
0.718717
0.741739
0.758754
0.768644
0.77131
0.767395
0.757731
0.739519
0.708825
0.668048
0.620207
0.56848
0.514794
0.461702
0.411409
0.36548
0.324922
0.290057
0.260758
0.236475
0.21652
0.202571
0.683133
0.719485
0.758342
0.800714
0.845177
0.890708
0.936931
0.982218
1.02386
1.05837
1.08424
1.10121
1.10893
1.10856
1.10132
1.08388
1.05425
1.01432
0.965429
0.909604
0.848133
0.783139
0.716534
0.650632
0.587797
0.529705
0.477449
0.431163
0.390995
0.362917
0.999315
1.03114
1.07236
1.11886
1.16706
1.21556
1.26412
1.30616
1.34032
1.36533
1.38164
1.38964
1.38684
1.37765
1.36175
1.33578
1.30582
1.27272
1.23596
1.19481
1.15099
1.10479
1.05703
1.00842
0.959633
0.910674
0.862064
0.814415
0.768792
0.736488
1.20035
1.19686
1.21429
1.2457
1.27969
1.31063
1.33597
1.35432
1.36587
1.37049
1.36922
1.36397
1.35289
1.33837
1.31551
1.28191
1.25173
1.22154
1.19427
1.16973
1.14883
1.13289
1.12202
1.11658
1.1152
1.1144
1.11332
1.11195
1.10753
1.09807
0.130002
0.144708
0.14859
0.149235
0.147621
0.143906
0.138566
0.132184
0.125249
0.118164
0.111209
0.104673
0.0986442
0.0933234
0.0887155
0.0849524
0.0820911
0.0807998
0.0821768
0.0864135
0.0914381
0.0945069
0.0939752
0.0893708
0.0810131
0.0693749
0.0554663
0.0398185
0.0257023
0.0199914
0.215585
0.24027
0.243981
0.239079
0.228757
0.215734
0.201578
0.187266
0.173377
0.160286
0.148217
0.137352
0.127644
0.119235
0.112044
0.106177
0.101716
0.10004
0.102626
0.109766
0.118981
0.126777
0.130476
0.128725
0.121183
0.10828
0.091394
0.071327
0.0529169
0.0377075
0.260719
0.288083
0.294347
0.289768
0.279095
0.265016
0.249164
0.232687
0.216382
0.200804
0.186309
0.173175
0.161416
0.151269
0.142766
0.13609
0.1314
0.130151
0.133568
0.14175
0.152108
0.161117
0.165931
0.164959
0.157379
0.143461
0.124445
0.101011
0.0783322
0.0579425
0.289486
0.313755
0.320084
0.316314
0.306586
0.293225
0.27771
0.261142
0.244427
0.228201
0.212917
0.198949
0.186418
0.175653
0.166842
0.160255
0.156147
0.155808
0.159943
0.168411
0.178693
0.187563
0.192407
0.191705
0.184393
0.170455
0.150897
0.126231
0.101249
0.0776923
0.307188
0.326066
0.330751
0.327501
0.319108
0.307255
0.293046
0.277464
0.261514
0.245756
0.230702
0.216826
0.204359
0.193731
0.185279
0.179366
0.176316
0.177066
0.181772
0.190057
0.199642
0.207694
0.211998
0.211236
0.204279
0.190887
0.171801
0.147275
0.121552
0.0963548
0.316748
0.32742
0.330519
0.328247
0.321298
0.311023
0.298306
0.284369
0.270102
0.255611
0.241491
0.228397
0.21661
0.206685
0.19908
0.194265
0.192571
0.194463
0.199623
0.20743
0.215951
0.222822
0.226265
0.225197
0.218561
0.205999
0.187954
0.164482
0.139141
0.113477
0.320241
0.322861
0.322578
0.319746
0.31429
0.306338
0.296605
0.285123
0.272403
0.259176
0.24649
0.234765
0.224123
0.215351
0.208956
0.205571
0.205416
0.208441
0.213958
0.221153
0.228441
0.233951
0.236358
0.234797
0.22839
0.216755
0.200084
0.17826
0.154082
0.128665
0.31972
0.313423
0.308435
0.304455
0.300233
0.29466
0.287601
0.278908
0.268801
0.258115
0.24727
0.236866
0.227628
0.22034
0.21545
0.213746
0.21518
0.219311
0.22511
0.231664
0.237701
0.241814
0.243121
0.240951
0.234671
0.223987
0.208883
0.188969
0.166338
0.141758
0.316256
0.29977
0.289363
0.283869
0.280672
0.277466
0.273453
0.267877
0.26057
0.252399
0.2438
0.23534
0.22794
0.222234
0.219017
0.219113
0.222135
0.227308
0.233344
0.239287
0.244156
0.246952
0.247188
0.244359
0.238186
0.228246
0.214475
0.196561
0.17582
0.152689
0.310263
0.286756
0.272187
0.264237
0.260627
0.258601
0.256553
0.253411
0.248804
0.243392
0.237199
0.230911
0.2254
0.221502
0.220056
0.221939
0.226498
0.232642
0.238884
0.244295
0.248136
0.249779
0.24903
0.245484
0.239069
0.229737
0.217325
0.201414
0.182836
0.161703
0.306951
0.279435
0.260037
0.24852
0.242866
0.240465
0.239318
0.237906
0.235504
0.232211
0.228352
0.224225
0.22068
0.218651
0.218958
0.22252
0.22844
0.235448
0.241904
0.246898
0.249903
0.250577
0.248861
0.244738
0.238214
0.229281
0.217975
0.20405
0.187797
0.169068
0.308458
0.279647
0.255976
0.239177
0.230193
0.225619
0.223887
0.223055
0.222036
0.220439
0.21833
0.216091
0.214417
0.214182
0.216087
0.221156
0.228301
0.23598
0.242606
0.247357
0.249779
0.249641
0.247288
0.242822
0.236277
0.227782
0.217366
0.205172
0.191334
0.174864
0.313879
0.28454
0.25914
0.239217
0.224962
0.216478
0.212629
0.210857
0.210045
0.209332
0.208466
0.207551
0.207386
0.208618
0.21189
0.218191
0.226203
0.234379
0.241156
0.245775
0.247773
0.247148
0.244412
0.239815
0.233509
0.225528
0.2161
0.205461
0.193632
0.17915
0.323638
0.294422
0.267922
0.245413
0.227953
0.215737
0.207894
0.203417
0.20142
0.200425
0.199962
0.199825
0.200437
0.202643
0.206913
0.214052
0.22259
0.231018
0.237886
0.242394
0.244155
0.243298
0.240442
0.235939
0.230029
0.22282
0.214543
0.205079
0.194665
0.181922
0.337849
0.30908
0.282338
0.258309
0.238091
0.222184
0.210537
0.202831
0.198127
0.195415
0.194246
0.19402
0.194803
0.197091
0.201833
0.209296
0.217926
0.226315
0.233123
0.237531
0.239209
0.238344
0.235634
0.231472
0.226275
0.220004
0.212605
0.204091
0.194672
0.183474
0.35619
0.328853
0.302764
0.278053
0.255828
0.236752
0.221278
0.209572
0.201323
0.195938
0.192827
0.191412
0.191523
0.19327
0.197521
0.204646
0.212849
0.220829
0.22736
0.231628
0.233345
0.232673
0.230447
0.226984
0.222423
0.21687
0.210307
0.202673
0.194159
0.184158
0.378899
0.353291
0.3283
0.303576
0.280107
0.258596
0.239752
0.224112
0.211881
0.202915
0.196866
0.193242
0.191721
0.192192
0.195089
0.201038
0.208207
0.215324
0.221302
0.225336
0.227232
0.227016
0.225264
0.222345
0.218418
0.213552
0.207787
0.200974
0.193273
0.184175
0.404719
0.381128
0.357608
0.333427
0.309423
0.28628
0.264803
0.245746
0.229669
0.216829
0.207217
0.200553
0.196544
0.19493
0.195875
0.199624
0.205126
0.210888
0.215983
0.219723
0.221623
0.221636
0.220281
0.21786
0.214505
0.210267
0.205223
0.199145
0.192156
0.183865
0.432117
0.410805
0.389068
0.365925
0.342056
0.318097
0.29486
0.273203
0.253897
0.237471
0.224225
0.214127
0.20704
0.202716
0.201134
0.202272
0.205388
0.209213
0.212928
0.215818
0.21729
0.217237
0.216076
0.213991
0.211055
0.207311
0.202842
0.197369
0.190967
0.183381
0.459701
0.440818
0.421112
0.399448
0.376357
0.352399
0.328365
0.305132
0.283572
0.264359
0.247996
0.23465
0.224387
0.217048
0.212637
0.210745
0.211065
0.212319
0.213929
0.215157
0.215545
0.214936
0.213563
0.211496
0.208663
0.205144
0.200966
0.195885
0.189903
0.182887
0.486383
0.469986
0.452501
0.432742
0.411089
0.388014
0.364261
0.340682
0.318164
0.297419
0.279034
0.263279
0.250405
0.240345
0.233216
0.228267
0.22529
0.22326
0.221739
0.220281
0.218602
0.216558
0.214158
0.211302
0.208007
0.204211
0.19995
0.194987
0.189203
0.18258
0.511618
0.49774
0.482682
0.465322
0.44589
0.424759
0.402606
0.380226
0.35846
0.337968
0.319317
0.302776
0.288709
0.27709
0.268108
0.260658
0.254098
0.247782
0.241659
0.235825
0.230364
0.225244
0.220407
0.215697
0.210977
0.206093
0.200791
0.195172
0.189152
0.182711
0.535792
0.52455
0.512318
0.498106
0.482005
0.464286
0.445544
0.426489
0.407866
0.390231
0.374006
0.359365
0.346726
0.335975
0.327208
0.318745
0.30885
0.297157
0.284267
0.2712
0.258815
0.2475
0.237431
0.228466
0.22036
0.212861
0.205667
0.198617
0.191512
0.184608
0.560965
0.552871
0.544376
0.534658
0.523692
0.511668
0.499095
0.486544
0.474625
0.463737
0.454033
0.445444
0.438346
0.432405
0.427411
0.420597
0.408484
0.390746
0.368611
0.344219
0.319831
0.29686
0.276285
0.258344
0.242884
0.229579
0.217992
0.20774
0.198372
0.190107
0.592721
0.58917
0.586423
0.583806
0.581186
0.578657
0.576575
0.575291
0.575214
0.576466
0.578693
0.581276
0.584608
0.587991
0.590757
0.588298
0.575467
0.55189
0.51905
0.480136
0.43866
0.39727
0.358458
0.323728
0.293702
0.26842
0.247419
0.230035
0.215468
0.204209
0.644891
0.64933
0.65657
0.665822
0.676816
0.68935
0.703503
0.719182
0.736508
0.754888
0.773123
0.789982
0.806093
0.820419
0.831938
0.833424
0.81972
0.791028
0.748955
0.696813
0.63819
0.575781
0.513653
0.454906
0.40183
0.35589
0.317429
0.285896
0.260316
0.242365
0.751272
0.771208
0.794943
0.8212
0.850736
0.882402
0.915768
0.950129
0.985065
1.01928
1.05079
1.07808
1.10221
1.12173
1.13513
1.13368
1.11491
1.08123
1.03457
0.977225
0.911017
0.837001
0.759341
0.6809
0.604959
0.535208
0.474223
0.422089
0.378585
0.349105
0.97246
1.00735
1.04735
1.09131
1.13577
1.18071
1.22552
1.26872
1.30934
1.34594
1.37673
1.40052
1.41681
1.42266
1.41917
1.39663
1.36303
1.32212
1.2772
1.22851
1.17621
1.12051
1.05605
0.985983
0.912822
0.839306
0.770214
0.70638
0.649348
0.610109
1.29164
1.31424
1.35013
1.39484
1.44238
1.48791
1.52851
1.56197
1.58775
1.60603
1.61683
1.61948
1.61364
1.59799
1.57064
1.5229
1.47367
1.42448
1.37978
1.33913
1.30298
1.27069
1.24304
1.22017
1.1997
1.17678
1.14589
1.11156
1.07519
1.04647
1.41059
1.41707
1.44136
1.47738
1.51635
1.55173
1.57989
1.59919
1.60935
1.61108
1.60459
1.59062
1.56814
1.53511
1.48805
1.42398
1.36527
1.31153
1.26764
1.23374
1.21104
1.19881
1.1973
1.20741
1.22577
1.24806
1.2715
1.29285
1.30723
1.31276
0.168005
0.185218
0.187197
0.184812
0.181014
0.175287
0.167864
0.159327
0.150223
0.141075
0.132177
0.123841
0.116136
0.109376
0.103573
0.09903
0.0960579
0.0966812
0.104028
0.117217
0.12985
0.136653
0.136254
0.129423
0.117595
0.101809
0.0832684
0.0626554
0.04422
0.0296315
0.279197
0.30802
0.308651
0.301053
0.287881
0.271664
0.253998
0.2361
0.218649
0.202143
0.186771
0.172771
0.160018
0.148791
0.138963
0.130879
0.125302
0.126457
0.138154
0.158963
0.180531
0.195395
0.200515
0.1959
0.183042
0.163478
0.138924
0.110253
0.0833785
0.061021
0.3404
0.370293
0.373304
0.366579
0.353098
0.335656
0.315998
0.295493
0.275057
0.255403
0.236887
0.219832
0.20424
0.190518
0.178799
0.169563
0.16378
0.165774
0.179238
0.202269
0.226217
0.243353
0.250293
0.246712
0.233672
0.212594
0.185175
0.151959
0.119039
0.0899967
0.381493
0.405778
0.409203
0.403248
0.39066
0.373847
0.354444
0.333707
0.312601
0.291947
0.272248
0.253904
0.237093
0.222338
0.210067
0.200854
0.195872
0.198978
0.213005
0.235761
0.259208
0.276193
0.283492
0.280651
0.268296
0.247591
0.219819
0.185289
0.14947
0.116327
0.409793
0.425749
0.42777
0.42202
0.410564
0.395116
0.377083
0.357419
0.33696
0.316605
0.296948
0.27845
0.261486
0.246698
0.234787
0.226406
0.222808
0.227084
0.240957
0.262048
0.283464
0.29892
0.305627
0.303098
0.291669
0.272183
0.245525
0.211698
0.175219
0.139699
0.428344
0.434854
0.433903
0.427816
0.417302
0.403538
0.387699
0.370019
0.351091
0.331981
0.313274
0.295483
0.279185
0.265144
0.254306
0.247396
0.245569
0.25098
0.264281
0.282978
0.301461
0.314552
0.319996
0.317335
0.306766
0.288865
0.264121
0.232273
0.196794
0.160149
0.438904
0.436146
0.430921
0.423709
0.414873
0.403923
0.390041
0.374085
0.356756
0.339683
0.322652
0.306258
0.291282
0.278646
0.269469
0.264569
0.264757
0.271222
0.283685
0.29966
0.31476
0.32501
0.328728
0.325558
0.315672
0.299499
0.277095
0.247815
0.214098
0.177638
0.443086
0.431453
0.42077
0.41167
0.403457
0.39455
0.38369
0.371059
0.357041
0.341763
0.326185
0.311707
0.29858
0.287892
0.280872
0.278422
0.280714
0.288122
0.299576
0.312716
0.324345
0.331571
0.333265
0.329363
0.319846
0.304885
0.284507
0.258097
0.227059
0.192337
0.444603
0.4224
0.405667
0.394
0.386023
0.379082
0.371101
0.361503
0.350502
0.338109
0.325437
0.312968
0.30182
0.293486
0.289006
0.289266
0.293672
0.30184
0.312176
0.322479
0.330844
0.335112
0.334696
0.329343
0.319608
0.305551
0.287407
0.264113
0.236516
0.204532
0.443076
0.410333
0.387741
0.373478
0.365207
0.359568
0.354062
0.347391
0.339546
0.33018
0.320252
0.310383
0.301943
0.296013
0.294298
0.297338
0.303776
0.31247
0.321623
0.329365
0.334714
0.33625
0.333837
0.327549
0.317613
0.304134
0.287326
0.267198
0.243392
0.214322
0.437818
0.399426
0.3718
0.354422
0.344735
0.339327
0.335385
0.331033
0.325691
0.319101
0.31202
0.304911
0.299138
0.29601
0.297137
0.302852
0.311099
0.320083
0.328041
0.333615
0.33629
0.335461
0.331414
0.324397
0.314392
0.301579
0.286229
0.268841
0.247967
0.221509
0.433717
0.392227
0.360274
0.339494
0.327268
0.32078
0.317188
0.314207
0.310813
0.306538
0.30184
0.297366
0.294334
0.294001
0.297899
0.306049
0.315703
0.324746
0.331604
0.335357
0.335832
0.333091
0.32777
0.320227
0.310408
0.298451
0.284847
0.269196
0.250473
0.226493
0.433835
0.391641
0.356971
0.331042
0.315257
0.306385
0.301739
0.298873
0.296525
0.293912
0.291202
0.288788
0.288323
0.290537
0.296991
0.307198
0.317776
0.326641
0.332513
0.33482
0.333565
0.329434
0.323263
0.315481
0.306092
0.295434
0.283149
0.268628
0.251589
0.229777
0.437201
0.395484
0.360086
0.332008
0.311543
0.298366
0.291296
0.287073
0.284609
0.282743
0.281358
0.280621
0.281888
0.286303
0.294915
0.306669
0.317844
0.326245
0.33117
0.33223
0.329797
0.324831
0.318305
0.310702
0.30225
0.292505
0.281053
0.267526
0.251676
0.231764
0.444798
0.404275
0.368715
0.338886
0.315573
0.299049
0.28778
0.280698
0.27689
0.274649
0.273683
0.273922
0.276352
0.282157
0.292315
0.304999
0.316097
0.323883
0.328027
0.328126
0.325026
0.319809
0.313614
0.306666
0.298709
0.289501
0.278742
0.266062
0.251228
0.232834
0.45711
0.418265
0.382957
0.351838
0.326155
0.306191
0.291461
0.281487
0.275018
0.271206
0.269572
0.269866
0.27276
0.278976
0.290022
0.302985
0.313524
0.320487
0.323896
0.323423
0.320169
0.315516
0.309656
0.302933
0.295342
0.286572
0.276355
0.264369
0.250389
0.233223
0.474179
0.437186
0.403083
0.371762
0.344292
0.321301
0.303006
0.28933
0.279714
0.27351
0.270333
0.269673
0.27233
0.278405
0.289159
0.301776
0.311315
0.317276
0.320071
0.319564
0.316691
0.312111
0.306334
0.29977
0.292401
0.283881
0.274032
0.26257
0.249278
0.233128
0.495462
0.461213
0.428688
0.397617
0.368988
0.343591
0.32206
0.304743
0.291642
0.282447
0.276974
0.274718
0.276275
0.2817
0.291438
0.303017
0.311382
0.316208
0.318718
0.318189
0.314966
0.310161
0.304134
0.297574
0.290113
0.281611
0.271927
0.260804
0.248029
0.232801
0.520857
0.489125
0.458316