/*--------------------------------*- C++ -*----------------------------------*\
  =========                 |
  \\      /  F ield         | OpenFOAM: The Open Source CFD Toolbox
   \\    /   O peration     | Website:  https://openfoam.org
    \\  /    A nd           | Version:  12
     \\/     M anipulation  |
\*---------------------------------------------------------------------------*/
FoamFile
{
    format      ascii;
    class       volScalarField;
    location    "1650/air";
    object      nut;
}
// * * * * * * * * * * * * * * * * * * * * * * * * * * * * * * * * * * * * * //

dimensions      [0 2 -1 0 0 0 0];

internalField   nonuniform List<scalar> 
243000
(
0.000124404
0.000127686
0.00012779
0.000126225
0.000123441
0.000119823
0.000115706
0.000111351
0.000106952
0.000102661
9.8565e-05
9.4744e-05
9.12847e-05
8.82505e-05
8.56111e-05
8.33321e-05
8.13595e-05
7.9707e-05
7.84229e-05
7.75677e-05
7.7127e-05
7.69469e-05
7.67111e-05
7.59545e-05
7.56468e-05
7.3445e-05
0.000323591
0.000298615
0.000258395
0.000220391
0.000463562
0.000473152
0.000466394
0.00045179
0.00043376
0.000414374
0.00039478
0.000375707
0.000357604
0.000340753
0.000325306
0.000311426
0.000299188
0.000288641
0.000279752
0.000272465
0.000266685
0.000262607
0.000260427
0.00026042
0.000262539
0.000266245
0.000270396
0.000273337
0.000271546
0.00026787
0.00026192
0.000248289
0.00023023
0.000204921
0.000568442
0.000617765
0.000636916
0.000642509
0.00064003
0.00063258
0.000621907
0.000609182
0.000595165
0.00058043
0.000565351
0.000550354
0.000535673
0.00052156
0.000508189
0.000495704
0.000484176
0.000474203
0.000466157
0.000460401
0.000456739
0.000454302
0.000451435
0.000445879
0.000435441
0.000418738
0.000395466
0.000363614
0.00032725
0.00028156
0.000556381
0.000615409
0.000645122
0.000657562
0.000659484
0.000654912
0.000646187
0.000634775
0.000621629
0.000607469
0.000592786
0.00057804
0.000563514
0.000549537
0.000536354
0.000524184
0.000513168
0.000503961
0.000496823
0.000491911
0.000488861
0.000486821
0.000484345
0.000479455
0.000470117
0.000454555
0.000432246
0.000401468
0.000365526
0.000320613
0.000530063
0.000592066
0.000631152
0.000651939
0.000660504
0.000660931
0.000655982
0.000647445
0.000636489
0.000624036
0.000610706
0.000597013
0.000583319
0.000570059
0.000557551
0.000546105
0.000535932
0.000527697
0.000521529
0.000517371
0.0005147
0.000512699
0.000510156
0.000505422
0.000496657
0.000482153
0.000461201
0.000432386
0.000398063
0.000355661
0.000504492
0.000555071
0.000600402
0.000630062
0.000646792
0.000653934
0.000654295
0.000649813
0.00064207
0.000632241
0.000621058
0.000609067
0.000596756
0.000584673
0.000573202
0.000562781
0.000553672
0.000546517
0.000541318
0.000537834
0.000535435
0.000533335
0.000530534
0.000525697
0.000517239
0.000503625
0.000484057
0.000457408
0.000425218
0.000385759
0.000503622
0.000529365
0.000565984
0.000597683
0.000621763
0.000636189
0.000642773
0.000643528
0.000640054
0.000633625
0.000625137
0.000615394
0.000604938
0.000594419
0.000584283
0.000575121
0.000567227
0.000561199
0.000556939
0.000554069
0.000551891
0.000549658
0.000546545
0.000541483
0.000533174
0.00052028
0.000502015
0.000477472
0.000447609
0.000411147
0.000521538
0.000522279
0.000542663
0.000569686
0.000594462
0.000612417
0.000624091
0.000630145
0.000631434
0.000629052
0.000623927
0.000616894
0.000608639
0.000600027
0.000591499
0.00058378
0.000577214
0.000572328
0.000568971
0.000566674
0.000564703
0.000562354
0.000558944
0.000553629
0.000545374
0.000533062
0.000515979
0.000493386
0.000465928
0.000432302
0.000548312
0.000533041
0.000534031
0.000549386
0.000570333
0.000589314
0.000603638
0.000612804
0.000617951
0.000619586
0.00061813
0.00061424
0.00060863
0.000602114
0.000595395
0.000589264
0.000584099
0.00058036
0.000577877
0.000576126
0.000574369
0.000571949
0.000568301
0.000562758
0.000554521
0.000542688
0.000526671
0.000505906
0.000480683
0.000449724
0.000576824
0.00055523
0.000541278
0.000541123
0.000552627
0.000568611
0.000583592
0.00059502
0.00060268
0.000606884
0.000608721
0.000608041
0.000605255
0.000601117
0.000596393
0.000591966
0.000588255
0.000585667
0.000584034
0.000582816
0.000581294
0.000578868
0.00057506
0.000569352
0.000561144
0.00054975
0.000534714
0.000515474
0.00049228
0.000463854
0.000605852
0.000584029
0.000561907
0.000547811
0.000545855
0.000553732
0.000565845
0.000577632
0.000587037
0.000593442
0.000597233
0.000599163
0.000599121
0.000597475
0.000594858
0.000592216
0.000589994
0.000588556
0.00058776
0.000587075
0.000585822
0.000583458
0.000579582
0.000573794
0.000565683
0.000554672
0.000540403
0.00052251
0.000501155
0.000475225
0.000634607
0.000613767
0.000589471
0.000567442
0.00055296
0.000549033
0.000553765
0.000562652
0.000571996
0.000579761
0.000585312
0.000588842
0.000590939
0.00059163
0.000591148
0.000590316
0.000589588
0.000589304
0.000589332
0.000589196
0.000588255
0.00058602
0.000582175
0.000576413
0.000568389
0.000557703
0.000544134
0.000527421
0.000507699
0.000484013
0.000662551
0.000642457
0.000618941
0.000594476
0.000572427
0.000557261
0.000551382
0.000553345
0.000559603
0.000566929
0.0005734
0.000578289
0.000581662
0.000584165
0.000585637
0.000586569
0.000587307
0.000588156
0.000589004
0.000589422
0.000588829
0.000586795
0.000583041
0.000577347
0.000569473
0.000559148
0.000546215
0.000530541
0.000512247
0.000490562
0.000689507
0.000670256
0.000649008
0.000624608
0.000599669
0.000577224
0.000561097
0.000553344
0.000552927
0.000556969
0.000562611
0.000568002
0.000572362
0.000575811
0.000578806
0.000581311
0.000583434
0.000585373
0.000587022
0.000588005
0.000587784
0.000586007
0.000582407
0.00057684
0.000569165
0.000559183
0.000546879
0.000532158
0.000515127
0.00049523
0.000715353
0.000696937
0.000676987
0.00065424
0.000629634
0.000604457
0.000581604
0.000564513
0.000555091
0.000552674
0.000554858
0.000559076
0.000563558
0.000567589
0.000571293
0.00057497
0.000578286
0.000581224
0.000583634
0.000585176
0.00058536
0.000583891
0.000580552
0.000575223
0.000567809
0.000558216
0.000546472
0.000532585
0.000516657
0.000498365
0.000739971
0.000722383
0.000703607
0.000682663
0.000659583
0.000634543
0.000608936
0.000585536
0.000567499
0.000556665
0.000552604
0.000553257
0.000556287
0.000560069
0.000563929
0.000568094
0.000572241
0.000576007
0.0005791
0.000581174
0.000581778
0.000580656
0.000577639
0.000572637
0.000565596
0.000556479
0.000545523
0.000532604
0.000517843
0.000501076
0.000763213
0.000746473
0.000728855
0.00070964
0.000688342
0.000664678
0.000639001
0.000612816
0.000588808
0.000569954
0.000558005
0.000552667
0.000552104
0.000554199
0.000557461
0.000561375
0.000565789
0.000570081
0.000573711
0.000576253
0.000577272
0.000576525
0.000573891
0.000569321
0.000562975
0.000554668
0.000544537
0.000532538
0.000518838
0.000503384
0.000784895
0.000768984
0.00075246
0.000734846
0.00071531
0.00069342
0.00066901
0.000642594
0.000615778
0.000591233
0.000571779
0.000559066
0.000552812
0.000551341
0.000552733
0.000555717
0.00055961
0.000563922
0.000567823
0.000570713
0.000572116
0.000571823
0.000569817
0.000565944
0.0005603
0.000552761
0.00054344
0.000532326
0.000519607
0.000505307
0.0008048
0.000789673
0.000774179
0.000758029
0.000740181
0.000720139
0.000697511
0.00067225
0.000645044
0.000617646
0.000592728
0.000572978
0.000559856
0.000553022
0.000550922
0.000551867
0.000554597
0.000558261
0.000561978
0.000565034
0.000566864
0.000567119
0.000565703
0.000562489
0.000557523
0.000550724
0.000542184
0.000531918
0.000520118
0.000506855
0.000822754
0.000808415
0.000793985
0.000779189
0.00076291
0.00074464
0.000723906
0.000700392
0.000674202
0.000646231
0.000618398
0.000593373
0.000573662
0.000560447
0.000553319
0.000550845
0.000551436
0.00055382
0.000556904
0.0005598
0.000561822
0.000562489
0.000561585
0.000558972
0.000554647
0.000548554
0.000540762
0.000531303
0.000520353
0.00050803
0.000838699
0.000825258
0.000812301
0.000798599
0.000783662
0.000766973
0.000748039
0.000726427
0.000701922
0.00067481
0.000646211
0.000618194
0.00059341
0.000574014
0.000560968
0.000553778
0.000551047
0.000551256
0.000553061
0.000555338
0.000557218
0.000558081
0.000557559
0.000555459
0.000551718
0.000546288
0.000539201
0.0005305
0.000520338
0.000508876
0.000852729
0.000840652
0.000828546
0.000815902
0.000802241
0.000787053
0.000769844
0.000750145
0.000727599
0.000702129
0.000674238
0.000645281
0.000617452
0.000593149
0.000574314
0.000561639
0.000554477
0.000551461
0.000551131
0.000552146
0.000553423
0.000554156
0.000553808
0.000552082
0.000548839
0.000544008
0.000537572
0.000529575
0.000520146
0.000509462
0.000864631
0.000853454
0.000842339
0.000830835
0.00081849
0.000804818
0.000789337
0.000771579
0.000751125
0.000727711
0.000701437
0.000673062
0.000644124
0.000616733
0.000593183
0.00057508
0.000562792
0.000555551
0.000552092
0.000551007
0.000551038
0.00055116
0.000550663
0.000549092
0.000546202
0.000541856
0.000535996
0.000528635
0.000519881
0.000509904
0.000874136
0.00086396
0.000853926
0.000843622
0.000832636
0.000820525
0.000806836
0.000791105
0.000772885
0.000751814
0.000727746
0.00070101
0.000672548
0.000643932
0.000617297
0.000594641
0.000577178
0.000565004
0.000557416
0.000553217
0.000551102
0.000549921
0.000548756
0.000546988
0.000544189
0.00054015
0.000534728
0.000527904
0.000519737
0.0005104
0.000881794
0.000872804
0.000863958
0.000854958
0.000845445
0.00083504
0.000823316
0.000809826
0.000794109
0.000775738
0.000754412
0.000730142
0.000703453
0.000675316
0.000647414
0.000621658
0.000599665
0.000582314
0.00056974
0.000561272
0.000555835
0.000552281
0.000549565
0.00054686
0.000543626
0.000539494
0.00053423
0.000527747
0.00052005
0.000511277
0.000888237
0.000880772
0.000873497
0.000866175
0.000858553
0.000850313
0.000841069
0.000830387
0.000817795
0.000802805
0.000784989
0.000764131
0.000740382
0.000714358
0.000687098
0.000660073
0.0006348
0.000612646
0.000594577
0.000580655
0.000570345
0.000562774
0.00055697
0.00055204
0.000547293
0.000542218
0.000536445
0.000529771
0.000522131
0.00051363
0.000896345
0.000891364
0.000886573
0.000881871
0.000877096
0.000872017
0.000866306
0.000859545
0.000851244
0.000840839
0.000827763
0.000811613
0.000792255
0.000769986
0.000745486
0.000719391
0.000692656
0.000666922
0.000643606
0.000623494
0.000606745
0.000593056
0.00058181
0.000572298
0.000563857
0.000555903
0.000547974
0.00053975
0.000531045
0.000521937
0.000917569
0.000916781
0.000916071
0.000915556
0.000915316
0.000915249
0.00091507
0.000914301
0.000912335
0.000908473
0.000901973
0.000892334
0.000879285
0.000862864
0.000843514
0.000821019
0.000795423
0.000768573
0.000741886
0.000716572
0.000693298
0.000672312
0.000653525
0.000636704
0.000621512
0.000607449
0.000594117
0.000581247
0.000568653
0.000556844
0.000999811
0.00100427
0.00100836
0.00101355
0.00102035
0.00102828
0.00103645
0.00104392
0.00104996
0.00105396
0.00105488
0.00105265
0.00104709
0.00103839
0.00102647
0.00101065
0.000989944
0.000966607
0.000941987
0.000917158
0.000892774
0.00086914
0.000846506
0.000825041
0.000804808
0.000784733
0.00076485
0.000745415
0.000726818
0.000710591
0.00131256
0.00131187
0.00131391
0.00132165
0.00133211
0.00134175
0.00134929
0.00135499
0.00135913
0.00136155
0.00136127
0.00135973
0.00135704
0.00135362
0.00134863
0.00134189
0.00133081
0.00131984
0.00130926
0.00129984
0.0012913
0.00128372
0.00127698
0.00127122
0.00126636
0.00125763
0.00124732
0.00123655
0.00122684
0.00121892
0.000159547
0.000163593
0.000162093
0.000158248
0.000152984
0.000146885
0.000140386
0.000133831
0.000127466
0.000121468
0.000115934
0.000110982
0.000106667
0.00010305
0.0001001
9.78254e-05
9.61964e-05
9.53413e-05
9.54948e-05
9.68075e-05
9.89317e-05
0.000101103
0.000102496
0.000102393
0.000100165
9.5432e-05
8.7932e-05
7.65587e-05
0.000328662
0.00031015
0.000678984
0.000766045
0.000747801
0.000692033
0.000626516
0.000563561
0.0005078
0.000459747
0.000418691
0.00038368
0.000354089
0.000329552
0.000308772
0.000291472
0.000276781
0.000264472
0.000253722
0.000245547
0.000240178
0.000238391
0.000240858
0.000247657
0.000256984
0.000265218
0.000267676
0.000262094
0.000248961
0.00022706
0.000242279
0.000284451
0.00105945
0.00121937
0.00123393
0.00118081
0.00110088
0.00101359
0.000929459
0.000852937
0.000785005
0.000725637
0.000674517
0.000631504
0.000594837
0.000564235
0.000538418
0.000516372
0.000496347
0.000479502
0.000464206
0.000451065
0.000443194
0.000443539
0.000450865
0.000459198
0.000461845
0.000451817
0.000428685
0.000389879
0.000363703
0.000363979
0.00130916
0.00150344
0.00154184
0.00150839
0.00143837
0.00135097
0.00126032
0.00117374
0.00109354
0.00102155
0.000958349
0.000904285
0.000858098
0.000819834
0.000788312
0.000761822
0.000737966
0.000717177
0.000695085
0.0006718
0.000651732
0.000641003
0.000640306
0.000644447
0.000643154
0.000628451
0.000597876
0.000547522
0.000498741
0.000472038
0.00144648
0.00163304
0.00170771
0.00170413
0.00165319
0.00157657
0.00149291
0.00140994
0.00132819
0.00125309
0.00118604
0.00112759
0.00107759
0.00103673
0.00100395
0.000977424
0.000954363
0.000933409
0.000907742
0.000876953
0.00084698
0.000825311
0.000815498
0.00081291
0.00080704
0.000788392
0.000753164
0.000696488
0.000634662
0.000590482
0.00151215
0.00169107
0.00177628
0.00179777
0.00177116
0.00172037
0.00164952
0.00157126
0.00149309
0.00142292
0.00135927
0.00130182
0.00125285
0.00121349
0.00118306
0.00115973
0.00114075
0.00112212
0.0010956
0.00106009
0.00102222
0.00099148
0.000973338
0.00096476
0.000953656
0.000931756
0.000893696
0.000834225
0.00076596
0.00071088
0.00154404
0.00167722
0.00176101
0.00180234
0.00180133
0.00177396
0.00172647
0.00166718
0.00160677
0.0015435
0.00148399
0.00143078
0.00138736
0.00135299
0.00132774
0.00131027
0.00129768
0.00128303
0.0012565
0.00121845
0.00117599
0.00113892
0.00111332
0.00109825
0.00108383
0.00105933
0.00101983
0.000960291
0.000889307
0.000826819
0.0015465
0.00162152
0.00168307
0.00172766
0.00175132
0.00175595
0.0017374
0.00170233
0.0016602
0.00161308
0.0015657
0.00152327
0.00148596
0.00145866
0.00144093
0.00143168
0.00142661
0.00141707
0.00139312
0.00135455
0.00131
0.00126774
0.00123605
0.00121492
0.00119682
0.00117181
0.00113226
0.00107449
0.00100392
0.000936897
0.00155154
0.0015732
0.00160301
0.00163467
0.00166264
0.00168242
0.00168871
0.00168266
0.00166533
0.00163866
0.00160782
0.00157822
0.00155209
0.00153428
0.00152568
0.00152629
0.00152947
0.00152577
0.00150588
0.00146937
0.00142399
0.00137873
0.00134245
0.00131607
0.00129394
0.00126852
0.00123223
0.00117791
0.00111014
0.00103951
0.0015915
0.00156156
0.00154583
0.00154927
0.00156663
0.00158882
0.00160841
0.00162164
0.00162701
0.00162501
0.00161409
0.00160095
0.00158891
0.00158305
0.00158494
0.001596
0.00160811
0.0016114
0.00159676
0.00156347
0.00151913
0.00147291
0.00143356
0.00140301
0.00137767
0.00135242
0.00131777
0.00126833
0.0012039
0.00113312
0.00164665
0.00158443
0.00152537
0.00149046
0.00148503
0.00149694
0.00151725
0.00154003
0.00156055
0.00157753
0.0015884
0.00159469
0.0015992
0.00160757
0.00162117
0.00164318
0.00166452
0.00167531
0.00166698
0.00163826
0.00159689
0.00155151
0.00151042
0.00147729
0.00144917
0.00142175
0.00138833
0.00134411
0.00128535
0.00121839
0.00172878
0.0016372
0.00154757
0.00147977
0.0014378
0.00142717
0.0014355
0.00145623
0.0014827
0.00151113
0.00153827
0.00156342
0.00158623
0.00161002
0.00163664
0.00167007
0.00170092
0.00171954
0.00171824
0.00169693
0.00166044
0.00161639
0.00157304
0.00153622
0.0015041
0.00147533
0.00144496
0.00140566
0.00135449
0.00129338
0.00183105
0.00172125
0.00160881
0.00151175
0.00144137
0.00139857
0.00138113
0.00138891
0.00141034
0.00144108
0.00147661
0.00151469
0.00155376
0.00159373
0.00163396
0.00167901
0.00171942
0.00174609
0.00175257
0.00173858
0.00170794
0.00166761
0.00162456
0.00158659
0.00155145
0.0015197
0.00148858
0.00145444
0.00141033
0.0013576
0.00195709
0.00183886
0.0017126
0.00159381
0.00149528
0.00142122
0.00137536
0.00135739
0.00136013
0.00138311
0.00141745
0.00146052
0.00150947
0.00156306
0.00161642
0.00167267
0.00172241
0.00175724
0.00177211
0.00176571
0.00174163
0.00170619
0.00166508
0.00162722
0.00159167
0.0015581
0.00152611
0.00149426
0.00145823
0.00141467
0.00210358
0.0019841
0.00185305
0.00172197
0.0016025
0.00150043
0.00142264
0.00137327
0.00135089
0.00135359
0.00137519
0.00141407
0.00146452
0.0015239
0.00158813
0.0016543
0.00171262
0.00175546
0.0017785
0.00177994
0.0017629
0.00173315
0.00169564
0.00165903
0.00162435
0.00159143
0.00156043
0.00152986
0.00149958
0.00146344
0.0022645
0.00215177
0.00202402
0.00188892
0.00175695
0.00163335
0.0015272
0.00144558
0.00139163
0.001366
0.0013659
0.00138904
0.00143103
0.00148808
0.00155483
0.00162817
0.0016934
0.00174333
0.001774
0.00178319
0.00177344
0.00175007
0.00171768
0.00168355
0.00165154
0.00162098
0.00159036
0.00156001
0.00153043
0.00149991
0.00243606
0.00233636
0.00221777
0.00208457
0.00194692
0.00181021
0.00168302
0.00157349
0.00148777
0.00142964
0.00140007
0.00139854
0.00142183
0.001466
0.00152717
0.00160015
0.0016691
0.00172415
0.0017614
0.001778
0.00177571
0.00175951
0.00173383
0.00170332
0.00167308
0.0016433
0.00161373
0.00158349
0.00155435
0.0015263
0.00261174
0.00252755
0.00242177
0.00229632
0.00215978
0.00201822
0.00187853
0.00174851
0.00163559
0.00154592
0.00148355
0.00145085
0.00144689
0.00146873
0.00151469
0.00157822
0.00164516
0.00170222
0.00174427
0.00176801
0.00177353
0.001764
0.00174326
0.00171555
0.00168723
0.00165894
0.00163099
0.00160174
0.00157296
0.00154553
0.00278393
0.00271518
0.00262476
0.00251226
0.00238349
0.00224411
0.00209975
0.00195731
0.00182429
0.00170788
0.00161411
0.00154789
0.00151111
0.00150293
0.00152473
0.00156954
0.00162595
0.00168118
0.00172606
0.0017543
0.00176521
0.00176078
0.00174506
0.00172136
0.00169511
0.00166877
0.00164242
0.00161519
0.00158719
0.0015606
0.00294561
0.00289265
0.00281907
0.00272245
0.00260607
0.00247423
0.00233169
0.00218409
0.00203833
0.00190164
0.00178086
0.00168257
0.00161119
0.00156884
0.00155883
0.00157659
0.00161457
0.00166062
0.00170201
0.00173259
0.00174946
0.00175038
0.00174022
0.0017212
0.00169766
0.00167374
0.00164947
0.00162469
0.00159796
0.00157258
0.00309279
0.00305418
0.00299679
0.00291666
0.00281492
0.00269412
0.00255799
0.00241086
0.00225845
0.00210742
0.00196477
0.00183793
0.00173337
0.00165684
0.00160996
0.00159552
0.0016068
0.00163611
0.00167162
0.00170249
0.00172114
0.00172982
0.00172715
0.00171403
0.00169465
0.00167407
0.00165293
0.00163077
0.00160598
0.00158241
0.00321972
0.00319221
0.00314826
0.003083
0.00299569
0.00288704
0.00275939
0.00261566
0.00246019
0.00229871
0.00213824
0.00198683
0.00185253
0.00174376
0.00166128
0.00161162
0.00159217
0.00159812
0.00162078
0.00164914
0.00167399
0.00169071
0.00169726
0.00169359
0.00168196
0.00166729
0.00165125
0.00163233
0.00161086
0.00158993
0.0033155
0.00329418
0.00325916
0.00320501
0.00312929
0.00303096
0.0029106
0.00276972
0.00261138
0.00244084
0.00226547
0.00209418
0.0019361
0.00180018
0.00168963
0.00160717
0.00155514
0.00153311
0.00153652
0.00155708
0.00158531
0.00161313
0.00163413
0.00164532
0.00164753
0.00164358
0.00163397
0.00162215
0.00160824
0.00159442
0.00336008
0.0033388
0.00330661
0.00325756
0.00318801
0.00309524
0.00297804
0.00283678
0.00267433
0.00249677
0.00231256
0.00213127
0.0019617
0.00181108
0.00168516
0.00158077
0.0014994
0.00144727
0.00142313
0.00142404
0.00144444
0.00147673
0.00151164
0.00154192
0.00156494
0.00158053
0.00158883
0.0015918
0.00159014
0.00158736
0.00331811
0.0032898
0.00325415
0.00320374
0.00313522
0.00304426
0.00292826
0.00278807
0.00262815
0.00245644
0.00228145
0.00211182
0.00195356
0.0018105
0.00168797
0.00157975
0.00148223
0.00140343
0.00134604
0.00131191
0.00130142
0.00131257
0.00133916
0.00137432
0.00141234
0.00144885
0.00148075
0.00150702
0.00152726
0.00154418
0.0031321
0.00309731
0.00305954
0.00301282
0.00295189
0.00287231
0.0027723
0.00265435
0.00252404
0.00238797
0.00225135
0.0021196
0.00199534
0.00188105
0.00178072
0.00168639
0.00159069
0.0015001
0.00141781
0.0013477
0.00129288
0.00125621
0.00123835
0.00123816
0.00125321
0.00127988
0.0013139
0.00135141
0.00138918
0.00142778
0.002791
0.00277285
0.0027599
0.00274514
0.00272168
0.00268416
0.00263101
0.00256474
0.00248967
0.00240933
0.002326
0.00224108
0.00215572
0.00207364
0.00199959
0.00192675
0.00184519
0.00176003
0.00167365
0.00158937
0.00150928
0.00143631
0.00137327
0.00132227
0.00128478
0.00126119
0.00125098
0.00125278
0.001265
0.00129285
0.00251197
0.00255045
0.00259573
0.00263298
0.00265636
0.00266297
0.00265327
0.00263037
0.00259683
0.00255429
0.00250476
0.00244928
0.00238956
0.00232911
0.0022738
0.00221845
0.00215611
0.00209037
0.00202149
0.00195146
0.00188149
0.00181216
0.00174456
0.00167986
0.00161949
0.00156461
0.00151653
0.0014759
0.00144413
0.00143857
0.0025409
0.00259015
0.00264345
0.0026921
0.00272647
0.00274445
0.00274814
0.0027372
0.00271511
0.00268445
0.00264742
0.0026047
0.00255696
0.00251118
0.00246767
0.00242343
0.00237925
0.00233569
0.00229342
0.00225314
0.00221707
0.00218262
0.00215108
0.00212125
0.00209205
0.00206223
0.0020324
0.00200381
0.00197786
0.0019736
0.00266958
0.00270203
0.00273351
0.00276227
0.00277672
0.00277948
0.0027736
0.0027598
0.00273949
0.00271422
0.00268489
0.00265206
0.0026159
0.00258245
0.00254915
0.00251948
0.00249462
0.00247296
0.00245625
0.00244572
0.00244124
0.00244523
0.0024537
0.00246552
0.00247838
0.0024893
0.00249878
0.00250944
0.00251737
0.00251921
0.000190237
0.000193219
0.000188661
0.000182395
0.000175252
0.000167453
0.000159347
0.000151285
0.000143529
0.000136288
0.00012968
0.000123833
0.000118769
0.000114586
0.000111264
0.00010888
0.000107471
0.000107486
0.000109702
0.000114271
0.000119829
0.000124604
0.00012748
0.000127887
0.000125553
0.000120051
0.000111105
9.75742e-05
8.13552e-05
6.87056e-05
0.00088375
0.000992466
0.000986827
0.000932182
0.000853363
0.000773462
0.000701077
0.000638116
0.000584133
0.000538071
0.000498823
0.000465739
0.000437105
0.000413022
0.000391527
0.000372345
0.000353632
0.000339794
0.000332857
0.000335728
0.000348602
0.000368197
0.000388661
0.000403168
0.000405245
0.000390414
0.000361872
0.000321926
0.000286228
0.00025262
0.00140761
0.00162248
0.00166511
0.00161342
0.00152019
0.00141195
0.00130406
0.001204
0.0011145
0.00103618
0.000968294
0.000910377
0.00086014
0.000818029
0.000781497
0.000748664
0.000715826
0.000687761
0.000663076
0.000648467
0.000650397
0.000667941
0.000692666
0.000712672
0.000712593
0.000689451
0.000641599
0.000570434
0.000498412
0.000441176
0.00178462
0.00203813
0.00211339
0.00208337
0.00200053
0.00189152
0.00177401
0.00165864
0.00155163
0.00145549
0.00137054
0.00129725
0.00123391
0.0011815
0.0011377
0.00109952
0.00106182
0.00102649
0.0009879
0.000956043
0.000940575
0.000946502
0.000966131
0.000985514
0.000984849
0.000955509
0.000895801
0.000805442
0.000706907
0.000624813
0.00204921
0.00231044
0.00240154
0.00239309
0.00232793
0.0022304
0.00211686
0.00199944
0.00188805
0.00178527
0.00169248
0.00161174
0.00154235
0.0014856
0.00144025
0.00140234
0.0013653
0.00132481
0.00127388
0.0012289
0.00119937
0.0011911
0.00120156
0.00121726
0.00121662
0.00118545
0.00112118
0.0010215
0.000907264
0.000805088
0.00223739
0.00246641
0.00257399
0.00259446
0.00254786
0.00246169
0.00235333
0.00224159
0.00213695
0.00203619
0.00194257
0.00186111
0.0017912
0.0017353
0.00169276
0.00165894
0.00162571
0.00158259
0.00152264
0.00146346
0.00142122
0.00140073
0.00140127
0.00141169
0.00141081
0.00138308
0.001319
0.00121803
0.00109666
0.000980664
0.00237372
0.00256579
0.0026657
0.00269304
0.00266538
0.00260063
0.00251893
0.00242342
0.00232086
0.00221917
0.00212975
0.00205399
0.00198786
0.00193744
0.00190103
0.00187438
0.00184644
0.00180132
0.00173445
0.00166327
0.00160982
0.00157856
0.00156971
0.0015737
0.00157177
0.00154837
0.00149263
0.00139602
0.00127493
0.00114894
0.00248244
0.00261569
0.00268903
0.00271547
0.00270293
0.00265975
0.00259806
0.00252233
0.00243734
0.00235384
0.00227314
0.00219961
0.00213917
0.00209748
0.00207031
0.00205352
0.00203068
0.00198407
0.00191131
0.00183187
0.00177068
0.00172927
0.00171163
0.00170849
0.00170387
0.00168592
0.00164121
0.00155547
0.00143847
0.00130714
0.00255825
0.00261956
0.00265707
0.00267651
0.00267552
0.00265317
0.00261541
0.00256307
0.00249846
0.00243156
0.00236516
0.00230322
0.0022547
0.00222168
0.00220534
0.00219979
0.00218196
0.00213145
0.00205481
0.00197363
0.00190627
0.00185699
0.00183146
0.00182077
0.00181381
0.00179843
0.00176068
0.00168939
0.00158149
0.00145247
0.00260759
0.00261263
0.00261683
0.00262003
0.00261929
0.00260876
0.002588
0.00255574
0.00251293
0.00246682
0.00241787
0.00237155
0.00233537
0.00231464
0.00231016
0.00231585
0.00230352
0.00225435
0.00217687
0.00209369
0.00202073
0.00196558
0.00193294
0.00191331
0.00189869
0.0018829
0.00185283
0.00179569
0.00170467
0.00158707
0.00266771
0.00262786
0.00259309
0.00257019
0.00255735
0.00254715
0.00253603
0.00251927
0.00249539
0.00246738
0.00243793
0.00240904
0.00238787
0.00238127
0.002389
0.00240517
0.00239778
0.0023517
0.00227652
0.00219332
0.00211779
0.00205793
0.00201692
0.00198924
0.00196821
0.00194812
0.00192201
0.00187864
0.00180689
0.00170721
0.0027504
0.00269213
0.00261806
0.00254807
0.00251272
0.00248944
0.00247806
0.00246895
0.00245854
0.00244622
0.00243297
0.0024219
0.0024172
0.00242546
0.00244535
0.00247121
0.00247024
0.00242802
0.00235738
0.00227714
0.0022021
0.00213759
0.00209119
0.00205736
0.00203006
0.00200611
0.00198001
0.00194573
0.00189344
0.00181213
0.00283698
0.00275848
0.0026636
0.0025784
0.00250513
0.0024546
0.00243407
0.00242197
0.00241718
0.00241512
0.00241482
0.00241791
0.00242935
0.00245102
0.00248289
0.00251743
0.00252171
0.00248565
0.0024214
0.00234664
0.00227286
0.0022063
0.00215592
0.00211718
0.0020863
0.00205899
0.00203281
0.00200399
0.00196674
0.00190317
0.00295029
0.00285629
0.00274199
0.00263097
0.00253633
0.00246972
0.00242461
0.00239513
0.0023874
0.00238764
0.00239438
0.00240794
0.00242966
0.00246293
0.00250573
0.00254754
0.00255758
0.00252886
0.0024727
0.00240409
0.0023329
0.00226579
0.00221283
0.00217055
0.00213682
0.00210853
0.00208317
0.00205625
0.00202641
0.00197649
0.00308714
0.0029806
0.00285776
0.00273328
0.00261782
0.00252379
0.00245274
0.00240908
0.0023858
0.00237795
0.00238341
0.00240078
0.00242815
0.00246644
0.00251784
0.00256513
0.00258083
0.00256027
0.00251309
0.0024514
0.00238401
0.00231772
0.00226356
0.00221934
0.00218447
0.00215617
0.00213007
0.0021036
0.00207444
0.00203548
0.00324309
0.00314218
0.00301948
0.00288499
0.00275254
0.00263397
0.00253661
0.00246592
0.00242063
0.00239689
0.00239263
0.00240514
0.0024316
0.00246964
0.00252258
0.00257295
0.00259379
0.00258166
0.0025439
0.00248991
0.00242768
0.00236362
0.00230966
0.00226539
0.00222912
0.00219963
0.00217318
0.00214651
0.00211811
0.00208467
0.00342891
0.00333325
0.00321403
0.00307684
0.00293393
0.00279642
0.00267407
0.00257462
0.00250133
0.00245386
0.00243033
0.00242821
0.00244401
0.00247569
0.00252229
0.00257165
0.00259646
0.00259277
0.00256502
0.0025198
0.00246423
0.00240369
0.00235043
0.0023061
0.00226926
0.00223889
0.00221275
0.0021861
0.00215793
0.00212559
0.0036275
0.00354075
0.0034295
0.00329557
0.00314887
0.00299923
0.00285678
0.0027307
0.00262739
0.00254998
0.00249879
0.00247255
0.00246844
0.00248377
0.00251724
0.00255752
0.00258433
0.00258899
0.00257252
0.00253742
0.00248959
0.00243436
0.00238378
0.00234094
0.0023045
0.00227406
0.00224881
0.00222251
0.0021942
0.00216292
0.00382687
0.00375213
0.00365189
0.0035254
0.00338026
0.00322479
0.00306836
0.00292034
0.00278869
0.00267892
0.002594
0.00253486
0.00250058
0.00248992
0.00250053
0.00252507
0.00254802
0.00255885
0.00255399
0.0025332
0.00249663
0.00245073
0.00240634
0.00236735
0.00233288
0.00230381
0.00228012
0.00225442
0.00222625
0.00219638
0.00401806
0.0039551
0.00386622
0.00374891
0.00360865
0.003452
0.00328699
0.00312217
0.00296564
0.00282402
0.00270232
0.00260395
0.00253078
0.00248385
0.00246298
0.00246242
0.0024743
0.00248684
0.00249362
0.00248899
0.0024708
0.00244137
0.0024093
0.00237901
0.00234893
0.0023241
0.00230244
0.0022783
0.00225202
0.00222466
0.0041904
0.00413561
0.00405578
0.00394703
0.00381267
0.00365725
0.00348707
0.0033092
0.003131
0.00295931
0.00280067
0.00266078
0.00254452
0.00245538
0.00239649
0.00236252
0.00235267
0.00235876
0.00237283
0.00238544
0.00238993
0.00238442
0.0023721
0.0023551
0.00233831
0.00232222
0.00230798
0.0022899
0.00226776
0.00224482
0.00432598
0.00427488
0.00420029
0.00409758
0.00396793
0.00381375
0.00363938
0.0034502
0.00325258
0.00305366
0.00286166
0.0026845
0.00252962
0.00240196
0.00230677
0.00223857
0.00219919
0.00218593
0.00219325
0.0022125
0.00223504
0.00225474
0.00226932
0.00227822
0.00228289
0.00228372
0.00227785
0.00227283
0.00226494
0.00225309
0.00440097
0.00434787
0.00427368
0.00417316
0.00404543
0.00389086
0.00371213
0.00351316
0.00329995
0.00308108
0.00286704
0.00266775
0.00249159
0.00234299
0.00222648
0.00213628
0.00207032
0.00202905
0.00201096
0.00201287
0.00203026
0.00205779
0.0020905
0.00212416
0.00215577
0.002183
0.00220298
0.0022169
0.00222408
0.0022288
0.00437996
0.00432052
0.00424264
0.00414109
0.00401356
0.00385898
0.00367961
0.00347827
0.00326172
0.00304145
0.00282974
0.00263646
0.00246807
0.00232649
0.00221234
0.0021224
0.00204423
0.001979
0.00192742
0.00189136
0.00187308
0.00187311
0.00189044
0.00192212
0.00196372
0.00200992
0.00205505
0.00209581
0.00212946
0.00215595
0.0042218
0.00415607
0.0040749
0.00397578
0.00385548
0.00371192
0.00354613
0.00336308
0.00317088
0.00298206
0.00280666
0.00265057
0.00251747
0.00240631
0.00231434
0.00223995
0.00216385
0.00208728
0.00201102
0.00193871
0.00187554
0.0018261
0.00179462
0.00178378
0.00179381
0.00182224
0.00186383
0.00191288
0.00196365
0.00201266
0.00390437
0.00383896
0.00377196
0.00369835
0.0036114
0.00350751
0.00338712
0.00325511
0.00311945
0.00298875
0.00286915
0.00276284
0.00267187
0.00259447
0.00252791
0.00246896
0.00239988
0.00232301
0.00223876
0.00215005
0.00206093
0.00197496
0.00189701
0.00183235
0.00178554
0.00175949
0.00175387
0.00176627
0.00179326
0.00183665
0.00350823
0.00347805
0.0034622
0.00345085
0.0034265
0.0033856
0.00332792
0.00325757
0.00318106
0.00310451
0.00303127
0.00296194
0.00289873
0.00284048
0.00278629