/*--------------------------------*- C++ -*----------------------------------*\
  =========                 |
  \\      /  F ield         | OpenFOAM: The Open Source CFD Toolbox
   \\    /   O peration     | Website:  https://openfoam.org
    \\  /    A nd           | Version:  12
     \\/     M anipulation  |
\*---------------------------------------------------------------------------*/
FoamFile
{
    format      ascii;
    class       volScalarField;
    location    "1650/air";
    object      p_rgh;
}
// * * * * * * * * * * * * * * * * * * * * * * * * * * * * * * * * * * * * * //

dimensions      [1 -1 -2 0 0 0 0];

internalField   nonuniform List<scalar> 
243000
(
30.1224
30.069
29.9866
29.8391
29.6904
29.5568
29.442
29.3494
29.2785
29.2295
29.1996
29.1897
29.1907
29.2065
29.2297
29.2715
29.3263
29.3992
29.4819
29.5755
29.6734
29.7699
29.8584
29.9344
30.0037
30.0573
30.1044
30.1296
30.1744
30.1645
30.1188
30.0447
29.9717
29.8328
29.6923
29.5619
29.4494
29.358
29.2875
29.2391
29.2111
29.2022
29.2033
29.2185
29.2408
29.2817
29.3353
29.4067
29.4893
29.5831
29.681
29.7776
29.8664
29.9443
30.0141
30.0647
30.112
30.1349
30.1779
30.155
30.1026
29.9879
29.9118
29.7739
29.6406
29.5191
29.4158
29.3327
29.2689
29.226
29.2019
29.1963
29.1996
29.2154
29.2378
29.2785
29.331
29.4023
29.4848
29.5787
29.6769
29.7744
29.8647
29.944
30.0121
30.0628
30.1103
30.1299
30.1781
30.1483
30.0751
29.9179
29.837
29.699
29.5737
29.4619
29.3685
29.2942
29.2377
29.2006
29.181
29.1787
29.1841
29.2008
29.2231
29.2634
29.3147
29.3843
29.4644
29.5558
29.6521
29.7489
29.84
29.9215
29.9938
30.0491
30.1024
30.121
30.1741
30.1409
30.0404
29.8513
29.7643
29.6259
29.5075
29.4035
29.318
29.2509
29.2005
29.1684
29.1526
29.1533
29.1604
29.1779
29.1997
29.2391
29.289
29.3565
29.4339
29.5227
29.6169
29.7129
29.8048
29.8883
29.964
30.0234
30.0826
30.1024
30.1638
30.1303
29.9999
29.8009
29.6996
29.5618
29.4492
29.3515
29.2719
29.2099
29.1635
29.135
29.122
29.1248
29.1331
29.1509
29.1719
29.2099
29.2578
29.3229
29.397
29.4826
29.5743
29.6694
29.7622
29.8479
29.9274
29.991
30.0562
30.0786
30.1477
30.1157
29.9532
29.7598
29.646
29.5124
29.4018
29.3086
29.2332
29.1739
29.1293
29.1021
29.09
29.0936
29.1024
29.1198
29.1395
29.1756
29.2209
29.2831
29.3533
29.4352
29.5243
29.6186
29.7124
29.8004
29.8837
29.9519
30.0231
30.0499
30.1254
30.0949
29.8984
29.7184
29.6024
29.4778
29.3691
29.2761
29.2031
29.1448
29.1004
29.0723
29.0588
29.0613
29.0691
29.0856
29.1033
29.1369
29.1791
29.2376
29.3033
29.3813
29.4678
29.5612
29.6561
29.7467
29.8341
29.9069
29.9841
30.0163
30.0974
30.0698
29.8357
29.6677
29.5634
29.4496
29.346
29.2555
29.1807
29.1226
29.0769
29.0467
29.0303
29.0296
29.0346
29.0491
29.0643
29.0946
29.1332
29.1871
29.2481
29.322
29.4059
29.4986
29.5947
29.688
29.7795
29.857
29.9401
29.9783
30.0646
30.0409
29.7657
29.6022
29.5141
29.4218
29.3261
29.24
29.1651
29.1055
29.058
29.0252
29.0051
29
29.0003
29.0113
29.0232
29.0497
29.0838
29.1327
29.1886
29.2584
29.3396
29.4318
29.5293
29.6255
29.721
29.8034
29.8918
29.9367
30.0275
30.0089
29.6904
29.5277
29.4569
29.3822
29.3016
29.2232
29.1522
29.0908
29.042
29.0069
28.9828
28.9728
28.9673
28.9731
28.9808
29.0027
29.0318
29.0751
29.1257
29.1913
29.2701
29.3619
29.4609
29.5601
29.6597
29.7469
29.8404
29.8921
29.9871
29.9747
29.6098
29.448
29.3927
29.3344
29.2676
29.2003
29.1363
29.0771
29.0272
28.9899
28.9626
28.9476
28.9359
28.9356
28.9375
28.9545
28.9779
29.0153
29.0605
29.122
29.1984
29.2899
29.3906
29.4929
29.5966
29.6886
29.7864
29.8455
29.9443
29.939
29.5251
29.3665
29.3249
29.2806
29.2266
29.1707
29.1144
29.0604
29.0122
28.9734
28.9428
28.9235
28.906
28.899
28.8941
28.9055
28.9227
28.954
28.9937
29.0511
29.1253
29.2167
29.3193
29.4247
29.5324
29.629
29.7311
29.7977
29.8995
29.9028
29.4362
29.284
29.2525
29.2222
29.1793
29.1341
29.0868
29.0394
28.995
28.9564
28.923
28.8995
28.8767
28.8633
28.851
28.8561
28.867
28.8919
28.9261
28.9795
29.0517
29.1431
29.2475
29.3562
29.4678
29.569
29.6754
29.7491
29.8526
29.8664
29.3426
29.2009
29.1758
29.1571
29.1255
29.0907
29.0525
29.0123
28.9728
28.9367
28.902
28.8749
28.8469
28.8276
28.8083
28.8067
28.8111
28.8296
28.8582
28.9077
28.978
29.0695
29.1759
29.2878
29.4032
29.5093
29.6195
29.7
29.8042
29.8297
29.2443
29.1156
29.0979
29.0872
29.0652
29.0402
29.011
28.9782
28.944
28.9117
28.8781
28.8487
28.816
28.7908
28.7655
28.7571
28.7553
28.7674
28.7905
28.8361
28.9046
28.9963
29.1047
29.2199
29.3391
29.45
29.5634
29.6504
29.755
29.7929
29.1408
29.0272
29.0168
29.0133
28.9988
28.9821
28.9614
28.9365
28.9082
28.8798
28.8491
28.8193
28.783
28.7524
28.7214
28.7072
28.6996
28.7053
28.723
28.7649
28.8317
28.9236
29.034
29.1525
29.2754
29.3909
29.5073
29.6007
29.7056
29.7555
29.032
28.9356
28.9313
28.9343
28.9269
28.917
28.9037
28.8861
28.8645
28.8406
28.813
28.7847
28.7466
28.7116
28.6753
28.6559
28.6434
28.6433
28.6556
28.6939
28.7592
28.8514
28.9636
29.0853
29.2118
29.332
29.451
29.5503
29.6558
29.7167
28.9176
28.84
28.8408
28.849
28.8492
28.8453
28.8387
28.8273
28.8118
28.7931
28.7691
28.743
28.7048
28.667
28.6264
28.602
28.5854
28.5808
28.5882
28.6228
28.6863
28.7785
28.8927
29.0178
29.1478
29.2721
29.3941
29.4986
29.6055
29.6762
28.7965
28.7392
28.7437
28.7569
28.7636
28.7657
28.7654
28.7603
28.7504
28.7366
28.7165
28.6932
28.6557
28.6167
28.573
28.5448
28.5245
28.5161
28.5192
28.5502
28.6117
28.7041
28.8206
28.9491
29.0822
29.2107
29.3361
29.4458
29.5547
29.6336
28.6672
28.6305
28.639
28.6573
28.6694
28.677
28.682
28.6833
28.6794
28.6707
28.6545
28.6342
28.5983
28.559
28.5134
28.4827
28.4595
28.4479
28.4471
28.4748
28.5349
28.6279
28.7467
28.8779
29.0143
29.147
29.276
29.3909
29.5025
29.5885
28.5272
28.5119
28.5252
28.5476
28.5649
28.5784
28.5888
28.5953
28.5971
28.5938
28.5823
28.5654
28.5316
28.4928
28.4462
28.4141
28.3888
28.3746
28.3711
28.3963
28.4554
28.5488
28.6695
28.8032
28.9429
29.0798
29.2126
29.3326
29.4473
29.5399
28.3784
28.3808
28.3987
28.4262
28.4497
28.4696
28.486
28.498
28.5047
28.5063
28.4997
28.4863
28.4552
28.4176
28.3706
28.3375
28.311
28.2953
28.2902
28.3136
28.3718
28.4655
28.5877
28.7236
28.8664
29.0075
29.1443
29.2695
29.3878
29.4867
28.2152
28.2278
28.253
28.2877
28.3193
28.3476
28.3714
28.3899
28.4023
28.4087
28.4067
28.3969
28.3688
28.3329
28.2862
28.2525
28.2254
28.2092
28.2033
28.2255
28.283
28.3767
28.4995
28.6374
28.7829
28.9278
29.0684
29.1985
29.3206
29.4254
28.0377
28.0597
28.0943
28.1376
28.1788
28.2167
28.2486
28.2739
28.2922
28.3035
28.3059
28.2997
28.2743
28.2405
28.1946
28.161
28.1334
28.1171
28.1111
28.1326
28.1893
28.2825
28.4053
28.5444
28.6923
28.8405
28.9846
29.1192
29.2453
29.3562
27.8124
27.8441
27.8929
27.9521
28.0108
28.0651
28.1104
28.1468
28.1742
28.1926
28.1997
28.198
28.176
28.1444
28.0992
28.0657
28.0369
28.0202
28.0135
28.0337
28.0886
28.1799
28.3004
28.439
28.5875
28.7371
28.8828
29.0204
29.1488
29.264
27.6066
27.6532
27.7182
27.7936
27.8694
27.9375
27.9936
28.0388
28.0736
28.0973
28.1077
28.1084
28.0884
28.0593
28.0154
27.9821
27.9522
27.9351
27.9279
27.9465
27.9988
28.0865
28.2039
28.3414
28.4901
28.6411
28.7888
28.9301
29.0629
29.1853
27.1869
27.2735
27.3877
27.5137
27.6379
27.7445
27.8291
27.8959
27.9478
27.9855
28.0052
28.0123
27.9964
27.9703
27.9271
27.8921
27.8578
27.8382
27.8279
27.8423
27.8866
27.9625
28.067
28.1935
28.3337
28.4765
28.6152
28.7493
28.8735
28.9919
27.2001
27.3177
27.457
27.6016
27.7341
27.8382
27.9149
27.971
28.0107
28.0385
28.0508
28.0522
28.0325
28.0029
27.9561
27.9202
27.8883
27.8735
27.8693
27.8909
27.941
28.0214
28.1296
28.2602
28.4059
28.5569
28.7042
28.8492
28.9863
29.1222
25.9145
26.1236
26.3973
26.6836
26.9381
27.1314
27.2754
27.3852
27.4671
27.5223
27.5523
27.5658
27.5544
27.5289
27.4837
27.4401
27.3929
27.361
27.3347
27.3286
27.3452
27.3868
27.4541
27.5413
27.6388
27.732
27.8193
27.9067
27.9883
28.0938
29.9173
29.7676
29.6603
29.4927
29.3467
29.2291
29.1398
29.0746
29.0292
29.0019
28.9901
28.9934
29.0042
29.0257
29.0485
29.088
29.1361
29.2047
29.2846
29.3804
29.4839
29.5913
29.6961
29.7946
29.8875
29.9693
30.0473
30.0932
30.1542
30.1484
29.9
29.7345
29.6324
29.4742
29.3418
29.2311
29.1443
29.0803
29.0354
29.0093
28.999
29.003
29.0135
29.0344
29.0563
29.0949
29.1418
29.2097
29.2899
29.3863
29.4903
29.5984
29.7037
29.8024
29.896
29.9771
30.0546
30.0996
30.1626
30.1371
29.8806
29.6985
29.599
29.4458
29.3201
29.2144
29.132
29.0709
29.0277
29.004
28.9955
29.0005
29.0108
29.0312
29.0519
29.0892
29.1341
29.1996
29.2766
29.3698
29.4729
29.5819
29.6893
29.7904
29.8866
29.969
30.0493
30.0917
30.1598
30.1283
29.856
29.6602
29.5568
29.4067
29.2882
29.1893
29.1131
29.0566
29.0177
28.9969
28.99
28.9959
29.0059
29.0253
29.0443
29.0798
29.1218
29.1844
29.2575
29.3468
29.4465
29.5536
29.6612
29.765
29.8648
29.9497
30.035
30.0752
30.1514
30.1163
29.8245
29.6227
29.5143
29.3687
29.2553
29.1619
29.0915
29.0403
29.0049
28.9864
28.9805
28.9867
28.996
29.014
29.0307
29.0636
29.1019
29.1606
29.2291
29.3143
29.4105
29.5157
29.623
29.7276
29.8295
29.9181
30.0078
30.05
30.1362
30.1001
29.7834
29.5865
29.4747
29.3351
29.2267
29.1383
29.0718
29.0247
28.9919
28.9747
28.969
28.9747
28.9827
28.9988
29.0126
29.0422
29.076
29.1301
29.1933
29.2737
29.3663
29.4699
29.5774
29.6831
29.7875
29.8787
29.9736
30.0183
30.1147
30.0796
29.735
29.549
29.4397
29.3072
29.2037
29.12
29.0567
29.0116
28.9804
28.9633
28.9567
28.9612
28.9671
28.9808
28.9911
29.0166
29.0451
29.0939
29.1511
29.2264
29.3156
29.4179
29.5258
29.6331
29.7403
29.8344
29.9344
29.9822
30.0875
30.0547
29.6808
29.5095
29.4117
29.2886
29.1892
29.1079
29.0464
29.0017
28.971
28.9532
28.9448
28.9472
28.9502
28.9607
28.9669
28.9877
29.0102
29.0528
29.1036
29.1738
29.2598
29.3609
29.4696
29.5788
29.689
29.7864
29.8913
29.9431
30.0555
30.0259
29.6222
29.4585
29.3839
29.2772
29.1842
29.105
29.0433
28.9965
28.9636
28.9448
28.9341
28.9335
28.9326
28.9393
28.9407
28.9563
28.9722
29.0078
29.052
29.1171
29.2
29.3004
29.4101
29.5215
29.6349
29.7357
29.8453
29.9019
30.0194
29.9944
29.561
29.3956
29.3428
29.262
29.1819
29.1067
29.0452
28.997
28.9599
28.9378
28.9246
28.9204
28.915
28.9173
28.913
28.9229
28.9318
28.96
28.9975
29.0575
29.1376
29.2374
29.3484
29.4623
29.5789
29.6832
29.7971
29.8595
29.9804
29.961
29.4975
29.3308
29.2961
29.2357
29.1743
29.1084
29.0486
28.9997
28.9607
28.933
28.9164
28.908
28.8977
28.8951
28.8844
28.888
28.8897
28.9105
28.9411
28.9961
29.0736
29.1732
29.2856
29.402
29.5219
29.6297
29.7475
29.8166
29.9391
29.9263
29.4318
29.2669
29.2466
29.2013
29.1561
29.1058
29.0513
29.0032
28.9629
28.9323
28.9101
28.8963
28.8807
28.8727
28.8553
28.8522
28.8468
28.86
28.8836
28.9339
29.009
29.1085
29.2225
29.3416
29.4646
29.5759
29.6971
29.7735
29.8964
29.8913
29.3645
29.2032
29.1955
29.1627
29.1296
29.0925
29.0505
29.0054
28.9652
28.9329
28.9053
28.8859
28.864
28.8502
28.8259
28.8159
28.8034
28.8092
28.826
28.8717
28.9447
29.0443
29.1599
29.2818
29.4079
29.5224
29.6463
29.7303
29.8526
29.8564
29.2966
29.14
29.1413
29.1196
29.097
29.0703
29.0377
29.0025
28.9659
28.9332
28.9008
28.8765
28.8481
28.8276
28.7965
28.7793
28.7598
28.7588
28.7692
28.8102
28.8813
28.9812
29.0986
29.2232
29.3523
29.47
29.5955
29.6869
29.8078
29.8234
29.2276
29.0768
29.0849
29.0733
29.0594
29.0414
29.018
28.9906
28.9595
28.9294
28.8951
28.8671
28.8328
28.8053
28.7669
28.7427
28.7161
28.709
28.7136
28.7502
28.8195
28.9198
29.0391
29.1664
29.2983
29.4194
29.545
29.6434
29.7624
29.7919
29.155
29.0116
29.0262
29.0239
29.0171
29.0066
28.9913
28.9717
28.9469
28.9201
28.8867
28.8565
28.8171
28.7834
28.7374
28.7061
28.6726
28.66
28.6594
28.692
28.7598
28.8607
28.9818
29.1118
29.2458
29.3701
29.4965
29.5995
29.7166
29.7617
29.0783
28.9444
28.964
28.9696
28.9697
28.9659
28.9577
28.9454
28.9273
28.9055
28.8743
28.8433
28.8001
28.7608
28.7079
28.6697
28.6294
28.6118
28.6069
28.6359
28.7025
28.8039
28.9265
29.0587
29.1946
29.3223
29.4498
29.5566
29.6708
29.7321
28.9967
28.8755
28.8988
28.9109
28.9174
28.9196
28.9179
28.912
28.9003
28.8841
28.8565
28.8261
28.7804
28.7367
28.6779
28.6331
28.5862
28.5644
28.5557
28.5815
28.6473
28.7493
28.8728
29.007
29.1444
29.2762
29.4054
29.5161
29.629
29.7015
28.9093
28.8045
28.8313
28.8489
28.8608
28.8684
28.8721
28.872
28.8662
28.8553
28.8323
28.8037
28.7564
28.7102
28.6465
28.5957
28.5429
28.5173
28.5056
28.5289
28.5944
28.6965
28.8203
28.9563
29.0962
29.2318
29.3628
29.4772
29.5894
29.6707
28.8153
28.7301
28.7604
28.7831
28.7998
28.8125
28.821
28.8259
28.8256
28.8197
28.8011
28.7752
28.7273
28.6799
28.6127
28.5573
28.4998
28.4709
28.4569
28.4783
28.543
28.644
28.7682
28.9065
29.0496
29.1884
29.3214
29.4392
29.5513
29.6393
28.7135
28.6514
28.6851
28.7128
28.7342
28.7519
28.7651
28.7745
28.7788
28.7776
28.7634
28.7405
28.6928
28.6448
28.5758
28.5181
28.4564
28.4248
28.4087
28.4278
28.4911
28.5915
28.7169
28.8576
29.0037
29.1457
29.2808
29.4017
29.5141
29.6071
28.603
28.5667
28.6044
28.6373
28.6637
28.6865
28.7047
28.7188
28.7274
28.7301
28.7199
28.6999
28.6532
28.6049
28.5356
28.4765
28.4111
28.3771
28.3589
28.3763
28.4392
28.5396
28.6662
28.8087
28.9578
29.1029
29.2402
29.3642
29.4771
29.5743
28.4845
28.4752
28.5175
28.5558
28.588
28.6166
28.6404
28.6597
28.6727
28.6789
28.6724
28.6546
28.6093
28.5615
28.491
28.4311
28.3634
28.3269
28.3074
28.3246
28.3877
28.4883
28.6156
28.7595
28.9111
29.0593
29.1991
29.326
29.4399
29.5408
28.3593
28.373
28.4216
28.4665
28.5058
28.5418
28.5728
28.5985
28.6166
28.626
28.6228
28.6069
28.5633
28.5165
28.4436
28.3827
28.3126
28.2749
28.2552
28.2734
28.3364
28.437
28.5653
28.7106
28.8638
29.0145
29.1563
29.2859
29.4007
29.505
28.2285
28.2637
28.3198
28.372
28.4198
28.4648
28.5049
28.5383
28.5621
28.5752
28.5741
28.5596
28.518
28.4724
28.3982
28.3346
28.2615
28.2223
28.2031
28.2233
28.2861
28.3867
28.5158
28.6625
28.8183
28.972
29.1158
29.247
29.362
29.4693
28.0816
28.1401
28.2053
28.2675
28.3276
28.3857
28.4381
28.4817
28.5127
28.5301
28.5307
28.5169
28.4769
28.4323
28.3574
28.2926
28.2165
28.1745
28.1559
28.1785
28.2405
28.3406
28.4689
28.6149
28.7709
28.9269
29.073
29.2058
29.3207
29.4314
27.9498
28.0338
28.1059
28.1774
28.2505
28.3231
28.389
28.4431
28.4808
28.5
28.5004
28.4867
28.4492
28.4059
28.3302
28.2634
28.1842
28.1393
28.1208
28.1456
28.2065
28.3065
28.4341
28.5825
28.741
28.8989
29.0468
29.1811
29.2959
29.4099
27.7944
27.901
27.9858
28.078
28.178
28.2763
28.3623
28.4318
28.4801
28.5079
28.5091
28.4985
28.4654
28.4259
28.3516
28.2841
28.1999
28.15
28.128
28.1502
28.2072
28.2981
28.4201
28.5644
28.7187
28.8714
29.0115
29.1411
29.2513
29.3652
27.8481
27.9614
28.0559
28.1713
28.2991
28.4202
28.5212
28.5998
28.6541
28.6879
28.6936
28.6868
28.6572
28.6205
28.5504
28.4832
28.3918
28.3357
28.3049
28.3199
28.3681
28.4497
28.5598
28.6918
28.8361
28.9827
29.1216
29.2487
29.3542
29.4659
28.5018
28.609
28.6801
28.7843
28.9032
29.0135
29.1003
29.1619
29.1961
29.21
29.1992
29.1784
29.1381
29.0958
29.0243
28.961
28.8724
28.8197
28.793
28.8147
28.8701
28.9599
29.077
29.2163
29.3686
29.5225
29.6671
29.7998
29.9107
30.0325
29.9156
29.7114
29.6201
29.4297
29.2706
29.1464
29.0591
29.0012
28.9651
28.9479
28.9422
28.9534
28.9667
28.9913
29.0057
29.0344
29.0547
29.092
29.1325
29.1933
29.2697
29.3662
29.4758
29.5938
29.7183
29.8369
29.9554
30.0372
30.1234
30.1206
29.9006
29.6616
29.5818
29.4021
29.2608
29.1476
29.0633
29.007
28.9717
28.9566
28.9522
28.9639
28.977
29.0015
29.0155
29.0444
29.0647
29.1025
29.1429
29.2036
29.2806
29.3776
29.4873
29.6053
29.7294
29.8471
29.9648
30.0435
30.1312
30.1211
29.8759
29.6193
29.5476
29.3774
29.2468
29.1402
29.0613
29.0076
28.9729
28.9581
28.9549
28.9669
28.9794
29.0034
29.0163
29.0448
29.0637
29.0998
29.1364
29.1935
29.2684
29.3665
29.4784
29.5982
29.7235
29.8406
29.96
30.0357
30.1325
30.1139
29.8337
29.5733
29.5038
29.3413
29.2213
29.1234
29.0519
29.0033
28.9714
28.9582
28.9557
28.9678
28.9793
29.0032
29.0148
29.0425
29.0588
29.0923
29.1244
29.1765
29.2464
29.3409
29.4546
29.5773
29.7045
29.8217
29.9433
30.0175
30.1235
30.0994
29.7773
29.5243
29.4546
29.3019
29.1925
29.1027
29.0379
28.994
28.9651
28.9546
28.9533
28.9655
28.9759
28.9988
29.0082
29.0343
29.0467
29.0761
29.1023
29.1488
29.2136
29.3047
29.4162
29.539
29.67
29.7888
29.9149
29.9886
30.1039
30.0778
29.711
29.4735
29.4025
29.2624
29.163
29.0813
29.0229
28.9836
28.9581
28.9496
28.9488
28.9608
28.9698
28.9913
28.9977
29.0215
29.0287
29.0529
29.0723
29.1125
29.1724
29.2607
29.3708
29.4931
29.6253
29.7472
29.8769
29.9525
30.0764
30.0506
29.6404
29.4227
29.3512
29.225
29.1353
29.0616
29.0092
28.9742
28.9514
28.9442
28.9432
28.9547
28.9618
28.9814
28.9841
29.0048
29.0059
29.0236
29.0359
29.0694
29.1246
29.2106
29.32
29.4426
29.5756
29.6997
29.8328
29.9122
30.0433
30.0196
29.5677
29.3695
29.3019
29.191
29.1104
29.0446
28.9977
28.9661
28.9455
28.939
28.9372
28.9477
28.9523
28.9696
28.9678
28.9847
28.9791
28.9895
28.9942
29.021
29.0718
29.1561
29.2655
29.3889
29.5231
29.6487
29.7849
29.8694
30.0057
29.9859
29.4944
29.3135
29.2555
29.1607
29.0897
29.0313
28.9887
28.9596
28.9406
28.9344
28.9312
28.9404
28.9418
28.9566
28.9493
28.9617
28.9487
28.9513
28.9486
28.9688
29.0154
29.0985
29.2084
29.3333
29.469
29.5959
29.7349
29.8251
29.9646
29.9504
29.4223
29.2557
29.2121
29.1336
29.0729
29.0215
28.9824
28.9551
28.9367
28.9302
28.9254
28.9331
28.9307
28.9427
28.9292
28.9366
28.9153
28.9101
28.9004
28.9143
28.9566
29.039
29.1501
29.2769
29.4142
29.5426
29.6838
29.7804
29.9212
29.914
29.3542
29.1979
29.1691
29.1038
29.0557
29.0122
28.9775
28.9522
28.9337
28.9265
28.9199
28.9259
28.9191
28.928
28.9079
28.9098
28.8796
28.8669
28.8504
28.8582
28.8966
28.9788
29.0915
29.2207
29.3598
29.4905
29.6329
29.7356
29.8766
29.878
29.2895
29.1415
29.1257
29.0739
29.0366
29.0017
28.9721
28.9494
28.9311
28.9233
28.9146
28.9187
28.9072
28.9129
28.8857
28.8818
28.8422
28.8223
28.7993
28.8016
28.8363
28.9188
29.0336
29.1656
29.3063
29.4406
29.5826
29.6913
29.8308
29.8435
29.2274
29.0856
29.082
29.0432
29.0163
28.989
28.9649
28.9452
28.9278
28.92
28.9095
28.9115
28.895
28.8972
28.8628
28.853
28.8038
28.7769
28.7478
28.7452
28.7766
28.8597
28.9771
29.1124
29.2546
29.3924
29.5345
29.6476
29.784
29.8103
29.1669
29.0308
29.0368
29.0105
28.9934
28.9739
28.9553
28.939
28.9233
28.916
28.9039
28.904
28.8828
28.881
28.8393
28.8238
28.7649
28.7313
28.6964
28.6896
28.7181
28.8022
28.9226
29.0608
29.2057
29.3471
29.4885
29.6038
29.7366
29.7788
29.1059
28.9749
28.9898
28.9758
28.9676
28.9555
28.9425
28.9302
28.9171
28.9106
28.8975
28.896
28.8704
28.8644
28.8154
28.7945
28.7262
28.686
28.6456
28.6352
28.6613
28.7466
28.8702
29.011
29.1593
29.3029
29.4439
29.5618
29.691
29.7497
29.0443
28.9189
28.9418
28.9384
28.9381
28.9332
28.9261
28.9182
28.908
28.9031
28.8895
28.8867
28.8572
28.8475
28.791
28.7653
28.6878
28.6412
28.5958
28.5823
28.6064
28.6933
28.8192
28.9623
29.114
29.2598
29.4019
29.5226
29.6489
29.7212
28.9811
28.862
28.8917
28.8975
28.904
28.9061
28.9051
28.902
28.8953
28.8925
28.8792
28.8758
28.8427
28.8297
28.7664
28.7361
28.6501
28.5972
28.5472
28.5308
28.5531
28.6414
28.7693
28.9147
29.0698
29.2188
29.3623
29.486
29.6104
29.6928
28.9131
28.8022
28.8384
28.8526
28.8657
28.8742
28.8791
28.8811
28.8786
28.878
28.8658
28.8624
28.8264
28.8107
28.7413
28.7074
28.6133
28.5542
28.4995
28.4805
28.5011
28.5905
28.7199
28.869
29.0273
29.1796
29.3248
29.4516
29.5744
29.665
28.8376
28.7398
28.7819
28.8038
28.8233
28.838
28.8485
28.8556
28.8575
28.8596
28.8491
28.8462
28.8078
28.7902
28.7154
28.6794
28.5774
28.5126
28.4525
28.4313
28.4503
28.54
28.6713
28.8246
28.986
29.1418
29.2889
29.4185
29.5402
29.6373
28.7532
28.6745
28.7221
28.7513
28.7769
28.7977
28.8138
28.8261
28.8325
28.8374
28.8291
28.8271
28.787
28.7683
28.6887
28.6518
28.5423
28.4722
28.4068
28.3829
28.3998
28.4893
28.6232
28.7802
28.9452
29.1047
29.254
29.3865
29.5075
29.6095
28.6592
28.6056
28.6583
28.6949
28.7268
28.7539
28.7758
28.7933
28.8043
28.8124
28.8067
28.8058
28.7645
28.7456
28.6616
28.6248
28.5086
28.4334
28.3612
28.3337
28.3485
28.439
28.5748
28.7353
28.9043
29.0675
29.2194
29.3548
29.4756
29.5819
28.556
28.5322
28.5904
28.6348
28.6736
28.7073
28.7354
28.7587
28.7743
28.7861
28.7832
28.7834
28.7417
28.7231
28.6353
28.599
28.4767
28.3954
28.3152
28.2839
28.2986
28.3899
28.5262
28.6894
28.8624
29.0298
29.1844
29.323
29.4441
29.554
28.4458
28.4533
28.5185
28.5715
28.6182
28.6595
28.6947
28.724
28.745
28.7608
28.7607
28.7619
28.72
28.702
28.611
28.5754
28.4469
28.3584
28.27
28.2374
28.2533
28.3429
28.4785
28.6431
28.8188
28.9907
29.1491
29.2907
29.4125
29.5263
28.3304
28.3672
28.4428
28.5061
28.5623
28.6123
28.6556
28.6918
28.719
28.7392
28.741
28.7427
28.7005
28.6835
28.5892
28.5555
28.4203
28.3263
28.2311
28.1973
28.2125
28.2987
28.4323
28.5977
28.7754
28.95
29.1119
29.2575
29.3808
29.4979
28.2086
28.2782
28.3678
28.4425
28.509
28.5687
28.6211
28.6653
28.6989
28.723
28.7254
28.7268
28.6844
28.6689
28.5712
28.5396
28.3971
28.2992
28.198
28.1601
28.1741
28.257
28.3882
28.5543
28.7339
28.9113
29.0758
29.2243
29.349
29.4715
28.0821
28.1927
28.2955
28.3815
28.4594
28.5311
28.5942
28.6462
28.6862
28.7138
28.716
28.7172
28.6754
28.663
28.5632
28.5373
28.3891
28.2882
28.1786
28.1332
28.1421
28.2177
28.3452
28.5117
28.6939
28.8754
29.0432
29.1945
29.3204
29.4462
27.9677
28.1194
28.2334
28.3325
28.4229
28.5068
28.5798
28.6384
28.6846
28.7189
28.7218
28.7246
28.6851
28.6785
28.5791
28.561
28.4063
28.3024
28.1799
28.131
28.1377
28.2114
28.3301
28.4901
28.672
28.8547
29.0243
29.1773
29.3029
29.4293
27.8784
28.057
28.1792
28.2913
28.3973
28.4948
28.5795
28.6545
28.7086
28.7474
28.7507
28.7567
28.7226
28.7239
28.627
28.6224
28.4636
28.3586
28.227
28.1692
28.1709
28.2318
28.3429
28.4981
28.6766
28.8602
29.0305
29.183
29.306
29.4296
27.8633
28.0536
28.1877
28.3134
28.4303
28.5366
28.6285
28.7075
28.7656
28.8077
28.8145
28.8252
28.7972
28.8126
28.724
28.7442
28.5903
28.493
28.3547
28.2872
28.2756
28.324
28.4191
28.5597
28.725
28.8968
29.059
29.2089
29.3322
29.4603
27.9473
28.1215
28.2541
28.3857
28.5075
28.6175
28.7102
28.7876
28.8439
28.886
28.8968
28.914
28.8933
28.9249
28.8502
28.9036
28.7623
28.6807
28.5455
28.4764
28.4564
28.4958
28.5779
28.7037
28.8587
29.0282
29.1958
29.3539
29.4861
29.6161
29.8454
29.6038
29.5371
29.3123
29.1349
29.0036
28.9195
28.8762
28.8578
28.8566
28.8679
28.8957
28.9134
28.9391
28.9321
28.9328
28.8992
28.8833
28.8607
28.8713
28.92
29.019
29.1517
29.3045
29.4704
29.6346
29.8026
29.93
30.0595
30.071
29.8211
29.5162
29.4704
29.2621
29.1098
28.9963
28.921
28.8802
28.8644
28.8652
28.8775
28.9054
28.9226
28.9476
28.9399
28.9414
28.9093
28.8965
28.8763
28.8858
28.9321
29.0313
29.164
29.3166
29.4818
29.6451
29.813
29.9383
30.0688
30.077
29.7844
29.4509
29.4131
29.2245
29.0901
28.9873
28.9197
28.8818
28.8677
28.8709
28.8841
28.9116
28.9271
28.9508
28.9409
28.9412
28.907
28.8926
28.8695
28.8741
28.9161
29.0194
29.156
29.3102
29.4761
29.6384
29.807
29.9308
30.0696
30.0718
29.7232
29.3875
29.3521
29.1784
29.0613
28.9705
28.9124
28.8815
28.8696
28.8757
28.8898
28.9169
28.9306
28.9529
28.9398
28.9378
28.8991
28.881
28.8538
28.8531
28.8897
28.989
29.1302
29.2877
29.4543
29.616
29.7853
29.9099
30.0574
30.0551
29.6441
29.3245
29.2893
29.1317
29.0306
28.9521
28.9027
28.8783
28.8701
28.879
28.8936
28.9203
28.9312
28.9519
28.9343
28.9284
28.8823
28.858
28.8251
28.8192
28.8513
28.9475
29.0865
29.2485
29.417
29.5793
29.75
29.8765
30.0324
30.0302
29.5529
29.2601
29.2256
29.0844
28.9984
28.9325
28.8921
28.8742
28.8702
28.8815
28.896
28.9223
28.9303
28.9488
28.9255
28.9141
28.8581
28.826
28.7863
28.7754
28.8039
28.8986
29.0366
29.199
29.3698
29.5335
29.7061
29.8344
29.9966
29.998
29.4563
29.195
29.163
29.0389
28.9681
28.9142
28.8826
28.8708
28.8701
28.8831
28.8973
28.9229
28.9283
28.944
28.9139
28.8956
28.8278
28.7862
28.739
28.724
28.7496
28.8443
28.9825
29.1444
29.3172
29.4825
29.6564
29.7872
29.9525
29.9612
29.3595
29.1303
29.1033
28.997
28.9414
28.8984
28.8749
28.8683
28.8699
28.8843
28.8979
28.9227
28.9253
28.9378
28.8998
28.8736
28.7922
28.7398
28.6852
28.6664
28.6904
28.7863
28.9261
29.088
29.2622
29.429
29.6032
29.737
29.903
29.9223
29.2646
29.067
29.0482
28.9604
28.9184
28.8853
28.8689
28.8668
28.8701
28.8856
28.8984
28.9224
28.9215
28.9306
28.8838
28.8486
28.7521
28.6883
28.6264
28.604
28.628
28.7265
28.8689
29.0313
29.207
29.3751
29.5487
29.686
29.8508
29.883
29.1751
29.008
28.998
28.9285
28.8989
28.8749
28.8646
28.8661
28.8708
28.8875
28.8991
28.9222
28.9171
28.9227
28.8662
28.8211
28.7085
28.6329
28.5639
28.5389
28.5643
28.6662
28.8123
28.9767
29.1541
29.3234
29.4956
29.6368
29.7983
29.8443
29.094
28.9538
28.9528
28.9007
28.8825
28.867
28.8621
28.8661
28.8725
28.8901
28.9002
28.9221
28.9123
28.9142
28.8472
28.7917
28.6622
28.5749
28.4993
28.4731
28.5003
28.607
28.7575
28.9251
29.1048
29.2757
29.4475
29.5896
29.7461
29.8073
29.0221
28.9025
28.9101
28.8753
28.8678
28.8603
28.8604
28.8675
28.8755
28.8933
28.9014
28.922
28.9072
28.9051
28.8272
28.7609
28.6137
28.5155
28.434
28.4074
28.4374
28.5499
28.7045
28.877
29.0596
29.2336
29.4035
29.5444
29.6963
29.773
28.9568
28.8535
28.8698
28.8516
28.8536
28.854
28.8587
28.8689
28.879
28.8969
28.9031
28.9217
28.9017
28.8954
28.8061
28.7289
28.564
28.4558
28.369
28.3425
28.3763
28.4952
28.6534
28.8325
29.0196
29.1958
29.362
29.5032
29.6514
29.7408
28.8968
28.8075
28.8317
28.8287
28.8389
28.8464
28.8559
28.8691
28.8821
28.9006
28.9052
28.9215
28.8957
28.8852
28.7842
28.696
28.5139
28.3969
28.3052
28.2793
28.3177
28.4433
28.6061
28.7931
28.9835
29.1593
29.3243
29.467
29.6119
29.7098
28.8411
28.7628
28.7957
28.805
28.823
28.8372
28.8517
28.8682
28.8837
28.9037
28.9072
28.9216
28.8895
28.8744
28.7616
28.6628
28.4641
28.3397
28.243
28.2185
28.2623
28.3942
28.5632
28.7556
28.948
29.1256
29.2912
29.4352
29.5769
29.6808
28.7872
28.7182
28.7602
28.7799
28.8053
28.8262
28.8458
28.8659
28.8834
28.9058
28.9084
28.9217
28.8831
28.8632
28.7384
28.6297
28.4153
28.2846
28.1833
28.1608
28.2103
28.3469
28.5212
28.7181
28.9149
29.0958
29.2622
29.4073
29.5459
29.654
28.7329
28.6737
28.7243
28.753
28.7852
28.8128
28.8377
28.8618
28.8817
28.9057
28.9082
28.9212
28.8766
28.852
28.7145
28.597
28.3682
28.2318
28.127
28.1062
28.1599
28.2996
28.4806
28.6832
28.8845
29.0692
29.2366
29.3827
29.5187
29.6295
28.6773
28.6287
28.6871
28.7239
28.7628
28.7967
28.8272
28.8559
28.8786
28.9044
28.9072
28.9198
28.8697
28.841
28.6908
28.5654
28.3234
28.183
28.0736
28.0526
28.1091
28.2538
28.4421
28.6498
28.8561
29.0451
29.214
29.3612
29.4947
29.6075
28.6167
28.5816
28.6477
28.6924
28.7379
28.7783
28.8145
28.8481
28.874
28.9019
28.9051
28.9174
28.8626
28.8306
28.668
28.5365
28.2819
28.1373
28.0207
27.9997
28.0607
28.2098
28.4017
28.6167
28.8289
29.0226
29.1939
29.3422
29.4736
29.588
28.5485
28.5314
28.6054
28.6582
28.7105
28.7577
28.7999
28.8387
28.8681
28.8985
28.9022
28.9147
28.8557
28.8213
28.6472
28.5109
28.2433
28.094
27.9699
27.9512
28.016
28.164
28.3605
28.5835
28.8017
29.0007
29.1752
29.3251
29.455
29.5708
28.4727
28.4769
28.5595
28.621
28.6812
28.7356
28.7838
28.8279
28.8613
28.8947
28.8992
28.9126
28.8499
28.8139
28.629
28.4885
28.2066
28.0582
27.9275
27.9083
27.9701
28.1155
28.3193
28.549
28.7736
28.9782
29.157
29.3094
29.4382
29.5555
28.3895
28.4159
28.5092
28.5817
28.6505
28.7125
28.7671
28.8165
28.8542
28.891
28.8974
28.9128
28.8466
28.8104
28.6135
28.4706
28.178
28.0311
27.8928
27.8688
27.9228
28.0671
28.2772
28.5129
28.7437
28.9538
29.1376
29.2945
29.4231
29.5422
28.2968
28.3504
28.4565
28.5411
28.6194
28.6893
28.7504
28.8053
28.8476
28.8881
28.8967
28.9144
28.8471
28.8113
28.6005
28.4601
28.159
28.0077
27.8585
27.8284
27.8797
28.0237
28.2339
28.475
28.712
28.928
29.1158
29.2776
29.4088
29.5302
28.1958
28.2834
28.4031
28.5006
28.5889
28.667
28.7347
28.7953
28.8424
28.8866
28.8981
28.9175
28.8492
28.8149
28.5918
28.4585
28.1461
27.99
27.8292
27.797
27.847
27.9865
28.1935
28.4353
28.679
28.9012
29.094
29.2595
29.3931
29.5196
28.0893
28.2186
28.3514
28.4622
28.5603
28.6464
28.7207
28.787
28.8388
28.8866
28.902
28.9234
28.8536
28.8228
28.5925
28.4676
28.1357
27.9794
27.8111
27.7779
27.8247
27.9622
28.1619
28.3995
28.6466
28.8757
29.074
29.2443
29.3806
29.5108
27.9846
28.1571
28.3034
28.4266
28.5338
28.6279
28.709
28.7809
28.8372
28.8922
28.9096
28.9342
28.8643
28.8387
28.6031
28.4865
28.1323
27.9811
27.8051
27.7718
27.8156
27.9488
28.1424
28.3776
28.6207
28.8548
29.0596
29.2349
29.3745
29.5064
27.8911
28.1033
28.2608
28.395
28.5113
28.6133
28.7008
28.778
28.8417
28.9047
28.9256
28.9557
28.8841
28.8681
28.629
28.5339
28.1686
28.026
27.8364
27.7956
27.8284
27.9576
28.1464
28.3745
28.6133
28.8458
29.0552
29.2354
29.3767
29.5086
27.8255
28.059
28.2243
28.37
28.4943
28.6042
28.6984
28.786
28.8593
28.9268
28.9509
28.9882
28.9174
28.9162
28.6744
28.6148
28.2419
28.1092
27.9089
27.8639
27.8873
27.9999
28.1739
28.3925
28.6237
28.85
29.0577
29.2415
29.3868
29.5212
27.7855
28.0264
28.1983
28.3522
28.4859
28.6038
28.7089
28.8048
28.8813
28.9506
28.9773
29.0212
28.9548
28.9737
28.7342
28.7241
28.3492
28.2308
28.0228
27.9725
27.9833
28.0766
28.2301
28.4338
28.6565
28.8788
29.0808
29.2592
29.4025
29.5401
27.7978
28.0164
28.1875
28.345
28.4827
28.6074
28.7188
28.8192
28.8978
28.9693
28.9998
29.0486
28.9901
29.0308
28.8029
28.8543
28.4881
28.3904
28.1807
28.1267
28.1248
28.2008
28.3303
28.5103
28.7126
28.9216
29.1192
29.3012
29.454
29.5965
29.8731
29.5868
29.5314
29.2807
29.0788
28.9324
28.8425
28.8054
28.7953
28.8146
28.8453
28.9004
28.9394
29.0011
29.006
29.0219
28.9448
28.8572
28.7259
28.6554
28.6565
28.7438
28.8893
29.0598
29.2435
29.4283
29.626
29.7907
29.9731
30.0089
29.8339
29.47
29.4447
29.2118
29.0417
28.9176
28.8421
28.8087
28.803
28.8253
28.8573
28.9125
28.9508
29.0124
29.016
29.0343
28.9608
28.8803
28.752
28.677
28.6677
28.7519
28.8962
29.0664
29.2507
29.4365
29.6359
29.8006
29.9853
30.019
29.7848
29.375
29.3687
29.1586
29.013
28.9043
28.8395
28.8107
28.8093
28.8346
28.8672
28.9226
28.9592
29.0211
29.0225
29.0427
28.967
28.8814
28.7482
28.6722
28.6562
28.7388
28.8865
29.0586
29.2445
29.4307
29.6304
29.7918
29.9817
30.0144
29.7038
29.288
29.2887
29.0957
28.9733
28.8822
28.8299
28.8105
28.8142
28.8426
28.8759
28.9318
28.9666
29.0294
29.0274
29.0493
28.9662
28.8756
28.7358
28.6555
28.6314
28.7053
28.8553
29.031
29.2185
29.4048
29.6049