/*--------------------------------*- C++ -*----------------------------------*\
  =========                 |
  \\      /  F ield         | OpenFOAM: The Open Source CFD Toolbox
   \\    /   O peration     | Website:  https://openfoam.org
    \\  /    A nd           | Version:  12
     \\/     M anipulation  |
\*---------------------------------------------------------------------------*/
FoamFile
{
    format      ascii;
    class       volScalarField;
    location    "1650/air";
    object      T;
}
// * * * * * * * * * * * * * * * * * * * * * * * * * * * * * * * * * * * * * //

dimensions      [0 0 0 1 0 0 0];

internalField   nonuniform List<scalar> 
243000
(
300.966
300.927
300.902
300.883
300.867
300.853
300.84
300.828
300.817
300.805
300.794
300.784
300.773
300.762
300.751
300.739
300.727
300.714
300.7
300.683
300.662
300.638
300.611
300.583
300.554
300.529
300.506
300.487
300.471
300.446
301.065
300.98
300.934
300.903
300.88
300.861
300.845
300.831
300.817
300.805
300.793
300.781
300.77
300.758
300.747
300.735
300.723
300.709
300.694
300.678
300.658
300.635
300.609
300.582
300.555
300.529
300.505
300.486
300.469
300.452
301.215
301.057
300.979
300.931
300.898
300.873
300.852
300.835
300.82
300.806
300.793
300.781
300.768
300.756
300.744
300.732
300.719
300.705
300.69
300.673
300.654
300.633
300.608
300.582
300.556
300.53
300.507
300.486
300.469
300.454
301.405
301.17
301.046
300.973
300.925
300.891
300.865
300.844
300.826
300.81
300.795
300.782
300.769
300.756
300.743
300.73
300.716
300.702
300.687
300.671
300.652
300.631
300.608
300.583
300.558
300.533
300.51
300.488
300.47
300.455
301.622
301.328
301.148
301.038
300.967
300.919
300.884
300.857
300.835
300.816
300.8
300.784
300.77
300.756
300.743
300.729
300.715
300.7
300.685
300.668
300.65
300.63
300.608
300.584
300.56
300.536
300.513
300.491
300.472
300.456
301.841
301.532
301.293
301.134
301.031
300.961
300.912
300.877
300.849
300.826
300.807
300.789
300.773
300.758
300.744
300.729
300.714
300.699
300.683
300.667
300.649
300.629
300.608
300.585
300.562
300.539
300.516
300.495
300.475
300.459
301.996
301.737
301.472
301.267
301.122
301.022
300.954
300.905
300.869
300.84
300.817
300.796
300.778
300.762
300.746
300.73
300.715
300.699
300.683
300.666
300.648
300.629
300.608
300.587
300.565
300.542
300.52
300.499
300.479
300.462
302.096
301.91
301.662
301.428
301.242
301.108
301.013
300.946
300.897
300.86
300.831
300.807
300.786
300.767
300.75
300.733
300.716
300.699
300.683
300.665
300.648
300.629
300.609
300.589
300.567
300.546
300.524
300.503
300.483
300.466
302.157
302.04
301.841
301.608
301.393
301.221
301.094
301.002
300.936
300.887
300.85
300.821
300.796
300.775
300.755
300.737
300.719
300.701
300.683
300.666
300.648
300.63
300.61
300.591
300.57
300.549
300.528
300.508
300.488
300.47
302.192
302.124
301.989
301.789
301.567
301.365
301.203
301.081
300.991
300.926
300.877
300.84
300.81
300.785
300.763
300.742
300.723
300.704
300.685
300.667
300.649
300.631
300.612
300.593
300.573
300.553
300.533
300.513
300.493
300.475
302.218
302.177
302.095
301.95
301.75
301.536
301.343
301.187
301.068
300.979
300.914
300.866
300.828
300.798
300.772
300.749
300.728
300.708
300.689
300.669
300.651
300.632
300.614
300.595
300.576
300.557
300.537
300.518
300.498
300.48
302.241
302.212
302.163
302.071
301.917
301.719
301.51
301.323
301.171
301.054
300.966
300.901
300.853
300.816
300.785
300.759
300.736
300.714
300.693
300.673
300.654
300.635
300.617
300.598
300.58
300.561
300.542
300.523
300.504
300.486
302.264
302.24
302.208
302.151
302.049
301.89
301.692
301.487
301.304
301.154
301.038
300.952
300.888
300.84
300.802
300.772
300.745
300.721
300.698
300.677
300.657
300.638
300.62
300.601
300.583
300.565
300.546
300.528
300.51
300.492
302.286
302.265
302.241
302.204
302.139
302.027
301.863
301.665
301.464
301.283
301.135
301.021
300.936
300.873
300.825
300.788
300.757
300.73
300.705
300.683
300.662
300.642
300.623
300.605
300.587
300.569
300.551
300.533
300.515
300.498
302.307
302.287
302.266
302.239
302.198
302.125
302.004
301.836
301.637
301.437
301.259
301.113
301.001
300.918
300.857
300.81
300.773
300.742
300.715
300.69
300.668
300.647
300.628
300.609
300.592
300.574
300.556
300.539
300.521
300.504
302.325
302.306
302.287
302.265
302.235
302.188
302.106
301.978
301.804
301.604
301.406
301.23
301.089
300.98
300.9
300.84
300.794
300.757
300.726
300.699
300.675
300.653
300.633
300.614
300.596
300.579
300.562
300.545
300.527
300.51
302.341
302.323
302.304
302.285
302.261
302.227
302.173
302.082
301.945
301.766
301.565
301.369
301.199
301.062
300.958
300.88
300.822
300.777
300.741
300.71
300.684
300.661
300.64
300.62
300.602
300.584
300.567
300.55
300.533
300.517
302.353
302.335
302.317
302.299
302.278
302.252
302.214
302.152
302.052
301.905
301.721
301.52
301.329
301.164
301.033
300.934
300.86
300.804
300.76
300.725
300.695
300.67
300.647
300.627
300.608
300.59
300.573
300.556
300.539
300.523
302.36
302.342
302.325
302.308
302.289
302.267
302.239
302.195
302.124
302.013
301.858
301.67
301.471
301.285
301.128
301.004
300.91
300.84
300.786
300.744
300.71
300.681
300.656
300.635
300.615
300.596
300.579
300.562
300.546
300.529
302.361
302.345
302.329
302.312
302.294
302.275
302.252
302.22
302.17
302.089
301.967
301.803
301.613
301.418
301.24
301.092
300.976
300.887
300.82
300.769
300.728
300.695
300.668
300.644
300.623
300.604
300.586
300.569
300.552
300.536
302.355
302.34
302.325
302.31
302.294
302.277
302.257
302.232
302.196
302.138
302.046
301.913
301.743
301.552
301.364
301.195
301.057
300.948
300.865
300.802
300.753
300.714
300.682
300.656
300.633
300.613
300.594
300.576
300.559
300.543
302.341
302.327
302.313
302.3
302.286
302.271
302.255
302.235
302.208
302.166
302.099
301.996
301.853
301.679
301.491
301.311
301.153
301.025
300.923
300.845
300.785
300.739
300.702
300.671
300.645
300.623
300.603
300.585
300.567
300.551
302.317
302.305
302.293
302.282
302.27
302.258
302.245
302.23
302.21
302.179
302.131
302.053
301.939
301.789
301.613
301.431
301.262
301.115
300.995
300.901
300.828
300.771
300.727
300.691
300.661
300.636
300.615
300.595
300.577
300.56
302.282
302.273
302.265
302.256
302.248
302.239
302.229
302.218
302.204
302.182
302.147
302.09
302.002
301.878
301.723
301.549
301.376
301.217
301.082
300.971
300.883
300.814
300.76
300.717
300.682
300.653
300.629
300.607
300.588
300.57
302.237
302.231
302.227
302.222
302.218
302.213
302.207
302.2
302.191
302.176
302.151
302.11
302.044
301.946
301.814
301.658
301.49
301.327
301.18
301.054
300.951
300.868
300.803
300.751
300.709
300.675
300.647
300.623
300.601
300.582
302.178
302.178
302.179
302.179
302.18
302.18
302.178
302.176
302.17
302.161
302.145
302.116
302.067
301.991
301.885
301.751
301.597
301.438
301.285
301.149
301.032
300.936
300.858
300.795
300.745
300.704
300.67
300.642
300.617
300.596
302.104
302.111
302.117
302.124
302.13
302.135
302.138
302.139
302.138
302.132
302.121
302.101
302.066
302.009
301.926
301.816
301.683
301.536
301.388
301.248
301.122
301.014
300.924
300.85
300.79
300.741
300.7
300.666
300.637
300.613
302.002
302.015
302.028
302.04
302.05
302.058
302.063
302.065
302.063
302.057
302.047
302.03
302.003
301.96
301.896
301.811
301.704
301.581
301.449
301.318
301.195
301.083
300.987
300.904
300.835
300.778
300.731
300.691
300.658
300.63
301.791
301.802
301.813
301.823
301.829
301.83
301.825
301.816
301.803
301.786
301.767
301.744
301.717
301.682
301.635
301.574
301.502
301.416
301.32
301.221
301.123
301.031
300.948
300.875
300.812
300.758
300.713
300.674
300.642
300.614
300.897
300.894
300.908
300.919
300.922
300.916
300.906
300.893
300.878
300.861
300.844
300.829
300.811
300.79
300.765
300.737
300.707
300.671
300.632
300.59
300.549
300.511
300.477
300.448
300.422
300.4
300.381
300.366
300.352
300.34
300.923
300.891
300.87
300.853
300.839
300.825
300.813
300.801
300.79
300.778
300.767
300.756
300.745
300.733
300.721
300.708
300.694
300.678
300.658
300.634
300.604
300.57
300.535
300.502
300.474
300.449
300.43
300.414
300.401
300.384
300.961
300.916
300.886
300.863
300.845
300.829
300.814
300.801
300.788
300.776
300.764
300.752
300.74
300.728
300.716
300.702
300.688
300.671
300.652
300.629
300.601
300.57
300.538
300.507
300.478
300.454
300.434
300.416
300.402
300.387
300.998
300.945
300.908
300.88
300.857
300.838
300.821
300.806
300.791
300.778
300.765
300.752
300.739
300.725
300.712
300.698
300.682
300.666
300.647
300.624
300.599
300.57
300.54
300.511
300.483
300.459
300.438
300.42
300.405
300.39
301.039
300.981
300.939
300.905
300.877
300.854
300.833
300.815
300.798
300.783
300.768
300.753
300.739
300.725
300.71
300.695
300.679
300.661
300.642
300.621
300.596
300.57
300.542
300.514
300.488
300.464
300.443
300.425
300.408
300.393
301.085
301.028
300.981
300.942
300.908
300.879
300.853
300.831
300.811
300.792
300.775
300.759
300.743
300.727
300.71
300.694
300.677
300.658
300.639
300.618
300.595
300.57
300.544
300.517
300.493
300.469
300.448
300.429
300.412
300.397
301.145
301.093
301.041
300.994
300.952
300.915
300.883
300.855
300.83
300.807
300.787
300.767
300.749
300.731
300.713
300.695
300.676
300.657
300.637
300.616
300.593
300.57
300.545
300.521
300.497
300.474
300.454
300.434
300.417
300.401
301.23
301.186
301.127
301.067
301.013
300.966
300.924
300.888
300.857
300.829
300.804
300.781
300.759
300.738
300.718
300.698
300.677
300.657
300.636
300.615
300.593
300.57
300.547
300.524
300.501
300.479
300.459
300.44
300.422
300.406
301.321
301.298
301.24
301.168
301.097
301.034
300.98
300.934
300.894
300.858
300.827
300.799
300.774
300.75
300.727
300.704
300.681
300.659
300.636
300.615
300.593
300.571
300.549
300.527
300.505
300.484
300.464
300.445
300.427
300.411
301.406
301.404
301.357
301.282
301.2
301.121
301.052
300.993
300.942
300.897
300.859
300.824
300.793
300.765
300.738
300.713
300.687
300.663
300.639
300.616
300.594
300.573
300.551
300.53
300.509
300.489
300.47
300.451
300.433
300.416
301.477
301.493
301.466
301.401
301.314
301.223
301.139
301.065
301.002
300.947
300.899
300.857
300.819
300.786
300.754
300.725
300.696
300.669
300.644
300.619
300.597
300.575
300.554
300.534
300.514
300.494
300.475
300.457
300.439
300.422
301.54
301.567
301.559
301.513
301.434
301.338
301.242
301.153
301.075
301.007
300.949
300.897
300.852
300.812
300.775
300.741
300.709
300.679
300.651
300.625
300.601
300.579
300.558
300.538
300.518
300.5
300.481
300.463
300.445
300.429
301.6
301.629
301.635
301.609
301.548
301.459
301.357
301.256
301.163
301.081
301.01
300.948
300.893
300.845
300.802
300.762
300.725
300.691
300.66
300.632
300.607
300.584
300.563
300.543
300.524
300.505
300.487
300.47
300.452
300.436
301.66
301.686
301.698
301.688
301.647
301.574
301.477
301.37
301.265
301.168
301.083
301.009
300.944
300.886
300.835
300.788
300.746
300.708
300.673
300.642
300.615
300.591
300.569
300.548
300.529
300.511
300.493
300.476
300.459
300.443
301.722
301.741
301.754
301.753
301.729
301.676
301.594
301.491
301.379
301.27
301.171
301.082
301.004
300.937
300.876
300.822
300.773
300.729
300.69
300.656
300.626
300.6
300.577
300.555
300.536
300.518
300.5
300.483
300.466
300.45
301.784
301.796
301.806
301.808
301.795
301.759
301.696
301.606
301.498
301.383
301.271
301.169
301.077
300.997
300.926
300.862
300.806
300.755
300.711
300.673
300.639
300.611
300.586
300.564
300.544
300.525
300.507
300.49
300.473
300.457
301.846
301.852
301.856
301.857
301.849
301.825
301.779
301.707
301.611
301.499
301.381
301.267
301.162
301.069
300.986
300.912
300.846
300.788
300.737
300.694
300.657
300.625
300.598
300.574
300.553
300.533
300.515
300.498
300.481
300.465
301.907
301.906
301.905
301.902
301.894
301.877
301.844
301.789
301.709
301.608
301.493
301.373
301.258
301.152
301.057
300.972
300.896
300.829
300.77
300.72
300.678
300.642
300.612
300.586
300.563
300.543
300.524
300.506
300.489
300.473
301.963
301.956
301.95
301.943
301.933
301.918
301.892
301.851
301.788
301.702
301.597
301.48
301.36
301.245
301.138
301.041
300.954
300.877
300.81
300.753
300.705
300.664
300.63
300.601
300.576
300.554
300.534
300.516
300.498
300.482
302.012
302.001
301.991
301.979
301.967
301.951
301.929
301.896
301.847
301.777
301.687
301.579
301.462
301.342
301.227
301.12
301.022
300.935
300.859
300.793
300.738
300.691
300.652
300.62
300.592
300.568
300.546
300.527
300.509
300.492
302.051
302.037
302.023
302.009
301.993
301.976
301.955
301.927
301.888
301.832
301.758
301.664
301.555
301.438
301.32
301.205
301.099
301.002
300.916
300.841
300.778
300.724
300.68
300.643
300.611
300.584
300.561
300.54
300.521
300.503
302.078
302.062
302.046
302.029
302.011
301.993
301.972
301.946
301.914
301.869
301.809
301.731
301.635
301.527
301.411
301.295
301.182
301.078
300.983
300.899
300.826
300.765
300.714
300.671
300.635
300.605
300.579
300.555
300.534
300.516
302.09
302.073
302.055
302.037
302.019
302
301.979
301.955
301.927
301.891
301.842
301.778
301.698
301.602
301.496
301.383
301.269
301.16
301.058
300.965
300.884
300.815
300.756
300.707
300.665
300.63
300.6
300.574
300.551
300.531
302.086
302.069
302.052
302.034
302.016
301.997
301.977
301.955
301.93
301.899
301.86
301.809
301.743
301.663
301.568
301.464
301.355
301.245
301.139
301.04
300.951
300.873
300.806
300.75
300.702
300.662
300.627
300.597
300.571
300.548
302.06
302.045
302.03
302.014
301.997
301.98
301.962
301.943
301.921
301.895
301.864
301.823
301.77
301.705
301.625
301.534
301.434
301.329
301.223
301.121
301.026
300.941
300.866
300.802
300.747
300.7
300.66
300.625
300.596
300.57
302.013
302.001
301.988
301.975
301.962
301.947
301.932
301.916
301.897
301.876
301.851
301.818
301.777
301.725
301.66
301.583
301.496
301.401
301.301
301.201
301.105
301.015
300.934
300.862
300.8
300.746
300.699
300.66
300.625
300.595
301.941
301.932
301.923
301.913
301.903
301.892
301.88
301.867
301.852
301.834
301.813
301.787
301.754
301.713
301.661
301.597
301.524
301.442
301.353
301.262
301.17
301.081
300.998
300.922
300.854
300.795
300.743
300.698
300.659
300.625
301.835
301.829
301.822
301.815
301.809
301.801
301.792
301.781
301.768
301.751
301.732
301.71
301.682
301.647
301.603
301.549
301.488
301.419
301.343
301.263
301.181
301.101
301.025
300.953
300.887
300.828
300.775
300.728
300.686
300.65
301.668
301.659
301.653
301.649
301.646
301.642
301.635
301.624
301.609
301.59
301.57
301.547
301.521
301.488
301.447
301.399
301.347
301.29
301.227
301.16
301.092
301.024
300.96
300.9
300.845
300.796
300.751
300.711
300.675
300.643
301.363
301.338
301.329
301.331
301.334
301.333
301.326
301.312
301.293
301.27
301.247
301.224
301.198
301.168
301.131
301.088
301.043
300.994
300.943
300.891
300.84
300.791
300.746
300.707
300.672
300.641
300.614
300.591
300.569
300.548
300.757
300.753
300.761
300.773
300.784
300.789
300.789
300.785
300.776
300.764
300.751
300.737
300.72
300.699
300.673
300.642
300.611
300.577
300.541
300.505
300.471
300.438
300.41
300.385
300.363
300.345
300.329
300.315
300.304
300.293
300.892
300.868
300.85
300.835
300.822
300.809
300.797
300.785
300.773
300.762
300.75
300.739
300.727
300.715
300.702
300.687
300.671
300.652
300.626
300.593
300.555
300.515
300.479
300.449
300.425
300.407
300.392
300.38
300.369
300.349
300.898
300.871
300.85
300.832
300.817
300.803
300.79
300.778
300.766
300.754
300.743
300.731
300.719
300.706
300.692
300.678
300.661
300.642
300.618
300.587
300.553
300.517
300.484
300.455
300.431
300.412
300.396
300.383
300.371
300.354
300.906
300.878
300.856
300.837
300.82
300.805
300.791
300.778
300.765
300.753
300.74
300.727
300.714
300.701
300.686
300.671
300.653
300.634
300.61
300.582
300.551
300.519
300.488
300.46
300.437
300.417
300.4
300.386
300.373
300.358
300.918
300.891
300.868
300.848
300.83
300.813
300.798
300.783
300.769
300.755
300.742
300.728
300.713
300.698
300.683
300.666
300.647
300.627
300.604
300.578
300.549
300.52
300.491
300.465
300.442
300.422
300.405
300.39
300.376
300.362
300.934
300.909
300.886
300.865
300.845
300.827
300.81
300.793
300.778
300.762
300.747
300.731
300.716
300.699
300.682
300.664
300.644
300.623
300.6
300.575
300.548
300.521
300.494
300.469
300.447
300.428
300.41
300.395
300.38
300.365
300.956
300.934
300.912
300.891
300.869
300.849
300.829
300.81
300.792
300.774
300.756
300.739
300.721
300.703
300.684
300.664
300.642
300.62
300.597
300.573
300.548
300.522
300.497
300.474
300.453
300.433
300.416
300.399
300.384
300.369
300.987
300.969
300.948
300.926
300.903
300.88
300.857
300.835
300.813
300.792
300.771
300.751
300.731
300.711
300.689
300.667
300.643
300.619
300.596
300.572
300.548
300.524
300.5
300.478
300.458
300.439
300.421
300.405
300.389
300.374
301.026
301.013
300.996
300.974
300.949
300.922
300.895
300.868
300.842
300.817
300.792
300.769
300.745
300.722
300.698
300.672
300.647
300.621
300.596
300.572
300.549
300.526
300.504
300.483
300.463
300.445
300.427
300.41
300.394
300.379
301.074
301.072
301.061
301.039
301.011
300.978
300.945
300.911
300.88
300.849
300.82
300.792
300.765
300.738
300.71
300.682
300.653
300.625
300.599
300.574
300.551
300.529
300.508
300.488
300.469
300.451
300.433
300.416
300.4
300.384
301.133
301.14
301.135
301.116
301.085
301.047
301.007
300.967
300.928
300.891
300.856
300.823
300.79
300.759
300.727
300.695
300.663
300.633
300.604
300.579
300.555
300.533
300.512
300.493
300.474
300.457
300.439
300.423
300.406
300.39
301.198
301.212
301.212
301.198
301.168
301.128
301.081
301.034
300.987
300.943
300.901
300.861
300.823
300.786
300.75
300.713
300.677
300.644
300.613
300.586
300.561
300.539
300.518
300.499
300.481
300.463
300.446
300.429
300.413
300.397
301.267
301.284
301.29
301.281
301.256
301.215
301.165
301.111
301.056
301.004
300.954
300.907
300.862
300.82
300.778
300.736
300.696
300.659
300.625
300.595
300.569
300.546
300.525
300.506
300.488
300.47
300.453
300.437
300.42
300.404
301.339
301.356
301.366
301.362
301.342
301.306
301.255
301.197
301.136
301.075
301.017
300.962
300.91
300.861
300.812
300.765
300.72
300.678
300.641
300.609
300.58
300.556
300.534
300.514
300.495
300.478
300.461
300.444
300.427
300.411
301.414
301.429
301.439
301.439
301.425
301.394
301.347
301.288
301.223
301.155
301.089
301.026
300.966
300.909
300.854
300.8
300.75
300.703
300.662
300.626
300.595
300.568
300.544
300.524
300.504
300.486
300.469
300.452
300.435
300.419
301.491
301.503
301.512
301.512
301.502
301.477
301.436
301.38
301.314
301.242
301.169
301.098
301.03
300.966
300.903
300.843
300.786
300.734
300.688
300.647
300.613
300.583
300.558
300.535
300.515
300.496
300.478
300.461
300.443
300.427
301.569
301.578
301.582
301.582
301.573
301.553
301.518
301.467
301.404
301.331
301.254
301.177
301.101
301.029
300.96
300.892
300.829
300.771
300.719
300.674
300.635
300.602
300.574
300.549
300.527
300.507
300.489
300.471
300.453
300.437
301.647
301.651
301.651
301.648
301.638
301.62
301.59
301.547
301.489
301.419
301.341
301.26
301.178
301.1
301.023
300.949
300.88
300.816
300.758
300.707
300.663
300.626
300.594
300.566
300.542
300.52
300.501
300.482
300.464
300.447
301.722
301.72
301.716
301.709
301.698
301.681
301.654
301.615
301.564
301.499
301.424
301.343
301.258
301.175
301.092
301.013
300.937
300.867
300.803
300.746
300.697
300.654
300.618
300.587
300.56
300.536
300.515
300.495
300.476
300.458
301.789
301.784
301.776
301.765
301.751
301.733
301.708
301.673
301.628
301.57
301.5
301.421
301.338
301.252
301.166
301.082
301.001
300.925
300.855
300.792
300.736
300.689
300.648
300.613
300.582
300.555
300.531
300.51
300.489
300.471
301.847
301.838
301.827
301.813
301.797
301.777
301.752
301.72
301.679
301.628
301.565
301.493
301.413
301.328
301.241
301.154
301.07
300.989
300.914
300.845
300.783
300.729
300.683
300.643
300.609
300.578
300.552
300.527
300.505
300.485
301.891
301.879
301.866
301.85
301.832
301.811
301.786
301.756
301.719
301.674
301.619
301.554
301.48
301.399
301.315
301.228
301.143
301.059
300.979
300.905
300.837
300.778
300.725
300.68
300.641
300.606
300.576
300.548
300.524
300.502
301.917
301.905
301.89
301.874
301.855
301.833
301.809
301.781
301.747
301.707
301.659
301.602
301.536
301.463
301.384
301.302
301.218
301.134
301.051
300.972
300.899
300.834
300.775
300.724
300.679
300.639
300.604
300.573
300.546
300.521
301.925
301.912
301.898
301.881
301.863
301.842
301.819
301.792
301.762
301.727
301.686
301.637
301.579
301.515
301.444
301.368
301.289
301.208
301.126
301.045
300.968
300.897
300.833
300.775
300.724
300.678
300.638
300.603
300.571
300.544
301.908
301.897
301.884
301.87
301.853
301.834
301.813
301.79
301.763
301.732
301.696
301.653
301.604
301.548
301.486
301.419
301.348
301.273
301.195
301.117
301.039
300.965
300.895
300.832
300.775
300.723
300.678
300.637
300.601
300.57
301.865
301.857
301.846
301.834
301.82
301.804
301.786
301.765
301.742
301.714
301.682
301.644
301.602
301.553
301.499
301.439
301.376
301.309
301.24
301.169
301.096
301.024
300.954
300.888
300.827
300.771
300.72
300.675
300.634
300.599
301.79
301.784
301.776
301.767
301.755
301.742
301.727
301.709
301.687
301.661
301.632
301.598
301.559
301.514
301.464
301.408
301.351
301.292
301.233
301.171
301.11
301.047
300.984
300.922
300.863
300.808
300.756
300.709
300.665
300.627
301.671
301.663
301.655
301.648
301.64
301.631
301.618
301.603
301.582
301.557
301.528
301.495
301.457
301.412
301.362
301.305
301.25
301.197
301.146
301.096
301.047
300.999
300.949
300.9
300.851
300.804
300.759
300.716
300.676
300.64
301.48
301.466
301.455
301.449
301.446
301.443
301.436
301.422
301.402
301.376
301.346
301.312
301.275
301.232
301.182
301.126
301.075
301.024
300.977
300.932
300.889
300.849
300.814
300.783
300.755
300.726
300.695
300.665
300.635
300.607
301.168
301.152
301.145
301.146
301.15
301.152
301.149
301.139
301.123
301.1
301.074
301.045
301.012
300.974
300.927
300.875
300.828
300.782
300.74
300.701
300.665
300.633
300.605
300.581
300.561
300.544
300.531
300.517
300.504
300.489
300.688
300.691
300.702
300.717
300.733
300.745
300.752
300.754
300.749
300.738
300.723
300.705
300.681
300.652
300.615
300.573
300.535
300.498
300.464
300.433
300.405
300.38
300.36
300.342
300.328
300.315
300.304
300.295
300.285
300.276
300.887
300.861
300.842
300.826
300.812
300.798
300.786
300.773
300.761
300.749
300.737
300.725
300.713
300.7
300.686
300.671
300.653
300.629
300.595
300.553
300.509
300.469
300.437
300.414
300.396
300.383
300.373
300.365
300.356
300.345
300.88
300.851
300.83
300.813
300.798
300.785
300.773
300.761
300.749
300.738
300.726
300.714
300.702
300.688
300.674
300.658
300.64
300.616
300.586
300.548
300.509
300.473
300.443
300.42
300.402
300.388
300.377
300.367
300.357
300.346
300.877
300.85
300.829
300.811
300.796
300.782
300.769
300.756
300.744
300.732
300.72
300.707
300.694
300.68
300.665
300.648
300.629
300.606
300.577
300.544
300.509
300.476
300.448
300.426
300.408
300.393
300.381
300.369
300.359
300.347
300.88
300.855
300.834
300.816
300.8
300.785
300.771
300.758
300.745
300.732
300.719
300.705
300.691
300.676
300.659
300.641
300.621
300.598
300.57
300.54
300.509
300.479
300.453
300.431
300.414
300.398
300.385
300.373
300.361
300.348
300.887
300.864
300.844
300.826
300.809
300.794
300.779
300.764
300.75
300.736
300.721
300.706
300.691
300.674
300.656
300.636
300.615
300.591
300.565
300.537
300.508
300.481
300.457
300.437
300.419
300.404
300.39
300.376
300.364
300.351
300.9
300.88
300.861
300.843
300.825
300.809
300.792
300.776
300.76
300.744
300.728
300.712
300.694
300.676
300.656
300.634
300.611
300.587
300.562
300.535
300.509
300.484
300.462
300.443
300.425
300.41
300.395
300.381
300.367
300.353
300.919
300.902
300.885
300.867
300.848
300.83
300.812
300.794
300.776
300.758
300.739
300.721
300.702
300.681
300.659
300.634
300.609
300.584
300.56
300.535
300.51
300.488
300.467
300.449
300.432
300.416
300.401
300.386
300.371
300.357
300.947
300.933
300.916
300.898
300.879
300.859
300.839
300.818
300.797
300.777
300.756
300.735
300.713
300.69
300.665
300.638
300.611
300.584
300.559
300.535
300.512
300.491
300.472
300.455
300.438
300.422
300.407
300.391
300.376
300.361
300.983
300.972
300.957
300.939
300.919
300.897
300.874
300.85
300.826
300.802
300.778
300.754
300.729
300.703
300.675
300.645
300.615
300.587
300.561
300.537
300.516
300.496
300.478
300.461
300.445
300.429
300.413
300.397
300.381
300.365
301.026
301.019
301.007
300.991
300.969
300.945
300.918
300.891
300.863
300.835
300.807
300.779
300.751
300.721
300.689
300.655
300.622
300.592
300.566
300.542
300.521
300.502
300.484
300.468
300.452
300.436
300.42
300.403
300.386
300.37
301.078
301.075
301.066
301.05
301.029
301.002
300.972
300.941
300.908
300.876
300.844
300.811
300.778
300.744
300.708
300.67
300.634
300.602
300.574
300.55
300.528
300.509
300.492
300.475
300.459
300.443
300.427
300.41
300.393
300.376
301.138
301.137
301.13
301.117
301.096
301.068
301.035
300.999
300.962
300.925
300.887
300.85
300.812
300.773
300.732
300.69
300.651
300.616
300.586
300.56
300.538
300.518
300.501
300.484
300.468
300.451
300.435
300.417
300.399
300.383
301.203
301.205
301.2
301.188
301.168
301.14
301.105
301.066
301.024
300.981
300.938
300.896
300.852
300.808
300.762
300.716
300.672
300.634
300.602
300.574
300.55
300.53
300.511
300.494
300.477
300.46
300.443
300.425
300.407
300.39
301.274
301.276
301.272
301.262
301.243
301.216
301.18
301.139
301.093
301.045
300.997
300.949
300.9
300.85
300.799
300.747
300.7
300.658
300.623
300.592
300.566
300.544
300.524
300.505
300.487
300.47
300.452
300.434
300.416
300.398
301.348
301.35
301.347
301.337
301.32
301.293
301.258
301.215
301.167
301.115
301.062
301.008
300.953
300.898
300.842
300.785
300.734
300.688
300.649
300.615
300.586
300.561
300.539
300.519
300.5
300.481
300.463
300.444
300.425
300.407
301.426
301.426
301.422
301.412
301.395
301.37
301.335
301.293
301.243
301.189
301.131
301.072
301.013
300.953
300.891
300.83
300.774
300.725
300.682
300.644
300.611
300.583
300.558
300.536
300.515
300.495
300.475
300.456
300.436
300.417
301.503
301.502
301.496
301.485
301.468
301.443
301.41
301.368
301.319
301.263
301.203
301.14
301.076
301.012
300.946
300.882
300.822
300.769
300.721
300.679
300.642
300.61
300.582
300.556
300.533
300.511
300.49
300.469
300.448
300.429
301.578
301.575
301.567
301.555
301.536
301.512
301.48
301.439
301.391
301.336
301.275
301.21
301.143
301.076
301.007
300.939
300.876
300.819
300.767
300.72
300.679
300.642
300.61
300.581
300.555
300.53
300.507
300.484
300.462
300.441
301.647
301.642
301.632
301.618
301.599
301.574
301.543
301.504
301.458
301.404
301.344
301.279
301.211
301.141
301.071
301.002
300.936
300.875
300.819
300.768
300.722
300.681
300.644
300.611
300.581
300.553
300.527
300.502
300.478
300.456
301.706
301.7
301.689
301.673
301.653
301.628
301.597
301.561
301.517
301.466
301.408
301.345
301.278
301.208
301.137
301.068
301.001
300.938
300.878
300.823
300.772
300.726
300.685
300.647
300.612
300.58
300.55
300.522
300.496
300.472
301.752
301.744
301.733
301.717
301.697
301.672
301.642
301.607
301.566
301.519
301.465
301.405
301.341
301.273
301.204
301.136
301.069
301.005
300.943
300.884
300.829
300.779
300.732
300.688
300.648
300.611
300.577
300.546
300.516
300.49
301.78
301.773
301.762
301.747
301.727
301.703
301.675
301.642
301.604
301.561
301.511
301.457
301.397
301.334
301.268
301.202
301.137
301.074
301.011
300.95
300.892
300.836
300.784
300.735
300.689
300.647
300.609
300.573
300.54
300.511
301.789
301.783
301.773
301.759
301.741
301.719
301.693
301.663
301.629
301.59
301.545
301.495
301.441
301.383
301.322
301.259
301.197
301.135
301.074
301.013
300.954
300.896
300.839
300.785
300.735
300.687
300.644
300.604
300.567
300.535
301.773
301.77
301.763
301.752
301.738
301.719
301.696
301.668
301.637
301.601
301.56
301.515
301.465
301.411
301.354
301.293
301.233
301.173
301.116
301.06
301.003
300.946
300.889
300.834
300.78
300.729
300.681
300.637
300.597
300.562
301.731
301.73
301.727
301.719
301.707
301.691
301.671
301.647
301.619
301.586
301.548
301.506
301.459
301.407
301.351
301.288
301.226
301.167
301.114
301.064
301.016
300.968
300.918
300.867
300.816
300.764
300.715
300.669
300.626
300.589
301.655
301.656
301.654
301.649
301.64
301.628
301.611
301.59
301.564
301.533
301.497
301.456
301.409
301.355
301.296
301.227
301.163
301.105
301.055
301.011
300.971
300.935
300.899
300.86
300.819
300.776
300.733
300.689
300.648
300.611
301.532
301.531
301.529
301.526
301.521
301.512
301.5
301.483
301.459
301.43
301.394
301.352
301.304
301.247
301.185
301.112
301.046
300.988
300.941
300.902
300.869
300.84
300.815
300.792
300.769
300.742
300.711
300.678
300.644
300.61
301.337
301.333
301.329
301.328
301.328
301.328
301.322
301.31
301.29
301.261
301.226
301.186
301.14
301.084
301.021
300.946
300.881
300.825
300.781
300.745
300.716
300.693
300.674
300.66
300.648
300.638
300.626
300.609
300.587
300.564
301.038
301.038
301.041
301.048
301.057
301.064
301.066
301.061
301.047
301.026
300.997
300.963
300.922
300.871
300.811
300.739
300.679
300.628
300.588
300.555
300.53
300.511
300.496
300.486
300.479
300.473
300.468
300.462
300.455
300.444
300.64
300.653
300.67
300.691
300.713
300.731
300.744
300.75
300.748
300.738
300.721
300.697
300.666
300.625
300.573
300.512
300.462
300.419
300.386
300.358
300.337
300.321
300.309
300.3
300.294
300.289
300.284
300.279
300.273
300.266
300.888
300.858
300.837
300.82
300.805
300.791
300.777
300.764
300.752
300.739
300.727
300.715
300.702
300.688
300.673
300.657
300.636
300.607
300.564
300.514
300.468
300.433
300.408
300.391
300.379
300.37
300.362
300.356
300.349
300.339
300.871
300.839
300.817
300.8
300.785
300.771
300.759
300.747
300.735
300.723
300.712
300.7
300.687
300.673
300.658
300.641
300.62
300.592
300.554
300.51
300.471
300.438
300.415
300.398
300.385
300.375
300.366
300.358
300.35
300.34
300.858
300.828
300.807
300.79
300.775
300.762
300.75
300.738
300.727
300.715
300.703
300.69
300.677
300.662
300.647
300.629
300.607
300.58
300.545
300.507
300.472
300.443
300.42
300.404
300.391
300.381
300.371
300.361
300.351
300.34
300.852
300.827
300.807
300.791
300.776
300.762
300.749
300.737
300.724
300.711
300.698
300.685
300.671
300.655
300.638
300.619
300.597
300.57
300.538
300.504
300.473
300.447
300.426
300.411
300.398
300.386
300.375