/*--------------------------------*- C++ -*----------------------------------*\
  =========                 |
  \\      /  F ield         | OpenFOAM: The Open Source CFD Toolbox
   \\    /   O peration     | Website:  https://openfoam.org
    \\  /    A nd           | Version:  12
     \\/     M anipulation  |
\*---------------------------------------------------------------------------*/
FoamFile
{
    format      ascii;
    class       volScalarField;
    location    "150/porous";
    object      rho;
}
// * * * * * * * * * * * * * * * * * * * * * * * * * * * * * * * * * * * * * //

dimensions      [1 -3 0 0 0 0 0];

internalField   nonuniform List<scalar> 
140000
(
933.891
933.891
933.891
933.891
933.891
933.891
933.891
933.892
933.894
933.906
934.214
934.475
934.748
935.079
935.515
936.107
936.911
937.971
939.315
940.95
942.853
944.982
947.272
949.66
952.09
954.505
956.859
959.108
961.22
963.169
964.938
966.519
967.91
969.117
970.149
971.02
971.747
972.345
972.833
973.226
973.539
973.785
973.977
974.125
974.237
974.322
974.386
974.433
974.467
974.492
974.51
974.523
974.532
974.538
974.542
974.545
974.547
974.548
974.548
974.543
974.408
974.315
974.24
974.175
974.118
974.067
974.02
973.977
973.937
973.901
933.891
933.891
933.891
933.891
933.891
933.891
933.891
933.892
933.893
933.9
934.133
934.33
934.527
934.751
935.027
935.388
935.864
936.489
937.29
938.286
939.486
940.893
942.506
944.306
946.266
948.349
950.513
952.716
954.914
957.068
959.141
961.104
962.933
964.612
966.132
967.488
968.682
969.719
970.609
971.363
971.993
972.514
972.94
973.284
973.559
973.777
973.947
974.078
974.178
974.254
974.311
974.353
974.384
974.406
974.422
974.433
974.441
974.446
974.449
974.449
974.359
974.292
974.236
974.186
974.14
974.098
974.057
974.02
973.984
973.951
933.891
933.891
933.891
933.891
933.891
933.891
933.891
933.892
933.892
933.898
934.11
934.282
934.446
934.621
934.824
935.076
935.398
935.816
936.356
937.046
937.914
938.979
940.253
941.735
943.415
945.271
947.27
949.377
951.548
953.742
955.916
958.031
960.054
961.957
963.719
965.326
966.77
968.051
969.171
970.137
970.959
971.651
972.226
972.699
973.082
973.39
973.634
973.826
973.975
974.09
974.177
974.242
974.291
974.326
974.352
974.371
974.383
974.392
974.398
974.4
974.323
974.266
974.217
974.174
974.133
974.096
974.06
974.026
973.994
973.964
933.891
933.891
933.891
933.891
933.891
933.891
933.891
933.892
933.892
933.897
934.104
934.269
934.423
934.583
934.763
934.98
935.255
935.611
936.076
936.68
937.451
938.415
939.585
940.968
942.559
944.34
946.284
948.356
950.515
952.717
954.919
957.078
959.158
961.128
962.963
964.646
966.167
967.521
968.711
969.743
970.625
971.371
971.993
972.506
972.925
973.262
973.531
973.743
973.908
974.036
974.133
974.206
974.261
974.301
974.33
974.351
974.366
974.376
974.383
974.386
974.311
974.256
974.21
974.168
974.129
974.093
974.058
974.025
973.994
973.965
933.891
933.891
933.891
933.891
933.891
933.891
933.891
933.892
933.892
933.897
934.103
934.267
934.418
934.573
934.747
934.955
935.218
935.559
936.006
936.588
937.334
938.27
939.411
940.766
942.331
944.09
946.019
948.083
950.241
952.448
954.661
956.836
958.936
960.926
962.783
964.487
966.028
967.401
968.608
969.655
970.551
971.309
971.942
972.465
972.891
973.235
973.509
973.725
973.894
974.024
974.123
974.198
974.254
974.295
974.325
974.347
974.362
974.372
974.379
974.382
974.308
974.254
974.208
974.166
974.128
974.092
974.057
974.025
973.994
973.965
933.891
933.891
933.891
933.891
933.891
933.891
933.891
933.892
933.892
933.897
934.104
934.267
934.419
934.574
934.747
934.954
935.216
935.556
936.001
936.581
937.324
938.255
939.392
940.741
942.301
944.057
945.983
948.046
950.204
952.413
954.629
956.808
958.911
960.906
962.766
964.473
966.016
967.392
968.6
969.648
970.545
971.304
971.938
972.461
972.888
973.232
973.507
973.723
973.892
974.023
974.122
974.197
974.253
974.294
974.324
974.346
974.361
974.371
974.379
974.382
974.308
974.253
974.207
974.166
974.127
974.091
974.057
974.025
973.994
973.965
933.891
933.891
933.891
933.891
933.891
933.891
933.891
933.892
933.892
933.897
934.104
934.269
934.42
934.575
934.749
934.957
935.221
935.562
936.009
936.59
937.334
938.264
939.399
940.746
942.303
944.056
945.98
948.041
950.199
952.408
954.625
956.805
958.91
960.906
962.767
964.475
966.019
967.395
968.603
969.651
970.548
971.306
971.94
972.463
972.889
973.233
973.508
973.724
973.893
974.023
974.122
974.197
974.253
974.294
974.324
974.346
974.361
974.371
974.378
974.381
974.308
974.253
974.207
974.165
974.127
974.091
974.057
974.025
973.994
973.965
933.891
933.891
933.891
933.891
933.891
933.891
933.891
933.892
933.892
933.897
934.105
934.27
934.422
934.578
934.753
934.963
935.228
935.572
936.022
936.606
937.353
938.285
939.421
940.769
942.326
944.078
946.001
948.061
950.218
952.427
954.643
956.822
958.926
960.921
962.781
964.488
966.031
967.405
968.612
969.658
970.554
971.311
971.944
972.466
972.892
973.235
973.509
973.725
973.894
974.024
974.123
974.198
974.253
974.294
974.324
974.346
974.361
974.371
974.378
974.381
974.308
974.253
974.207
974.165
974.127
974.091
974.057
974.025
973.994
973.965
933.891
933.891
933.891
933.891
933.891
933.891
933.891
933.892
933.892
933.897
934.106
934.271
934.423
934.58
934.756
934.967
935.234
935.58
936.033
936.619
937.368
938.302
939.439
940.786
942.342
944.093
946.014
948.072
950.227
952.435
954.65
956.829
958.932
960.927
962.787
964.494
966.036
967.41
968.616
969.662
970.557
971.314
971.946
972.467
972.893
973.236
973.51
973.726
973.894
974.024
974.123
974.198
974.254
974.295
974.325
974.346
974.361
974.371
974.378
974.381
974.308
974.253
974.207
974.166
974.127
974.091
974.057
974.025
973.994
973.965
933.891
933.891
933.891
933.891
933.891
933.891
933.891
933.892
933.892
933.897
934.107
934.272
934.425
934.582
934.759
934.971
935.24
935.588
936.043
936.633
937.384
938.32
939.458
940.806
942.362
944.112
946.032
948.089
950.243
952.449
954.663
956.841
958.943
960.937
962.796
964.502
966.043
967.416
968.621
969.666
970.561
971.317
971.948
972.469
972.894
973.238
973.511
973.727
973.895
974.025
974.124
974.198
974.254
974.295
974.325
974.346
974.361
974.371
974.378
974.381
974.308
974.253
974.207
974.166
974.127
974.091
974.057
974.025
973.994
973.965
933.891
933.891
933.891
933.891
933.891
933.891
933.891
933.892
933.892
933.897
934.107
934.273
934.426
934.584
934.761
934.974
935.244
935.594
936.051
936.642
937.395
938.333
939.471
940.819
942.375
944.123
946.042
948.097
950.25
952.455
954.667
956.844
958.946
960.94
962.798
964.504
966.045
967.418
968.623
969.668
970.562
971.318
971.949
972.47
972.895
973.238
973.512
973.727
973.895
974.025
974.124
974.199
974.254
974.295
974.325
974.346
974.361
974.372
974.378
974.381
974.308
974.253
974.207
974.166
974.127
974.091
974.057
974.025
973.994
973.965
933.891
933.891
933.891
933.891
933.891
933.891
933.891
933.892
933.892
933.897
934.108
934.274
934.427
934.585
934.763
934.977
935.248
935.599
936.058
936.651
937.406
938.345
939.484
940.833
942.388
944.136
946.053
948.107
950.258
952.462
954.674
956.85
958.951
960.944
962.802
964.507
966.048
967.42
968.625
969.67
970.563
971.319
971.95
972.471
972.896
973.239
973.512
973.728
973.896
974.025
974.124
974.199
974.254
974.295
974.325
974.346
974.361
974.372
974.379
974.382
974.308
974.253
974.207
974.166
974.127
974.091
974.057
974.025
973.994
973.965
933.891
933.891
933.891
933.891
933.891
933.891
933.891
933.892
933.892
933.897
934.108
934.274
934.428
934.587
934.765
934.979
935.251
935.603
936.063
936.658
937.413
938.353
939.493
940.841
942.395
944.142
946.058
948.111
950.261
952.463
954.674
956.849
958.95
960.943
962.801
964.506
966.047
967.419
968.625
969.669
970.563
971.319
971.95
972.471
972.896
973.239
973.512
973.728
973.896
974.026
974.124
974.199
974.255
974.296
974.325
974.347
974.362
974.372
974.379
974.382
974.308
974.253
974.207
974.166
974.128
974.092
974.057
974.025
973.994
973.965
933.891
933.891
933.891
933.891
933.891
933.891
933.891
933.892
933.892
933.897
934.108
934.275
934.429
934.588
934.766
934.981
935.253
935.606
936.067
936.663
937.419
938.36
939.5
940.849
942.402
944.148
946.063
948.115
950.263
952.465
954.675
956.849
958.95
960.942
962.8
964.505
966.046
967.419
968.624
969.669
970.563
971.318
971.95
972.471
972.896
973.239
973.512
973.728
973.896
974.026
974.125
974.199
974.255
974.296
974.326
974.347
974.362
974.372
974.379
974.382
974.308
974.254
974.207
974.166
974.128
974.092
974.058
974.025
973.994
973.965
933.891
933.891
933.891
933.891
933.891
933.891
933.891
933.892
933.892
933.897
934.109
934.275
934.43
934.588
934.767
934.982
935.255
935.608
936.07
936.666
937.423
938.364
939.505
940.852
942.405
944.15
946.064
948.114
950.261
952.462
954.671
956.846
958.946
960.938
962.797
964.502
966.043
967.416
968.622
969.667
970.561
971.317
971.949
972.47
972.895
973.238
973.512
973.728
973.896
974.026
974.125
974.199
974.255
974.296
974.326
974.347
974.362
974.372
974.379
974.382
974.308
974.254
974.208
974.166
974.128
974.092
974.058
974.025
973.994
973.965
933.891
933.891
933.891
933.891
933.891
933.891
933.891
933.892
933.892
933.897
934.109
934.276
934.43
934.589
934.768
934.983
935.256
935.61
936.071
936.668
937.426
938.367
939.507
940.855
942.407
944.151
946.064
948.113
950.259
952.459
954.667
956.841
958.941
960.934
962.793
964.498
966.04
967.413
968.62
969.665
970.56
971.316
971.948
972.469
972.895
973.238
973.512
973.728
973.896
974.026
974.125
974.199
974.255
974.296
974.326
974.347
974.362
974.372
974.379
974.382
974.308
974.254
974.208
974.166
974.128
974.092
974.058
974.025
973.994
973.965
933.891
933.891
933.891
933.891
933.891
933.891
933.891
933.892
933.892
933.897
934.109
934.276
934.43
934.59
934.768
934.984
935.257
935.61
936.072
936.669
937.427
938.368
939.508
940.854
942.406
944.149
946.06
948.108
950.253
952.452
954.66
956.834
958.934
960.927
962.786
964.493
966.035
967.409
968.616
969.662
970.557
971.314
971.946
972.468
972.894
973.237
973.511
973.727
973.896
974.026
974.125
974.2
974.255
974.296
974.326
974.347
974.362
974.372
974.379
974.382
974.308
974.254
974.208
974.166
974.128
974.092
974.058
974.025
973.994
973.965
933.891
933.891
933.891
933.891
933.891
933.891
933.891
933.892
933.892
933.897
934.109
934.276
934.431
934.59
934.769
934.984
935.257
935.611
936.072
936.669
937.426
938.367
939.506
940.852
942.403
944.145
946.055
948.102
950.246
952.445
954.652
956.826
958.927
960.92
962.779
964.486
966.03
967.404
968.612
969.659
970.555
971.312
971.944
972.467
972.893
973.236
973.511
973.727
973.896
974.026
974.125
974.2
974.255
974.296
974.326
974.348
974.362
974.373
974.379
974.382
974.309
974.254
974.208
974.166
974.128
974.092
974.058
974.025
973.994
973.966
933.891
933.891
933.891
933.891
933.891
933.891
933.891
933.892
933.892
933.897
934.109
934.276
934.431
934.59
934.769
934.984
935.257
935.61
936.071
936.667
937.424
938.364
939.503
940.848
942.397
944.138
946.047
948.093
950.237
952.435
954.642
956.816
958.917
960.911
962.771
964.479
966.023
967.399
968.607
969.655
970.551
971.309
971.942
972.465
972.891
973.235
973.51
973.726
973.895
974.025
974.125
974.2
974.255
974.296
974.326
974.348
974.363
974.373
974.38
974.382
974.309
974.254
974.208
974.166
974.128
974.092
974.058
974.026
973.994
973.966
933.891
933.891
933.891
933.891
933.891
933.891
933.891
933.892
933.892
933.897
934.109
934.276
934.431
934.59
934.769
934.984
935.256
935.609
936.07
936.665
937.421
938.361
939.498
940.842
942.391
944.13
946.038
948.083
950.226
952.423
954.631
956.805
958.906
960.9
962.761
964.47
966.015
967.392
968.602
969.65
970.547
971.306
971.94
972.463
972.89
973.234
973.509
973.726
973.895
974.025
974.124
974.199
974.255
974.296
974.326
974.348
974.363
974.373
974.38
974.383
974.309
974.254
974.208
974.167
974.128
974.092
974.058
974.026
973.995
973.966
933.891
933.891
933.891
933.891
933.891
933.891
933.891
933.892
933.892
933.897
934.109
934.276
934.431
934.59
934.769
934.983
935.255
935.608
936.068
936.662
937.417
938.356
939.492
940.835
942.382
944.12
946.027
948.071
950.213
952.41
954.618
956.792
958.893
960.888
962.75
964.46
966.006
967.384
968.595
969.645
970.543
971.302
971.937
972.46
972.888
973.233
973.508
973.725
973.894
974.025
974.124
974.199
974.255
974.296
974.326
974.348
974.363
974.373
974.38
974.383
974.309
974.254
974.208
974.167
974.128
974.092
974.058
974.026
973.995
973.966
933.891
933.891
933.891
933.891
933.891
933.891
933.891
933.892
933.892
933.897
934.109
934.276
934.431
934.59
934.768
934.983
935.254
935.606
936.065
936.658
937.413
938.349
939.485
940.826
942.372
944.109
946.015
948.058
950.199
952.396
954.603
956.778
958.88
960.876
962.739
964.45
965.997
967.376
968.588
969.639
970.538
971.298
971.933
972.458
972.886
973.231
973.506
973.724
973.893
974.024
974.124
974.199
974.255
974.296
974.326
974.348
974.363
974.373
974.38
974.383
974.309
974.254
974.208
974.167
974.128
974.092
974.058
974.026
973.995
973.966
933.891
933.891
933.891
933.891
933.891
933.891
933.891
933.892
933.892
933.897
934.109
934.276
934.431
934.59
934.768
934.982
935.253
935.604
936.062
936.654
937.407
938.342
939.476
940.816
942.36
944.096
946.001
948.043
950.184
952.38
954.587
956.762
958.865
960.862
962.726
964.438
965.987
967.367
968.58
969.632
970.533
971.294
971.93
972.455
972.884
973.229
973.505
973.723
973.892
974.023
974.123
974.199
974.255
974.296
974.326
974.348
974.363
974.373
974.38
974.383
974.309
974.254
974.208
974.167
974.128
974.092
974.058
974.026
973.995
973.966
933.891
933.891
933.891
933.891
933.891
933.891
933.891
933.892
933.892
933.897
934.109
934.276
934.431
934.589
934.767
934.981
935.251
935.601
936.058
936.65
937.401
938.335
939.467
940.806
942.348
944.083
945.986
948.028
950.168
952.364
954.572
956.747
958.851
960.848
962.714
964.427
965.977
967.359
968.573
969.626
970.528
971.29
971.927
972.452
972.881
973.228
973.504
973.722
973.892
974.023
974.123
974.198
974.254
974.296
974.326
974.347
974.363
974.373
974.38
974.383
974.309
974.254
974.208
974.167
974.128
974.092
974.058
974.026
973.995
973.966
933.891
933.891
933.891
933.891
933.891
933.891
933.891
933.892
933.892
933.897
934.109
934.276
934.431
934.589
934.767
934.98
935.25
935.599
936.055
936.646
937.396
938.329
939.46
940.797
942.339
944.073
945.975
948.016
950.156
952.352
954.56
956.735
958.84
960.838
962.704
964.419
965.97
967.353
968.568
969.622
970.524
971.287
971.924
972.45
972.88
973.226
973.503
973.721
973.891
974.022
974.122
974.198
974.254
974.296
974.326
974.347
974.362
974.373
974.38
974.383
974.309
974.254
974.208
974.167
974.128
974.092
974.058
974.026
973.995
973.966
933.891
933.891
933.891
933.891
933.891
933.891
933.891
933.892
933.892
933.897
934.109
934.276
934.43
934.589
934.767
934.98
935.25
935.599
936.056
936.646
937.397
938.329
939.461
940.798
942.34
944.073
945.976
948.017
950.157
952.353
954.561
956.736
958.84
960.839
962.705
964.42
965.971
967.353
968.568
969.622
970.524
971.287
971.924
972.451
972.88
973.226
973.503
973.721
973.891
974.022
974.122
974.198
974.254
974.296
974.326
974.347
974.362
974.373
974.38
974.383
974.309
974.254
974.208
974.167
974.128
974.092
974.058
974.026
973.995
973.966
933.891
933.891
933.891
933.891
933.891
933.891
933.891
933.892
933.892
933.897
934.109
934.276
934.43
934.589
934.767
934.981
935.251
935.601
936.059
936.65
937.402
938.336
939.469
940.807
942.35
944.085
945.988
948.03
950.17
952.366
954.574
956.749
958.853
960.85
962.716
964.429
965.979
967.36
968.574
969.627
970.529
971.291
971.927
972.453
972.882
973.228
973.504
973.722
973.892
974.023
974.123
974.198
974.254
974.296
974.326
974.347
974.363
974.373
974.38
974.383
974.309
974.254
974.208
974.167
974.128
974.092
974.058
974.026
973.995
973.966
933.891
933.891
933.891
933.891
933.891
933.891
933.891
933.892
933.892
933.897
934.109
934.276
934.431
934.589
934.768
934.982
935.253
935.604
936.062
936.655
937.408
938.344
939.478
940.819
942.363
944.099
946.004
948.046
950.187
952.384
954.591
956.766
958.869
960.865
962.729
964.441
965.989
967.369
968.582
969.634
970.534
971.295
971.931
972.456
972.884
973.23
973.505
973.723
973.893
974.023
974.123
974.198
974.255
974.296
974.326
974.348
974.363
974.373
974.38
974.383
974.309
974.254
974.208
974.167
974.128
974.092
974.058
974.026
973.995
973.966
933.891
933.891
933.891
933.891
933.891
933.891
933.891
933.892
933.892
933.897
934.109
934.276
934.43
934.59
934.768
934.983
935.254
935.606
936.066
936.66
937.414
938.352
939.487
940.829
942.375
944.113
946.019
948.062
950.204
952.401
954.608
956.783
958.884
960.88
962.743
964.453
966
967.379
968.59
969.641
970.54
971.3
971.935
972.459
972.887
973.232
973.507
973.724
973.893
974.024
974.124
974.199
974.255
974.296
974.326
974.348
974.363
974.373
974.38
974.383
974.309
974.255
974.208
974.167
974.128
974.092
974.058
974.026
973.995
973.966
933.891
933.891
933.891
933.891
933.891
933.891
933.891
933.892
933.892
933.897
934.109
934.276
934.43
934.59
934.768
934.983
935.255
935.608
936.068
936.664
937.42
938.358
939.495
940.839
942.386
944.125
946.033
948.077
950.219
952.416
954.624
956.798
958.899
960.894
962.755
964.465
966.01
967.388
968.598
969.647
970.545
971.304
971.938
972.462
972.889
973.234
973.508
973.725
973.894
974.025
974.124
974.199
974.255
974.296
974.326
974.348
974.363
974.373
974.38
974.383
974.309
974.255
974.208
974.167
974.128
974.092
974.058
974.026
973.995
973.966
933.891
933.891
933.891
933.891
933.891
933.891
933.891
933.892
933.892
933.897
934.108
934.276
934.43
934.59
934.768
934.984
935.256
935.61
936.071
936.667
937.424
938.364
939.502
940.847
942.396
944.136
946.045
948.09
950.233
952.431
954.638
956.812
958.913
960.907
962.767
964.476
966.02
967.396
968.605
969.653
970.55
971.308
971.942
972.464
972.891
973.235
973.51
973.726
973.895
974.025
974.125
974.199
974.255
974.297
974.326
974.348
974.363
974.373
974.38
974.383
974.309
974.255
974.208
974.167
974.128
974.092
974.058
974.026
973.995
973.966
933.891
933.891
933.891
933.891
933.891
933.891
933.891
933.892
933.892
933.897
934.108
934.275
934.43
934.589
934.768
934.984
935.257
935.611
936.072
936.669
937.427
938.368
939.507
940.853
942.403
944.145
946.055
948.101
950.245
952.443
954.651
956.825
958.925
960.918
962.778
964.485
966.029
967.404
968.612
969.659
970.555
971.312
971.945
972.467
972.893
973.237
973.511
973.727
973.896
974.026
974.125
974.2
974.255
974.297
974.326
974.348
974.363
974.373
974.38
974.383
974.309
974.254
974.208
974.167
974.128
974.092
974.058
974.026
973.995
973.966
933.891
933.891
933.891
933.891
933.891
933.891
933.891
933.892
933.892
933.897
934.108
934.275
934.43
934.589
934.768
934.984
935.257
935.611
936.073
936.671
937.429
938.37
939.511
940.858
942.409
944.152
946.063
948.111
950.255
952.454
954.662
956.836
958.936
960.928
962.787
964.494
966.036
967.41
968.617
969.663
970.558
971.315
971.947
972.469
972.894
973.238
973.512
973.728
973.896
974.026
974.125
974.2
974.255
974.297
974.326
974.348
974.363
974.373
974.38
974.383
974.309
974.254
974.208
974.167
974.128
974.092
974.058
974.026
973.994
973.966
933.891
933.891
933.891
933.891
933.891
933.891
933.891
933.892
933.892
933.897
934.108
934.275
934.429
934.589
934.768
934.983
935.257
935.611
936.073
936.671
937.43
938.371
939.513
940.86
942.413
944.157
946.069
948.118
950.263
952.463
954.671
956.845
958.944
960.937
962.795
964.501
966.042
967.416
968.622
969.667
970.562
971.318
971.949
972.47
972.896
973.239
973.512
973.728
973.896
974.026
974.125
974.2
974.255
974.296
974.326
974.348
974.362
974.373
974.38
974.383
974.309
974.254
974.208
974.166
974.128
974.092
974.058
974.025
973.994
973.966
933.891
933.891
933.891
933.891
933.891
933.891
933.891
933.892
933.892
933.897
934.108
934.274
934.429
934.588
934.767
934.983
935.256
935.61
936.073
936.67
937.429
938.371
939.513
940.861
942.415
944.16
946.074
948.123
950.27
952.47
954.679
956.853
958.952
960.944
962.802
964.507
966.048
967.42
968.626
969.67
970.564
971.32
971.951
972.472
972.897
973.239
973.513
973.729
973.897
974.026
974.125
974.2
974.255
974.296
974.326
974.347
974.362
974.373
974.38
974.383
974.309
974.254
974.208
974.166
974.128
974.092
974.058
974.025
973.994
973.965
933.891
933.891
933.891
933.891
933.891
933.891
933.891
933.892
933.892
933.897
934.108
934.274
934.428
934.588
934.766
934.982
935.255
935.609
936.071
936.668
937.427
938.369
939.51
940.86
942.414
944.16
946.075
948.126
950.274
952.475
954.684
956.858
958.958
960.95
962.807
964.512
966.052
967.424
968.629
969.673
970.566
971.322
971.952
972.473
972.897
973.24
973.513
973.729
973.897
974.026
974.125
974.2
974.255
974.296
974.326
974.347
974.362
974.372
974.379
974.383
974.309
974.254
974.208
974.166
974.128
974.092
974.058
974.025
973.994
973.965
933.891
933.891
933.891
933.891
933.891
933.891
933.891
933.892
933.892
933.897
934.107
934.274
934.428
934.587
934.765
934.981
935.253
935.607
936.069
936.665
937.423
938.365
939.507
940.856
942.412
944.159
946.075
948.127
950.276
952.478
954.688
956.863
958.963
960.954
962.812
964.516
966.056
967.427
968.631
969.675
970.568
971.323
971.953
972.474
972.898
973.241
973.514
973.729
973.897
974.026
974.125
974.2
974.255
974.296
974.326
974.347
974.362
974.372
974.379
974.382
974.309
974.254
974.208
974.166
974.128
974.092
974.058
974.025
973.994
973.965
933.891
933.891
933.891
933.891
933.891
933.891
933.891
933.892
933.892
933.897
934.107
934.273
934.427
934.586
934.764
934.979
935.251
935.604
936.065
936.66
937.417
938.358
939.5
940.85
942.405
944.153
946.071
948.124
950.274
952.478
954.688
956.864
958.964
960.956
962.813
964.517
966.057
967.428
968.632
969.676
970.569
971.323
971.954
972.474
972.898
973.241
973.514
973.729
973.897
974.026
974.125
974.199
974.255
974.296
974.326
974.347
974.362
974.372
974.379
974.382
974.308
974.254
974.208
974.166
974.128
974.092
974.058
974.025
973.994
973.965
933.891
933.891
933.891
933.891
933.891
933.891
933.891
933.892
933.892
933.897
934.107
934.272
934.426
934.585
934.762
934.977
935.248
935.601
936.06
936.654
937.41
938.35
939.492
940.842
942.398
944.148
946.066
948.121
950.273
952.477
954.689
956.864
958.965
960.957
962.814
964.518
966.058
967.429
968.633
969.676
970.569
971.324
971.954
972.474
972.898
973.241
973.514
973.729
973.897
974.026
974.125
974.199
974.255
974.296
974.325
974.347
974.362
974.372
974.379
974.382
974.308
974.254
974.208
974.166
974.128
974.092
974.058
974.025
973.994
973.965
933.891
933.891
933.891
933.891
933.891
933.891
933.891
933.892
933.892
933.897
934.106
934.272
934.425
934.583
934.76
934.974
935.245
935.595
936.053
936.646
937.4
938.339
939.479
940.829
942.385
944.136
946.056
948.112
950.265
952.47
954.683
956.86
958.961
960.954
962.811
964.516
966.056
967.427
968.631
969.675
970.568
971.323
971.953
972.473
972.898
973.24
973.513
973.729
973.896
974.026
974.125
974.199
974.255
974.295
974.325
974.346
974.361
974.372
974.379
974.382
974.308
974.254
974.207
974.166
974.127
974.092
974.057
974.025
973.994
973.965
933.891
933.891
933.891
933.891
933.891
933.891
933.891
933.892
933.892
933.897
934.106
934.271
934.424
934.581
934.758
934.971
935.24
935.59
936.046
936.636
937.389
938.326
939.466
940.816
942.373
944.125
946.046
948.104
950.258
952.465
954.679
956.856
958.958
960.951
962.809
964.514
966.054
967.425
968.63
969.674
970.567
971.322
971.952
972.473
972.897
973.24
973.513
973.728
973.896
974.025
974.124
974.199
974.254
974.295
974.325
974.346
974.361
974.372
974.379
974.382
974.308
974.254
974.207
974.166
974.127
974.091
974.057
974.025
973.994
973.965
933.891
933.891
933.891
933.891
933.891
933.891
933.891
933.892
933.892
933.897
934.105
934.27
934.423
934.579
934.755
934.967
935.235
935.582
936.035
936.623
937.373
938.309
939.447
940.796
942.354
944.106
946.028
948.088
950.243
952.451
954.666
956.845
958.947
960.941
962.8
964.506
966.047
967.42
968.625
969.67
970.564
971.319
971.95
972.471
972.896
973.239
973.512
973.727
973.895
974.025
974.124
974.198
974.254
974.295
974.325
974.346
974.361
974.372
974.379
974.382
974.308
974.253
974.207
974.166
974.127
974.091
974.057
974.025
973.994
973.965
933.891
933.891
933.891
933.891
933.891
933.891
933.891
933.892
933.892
933.897
934.104
934.269
934.421
934.577
934.752
934.963
935.229
935.574
936.025
936.61
937.358
938.292
939.43
940.779
942.338
944.092
946.016
948.077
950.234
952.443
954.659
956.838
958.941
960.935
962.795
964.501
966.042
967.415
968.621
969.666
970.56
971.317
971.948
972.469
972.895
973.238
973.511
973.727
973.895
974.024
974.123
974.198
974.254
974.295
974.325
974.346
974.361
974.372
974.379
974.382
974.308
974.253
974.207
974.166
974.127
974.091
974.057
974.025
973.994
973.965
933.891
933.891
933.891
933.891
933.891
933.891
933.891
933.892
933.892
933.897
934.104
934.268
934.419
934.575
934.749
934.958
935.221
935.564
936.011
936.594
937.339
938.271
939.407
940.756
942.315
944.069
945.994
948.056
950.215
952.425
954.641
956.821
958.925
960.92
962.78
964.488
966.031
967.405
968.612
969.659
970.555
971.312
971.944
972.466
972.892
973.236
973.509
973.725
973.894
974.024
974.123
974.198
974.253
974.295
974.324
974.346
974.361
974.371
974.379
974.382
974.308
974.253
974.207
974.166
974.127
974.091
974.057
974.025
973.994
973.965
933.891
933.891
933.891
933.891
933.891
933.891
933.891
933.892
933.892
933.897
934.103
934.267
934.418
934.573
934.747
934.955
935.217
935.558
936.004
936.585
937.33
938.263
939.4
940.752
942.313
944.07
945.997
948.06
950.219
952.429
954.645
956.823
958.926
960.92
962.779
964.485
966.027
967.402
968.609
969.656
970.552
971.31
971.942
972.465
972.891
973.234
973.509
973.725
973.893
974.023
974.123
974.197
974.253
974.294
974.324
974.346
974.361
974.372
974.379
974.382
974.308
974.253
974.207
974.166
974.127
974.091
974.057
974.025
973.994
973.965
933.891
933.891
933.891
933.891
933.891
933.891
933.891
933.892
933.892
933.897
934.103
934.266
934.418
934.573
934.747
934.956
935.219
935.561
936.009
936.592
937.34
938.277
939.42
940.776
942.342
944.103
946.033
948.097
950.255
952.463
954.676
956.85
958.949
960.939
962.795
964.498
966.038
967.41
968.616
969.662
970.557
971.314
971.946
972.468
972.893
973.237
973.51
973.726
973.895
974.025
974.124
974.198
974.254
974.295
974.325
974.347
974.362
974.372
974.38
974.383
974.309
974.254
974.208
974.166
974.128
974.092
974.057
974.025
973.994
973.965
933.891
933.891
933.891
933.891
933.891
933.891
933.891
933.892
933.892
933.897
934.104
934.269
934.423
934.583
934.763
934.981
935.256
935.613
936.079
936.684
937.457
938.422
939.593
940.978
942.57
944.351
946.296
948.368
950.528
952.729
954.931
957.09
959.169
961.139
962.973
964.655
966.175
967.529
968.718
969.748
970.63
971.375
971.996
972.509
972.927
973.264
973.532
973.744
973.909
974.036
974.133
974.206
974.261
974.301
974.33
974.351
974.366
974.376
974.383
974.386
974.311
974.256
974.21
974.168
974.129
974.093
974.058
974.026
973.994
973.965
933.891
933.891
933.891
933.891
933.891
933.891
933.891
933.892
933.892
933.898
934.109
934.281
934.446
934.621
934.824
935.076
935.399
935.818
936.358
937.05
937.919
938.985
940.26
941.743
943.423
945.279
947.278
949.384
951.556
953.749
955.922
958.037
960.059
961.961
963.723
965.329
966.773
968.053
969.173
970.138
970.961
971.652
972.227
972.699
973.082
973.39
973.634
973.826
973.975
974.09
974.177
974.242
974.291
974.326
974.352
974.37
974.383
974.392
974.398
974.401
974.323
974.266
974.217
974.174
974.133
974.096
974.06
974.026
973.994
973.964
933.891
933.891
933.891
933.891
933.891
933.891
933.891
933.892
933.893
933.9
934.132
934.329
934.526
934.751
935.027
935.387
935.863
936.488
937.289
938.286
939.486
940.893
942.505
944.305
946.264
948.346
950.51
952.712
954.909
957.062
959.135
961.097
962.926
964.605
966.125
967.482
968.676
969.715
970.605
971.359
971.989
972.511
972.937
973.282
973.557
973.775
973.945
974.077
974.177
974.254
974.311
974.353
974.384
974.406
974.422
974.433
974.441
974.446
974.449
974.449
974.359
974.293
974.237
974.186
974.14
974.098
974.058
974.02
973.984
973.952
933.891
933.891
933.891
933.891
933.891
933.891
933.891
933.892
933.894
933.906
934.214
934.474
934.748
935.078
935.514
936.106
936.909
937.967
939.31
940.942
942.843
944.97
947.257
949.644
952.072
954.486
956.839
959.088
961.199
963.148
964.918
966.501
967.893
969.102
970.135
971.009
971.737
972.337
972.826
973.22
973.534
973.781
973.974
974.122
974.235
974.321
974.385
974.432
974.467
974.492
974.51
974.523
974.532
974.538
974.542
974.545
974.547
974.548
974.548
974.544
974.408
974.315
974.24
974.176
974.119
974.067
974.02
973.977
973.937
973.901
933.891
933.891
933.891
933.891
933.891
933.891
933.891
933.892
933.893
933.902
934.137
934.374
934.633
934.948
935.362
935.926
936.692
937.706
939.001
940.584
942.44
944.528
946.787
949.153
951.57
953.982
956.342
958.606
960.741
962.72
964.524
966.143
967.574
968.82
969.89
970.797
971.555
972.182
972.695
973.109
973.44
973.701
973.905
974.063
974.184
974.275
974.343
974.394
974.431
974.459
974.478
974.492
974.502
974.509
974.514
974.517
974.519
974.52
974.52
974.517
974.407
974.319
974.245
974.181
974.124
974.073
974.026
973.982
973.942
973.906
933.891
933.891
933.891
933.891
933.891
933.891
933.891
933.892
933.892
933.897
934.063
934.234
934.415
934.624
934.881
935.215
935.656
936.235
936.981
937.914
939.045
940.377
941.911
943.636
945.527
947.551
949.67
951.842
954.025
956.18
958.269
960.263
962.135
963.867
965.445
966.864
968.123
969.225
970.176
970.988
971.671
972.24
972.708
973.089
973.396
973.64
973.832
973.982
974.097
974.184
974.25
974.3
974.336
974.362
974.381
974.395
974.404
974.411
974.415
974.416
974.351
974.292
974.239
974.191
974.146
974.104
974.065
974.028
973.992
973.959
933.891
933.891
933.891
933.891
933.891
933.891
933.891
933.892
933.892
933.896
934.043
934.19
934.341
934.504
934.694
934.927
935.225
935.611
936.109
936.747
937.551
938.545
939.741
941.142
942.741
944.52
946.453
948.504
950.634
952.804
954.971
957.096
959.145
961.088
962.901
964.567
966.076
967.425
968.613
969.646
970.532
971.283
971.911
972.431
972.857
973.201
973.477
973.695
973.865
973.997
974.098
974.175
974.232
974.274
974.305
974.328
974.343
974.355
974.362
974.366
974.312