/*--------------------------------*- C++ -*----------------------------------*\
  =========                 |
  \\      /  F ield         | OpenFOAM: The Open Source CFD Toolbox
   \\    /   O peration     | Website:  https://openfoam.org
    \\  /    A nd           | Version:  12
     \\/     M anipulation  |
\*---------------------------------------------------------------------------*/
FoamFile
{
    format      ascii;
    class       volScalarField;
    location    "150/porous";
    object      T;
}
// * * * * * * * * * * * * * * * * * * * * * * * * * * * * * * * * * * * * * //

dimensions      [0 0 0 1 0 0 0];

internalField   nonuniform List<scalar> 
140000
(
400
400
400
400
400
400
400
399.999
399.998
399.985
399.654
399.374
399.08
398.722
398.252
397.609
396.734
395.573
394.09
392.269
390.123
387.689
385.028
382.202
379.271
376.296
373.333
370.437
367.657
365.034
362.601
360.382
358.392
356.635
355.109
353.803
352.701
351.784
351.03
350.418
349.929
349.541
349.238
349.004
348.826
348.691
348.59
348.515
348.46
348.42
348.391
348.371
348.357
348.347
348.34
348.336
348.333
348.332
348.331
348.339
348.554
348.702
348.822
348.924
349.015
349.096
349.17
349.239
349.302
349.358
400
400
400
400
400
400
400
400
399.999
399.991
399.741
399.53
399.318
399.076
398.778
398.389
397.873
397.195
396.32
395.227
393.9
392.332
390.517
388.465
386.202
383.76
381.18
378.505
375.785
373.066
370.394
367.812
365.354
363.053
360.93
359
357.272
355.747
354.422
353.285
352.325
351.523
350.863
350.327
349.896
349.554
349.286
349.078
348.919
348.799
348.708
348.641
348.592
348.557
348.532
348.514
348.502
348.494
348.489
348.49
348.632
348.738
348.827
348.907
348.98
349.047
349.111
349.17
349.227
349.279
400
400
400
400
400
400
400
400
399.999
399.993
399.766
399.581
399.405
399.216
398.997
398.726
398.378
397.925
397.339
396.586
395.636
394.462
393.047
391.386
389.484
387.356
385.03
382.54
379.93
377.243
374.528
371.832
369.2
366.672
364.283
362.061
360.025
358.189
356.557
355.128
353.895
352.847
351.967
351.238
350.643
350.162
349.778
349.476
349.241
349.059
348.922
348.818
348.741
348.684
348.643
348.614
348.593
348.579
348.57
348.566
348.69
348.781
348.858
348.927
348.991
349.05
349.107
349.16
349.212
349.259
400
400
400
400
400
400
400
400
399.999
399.994
399.772
399.594
399.429
399.257
399.064
398.829
398.533
398.148
397.644
396.986
396.143
395.085
393.791
392.248
390.457
388.427
386.181
383.752
381.177
378.504
375.78
373.053
370.372
367.779
365.313
363.005
360.88
358.952
357.229
355.713
354.397
353.273
352.324
351.535
350.887
350.362
349.94
349.607
349.347
349.145
348.992
348.875
348.789
348.725
348.678
348.645
348.621
348.605
348.594
348.589
348.708
348.796
348.87
348.936
348.998
349.055
349.11
349.161
349.211
349.257
400
400
400
400
400
400
400
400
399.999
399.994
399.773
399.597
399.434
399.267
399.08
398.856
398.572
398.204
397.72
397.086
396.271
395.245
393.984
392.475
390.715
388.713
386.489
384.074
381.507
378.833
376.101
373.361
370.662
368.047
365.558
363.226
361.076
359.124
357.38
355.843
354.508
353.366
352.403
351.6
350.94
350.405
349.976
349.636
349.37
349.164
349.007
348.888
348.799
348.734
348.686
348.652
348.628
348.611
348.6
348.595
348.713
348.799
348.873
348.939
349
349.057
349.111
349.162
349.211
349.257
400
400
400
400
400
400
400
400
399.999
399.994
399.772
399.596
399.434
399.267
399.081
398.857
398.575
398.207
397.725
397.094
396.282
395.261
394.005
392.502
390.748
388.751
386.531
384.118
381.551
378.876
376.141
373.397
370.693
368.074
365.581
363.245
361.092
359.138
357.391
355.853
354.517
353.374
352.409
351.605
350.945
350.409
349.979
349.638
349.372
349.166
349.009
348.89
348.801
348.735
348.687
348.653
348.629
348.612
348.601
348.596
348.714
348.8
348.874
348.939
349
349.057
349.111
349.163
349.212
349.257
400
400
400
400
400
400
400
400
399.999
399.994
399.771
399.595
399.433
399.265
399.078
398.854
398.57
398.201
397.716
397.084
396.272
395.251
393.997
392.497
390.746
388.752
386.534
384.123
381.558
378.882
376.146
373.401
370.695
368.075
365.579
363.242
361.088
359.133
357.387
355.848
354.513
353.371
352.406
351.603
350.943
350.407
349.977
349.637
349.371
349.166
349.008
348.889
348.801
348.735
348.688
348.653
348.629
348.613
348.601
348.597
348.714
348.8
348.874
348.94
349
349.057
349.111
349.163
349.212
349.257
400
400
400
400
400
400
400
400
399.999
399.994
399.771
399.594
399.43
399.263
399.074
398.848
398.562
398.19
397.702
397.066
396.251
395.227
393.972
392.471
390.72
388.726
386.51
384.1
381.534
378.86
376.124
373.38
370.674
368.055
365.56
363.225
361.072
359.119
357.374
355.838
354.505
353.364
352.4
351.598
350.939
350.404
349.975
349.636
349.37
349.164
349.007
348.889
348.8
348.735
348.687
348.653
348.629
348.613
348.601
348.597
348.714
348.801
348.874
348.94
349
349.057
349.111
349.163
349.212
349.257
400
400
400
400
400
400
400
400
399.999
399.994
399.77
399.593
399.429
399.26
399.071
398.843
398.555
398.181
397.69
397.052
396.235
395.209
393.953
392.452
390.702
388.71
386.495
384.087
381.523
378.85
376.115
373.371
370.666
368.046
365.552
363.217
361.065
359.112
357.368
355.832
354.5
353.36
352.397
351.596
350.937
350.402
349.973
349.634
349.369
349.164
349.007
348.888
348.8
348.734
348.687
348.653
348.629
348.613
348.601
348.597
348.714
348.8
348.874
348.94
349
349.057
349.111
349.163
349.212
349.257
400
400
400
400
400
400
400
400
399.999
399.994
399.769
399.592
399.427
399.258
399.068
398.839
398.549
398.172
397.679
397.038
396.217
395.19
393.932
392.43
390.679
388.688
386.474
384.067
381.505
378.832
376.099
373.356
370.652
368.033
365.54
363.206
361.055
359.104
357.36
355.826
354.494
353.355
352.394
351.593
350.934
350.4
349.972
349.633
349.368
349.163
349.006
348.888
348.799
348.734
348.687
348.653
348.629
348.612
348.601
348.597
348.714
348.8
348.874
348.939
349
349.057
349.111
349.162
349.211
349.257
400
400
400
400
400
400
400
400
399.999
399.994
399.769
399.591
399.426
399.256
399.066
398.836
398.544
398.166
397.67
397.027
396.205
395.176
393.917
392.415
390.665
388.675
386.463
384.057
381.497
378.826
376.094
373.351
370.648
368.03
365.537
363.203
361.052
359.101
357.358
355.823
354.492
353.353
352.392
351.592
350.933
350.399
349.971
349.632
349.367
349.162
349.006
348.887
348.799
348.734
348.686
348.652
348.629
348.612
348.601
348.596
348.714
348.8
348.874
348.939
349
349.057
349.111
349.162
349.211
349.257
400
400
400
400
400
400
400
400
399.999
399.994
399.768
399.59
399.425
399.255
399.063
398.833
398.54
398.16
397.662
397.017
396.193
395.162
393.902
392.4
390.65
388.661
386.45
384.046
381.486
378.817
376.086
373.344
370.642
368.024
365.532
363.198
361.048
359.097
357.355
355.821
354.49
353.352
352.391
351.591
350.933
350.399
349.97
349.632
349.367
349.162
349.005
348.887
348.798
348.733
348.686
348.652
348.628
348.612
348.601
348.596
348.714
348.8
348.873
348.939
349
349.057
349.111
349.162
349.211
349.257
400
400
400
400
400
400
400
400
399.999
399.994
399.768
399.589
399.424
399.253
399.062
398.83
398.537
398.156
397.657
397.01
396.185
395.153
393.893
392.39
390.641
388.653
386.443
384.041
381.483
378.815
376.085
373.344
370.642
368.025
365.533
363.199
361.049
359.098
357.355
355.821
354.491
353.352
352.391
351.59
350.933
350.398
349.97
349.631
349.366
349.161
349.005
348.886
348.798
348.733
348.686
348.652
348.628
348.612
348.601
348.596
348.713
348.8
348.873
348.939
349
349.057
349.111
349.162
349.211
349.257
400
400
400
400
400
400
400
400
399.999
399.994
399.767
399.589
399.423
399.252
399.06
398.828
398.534
398.152
397.653
397.005
396.178
395.145
393.885
392.382
390.634
388.646
386.438
384.037
381.48
378.813
376.084
373.345
370.643
368.026
365.534
363.2
361.05
359.099
357.356
355.822
354.491
353.352
352.391
351.591
350.933
350.399
349.97
349.631
349.366
349.161
349.004
348.886
348.798
348.733
348.685
348.652
348.628
348.611
348.601
348.596
348.713
348.8
348.873
348.939
349
349.057
349.111
349.162
349.211
349.257
400
400
400
400
400
400
400
400
399.999
399.994
399.767
399.588
399.422
399.251
399.059
398.827
398.533
398.15
397.65
397.001
396.174
395.141
393.88
392.378
390.63
388.644
386.437
384.037
381.482
378.816
376.089
373.349
370.648
368.031
365.539
363.205
361.054
359.103
357.359
355.825
354.493
353.354
352.392
351.592
350.933
350.399
349.971
349.631
349.366
349.161
349.004
348.886
348.798
348.732
348.685
348.651
348.628
348.611
348.6
348.596
348.713
348.8
348.873
348.939
349
349.057
349.11
349.162
349.211
349.257
400
400
400
400
400
400
400
400
399.999
399.994
399.767
399.588
399.422
399.251
399.058
398.826
398.531
398.149
397.648
396.999
396.171
395.138
393.877
392.375
390.628
388.643
386.437
384.039
381.485
378.821
376.094
373.355
370.654
368.037
365.545
363.21
361.059
359.107
357.363
355.828
354.496
353.356
352.394
351.593
350.934
350.4
349.971
349.632
349.366
349.161
349.004
348.886
348.797
348.732
348.685
348.651
348.627
348.611
348.6
348.595
348.713
348.799
348.873
348.939
348.999
349.056
349.11
349.162
349.211
349.256
400
400
400
400
400
400
400
400
399.999
399.994
399.767
399.587
399.421
399.25
399.058
398.825
398.531
398.148
397.647
396.998
396.17
395.137
393.877
392.376
390.63
388.646
386.442
384.045
381.492
378.829
376.102
373.364
370.663
368.046
365.553
363.218
361.066
359.113
357.368
355.832
354.499
353.359
352.396
351.595
350.936
350.401
349.972
349.632
349.366
349.161
349.004
348.886
348.797
348.732
348.685
348.651
348.627
348.611
348.6
348.595
348.713
348.799
348.872
348.938
348.999
349.056
349.11
349.162
349.211
349.256
400
400
400
400
400
400
400
400
399.999
399.994
399.767
399.587
399.421
399.25
399.057
398.825
398.531
398.148
397.647
396.998
396.171
395.138
393.878
392.378
390.633
388.651
386.447
384.052
381.501
378.838
376.112
373.374
370.673
368.056
365.563
363.227
361.073
359.12
357.374
355.837
354.503
353.362
352.399
351.597
350.937
350.402
349.973
349.633
349.367
349.161
349.004
348.886
348.797
348.732
348.684
348.65
348.627
348.61
348.6
348.595
348.712
348.799
348.872
348.938
348.999
349.056
349.11
349.161
349.211
349.256
400
400
400
400
400
400
400
400
399.999
399.994
399.766
399.587
399.421
399.249
399.057
398.825
398.531
398.148
397.648
397
396.173
395.141
393.882
392.383
390.639
388.658
386.456
384.062
381.512
378.85
376.125
373.387
370.686
368.068
365.574
363.237
361.083
359.128
357.381
355.843
354.508
353.366
352.402
351.599
350.939
350.403
349.974
349.634
349.367
349.162
349.004
348.886
348.797
348.732
348.684
348.65
348.626
348.61
348.599
348.595
348.712
348.799
348.872
348.938
348.999
349.056
349.11
349.161
349.21
349.256
400
400
400
400
400
400
400
400
399.999
399.994
399.766
399.587
399.421
399.249
399.057
398.825
398.531
398.149
397.65
397.002
396.176
395.145
393.887
392.389
390.647
388.667
386.467
384.074
381.525
378.864
376.139
373.401
370.7
368.082
365.587
363.249
361.094
359.138
357.389
355.85
354.514
353.371
352.406
351.603
350.942
350.405
349.975
349.635
349.368
349.162
349.005
348.886
348.797
348.732
348.684
348.65
348.626
348.61
348.599
348.595
348.712
348.799
348.872
348.938
348.999
349.056
349.11
349.161
349.21
349.256
400
400
400
400
400
400
400
400
399.999
399.994
399.766
399.587
399.421
399.249
399.057
398.826
398.532
398.151
397.652
397.005
396.18
395.15
393.894
392.397
390.657
388.679
386.48
384.088
381.54
378.88
376.155
373.418
370.716
368.097
365.602
363.263
361.106
359.149
357.399
355.858
354.521
353.377
352.411
351.606
350.945
350.408
349.977
349.636
349.369
349.163
349.005
348.886
348.797
348.732
348.684
348.65
348.626
348.61
348.599
348.595
348.712
348.799
348.872
348.938
348.999
349.056
349.11
349.161
349.21
349.256
400
400
400
400
400
400
400
400
399.999
399.994
399.766
399.587
399.421
399.25
399.058
398.826
398.534
398.153
397.655
397.009
396.186
395.157
393.902
392.407
390.668
388.692
386.494
384.104
381.557
378.897
376.173
373.436
370.734
368.114
365.618
363.278
361.12
359.16
357.409
355.867
354.528
353.383
352.416
351.61
350.948
350.41
349.979
349.638
349.37
349.164
349.006
348.887
348.798
348.732
348.684
348.65
348.626
348.61
348.599
348.595
348.712
348.799
348.872
348.938
348.999
349.056
349.11
349.161
349.21
349.256
400
400
400
400
400
400
400
400
399.999
399.994
399.767
399.587
399.421
399.25
399.058
398.827
398.535
398.155
397.659
397.014
396.192
395.165
393.912
392.418
390.681
388.706
386.511
384.122
381.576
378.917
376.193
373.455
370.753
368.133
365.635
363.293
361.134
359.173
357.42
355.876
354.536
353.389
352.421
351.615
350.951
350.413
349.981
349.639
349.372
349.165
349.007
348.887
348.798
348.732
348.684
348.65
348.626
348.61
348.599
348.594
348.712
348.798
348.872
348.938
348.999
349.056
349.11
349.161
349.21
349.256
400
400
400
400
400
400
400
400
399.999
399.994
399.767
399.587
399.421
399.25
399.059
398.828
398.537
398.158
397.662
397.019
396.198
395.173
393.921
392.43
390.695
388.721
386.527
384.139
381.594
378.936
376.213
373.475
370.772
368.151
365.652
363.309
361.147
359.185
357.431
355.885
354.544
353.396
352.426
351.619
350.955
350.416
349.983
349.641
349.373
349.166
349.007
348.888
348.798
348.733
348.685
348.65
348.627
348.61
348.599
348.594
348.712
348.798
348.872
348.938
348.999
349.056
349.11
349.161
349.21
349.256
400
400
400
400
400
400
400
400
399.999
399.994
399.767
399.587
399.421
399.251
399.059
398.829
398.538
398.16
397.665
397.023
396.204
395.179
393.929
392.439
390.705
388.733
386.54
384.153
381.609
378.951
376.228
373.49
370.786
368.164
365.664
363.32
361.158
359.194
357.438
355.892
354.549
353.4
352.43
351.622
350.957
350.418
349.985
349.642
349.374
349.167
349.008
348.888
348.799
348.733
348.685
348.651
348.627
348.61
348.599
348.594
348.712
348.798
348.872
348.938
348.999
349.056
349.11
349.161
349.21
349.256
400
400
400
400
400
400
400
400
399.999
399.994
399.767
399.587
399.421
399.251
399.059
398.829
398.538
398.16
397.665
397.023
396.203
395.179
393.929
392.439
390.705
388.732
386.539
384.152
381.608
378.95
376.227
373.489
370.785
368.163
365.663
363.319
361.157
359.193
357.438
355.891
354.549
353.4
352.43
351.622
350.957
350.417
349.985
349.642
349.374
349.167
349.008
348.888
348.799
348.733
348.685
348.651
348.627
348.61
348.599
348.594
348.712
348.798
348.872
348.938
348.999
349.056
349.11
349.161
349.21
349.256
400
400
400
400
400
400
400
400
399.999
399.994
399.767
399.587
399.421
399.25
399.059
398.828
398.537
398.158
397.662
397.018
396.197
395.172
393.92
392.428
390.693
388.719
386.525
384.137
381.592
378.933
376.21
373.472
370.769
368.148
365.649
363.306
361.145
359.183
357.429
355.884
354.542
353.394
352.425
351.618
350.954
350.415
349.983
349.641
349.373
349.166
349.007
348.888
348.798
348.733
348.685
348.65
348.627
348.61
348.599
348.594
348.712
348.798
348.872
348.938
348.999
349.056
349.11
349.161
349.21
349.256
400
400
400
400
400
400
400
400
399.999
399.994
399.767
399.587
399.421
399.25
399.058
398.827
398.535
398.155
397.658
397.013
396.19
395.163
393.909
392.416
390.678
388.703
386.507
384.118
381.572
378.912
376.189
373.451
370.749
368.128
365.631
363.289
361.13
359.17
357.417
355.874
354.534
353.388
352.42
351.613
350.95
350.412
349.981
349.639
349.372
349.165
349.007
348.887
348.798
348.732
348.685
348.65
348.626
348.61
348.599
348.594
348.712
348.798
348.872
348.938
348.999
349.056
349.11
349.161
349.21
349.256
400
400
400
400
400
400
400
400
399.999
399.994
399.767
399.587
399.421
399.25
399.058
398.826
398.533
398.152
397.654
397.008
396.184
395.154
393.899
392.404
390.664
388.687
386.489
384.099
381.551
378.892
376.167
373.43
370.728
368.109
365.612
363.273
361.115
359.156
357.405
355.863
354.525
353.38
352.414
351.609
350.947
350.409
349.978
349.637
349.37
349.164
349.006
348.887
348.798
348.732
348.684
348.65
348.626
348.61
348.599
348.594
348.712
348.798
348.872
348.938
348.999
349.056
349.11
349.161
349.21
349.256
400
400
400
400
400
400
400
400
399.999
399.994
399.767
399.588
399.421
399.25
399.058
398.826
398.532
398.15
397.651
397.004
396.178
395.147
393.89
392.393
390.652
388.673
386.474
384.081
381.533
378.872
376.148
373.41
370.709
368.09
365.595
363.257
361.1
359.143
357.394
355.854
354.517
353.374
352.408
351.604
350.943
350.406
349.976
349.635
349.369
349.163
349.005
348.886
348.797
348.732
348.684
348.65
348.626
348.61
348.599
348.594
348.712
348.798
348.872
348.938
348.999
349.056
349.11
349.161
349.21
349.256
400
400
400
400
400
400
400
400
399.999
399.994
399.767
399.588
399.421
399.25
399.058
398.825
398.531
398.149
397.649
397
396.173
395.141
393.883
392.384
390.641
388.661
386.46
384.066
381.516
378.855
376.13
373.392
370.691
368.073
365.579
363.242
361.087
359.131
357.384
355.845
354.51
353.368
352.403
351.6
350.94
350.404
349.974
349.634
349.368
349.162
349.004
348.886
348.797
348.732
348.684
348.65
348.626
348.61
348.599
348.594
348.712
348.798
348.872
348.938
348.999
349.056
349.11
349.161
349.21
349.256
400
400
400
400
400
400
400
400
399.999
399.994
399.767
399.588
399.422
399.25
399.058
398.825
398.531
398.148
397.647
396.998
396.17
395.137
393.877
392.377
390.633
388.651
386.448
384.053
381.502
378.84
376.114
373.376
370.675
368.058
365.565
363.229
361.075
359.121
357.374
355.837
354.503
353.362
352.399
351.597
350.937
350.402
349.972
349.633
349.367
349.161
349.004
348.885
348.797
348.731
348.684
348.65
348.626
348.61
348.599
348.594
348.712
348.798
348.872
348.938
348.999
349.056
349.11
349.161
349.21
349.256
400
400
400
400
400
400
400
400
399.999
399.994
399.767
399.588
399.422
399.251
399.058
398.825
398.53
398.147
397.646
396.996
396.168
395.134
393.873
392.372
390.626
388.642
386.438
384.042
381.49
378.826
376.1
373.362
370.661
368.044
365.552
363.217
361.064
359.111
357.366
355.83
354.498
353.357
352.395
351.594
350.935
350.4
349.971
349.631
349.366
349.161
349.004
348.885
348.797
348.732
348.684
348.65
348.626
348.61
348.599
348.594
348.712
348.798
348.872
348.938
348.999
349.056
349.11
349.161
349.21
349.256
400
400
400
400
400
400
400
400
399.999
399.994
399.768
399.589
399.422
399.251
399.058
398.826
398.531
398.147
397.646
396.996
396.167
395.133
393.871
392.369
390.622
388.637
386.431
384.033
381.48
378.816
376.089
373.351
370.65
368.033
365.541
363.207
361.055
359.104
357.36
355.825
354.493
353.354
352.392
351.591
350.933
350.398
349.97
349.631
349.365
349.16
349.004
348.885
348.797
348.732
348.684
348.65
348.627
348.61
348.599
348.594
348.712
348.799
348.872
348.938
348.999
349.056
349.11
349.161
349.211
349.256
400
400
400
400
400
400
400
400
399.999
399.994
399.768
399.589
399.423
399.252
399.059
398.826
398.531
398.148
397.647
396.996
396.168
395.133
393.871
392.368
390.62
388.633
386.426
384.027
381.472
378.807
376.079
373.34
370.64
368.023
365.532
363.198
361.047
359.097
357.354
355.82
354.489
353.35
352.389
351.589
350.931
350.397
349.969
349.63
349.365
349.16
349.003
348.885
348.797
348.732
348.684
348.651
348.627
348.611
348.599
348.594
348.712
348.799
348.872
348.938
348.999
349.056
349.11
349.162
349.211
349.256
400
400
400
400
400
400
400
400
399.999
399.994
399.768
399.589
399.423
399.252
399.06
398.827
398.533
398.149
397.648
396.999
396.17
395.136
393.873
392.37
390.621
388.633
386.424
384.024
381.468
378.801
376.073
373.334
370.633
368.016
365.525
363.192
361.042
359.092
357.349
355.816
354.486
353.348
352.387
351.587
350.93
350.396
349.968
349.63
349.365
349.16
349.004
348.885
348.797
348.732
348.685
348.651
348.627
348.611
348.6
348.595
348.712
348.799
348.872
348.938
348.999
349.056
349.11
349.162
349.211
349.256
400
400
400
400
400
400
400
400
399.999
399.994
399.769
399.59
399.424
399.253
399.061
398.829
398.534
398.151
397.651
397.002
396.174
395.14
393.878
392.373
390.623
388.634
386.424
384.022
381.465
378.797
376.068
373.328
370.626
368.01
365.519
363.186
361.037
359.087
357.346
355.813
354.483
353.346
352.386
351.586
350.929
350.395
349.968
349.629
349.365
349.16
349.004
348.885
348.797
348.732
348.685
348.651
348.627
348.611
348.6
348.595
348.712
348.799
348.873
348.938
348.999
349.056
349.11
349.162
349.211
349.257
400
400
400
400
400
400
400
400
399.999
399.994
399.769
399.59
399.425
399.254
399.062
398.831
398.537
398.155
397.655
397.007
396.181
395.147
393.885
392.381
390.63
388.64
386.429
384.025
381.467
378.798
376.067
373.327
370.625
368.008
365.517
363.184
361.035
359.086
357.344
355.812
354.482
353.345
352.385
351.586
350.929
350.395
349.968
349.629
349.365
349.16
349.004
348.886
348.798
348.733
348.685
348.651
348.628
348.611
348.6
348.595
348.713
348.799
348.873
348.939
349
349.057
349.111
349.162
349.211
349.257
400
400
400
400
400
400
400
400
399.999
399.994
399.769
399.591
399.426
399.255
399.064
398.833
398.54
398.159
397.66
397.014
396.188
395.156
393.894
392.39
390.639
388.647
386.435
384.029
381.469
378.798
376.067
373.326
370.623
368.007
365.515
363.183
361.033
359.084
357.343
355.811
354.482
353.344
352.385
351.585
350.928
350.395
349.968
349.63
349.365
349.16
349.004
348.886
348.798
348.733
348.686
348.652
348.628
348.612
348.6
348.595
348.713
348.8
348.873
348.939
349
349.057
349.111
349.162
349.211
349.257
400
400
400
400
400
400
400
400
399.999
399.994
399.77
399.592
399.427
399.257
399.066
398.836
398.544
398.164
397.668
397.023
396.2
395.169
393.908
392.404
390.653
388.661
386.447
384.04
381.478
378.807
376.074
373.332
370.629
368.011
365.519
363.186
361.037
359.087
357.346
355.813
354.483
353.346
352.386
351.586
350.929
350.396
349.968
349.63
349.365
349.161
349.005
348.886
348.798
348.733
348.686
348.652
348.628
348.612
348.601
348.595
348.713
348.8
348.873
348.939
349
349.057
349.111
349.162
349.211
349.257
400
400
400
400
400
400
400
400
399.999
399.994
399.77
399.593
399.428
399.259
399.068
398.839
398.548
398.17
397.676
397.034
396.212
395.183
393.923
392.419
390.667
388.673
386.458
384.049
381.486
378.813
376.079
373.336
370.632
368.014
365.522
363.189
361.039
359.089
357.348
355.815
354.485
353.347
352.387
351.587
350.93
350.397
349.969
349.631
349.366
349.161
349.005
348.887
348.799
348.734
348.686
348.652
348.628
348.612
348.601
348.596
348.713
348.8
348.873
348.939
349
349.057
349.111
349.162
349.211
349.257
400
400
400
400
400
400
400
400
399.999
399.994
399.771
399.594
399.43
399.261
399.072
398.843
398.554
398.179
397.687
397.048
396.229
395.202
393.944
392.441
390.689
388.695
386.478
384.069
381.504
378.83
376.095
373.351
370.646
368.027
365.534
363.2
361.049
359.098
357.355
355.821
354.49
353.351
352.39
351.59
350.932
350.398
349.971
349.632
349.367
349.162
349.006
348.887
348.799
348.734
348.687
348.653
348.629
348.612
348.601
348.596
348.713
348.8
348.873
348.939
349
349.057
349.111
349.162
349.211
349.257
400
400
400
400
400
400
400
400
399.999
399.994
399.771
399.595
399.431
399.263
399.075
398.848
398.561
398.188
397.699
397.062
396.245
395.22
393.963
392.459
390.706
388.711
386.493
384.081
381.515
378.84
376.104
373.359
370.654
368.035
365.542
363.207
361.056
359.105
357.361
355.826
354.495
353.355
352.394
351.593
350.934
350.4
349.972
349.633
349.368
349.163
349.006
348.888
348.8
348.734
348.687
348.653
348.629
348.612
348.601
348.596
348.713
348.8
348.873
348.939
349
349.057
349.111
349.162
349.211
349.257
400
400
400
400
400
400
400
400
399.999
399.994
399.772
399.596
399.433
399.266
399.079
398.853
398.569
398.199
397.713
397.08
396.266
395.243
393.988
392.485
390.733
388.737
386.518
384.105
381.539
378.862
376.126
373.381
370.675
368.056
365.561
363.225
361.072
359.119
357.374
355.837
354.504
353.362
352.399
351.597
350.938
350.403
349.974
349.635
349.37
349.164
349.007
348.889
348.8
348.735
348.687
348.653
348.629
348.612
348.601
348.596
348.713
348.8
348.873
348.939
349
349.057
349.111
349.162
349.212
349.257
400
400
400
400
400
400
400
400
399.999
399.994
399.773
399.597
399.435
399.268
399.081
398.857
398.574
398.205
397.721
397.089
396.276
395.253
393.996
392.491
390.735
388.736
386.515
384.101
381.533
378.857
376.122
373.378
370.674
368.056
365.563
363.229
361.077
359.124
357.379
355.842
354.508
353.366
352.402
351.6
350.94
350.405
349.976
349.636
349.37
349.165
349.008
348.889
348.8
348.735
348.687
348.653
348.629
348.612
348.601
348.595
348.713
348.8
348.873
348.939
349
349.057
349.111
349.162
349.211
349.257
400
400
400
400
400
400
400
400
399.999
399.994
399.773
399.598
399.435
399.268
399.08
398.855
398.571
398.202
397.716
397.082
396.265
395.237
393.974
392.463
390.702
388.698
386.473
384.057
381.49
378.815
376.083
373.343
370.644
368.03
365.542
363.21
361.061
359.111
357.368
355.832
354.499
353.359
352.396
351.595
350.936
350.401
349.973
349.634
349.368
349.163
349.006
348.887
348.799
348.733
348.686
348.652
348.628
348.611
348.599
348.594
348.712
348.799
348.873
348.939
349
349.057
349.111
349.162
349.211
349.257
400
400
400
400
400
400
400
400
399.999
399.994
399.772
399.595
399.429
399.257
399.063
398.829
398.531
398.145
397.64
396.981
396.137
395.077
393.781
392.237
390.444
388.414
386.167
383.737
381.163
378.489
375.765
373.038
370.357
367.765
365.3
362.993
360.868
358.941
357.22
355.705
354.391
353.267
352.32
351.532
350.884
350.359
349.939
349.606
349.346
349.145
348.991
348.875
348.788
348.725
348.678
348.645
348.621
348.605
348.594
348.589
348.708
348.795
348.869
348.936
348.998
349.055
349.11
349.161
349.211
349.257
400
400
400
400
400
400
400
400
399.999
399.993
399.766
399.582
399.405
399.217
398.997
398.725
398.377
397.923
397.336
396.582
395.63
394.455
393.04
391.378
389.475
387.347
385.02
382.531
379.921
377.234
374.52
371.825
369.193
366.666
364.278
362.056
360.021
358.185
356.553
355.125
353.893
352.845
351.966
351.238
350.642
350.162
349.778
349.476
349.241
349.06
348.922
348.818
348.741
348.684
348.643
348.614
348.593
348.579
348.57
348.566
348.689
348.78
348.857
348.927
348.99
349.05
349.107
349.16
349.211
349.259
400
400
400
400
400
400
400
400
399.999
399.991
399.742
399.53
399.318
399.077
398.779
398.389
397.874
397.195
396.321
395.227
393.901
392.332
390.517
388.467
386.204
383.763
381.184
378.511
375.792
373.074
370.403
367.821
365.364
363.062
360.939
359.009
357.28
355.755
354.428
353.292
352.33
351.528
350.868
350.331
349.899
349.557
349.288
349.08
348.921
348.8
348.709
348.642
348.593
348.557
348.532
348.514
348.502
348.494
348.488
348.489
348.632
348.738
348.827
348.906
348.979
349.047
349.11
349.17
349.227
349.278
400
400
400
400
400
400
400
399.999
399.998
399.985
399.654
399.374
399.08
398.723
398.253
397.611
396.737
395.578
394.096
392.278
390.134
387.703
385.045
382.221
379.293
376.319
373.358
370.464
367.684
365.062
362.628
360.408
358.416
356.658
355.13
353.821
352.717
351.797
351.041
350.428
349.936
349.548
349.244
349.008
348.829
348.693
348.591
348.516
348.461
348.421
348.392
348.371
348.357
348.346
348.34
348.335
348.332
348.331
348.331
348.338
348.554
348.702
348.821
348.924
349.014
349.096
349.17
349.238
349.301
349.357
400
400
400
400
400
400
400
400
399.998
399.988
399.736
399.482
399.203
398.864
398.417
397.806
396.973
395.864
394.438
392.678
390.591
388.211
385.595
382.807
379.904
376.945
373.989
371.089
368.292
365.643
363.175
360.913
358.876
357.07
355.494
354.14
352.993
352.035
351.244
350.601
350.084
349.673
349.352
349.102
348.911
348.766
348.657
348.576
348.517
348.474
348.442
348.42
348.404
348.393
348.386
348.381
348.378
348.376
348.375
348.381
348.556
348.696
348.813
348.915
349.005
349.086
349.161
349.23
349.293
349.35
400
400
400
400
400
400
400
400
399.999
399.994
399.816
399.633
399.438
399.213
398.936
398.576
398.099
397.47
396.657
395.635
394.389
392.91
391.189
389.233
387.06
384.7
382.191
379.573
376.892
374.194
371.524
368.924
366.432
364.08
361.894
359.891
358.084
356.477
355.069
353.852
352.816
351.946
351.223
350.631
350.152
349.769
349.467
349.231
349.049
348.91
348.805
348.726
348.669
348.627
348.596
348.575
348.56
348.55
348.543
348.542
348.645
348.739
348.822
348.899
348.97
349.037
349.099
349.158
349.214
349.266
400
400
400
400
400
400
400
400
399.999
399.996
399.837
399.679
399.517
399.342
399.138
398.886
398.565
398.148
397.607
396.913
396.034
394.941
393.618
392.053
390.25
388.22
385.985
383.577
381.034
378.398
375.715
373.03
370.389
367.833
365.398
363.115
361.008
359.091
357.373
355.857
354.538
353.407
352.45
351.651
350.993
350.457
350.026
349.683
349.415
349.206
349.046
348.925
348.834
348.767
348.718
348.682
348.657
348.639
348.627
348.621
348.707
348.785
348.856
348.922
348.984
349.042
349.098
349.151
349.201
349.248
400
400
400
400
400
400
400
400
399.999
399.996
399.842
399.691
399.539
399.378
399.197
398.979
398.705
398.35
397.885
397.28
396.5
395.518
394.309
392.859
391.165
389.233
387.082
384.738
382.237
379.621
376.937
374.23
371.548
368.936
366.432
364.07
361.878
359.873
358.068
356.466
355.065
353.858
352.831
351.97
351.257
350.674
350.203
349.827
349.531
349.301
349.123
348.988
348.886
348.81
348.755
348.715
348.686
348.666
348.652
348.644
348.725
348.8
348.869
348.932
348.992
349.048
349.101
349.152
349.201
349.247
400
400
400
400
400
400
400
400
399.999
399.996
399.843
399.693
399.544
399.388
399.212
399.003
398.741
398.401
397.955
397.371
396.618
395.665
394.488
393.071
391.408
389.504
387.375
385.047
382.555
379.94
377.25
374.532
371.833
369.201
366.674
364.289
362.074
360.046
358.22
356.598
355.178
353.954
352.912
352.037
351.312
350.719
350.24
349.857
349.555
349.32
349.139
349.001
348.897
348.82
348.763
348.722
348.692
348.672
348.657
348.649
348.73
348.804
348.872
348.935
348.994
349.049
349.102
349.153
349.202
349.247
400
400
400
400
400
400
400
400
399.999
399.996
399.843
399.692
399.543
399.387
399.213
399.004
398.742
398.403
397.959
397.377
396.627
395.678
394.506
393.095
391.438
389.538
387.413
385.087
382.595
379.979
377.286
374.564
371.861
369.224
366.694
364.306
362.087
360.058
358.229
356.606
355.185
353.96
352.917
352.041
351.316
350.722
350.242
349.86
349.558
349.322
349.141
349.002
348.898
348.821
348.764
348.723
348.693
348.673
348.658
348.65
348.731
348.805
348.873
348.936
348.994
349.05
349.103
349.153
349.202
349.247
400
400
400
400
400
400
400
400
399.999
399.996
399.842
399.691
399.542
399.385
399.21
399.001
398.738
398.397
397.951
397.368
396.617
395.669
394.499
393.09
391.435
389.539
387.416
385.092
382.601
379.986
377.292
374.568
371.864
369.225
366.693
364.303
362.083
360.053