/*--------------------------------*- C++ -*----------------------------------*\
  =========                 |
  \\      /  F ield         | OpenFOAM: The Open Source CFD Toolbox
   \\    /   O peration     | Website:  https://openfoam.org
    \\  /    A nd           | Version:  12
     \\/     M anipulation  |
\*---------------------------------------------------------------------------*/
FoamFile
{
    format      ascii;
    class       volScalarField;
    location    "1600/air";
    object      alphat;
}
// * * * * * * * * * * * * * * * * * * * * * * * * * * * * * * * * * * * * * //

dimensions      [1 -1 -1 0 0 0 0];

internalField   nonuniform List<scalar> 
243000
(
0.000146474
0.000149649
0.00014931
0.000147186
0.000143721
0.000139332
0.000134391
0.000129192
0.000123954
0.000118848
0.000113974
0.000109445
0.000105357
0.000101776
9.8664e-05
9.59873e-05
9.36944e-05
9.18257e-05
9.04694e-05
8.97238e-05
8.95691e-05
8.97854e-05
8.99437e-05
8.94511e-05
8.78103e-05
0.000390216
0.000385917
0.000360922
0.000319213
0.000274933
0.000545684
0.000554064
0.000544548
0.000526504
0.000504824
0.000481749
0.000458541
0.000435997
0.000414614
0.000394706
0.000376458
0.000360075
0.000345623
0.000333166
0.000322674
0.000314106
0.000307397
0.000302871
0.000300862
0.000301778
0.000305535
0.000311351
0.000317663
0.000322403
0.000323577
0.000321484
0.000310639
0.0002955
0.000275243
0.000246095
0.000671921
0.000724635
0.000744203
0.000749024
0.000744986
0.00073544
0.000722301
0.00070686
0.000689962
0.00067226
0.000654206
0.000636294
0.000618769
0.000601967
0.00058612
0.000571448
0.000558137
0.000547053
0.00053879
0.00053386
0.000531917
0.000531629
0.000530675
0.000526205
0.00051562
0.000497077
0.00047007
0.000433324
0.000391117
0.000337657
0.000659007
0.00072388
0.000755313
0.000767672
0.000768279
0.000761814
0.00075073
0.000736679
0.000720695
0.000703589
0.000685928
0.000668244
0.00065085
0.00063417
0.000618525
0.000604229
0.000591566
0.000581472
0.000574393
0.00057058
0.000569479
0.000569762
0.000569392
0.000565831
0.000556528
0.000539382
0.000513927
0.000478407
0.000436566
0.000383902
0.000627487
0.000699006
0.000741405
0.000762916
0.000770799
0.00076969
0.000762603
0.000751726
0.000738129
0.000722881
0.000706683
0.000690125
0.00067363
0.000657737
0.000642852
0.000629404
0.000617768
0.000608887
0.000603033
0.000600181
0.000599589
0.000599976
0.000599609
0.000596332
0.000587817
0.00057204
0.000548292
0.000515071
0.000475097
0.000425351
0.000592476
0.000656926
0.000708062
0.00073984
0.000756758
0.000762986
0.000761813
0.00075517
0.000745003
0.00073264
0.000718767
0.000704058
0.000689074
0.000674484
0.000660759
0.000648499
0.000638134
0.000630571
0.000625913
0.000623895
0.000623646
0.000623944
0.000623324
0.000620006
0.000611959
0.000597341
0.000575308
0.000544654
0.000507195
0.000460938
0.000581551
0.000619778
0.000665835
0.000703625
0.000729591
0.000744026
0.00074974
0.000748886
0.000743438
0.000734675
0.000723694
0.000711454
0.0006985
0.000685629
0.000673396
0.000662577
0.00065364
0.000647425
0.000643902
0.000642624
0.000642629
0.000642775
0.000641815
0.000638297
0.000630519
0.000616853
0.00059644
0.000568305
0.000533616
0.000490934
0.000594089
0.000603424
0.000633881
0.00066861
0.000697326
0.000716779
0.000729146
0.000734415
0.0007343
0.000730023
0.000722761
0.000713416
0.000702843
0.00069205
0.000681597
0.00067241
0.000665005
0.000660132
0.000657676
0.000657067
0.000657286
0.000657284
0.000655986
0.000652219
0.000644588
0.000631706
0.000612772
0.000586996
0.00055518
0.00051589
0.000620371
0.000607202
0.000616582
0.000640456
0.000667308
0.000689444
0.000705312
0.000714559
0.000719357
0.000719769
0.000716582
0.000710682
0.000702989
0.000694481
0.000686011
0.000678593
0.000672778
0.000669221
0.000667774
0.000667782
0.000668208
0.000668097
0.000666518
0.000662517
0.000654979
0.000642754
0.000625159
0.000601609
0.000572504
0.000536407
0.000653578
0.000628735
0.000617066
0.00062418
0.000642668
0.000663528
0.000681318
0.00069385
0.000701714
0.000705558
0.000706241
0.000703947
0.000699348
0.00069343
0.000687139
0.000681597
0.0006774
0.00067513
0.000674642
0.000675223
0.00067587
0.000675713
0.000673938
0.000669764
0.000662317
0.000650688
0.000634357
0.000612694
0.000586056
0.000553002
0.000687199
0.00065961
0.000635739
0.000624362
0.000628588
0.0006424
0.000658753
0.000672896
0.000683343
0.000689922
0.00069314
0.000694065
0.00069258
0.000689402
0.000685409
0.000681813
0.000679244
0.000678237
0.000678651
0.000679779
0.000680672
0.000680544
0.00067867
0.00067441
0.000667119
0.000656033
0.000640703
0.00062072
0.000596337
0.000566295
0.000720834
0.000695376
0.000666377
0.000642423
0.000630202
0.000631241
0.000640999
0.00065352
0.000664994
0.000673708
0.000679285
0.00068221
0.000683393
0.000682879
0.000681224
0.000679593
0.000678634
0.000678852
0.000680127
0.000681797
0.000682969
0.00068294
0.000681083
0.000676851
0.000669707
0.000659068
0.000644651
0.000626158
0.000603796
0.000576487
0.000753701
0.000729428
0.000700737
0.000671906
0.000648111
0.00063472
0.000632899
0.000639107
0.000648571
0.000657821
0.000665083
0.000669915
0.000672731
0.000674445
0.000675005
0.000675287
0.000675882
0.000677274
0.000679364
0.000681578
0.000683078
0.000683186
0.000681371
0.000677183
0.000670237
0.000660084
0.000646552
0.000629395
0.000608822
0.00058397
0.000785519
0.00076241
0.000735844
0.000706648
0.000677665
0.000653491
0.00063864
0.000634164
0.00063735
0.000644209
0.000651532
0.000657565
0.000661843
0.000664885
0.000667246
0.000669265
0.000671322
0.000673814
0.00067667
0.0006794
0.000681242
0.000681567
0.000679914
0.000675891
0.000669173
0.000659467
0.000646674
0.000630744
0.000611783
0.000589146
0.000816151
0.000794222
0.000770163
0.000742465
0.00071278
0.000683413
0.000658567
0.000642182
0.000635331
0.000635944
0.000640543
0.000646179
0.000651185
0.000655176
0.00065859
0.000661974
0.000665303
0.00066879
0.000672346
0.000675555
0.000677741
0.000678335
0.00067692
0.000673167
0.000666803
0.000657589
0.00064551
0.000630585
0.000613051
0.000592388
0.000845474
0.000824667
0.000802242
0.000776848
0.000748766
0.000718606
0.000688767
0.000663149
0.000645331
0.000636473
0.000634893
0.000637553
0.000641753
0.000645983
0.000649853
0.000653971
0.000658236
0.00066254
0.000666702
0.000670336
0.000672851
0.000673739
0.000672618
0.000669207
0.000663296
0.00065468
0.000643404
0.00062964
0.000613521
0.000594778
0.000873329
0.000853627
0.000832682
0.00080949
0.000783595
0.000754795
0.000723934
0.000693451
0.000667026
0.000647994
0.0006375
0.000634133
0.000635185
0.000638234
0.000641883
0.000645948
0.000650626
0.00065546
0.000660075
0.000664054
0.000666861
0.000668051
0.000667273
0.000664277
0.000659035
0.000651372
0.000641203
0.00062859
0.000613771
0.000596666
0.000899518
0.000880876
0.0008613
0.000840109
0.00081641
0.000789712
0.000759995
0.000728299
0.000697115
0.000669999
0.000650049
0.00063834
0.000633596
0.000633379
0.00063553
0.000638922
0.000643178
0.000648059
0.000652867
0.000657063
0.000660111
0.000661658
0.000661455
0.000659184
0.000654725
0.000647978
0.000638834
0.000627339
0.000613726
0.000598072
0.000923816
0.000906157
0.000887858
0.00086849
0.000846868
0.000822412
0.000794717
0.000763951
0.00073136
0.00069955
0.000671966
0.000651478
0.000638977
0.000633242
0.000632078
0.00063366
0.000636886
0.000641134
0.000645694
0.000649942
0.000653289
0.000655295
0.000655632
0.000654021
0.00065031
0.000644415
0.000636245
0.000625819
0.000613351
0.000598999
0.000946025
0.00092934
0.000912436
0.000894694
0.000874956
0.00085262
0.000827149
0.000798276
0.000766383
0.000732956
0.000700722
0.00067301
0.000652385
0.000639464
0.000633061
0.000631289
0.000632473
0.000635469
0.000639345
0.000643329
0.000646738
0.000649042
0.000649834
0.000648803
0.000645783
0.000640679
0.000633422
0.000624004
0.000612614
0.000599442
0.00096606
0.000950479
0.000935225
0.000918844
0.000900746
0.00088032
0.000856993
0.000830313
0.000800176
0.00076721
0.000733154
0.000700829
0.000673396
0.000652954
0.000639905
0.000633155
0.000630964
0.000631768
0.000634306
0.00063756
0.000640697
0.000643064
0.00064416
0.0006436
0.000641191
0.000636807
0.000630401
0.000621919
0.000611535
0.000599429
0.000984057
0.000970077
0.000955814
0.00094067
0.000924073
0.000905419
0.000884133
0.000859697
0.000831771
0.00080045
0.000766639
0.000732321
0.00070035
0.000673467
0.000653465
0.000640553
0.000633612
0.000631036
0.00063132
0.00063318
0.000635564
0.000637652
0.000638815
0.00063856
0.000636644
0.000632891
0.000627254
0.000619633
0.00061018
0.000599066
0.000999716
0.000986755
0.000973628
0.000959799
0.000944726
0.000927838
0.000908578
0.000886417
0.000860912
0.000831865
0.000799613
0.000765367
0.00073126
0.000699925
0.000673867
0.000654496
0.000641777
0.000634591
0.000631499
0.000631055
0.000631996
0.000633299
0.000634165
0.000633966
0.00063236
0.000629108
0.000624122
0.000617279
0.000608676
0.000598477
0.0010127
0.00100088
0.000988971
0.000976496
0.000962971
0.000947879
0.000930694
0.000910893
0.000887982
0.000861613
0.000831759
0.000799051
0.000764881
0.000731342
0.000700972
0.000675862
0.000657024
0.000644237
0.000636558
0.000632658
0.000631181
0.000630932
0.00063092
0.000630361
0.000628761
0.000625798
0.00062129
0.000615107
0.000607258
0.000597894
0.00102366
0.00101313
0.00100255
0.000991537
0.000979677
0.000966531
0.000951602
0.000934386
0.000914372
0.000891111
0.000864357
0.000834304
0.000801787
0.000768201
0.000735662
0.000706347
0.000681889
0.000662995
0.000649604
0.00064087
0.000635614
0.000632611
0.000630731
0.000629043
0.000626865
0.000623748
0.000619417
0.000613637
0.000606355
0.000597687
0.00103332
0.00102449
0.00101563
0.00100648
0.000996739
0.000986029
0.000973912
0.000959904
0.000943479
0.000924109
0.000901379
0.000875164
0.000845824
0.000814274
0.00078192
0.00075053
0.000721764
0.000696996
0.000677121
0.000662069
0.000651196
0.000643542
0.000638043
0.000633705
0.00062971
0.000625443
0.000620445
0.00061443
0.000607264
0.000599013
0.00104506
0.00103894
0.00103281
0.00102654
0.00101995
0.00101276
0.00100462
0.000995074
0.000983568
0.000969485
0.000952234
0.000931434
0.000907074
0.000879678
0.00085017
0.000819397
0.000788449
0.000759121
0.000732893
0.000710516
0.000692099
0.000677289
0.000665407
0.000655669
0.000647311
0.000639643
0.000632105
0.000624291
0.000615938
0.000607102
0.00107177
0.00107017
0.00106843
0.00106672
0.00106515
0.00106361
0.00106178
0.00105913
0.00105498
0.00104852
0.00103898
0.00102584
0.00100889
0.000988319
0.000964755
0.000937982
0.000908069
0.00087713
0.000846695
0.000818041
0.000791852
0.000768393
0.000747575
0.000729164
0.000712783
0.000697842
0.000683881
0.000670578
0.000657689
0.000645788
0.0011665
0.0011705
0.00117409
0.00117897
0.00118567
0.0011935
0.00120152
0.00120869
0.0012142
0.00121713
0.0012166
0.00121255
0.00120477
0.0011936
0.00117902
0.00116024
0.0011361
0.00110922
0.00108108
0.00105285
0.00102521
0.000998493
0.000972976
0.000948905
0.000926328
0.000903924
0.000881838
0.000860436
0.0008402
0.000822839
0.00152288
0.00152177
0.00152428
0.00153336
0.00154531
0.00155562
0.00156374
0.00156985
0.00157424
0.00157582
0.00157487
0.00157249
0.00156881
0.00156448
0.00155853
0.00155074
0.00153807
0.00152568
0.00151384
0.0015034
0.00149402
0.00148574
0.00147842
0.00147229
0.00146712
0.00145711
0.00144544
0.00143334
0.00142278
0.00141416
0.000185909
0.000190445
0.000188531
0.000183939
0.000177724
0.000170557
0.000162934
0.000155253
0.000147789
0.00014074
0.000134238
0.000128435
0.000123377
0.000119136
0.000115685
0.000113046
0.000111209
0.000110363
0.000110821
0.000112756
0.000115684
0.000118634
0.000120602
0.00012075
0.000118479
0.000113163
0.000104449
9.12958e-05
0.000394609
0.000364606
0.000788518
0.000887877
0.00086527
0.000799582
0.000723187
0.00065023
0.000585718
0.000530041
0.000482329
0.000441673
0.00040762
0.000379136
0.000354917
0.000334751
0.000317688
0.000303553
0.000291553
0.00028309
0.000278476
0.000278502
0.000283774
0.000294028
0.000306866
0.000317991
0.000321735
0.0003156
0.000300046
0.000274077
0.000283976
0.000334466
0.00122677
0.00141108
0.00142601
0.00136289
0.00126931
0.0011679
0.00107033
0.000981474
0.000902383
0.000833334
0.000774371
0.000724433
0.000681734
0.000646149
0.000616302
0.000591216
0.000569243
0.000552084
0.000537566
0.000526401
0.000521944
0.000526987
0.000539455
0.000552417
0.000557508
0.000546666
0.000519567
0.000473265
0.000438636
0.000435233
0.00150715
0.00173656
0.00177936
0.00173949
0.00165728
0.00155562
0.00145015
0.00134925
0.00125573
0.00117176
0.00109844
0.00103555
0.000981728
0.00093728
0.000900971
0.000871152
0.000845683
0.000825262
0.000804368
0.000783192
0.000766501
0.000760642
0.00076551
0.000775244
0.000776988
0.000761442
0.000725963
0.000666061
0.000606166
0.000571281
0.00166206
0.00187812
0.00196732
0.00196365
0.00190351
0.00181466
0.00171649
0.00161933
0.00152401
0.00143592
0.00135769
0.00128944
0.00123109
0.00118363
0.00114605
0.00111663
0.00109306
0.00107369
0.00104941
0.00102076
0.000994206
0.000977346
0.000973124
0.000976708
0.00097449
0.000955331
0.000915017
0.00084795
0.000773323
0.000718895
0.0017373
0.00194411
0.00204509
0.00206969
0.0020384
0.0019781
0.00189635
0.00180441
0.00171254
0.00162886
0.00155426
0.00148675
0.00142944
0.00138368
0.00134898
0.00132376
0.0013059
0.00128974
0.00126575
0.00123263
0.00119783
0.00117169
0.00115905
0.00115723
0.00115028
0.00112846
0.00108563
0.00101581
0.000934113
0.000867789
0.00177249
0.00192878
0.00202885
0.00207414
0.00207268
0.00204037
0.00198411
0.00191386
0.00184139
0.00176641
0.00169541
0.0016319
0.00158093
0.00154081
0.00151226
0.0014944
0.00148462
0.00147366
0.00145053
0.00141504
0.00137571
0.00134309
0.00132278
0.00131476
0.00130546
0.00128181
0.00123825
0.00116905
0.0010847
0.00101034
0.00176673
0.00185766
0.00193351
0.00198781
0.00201711
0.00202257
0.00199697
0.00195435
0.00190233
0.0018449
0.00178749
0.00173655
0.00169157
0.00165906
0.00163936
0.00163157
0.00163078
0.00162642
0.00160646
0.00157088
0.00152974
0.00149209
0.00146537
0.00145144
0.00143914
0.00141622
0.00137367
0.00130747
0.00122426
0.00114501
0.00176333
0.00179153
0.00183193
0.00187331
0.00191001
0.00193536
0.00194176
0.00193414
0.00190861
0.00187355
0.00183448
0.00179753
0.00176512
0.00174359
0.00173396
0.00173767
0.00174686
0.00174959
0.00173485
0.00170209
0.00166044
0.00161955
0.00158806
0.00156887
0.00155281
0.0015308
0.00149325
0.00143211
0.00135308
0.00127
0.00180593
0.00176788
0.00175433
0.00176571
0.00179153
0.00182174
0.00184646
0.00186225
0.00186543
0.00185786
0.00184107
0.00182219
0.00180536
0.00179702
0.00179942
0.00181515
0.00183475
0.00184539
0.00183744
0.00180903
0.00176864
0.0017269
0.00169225
0.00166869
0.00164962
0.00162897
0.00159493
0.00154084
0.00146669
0.00138364
0.0018657
0.00178901
0.00172164
0.00168882
0.00168805
0.00170733
0.00173534
0.00176415
0.00178727
0.00180381
0.00181223
0.00181447
0.00181579
0.00182311
0.00183863
0.00186678
0.00189696
0.00191713
0.00191594
0.00189283
0.00185615
0.00181587
0.00177933
0.00175249
0.00173065
0.00170874
0.00167743
0.00163095
0.00156474
0.00148666
0.00195783
0.00184722
0.00174257
0.00166482
0.00162165
0.00161658
0.00163224
0.00166097
0.0016936
0.00172561
0.00175417
0.00177897
0.00180034
0.00182449
0.00185434
0.00189523
0.00193605
0.0019651
0.00197217
0.00195754
0.00192663
0.00188856
0.00185075
0.00181981
0.00179308
0.00176875
0.00174174
0.00170269
0.00164687
0.00157674
0.00207515
0.00194291
0.00180945
0.00169704
0.00161808
0.00157414
0.0015592
0.00157509
0.00160406
0.00164106
0.0016812
0.00172228
0.00176331
0.00180488
0.0018496
0.00190324
0.00195455
0.00199254
0.00200835
0.00200221
0.00197822
0.0019445
0.00190785
0.00187548
0.00184636
0.00181867
0.00179062
0.00175829
0.00171206
0.00165276
0.00222171
0.00207904
0.00192838
0.00178898
0.00167447
0.00159171
0.00154499
0.00152935
0.00153909
0.00156865
0.00160944
0.00165799
0.00171152
0.00176897
0.00182817
0.00189399
0.00195533
0.0020021
0.00202722
0.00202979
0.00201337
0.00198515
0.0019515
0.0019192
0.00188968
0.00186083
0.00183214
0.0018013
0.00176583
0.0017191
0.0023935
0.00224911
0.00209227
0.00193724
0.00179622
0.00167799
0.00159167
0.00153952
0.00151974
0.00152724
0.00155598
0.00160132
0.00165815
0.00172364
0.00179494
0.00187133
0.00194164
0.00199671
0.00203089
0.00204214
0.00203368
0.00201184
0.00198277
0.00195198
0.00192362
0.00189602
0.00186891
0.00184085
0.00181185
0.00177505
0.00258444
0.00244733
0.00229401
0.00213331
0.00197575
0.00183033
0.00170839
0.00161717
0.00155965
0.00153506
0.00153933
0.00156828
0.00161717
0.00168156
0.00175657
0.00184033
0.00191752
0.00197967
0.00202195
0.00204158
0.00204116
0.00202633
0.00200313
0.00197558
0.00195017
0.00192565
0.00190098
0.00187425
0.00184667
0.00181734
0.00278966
0.00266736
0.00252413
0.00236495
0.00219989
0.00203752
0.00188861
0.0017626
0.0016663
0.00160322
0.00157348
0.00157495
0.00160368
0.00165513
0.00172444
0.00180787
0.00188812
0.00195497
0.00200381
0.00203118
0.00203874
0.00203147
0.00201536
0.00199346
0.00197067
0.00194791
0.00192487
0.00189935
0.00187307
0.00184639
0.00300203
0.00289816
0.00276928
0.00261795
0.00245364
0.00228421
0.00211854
0.00196621
0.00183599
0.00173458
0.00166599
0.00163169
0.00162988
0.00165707
0.0017091
0.00178218
0.0018598
0.00192776
0.00198082
0.00201535
0.00203099
0.0020311
0.00202015
0.00200256
0.00198186
0.00196141
0.00194014
0.0019173
0.00189229
0.00186725
0.00321414
0.00312795
0.0030162
0.00287873
0.00272241
0.00255416
0.00238115
0.00221207
0.00205609
0.0019215
0.00181497
0.00174128
0.00170172
0.00169482
0.00172001
0.00177207
0.00183751
0.00190264
0.00195734
0.00199604
0.00201667
0.00202194
0.00201603
0.002003
0.0019853
0.00196737
0.00194835
0.00192855
0.00190527
0.00188218
0.0034168
0.0033484
0.00325527
0.00313491
0.00299155
0.00283066
0.00265806
0.00248099
0.00230796
0.00214763
0.00200793
0.00189594
0.00181595
0.00176979
0.00175896
0.00178041
0.00182518
0.00187888
0.00192976
0.00196972
0.00199471
0.00200507
0.00200455
0.00199604
0.00198224
0.00196693
0.00195062
0.00193359
0.00191324
0.00189259
0.00360391
0.00355151
0.00347612
0.00337351
0.00324562
0.00309603
0.00292934
0.00275111
0.00256847
0.00238953
0.0022226
0.00207613
0.00195694
0.00187086
0.00181829
0.00180303
0.00181735
0.00185235
0.00189528
0.00193287
0.00196119
0.001978
0.00198474
0.00198137
0.00197258
0.00196072
0.00194775
0.0019339
0.00191729
0.00189979
0.00376727
0.00372705
0.00366615
0.00357948
0.00346691
0.00333
0.00317183
0.00299622
0.00280862
0.00261604
0.00242689
0.00225064
0.00209609
0.00197222
0.00187883
0.0018233
0.00180238
0.00181075
0.0018388
0.00187409
0.00190714
0.00193257
0.00194668
0.00195261
0.00195237
0.00194662
0.00193841
0.00192871
0.0019168
0.00190425
0.0038929
0.00385887
0.00380726
0.0037324
0.0036323
0.0035064
0.00335586
0.00318276
0.00299101
0.00278705
0.0025797
0.0023795
0.00219655
0.00204065
0.00191459
0.00182115
0.00176276
0.00173897
0.00174488
0.00177122
0.00180748
0.00184445
0.00187408
0.00189473
0.00190778
0.00191396
0.00191503
0.00191435
0.00191007
0.00190461
0.00395546
0.00392065
0.00387155
0.00380235
0.00370938
0.00358996
0.00344304
0.00326944
0.00307283
0.00286055
0.00264262
0.00243034
0.0022332
0.00205938
0.00191484
0.00179551
0.00170286
0.00164399
0.00161781
0.00162128
0.0016482
0.0016898
0.0017348
0.00177591
0.00181068
0.00183805
0.00185833
0.00187357
0.00188366
0.00189156
0.00391314
0.00386988
0.00381642
0.00374739
0.0036572
0.00354102
0.00339628
0.00322434
0.0030309
0.00282524
0.00261754
0.00241829
0.00223286
0.00206651
0.00192474
0.00179998
0.00168777
0.00159745
0.00153217
0.00149438
0.00148482
0.00150135
0.00153636
0.00158254
0.00163355
0.00168404
0.00173037
0.0017713
0.0018059
0.00183688
0.00370027
0.00365267
0.00360048
0.0035373
0.00345696
0.00335442
0.00322814
0.00308155
0.00292173
0.00275609
0.00259189
0.00243543
0.00228833
0.00215423
0.00203698
0.00192731
0.0018164
0.00171178
0.00161701
0.00153669
0.00147468
0.00143452
0.00141703
0.00142131
0.00144475
0.00148315
0.00153141
0.00158484
0.00163935
0.00169534
0.00331166
0.00328583
0.00326385
0.00323768
0.00319976
0.00314454
0.00307115
0.00298349
0.00288696
0.00278572
0.00268295
0.00257995
0.00247706
0.00237996
0.00229296
0.00220774
0.00211282
0.00201416
0.00191437
0.00181717
0.00172504
0.00164166
0.00157038
0.00151401
0.00147444
0.00145237
0.00144735
0.0014578
0.00148168
0.00152478
0.00298984
0.00302681
0.003069
0.00310071
0.0031162
0.00311259
0.00309094
0.00305556
0.00300867
0.0029529
0.00289079
0.00282314
0.00275099
0.0026793
0.0026142
0.00254942
0.00247675
0.00240054
0.00232068
0.00223978
0.0021589
0.00207936
0.00200198
0.0019286
0.00186086
0.00180027
0.00174861
0.00170687
0.00167677
0.00167849
0.00299386
0.00304285
0.00309755
0.00314724
0.00318021
0.00319502
0.00319309
0.00317512
0.00314483
0.00310514
0.00305964
0.00300757
0.00295061
0.0028964
0.0028454
0.00279397
0.00274261
0.00269246
0.00264346
0.00259733
0.00255528
0.00251663
0.00248077
0.00244738
0.00241485
0.00238184
0.00234956
0.00231949
0.00229337
0.00229356
0.00311541
0.00315002
0.00318415
0.003215
0.00322874
0.00322963
0.00322043
0.00320226
0.00317684
0.00314626
0.00310996
0.00307014
0.00302726
0.00298775
0.00294885
0.00291459
0.00288582
0.00286111
0.00284241
0.0028311
0.00282757
0.00283224
0.00284294
0.002857
0.00287235
0.00288534
0.00289739
0.0029111
0.00292185
0.00292566
0.000220871
0.000224456
0.000219143
0.000211828
0.000203505
0.000194418
0.000184971
0.000175574
0.000166525
0.000158066
0.000150349
0.00014352
0.000137596
0.000132701
0.000128821
0.000126067
0.000124517
0.00012476
0.000127749
0.000133585
0.000140512
0.0001464
0.000149968
0.000150599
0.000148004
0.000141692
0.000131344
0.000115599
9.65672e-05
8.83421e-05
0.0010228
0.00114832
0.00114105
0.00107784
0.000986505
0.000893986
0.000810182
0.000737164
0.000674299
0.000620705
0.000575083
0.000536391
0.000502813
0.000474565
0.000449447
0.000427309
0.000406461
0.000392396
0.000387386
0.000394491
0.000413193
0.000439143
0.000465256
0.00048373
0.000487029
0.000469787
0.000435922
0.000388127
0.000345669
0.000309228
0.00162766
0.00187532
0.00192403
0.00186358
0.0017552
0.00162961
0.00150457
0.0013884
0.00128413
0.00119298
0.00111402
0.0010463
0.000987412
0.000938138
0.000895633
0.000858108
0.000822255
0.000793805
0.000770842
0.000760988
0.00077049
0.000797164
0.00083066
0.000857425
0.000859144
0.000832517
0.000775999
0.00069098
0.00060477
0.000536443
0.00206283
0.0023541
0.00244001
0.00240388
0.00230715
0.00218026
0.00204396
0.00190968
0.00178485
0.00167286
0.00157386
0.00148817
0.00141403
0.00135293
0.00130234
0.00125943
0.00121968
0.00118436
0.00114729
0.00112018
0.00111227
0.00112792
0.00115764
0.00118567
0.0011881
0.00115516
0.00108497
0.000977272
0.000859308
0.000761324
0.00236588
0.00266717
0.00277016
0.00275798
0.00268156
0.00256742
0.00243605
0.00229855
0.00216819
0.00204845
0.00194001
0.00184553
0.00176441
0.00169855
0.00164675
0.00160525
0.00156804
0.00152822
0.00147803
0.00143699
0.00141515
0.00141661
0.00143757
0.00146331
0.00146749
0.00143356
0.00135878
0.00124035
0.00110379
0.000982583
0.00258279
0.0028413
0.00296569
0.00298892
0.00293421
0.00283225
0.00270583
0.00257241
0.00244953
0.00233266
0.00222245
0.002127
0.00204537
0.0019809
0.00193313
0.00189776
0.00186651
0.00182452
0.0017649
0.00170863
0.00167339
0.00166244
0.00167352
0.00169506
0.0017008
0.00167248
0.00159896
0.00147955
0.00133468
0.00119727
0.00273567
0.00295489
0.00306833
0.00309822
0.00306442
0.00298757
0.00288911
0.00277897
0.00265816
0.00253917
0.00243131
0.00234279
0.00226561
0.00220794
0.00216822
0.00214287
0.00211891
0.00207508
0.00200834
0.0019392
0.00189166
0.0018695
0.00187105
0.00188688
0.00189326
0.00187167
0.00180943
0.0016958
0.00155165
0.00140274
0.00286211
0.00300925
0.00309049
0.00311888
0.0031024
0.00305061
0.00297619
0.00288685
0.0027862
0.00268549
0.00259176
0.00250424
0.00243326
0.00238624
0.00235817
0.00234575
0.00232781
0.00228365
0.00221087
0.00213229
0.00207631
0.00204348
0.00203601
0.00204504
0.00205003
0.00203638
0.00198884
0.00189035
0.00175188
0.00159609
0.00294527
0.00300738
0.00304688
0.0030677
0.00306506
0.00303792
0.00299173
0.00292801
0.0028506
0.0027693
0.00269051
0.00261719
0.00256051
0.0025233
0.00250844
0.00251015
0.00249921
0.00245092
0.00237402
0.00229315
0.00223109
0.00218967
0.00217388
0.00217514
0.00217889
0.00217064
0.0021333
0.00205345
0.00192654
0.00177367
0.00299609
0.00299174
0.00299201
0.0029942
0.00299254
0.00297962
0.00295375
0.00291374
0.00286171
0.00280401
0.00274453
0.00268911
0.00264658
0.00262432
0.00262383
0.00263933
0.00263539
0.00258872
0.00251037
0.00242855
0.00236043
0.00231263
0.00228925
0.00228101
0.00227664
0.00226923
0.00224313
0.002182
0.00207701
0.00193771
0.00305844
0.00300238
0.00295559
0.00292734
0.00291193
0.00290023
0.00288639
0.00286509
0.00283501
0.00279884
0.0027615
0.0027259
0.00270053
0.00269506
0.00270937
0.00273754
0.00273971
0.00269618
0.0026211
0.0025394
0.00246867
0.0024167
0.00238516
0.00236816
0.00235645
0.00234452
0.00232366
0.00228094
0.00220018
0.00208347
0.00315354
0.00307414
0.0029781
0.00289354
0.00285105
0.00282484
0.0028113
0.00279988
0.00278591
0.00276849
0.00274997
0.00273507
0.00272841
0.00274015
0.0027691
0.00280874
0.00281786
0.00278047
0.00271128
0.00263344
0.00256249
0.00250545
0.00246762
0.00244397
0.00242654
0.00241039
0.00239044
0.00235911
0.00230351
0.00221038
0.00325191
0.00314913
0.00302874
0.00292252
0.00283484
0.00277697
0.00275228
0.00273875
0.00273172
0.00272671
0.00272361
0.00272506
0.00273713
0.00276423
0.00280753
0.00285709
0.00287209
0.00284143
0.00278001
0.00270842
0.00263986
0.00258038
0.00253819
0.00250924
0.00248801
0.00246898
0.00244979
0.00242565
0.00238992
0.00232002
0.00338352
0.00326295
0.00311967
0.00298263
0.00286811
0.00278712
0.00273432
0.00270313
0.00269161
0.00268937
0.00269529
0.00270926
0.00273324
0.00277361
0.00282955
0.0028871
0.0029083
0.00288575
0.00283353
0.00276926
0.00270415
0.00264385
0.00259887
0.00256619
0.00254229
0.00252309
0.0025061
0.00248607
0.00245992
0.00240754
0.00354475
0.00340985
0.00325712
0.00310332
0.00296227
0.00284834
0.00276417
0.00271085
0.00268467
0.00267261
0.00267923
0.00269815
0.00272866
0.00277493
0.00284012
0.0029033
0.00293036
0.00291657
0.00287447
0.00281797
0.00275736
0.00269792
0.00265158
0.002617
0.0025922
0.00257423
0.00255799
0.00253972
0.00251547
0.00247716
0.0037315
0.00360466
0.00345153
0.00328531
0.00312284
0.00297861
0.00286166
0.00277685
0.00272356
0.00269662
0.00268938
0.00270231
0.00273161
0.00277718
0.00284378
0.00290947
0.00294158
0.00293661
0.00290464
0.0028564
0.00280123
0.00274461
0.00269828
0.002664
0.00263875
0.00262023
0.00260452
0.00258711
0.00256502
0.00253381
0.00395799
0.00383663
0.00368744
0.00351752
0.00334163
0.00317362
0.00302547
0.00290589
0.00281862
0.00276262
0.00273373
0.00272986
0.00274689
0.00278492
0.00284317
0.00290696
0.00294276
0.00294638
0.00292461
0.00288536
0.00283664
0.00278483
0.00273908
0.00270489
0.00267941
0.00266088
0.00264659
0.0026301
0.00260929
0.00258049
0.00420091
0.00409044
0.00395042
0.0037837
0.00360235
0.00341869
0.00324525
0.00309293
0.00296912
0.00287695
0.00281573
0.00278389
0.00277813
0.00279646
0.00283934
0.00289194
0.00292942
0.00294164
0.00293087
0.00290186
0.00286047
0.00281448
0.00277109
0.0027385
0.0027138
0.0026958
0.00268239
0.00266817
0.00264846
0.00262222
0.00444814
0.00435142
0.00422355
0.00406452
0.00388386
0.00369204
0.0035007
0.00332116
0.00316274
0.00303154
0.0029304
0.00286012
0.0028195
0.00280782
0.00282342
0.00285767
0.00289076
0.00290941
0.00291013
0.00289625
0.00286532
0.0028288
0.00279122
0.00276209
0.00273977
0.00272352
0.00271177
0.00270012
0.00268187
0.00265857
0.00468852
0.00460415
0.0044882
0.00433856
0.00416231
0.00396781
0.00376509
0.00356454
0.00337574
0.00320622
0.00306149
0.00294527
0.00285957
0.00280603
0.002785
0.00279071
0.00281064
0.00283152
0.00284633
0.002847
0.00283518
0.00281593
0.00279015
0.00276792
0.00275153
0.00273987
0.00273213
0.00272277
0.00270744
0.00268829
0.00490611
0.00483007
0.00472337
0.00458236
0.00441172
0.00421751
0.00400761
0.00379076
0.00357568
0.0033703
0.00318204
0.00301741
0.00288189
0.00277972
0.00271468
0.00268141
0.00267663
0.00269043
0.00271378
0.00273423
0.00274643
0.00275046
0.00274685
0.00274145
0.00273566
0.00273463
0.0027353
0.00272998
0.00272095
0.00270857
0.0050788
0.00500583
0.00490408
0.00476907
0.004603
0.00440945
0.00419393
0.00396332
0.00372518
0.00348785
0.00326081
0.00305318
0.00287333
0.00272689
0.00261982
0.00254608
0.00250664
0.00249783
0.00251323
0.00254175
0.00257411
0.00260466
0.00263017
0.00265141
0.00266904
0.00268349
0.00269417
0.00270789
0.00271521
0.0027149
0.00517686
0.00510084
0.00499915
0.00486646
0.00470255
0.0045085
0.00428776
0.00404595
0.00378999
0.00352985
0.00327774
0.00304502
0.00284105
0.00267054
0.00253841
0.00243776
0.00236584
0.00232286
0.00230737
0.00231534
0.00234159
0.00238035
0.00242586
0.00247394
0.00252115
0.00256478
0.00260282
0.00263619
0.0026602
0.00268058
0.00515821
0.00507553
0.00497059
0.00483789
0.00467534
0.00448218
0.0042609
0.00401754
0.00375848
0.00349714
0.00324806
0.00302248
0.0028274
0.00266442
0.00253398
0.00243169
0.00234322
0.00226995
0.00221312
0.00217511
0.0021588
0.00216491
0.00219224
0.00223763
0.00229601
0.00236114
0.00242693
0.00248959
0.00254416
0.00259014
0.00497734
0.00489037
0.0047844
0.00465697
0.00450473
0.00432556
0.00412125
0.00389867
0.00366817
0.00344254
0.00323483
0.00305153
0.00289624
0.00276707
0.00266044
0.00257451
0.00248642
0.00239792
0.0023102
0.00222794
0.00215746
0.00210435
0.00207366
0.00206869
0.00208994
0.00213444
0.00219602
0.00226787
0.00234236
0.00241456
0.00461815
0.00453446
0.00444674
0.00434977
0.00423622
0.00410249
0.00394999
0.00378549
0.00361902
0.00346023
0.00331635
0.00318957
0.00308186
0.00299048
0.00291199
0.0028429
0.00276189
0.002672
0.00257379
0.00247106
0.00236869
0.00227112
0.00218428
0.00211445
0.00206738
0.00204672
0.00205202
0.00208028
0.00212687
0.00219273
0.00416821
0.00412531
0.00409747
0.0040708
0.00402816
0.00396612
0.00388548
0.00379202
0.00369382
0.00359774
0.00350741
0.0034232
0.00334751
0.00327806
0.00321381
0.00315011
0.00307315
0.00298888
0.00289816
0.00280283
0.00270466