/*--------------------------------*- C++ -*----------------------------------*\
  =========                 |
  \\      /  F ield         | OpenFOAM: The Open Source CFD Toolbox
   \\    /   O peration     | Website:  https://openfoam.org
    \\  /    A nd           | Version:  12
     \\/     M anipulation  |
\*---------------------------------------------------------------------------*/
FoamFile
{
    format      ascii;
    class       volScalarField;
    location    "1600/air";
    object      epsilon;
}
// * * * * * * * * * * * * * * * * * * * * * * * * * * * * * * * * * * * * * //

dimensions      [0 2 -3 0 0 0 0];

internalField   nonuniform List<scalar> 
243000
(
2.3542
2.91958
3.3615
3.71634
3.97075
4.12345
4.18268
4.16085
4.07161
3.9285
3.74309
3.53071
3.30536
3.07775
2.85004
2.62383
2.40001
2.18668
1.99256
1.82481
1.68086
1.54727
1.40441
1.23397
1.0325
0.920424
0.798535
0.155061
0.118561
0.0877999
1.496
1.81994
2.0021
2.08785
2.11152
2.09087
2.03768
1.96107
1.86788
1.76376
1.65302
1.54061
1.42949
1.32258
1.22115
1.12624
1.0383
0.961263
0.898069
0.851108
0.818039
0.79128
0.75902
0.708914
0.634117
0.538832
0.430322
0.319305
0.222786
0.136917
1.44022
1.80197
1.94954
1.98619
1.95324
1.87837
1.77889
1.66672
1.54958
1.43294
1.32021
1.21439
1.11651
1.02775
0.948494
0.878883
0.818822
0.771061
0.736864
0.7172
0.709901
0.709255
0.705881
0.688504
0.647956
0.580167
0.491036
0.384621
0.282879
0.182133
1.36132
1.79852
2.03966
2.13924
2.14281
2.0881
1.99745
1.88672
1.766
1.64272
1.52166
1.40659
1.29923
1.20158
1.11458
1.0389
0.974888
0.925929
0.89281
0.875625
0.871186
0.873098
0.871931
0.856068
0.814771
0.741867
0.641792
0.517733
0.393459
0.267631
1.17745
1.62233
1.93137
2.10136
2.16505
2.15421
2.09411
2.00492
1.89738
1.78161
1.66398
1.54927
1.4404
1.34048
1.25124
1.17416
1.11019
1.06313
1.03312
1.01909
1.01679
1.01947
1.01821
1.00208
0.960062
0.884985
0.77936
0.646146
0.507114
0.363966
0.992364
1.34953
1.6852
1.91865
2.05049
2.0995
2.08837
2.03305
1.95113
1.85486
1.75083
1.64497
1.54169
1.44542
1.35866
1.28422
1.22359
1.18076
1.15519
1.1447
1.1441
1.14651
1.1438
1.12617
1.08324
1.00766
0.900321
0.76399
0.616982
0.463142
0.937764
1.1341
1.40323
1.65284
1.83947
1.94831
1.99166
1.98341
1.93931
1.87061
1.7872
1.69739
1.6058
1.5182
1.43802
1.3696
1.31489
1.27794
1.25764
1.25085
1.2517
1.25338
1.24853
1.22872
1.18476
1.10963
1.0032
0.867889
0.718496
0.559542
0.998885
1.04685
1.2119
1.4197
1.60765
1.74359
1.83324
1.87153
1.86928
1.8357
1.78054
1.71159
1.63596
1.56122
1.49114
1.43141
1.3846
1.35459
1.34001
1.33702
1.3392
1.34005
1.33294
1.31077
1.26577
1.19168
1.08786
0.956344
0.809146
0.649257
1.13695
1.0657
1.11558
1.24881
1.41026
1.55291
1.66038
1.72468
1.7582
1.75996
1.73561
1.69218
1.63707
1.57774
1.52026
1.4712
1.43364
1.41124
1.4026
1.40338
1.40694
1.40713
1.39802
1.3737
1.32786
1.25523
1.15513
1.02953
0.887263
0.729822
1.33041
1.18333
1.11802
1.15645
1.26079
1.38555
1.49781
1.58003
1.63271
1.65837
1.66199
1.64481
1.61192
1.57065
1.52776
1.49077
1.46332
1.44886
1.44622
1.45069
1.45573
1.45562
1.44505
1.41911
1.37287
1.30219
1.20681
1.08747
0.951752
0.799655
1.54728
1.367
1.22285
1.15764
1.18035
1.2584
1.35504
1.44224
1.50868
1.55117
1.57172
1.57689
1.56582
1.54357
1.5163
1.49217
1.47524
1.46887
1.47202
1.48009
1.4868
1.48686
1.47551
1.44867
1.40278
1.33443
1.24331
1.13072
1.0027
0.8587
1.78669
1.60245
1.40901
1.26141
1.18983
1.19467
1.24941
1.32228
1.39134
1.44512
1.4799
1.49788
1.50464
1.50036
1.48878
1.47766
1.47123
1.47277
1.48152
1.49315
1.50168
1.5024
1.49107
1.46424
1.419
1.35289
1.26634
1.16063
1.04076
0.905886
2.04349
1.85123
1.63986
1.44425
1.29489
1.21514
1.20345
1.23769
1.29178
1.34615
1.3897
1.41886
1.4357
1.44572
1.44854
1.44982
1.45339
1.46244
1.47639
1.49151
1.5022
1.5038
1.49272
1.46614
1.42213
1.35897
1.27744
1.17863
1.06691
0.941588
2.31456
2.11523
1.90021
1.68154
1.48152
1.32712
1.23733
1.21009
1.22686
1.26524
1.30727
1.34246
1.36757
1.38545
1.39939
1.41148
1.42419
1.44008
1.45876
1.47705
1.48987
1.49289
1.48291
1.45754
1.41516
1.35499
1.27801
1.18611
1.08248
0.9668
2.59734
2.39261
2.18061
1.95233
1.72582
1.51949
1.35805
1.25761
1.21623
1.21812
1.24311
1.27466
1.30314
1.32606
1.34592
1.36603
1.38629
1.40806
1.43084
1.45191
1.46675
1.47146
1.46311
1.43971
1.39995
1.34324
1.27096
1.18508
1.08913
0.982786
2.88889
2.67992
2.46621
2.23812
2.00259
1.76851
1.55536
1.38631
1.27575
1.22222
1.21147
1.22513
1.24801
1.27154
1.29343
1.31733
1.3427
1.36895
1.395
1.41832
1.43496
1.44145
1.43508
1.41414
1.37768
1.32525
1.25829
1.17953
1.09144
0.994566
3.18543
2.97381
2.7593
2.53397
2.29714
2.05144
1.80808
1.5871
1.41041
1.29112
1.22757
1.20649
1.2109
1.22697
1.2469
1.26977
1.29685
1.32559
1.35374
1.37864
1.39672
1.40494
1.4008
1.38278
1.35094
1.30492
1.24514
1.1734
1.09256
1.0039
3.48222
3.26933
3.05525
2.83416
2.59976
2.35147
2.09411
1.8408
1.61207
1.4289
1.3029
1.23181
1.20279
1.19997
1.21085
1.22921
1.2531
1.28132
1.30986
1.33541
1.35449
1.36465
1.36411
1.35083
1.32423
1.28426
1.2311
1.16616
1.09212
1.01084
3.77365
3.56052
3.34823
3.13281
2.9034
2.65766
2.39646
2.1268
1.86378
1.62855
1.44096
1.3109
1.23486
1.20012
1.19197
1.19965
1.21707
1.2409
1.26722
1.29239
1.31274
1.32537
1.32806
1.31896
1.29726
1.26283
1.21588
1.15744
1.0899
1.01537
4.0539
3.84235
3.63564
3.42661
3.20359
2.96309
2.70383
2.42861
2.14682
1.8755
1.63614
1.44704
1.31572
1.23703
1.19848
1.18695
1.19246
1.20864
1.23038
1.25335
1.27352
1.28755
1.29283
1.28729
1.26999
1.24064
1.19944
1.14712
1.08574
1.01741
4.31834
4.112
3.91633
3.71311
3.49682
3.26294
3.00884
2.73474
2.44559
2.15321
1.87633
1.63616
1.4488
1.31846
1.23894
1.19842
1.18463
1.18812
1.2018
1.22004
1.23811
1.25212
1.25899
1.25624
1.24274
1.21793
1.18205
1.13536
1.07976
1.01714
4.56536
4.37282
4.1819
3.98527
3.77688
3.55143
3.30532
3.03709
2.7487
2.44748
2.14765
1.86911
1.63197
1.44848
1.32085
1.24209
1.2005
1.18464
1.18533
1.19529
1.20865
1.22068
1.22769
1.22667
1.21616
1.19526
1.16409
1.12258
1.07233
1.01507
4.78764
4.60313
4.42103
4.23434
4.03685
3.82294
3.58836
3.33054
3.04941
2.74895
2.43899
2.13606
1.86006
1.62812
1.45027
1.32644
1.24866
1.20564
1.18695
1.18368
1.18858
1.19585
1.20094
1.20015
1.19148
1.17363
1.1464
1.10952
1.06413
1.01183
4.97699
4.80418
4.63394
4.45986
4.27604
4.0769
3.85779
3.61523
3.34754
3.0561
2.74703
2.43287
2.13096
1.85969
1.63454
1.46244
1.34125
1.26261
1.21656
1.1933
1.18433
1.18263
1.18255
1.17962
1.17099
1.15489
1.13054
1.09753
1.05642
1.00862
5.14025
4.98282
4.8277
4.66945
4.50291
4.32291
4.12437
3.90309
3.65599
3.38217
3.08444
2.77127
2.45685
2.15774
1.89184
1.67158
1.50123
1.37764
1.29406
1.24122
1.21001
1.1924
1.18159
1.17217
1.16024
1.14333
1.12005
1.08939
1.05144
1.00733
5.28655
5.15178
5.01875
4.88363
4.74232
4.59003
4.42164
4.23217
4.01705
3.77291
3.49927
3.20037
2.8864
2.57218
2.27425
2.00788
1.78265
1.60266
1.4672
1.36975
1.30208
1.25585
1.22345
1.19848
1.176
1.15246
1.12534
1.09328
1.05584
1.01373
5.46742
5.37169
5.27664
5.18053
5.08054
4.97291
4.85272
4.71425
4.55102
4.35652
4.12605
3.85917
3.56145
3.24521
2.9259
2.61578
2.32675
2.07327
1.86278
1.69491
1.56465
1.46499
1.38834
1.32777
1.27744
1.23261
1.18972
1.14643
1.10136
1.05501
5.8937
5.86699
5.83791
5.80931
5.78279
5.75651
5.72533
5.68105
5.61255
5.50794
5.35659
5.15329
4.899
4.60188
4.27645
3.92574
3.55736
3.20148
2.87553
2.58978
2.346
2.14134
1.9703
1.82716
1.70609
1.60072
1.5065
1.42042
1.34036
1.26927
7.58046
7.6577
7.72745
7.82328
7.95602
8.11282
8.275
8.42134
8.53392
8.59215
8.57748
8.48834
8.32194
8.08806
7.79009
7.41798
6.95828
6.4697
5.98355
5.52122
5.09267
4.70063
4.34603
4.02885
3.74625
3.47965
3.22998
3.00012
2.79338
2.62399
16.696
16.6584
16.7434
17.0459
17.4471
17.7957
18.0723
18.2814
18.4316
18.4817
18.4438
18.356
18.2229
18.0674
17.8567
17.5846
17.1513
16.7339
16.3408
15.9986
15.6949
15.4302
15.1988
15.0069
14.8463
14.5415
14.1928
13.8383
13.5343
13.2891
4.8049
6.00994
6.76105
7.24817
7.50429
7.56018
7.45149
7.21943
6.90009
6.52354
6.11575
5.70645
5.3087
4.93758
4.59526
4.28749
4.01495
3.79851
3.66523
3.62477
3.62411
3.57066
3.3854
3.03377
2.53461
1.93564
1.32788
0.767328
0.6051
0.114916
3.1409
3.54097
3.76949
3.89851
3.93191
3.87842
3.75256
3.57594
3.36839
3.1462
2.92
2.70237
2.50156
2.3234
2.17231
2.0517
1.96619
1.92862
1.95879
2.0607
2.19373
2.28691
2.2792
2.14695
1.90265
1.56924
1.19414
0.807446
0.501113
0.256663
2.85983
3.12278
3.23755
3.27643
3.25137
3.17264
3.04919
2.89326
2.71775
2.53389
2.35043
2.17591
2.0162
1.87656
1.76113
1.67586
1.62647
1.62511
1.68882
1.81988
1.98173
2.11134
2.15246
2.08249
1.90195
1.6352
1.3176
0.971302
0.668869
0.410906
2.71022
2.89433
2.9609
2.96895
2.92824
2.84907
2.73794
2.60266
2.45208
2.29475
2.13822
1.98927
1.85271
1.73371
1.6368
1.56931
1.53787
1.55445
1.63195
1.76976
1.93645
2.07639
2.13884
2.09771
1.95514
1.7259
1.44219
1.1189
0.823098
0.555006
2.5687
2.67547
2.71148
2.70889
2.67032
2.60261
2.51001
2.39761
2.27156
2.13881
2.00596
1.87891
1.76203
1.66041
1.57923
1.52652
1.50966
1.54046
1.62851
1.76904
1.93198
2.071
2.1404
2.11667
1.99879
1.79821
1.54193
1.24085
0.955935
0.6872
2.39818
2.43266
2.44459
2.44074
2.41419
2.36588
2.29669
2.20938
2.1087
2.00048
1.89074
1.78472
1.68676
1.60202
1.53595
1.49747
1.49425
1.5381
1.63325
1.77363
1.9312
2.06403
2.13314
2.11717
2.01866
1.84294
1.61207
1.33554
1.06528
0.804196
2.18241
2.15006
2.14936
2.15282
2.14472
2.12112
2.07903
2.01893
1.945
1.86155
1.77486
1.68958
1.61039
1.54253
1.49142
1.4669
1.47683
1.53187
1.63407
1.77322
1.92235
2.04578
2.11203
2.10147
2.01453
1.86052
1.6539
1.40318
1.15173
0.904546
1.98003
1.86561
1.8408
1.85281
1.86732
1.87113
1.85668
1.82408
1.77657
1.71809
1.65395
1.5891
1.52826
1.47702
1.44075
1.42973
1.45205
1.51666
1.62334
1.75988
1.89966
2.01403
2.07628
2.06912
1.99264
1.85511
1.67115
1.44639
1.2156
0.985435
1.82974
1.66199
1.60161
1.60198
1.62141
1.63891
1.64314
1.63224
1.60801
1.57181
1.52879
1.48334
1.44011
1.40477
1.38291
1.38459
1.41801
1.4907
1.5997
1.73178
1.86326
1.96915
2.02704
2.02242
1.95624
1.83367
1.66798
1.46852
1.25921
1.04734
1.79221
1.56632
1.45356
1.41809
1.42478
1.44396
1.45933
1.46242
1.45142
1.43023
1.40378
1.37509
1.34776
1.32703
1.31853
1.33172
1.37456
1.4533
1.56321
1.69046
1.81409
1.91195
1.96592
1.96365
1.9067
1.79857
1.65093
1.47257
1.28485
1.09163
1.81936
1.57617
1.40594
1.31461
1.28826
1.2924
1.30657
1.31674
1.31647
1.30506
1.28633
1.26911
1.25446
1.24621
1.24921
1.27224
1.32256
1.40518
1.5144
1.6367
1.75273
1.84365
1.89453
1.89494
1.84676
1.7529
1.62232
1.46366
1.29547
1.12047
1.90184
1.64739
1.44566
1.30738
1.22833
1.19715
1.19332
1.19904
1.20257
1.19834
1.18648
1.17199
1.1647
1.16556
1.17729
1.20797
1.26354
1.34776
1.45482
1.57159
1.6806
1.7657
1.81448
1.81816
1.77847
1.6982
1.58404
1.44446
1.29345
1.13607
2.03611
1.77034
1.54556
1.37497
1.25139
1.17345
1.13426
1.11983
1.11568
1.11178
1.10367
1.09213
1.08443
1.08917
1.10601
1.14141
1.19957
1.28307
1.38626
1.49692
1.59938
1.67971
1.72739
1.73502
1.7038
1.63644
1.53826
1.41681
1.28272
1.14151
2.21166
1.94144
1.70888
1.51488
1.35591
1.23178
1.14702
1.09647
1.06806
1.05288
1.0414
1.02975
1.02086
1.02239
1.03946
1.07575
1.1334
1.21371
1.31126
1.41509
1.51123
1.58755
1.63497
1.64713
1.62444
1.56961
1.48716
1.38284
1.26629
1.14062
2.424
2.15596
1.92307
1.71732
1.5337
1.3704
1.23804
1.14101
1.07601
1.03472
1.00828
0.989342
0.976065
0.971473
0.98269
1.01511
1.06852
1.14294
1.23301
1.32905
1.41876
1.49148
1.53921
1.55631
1.54226
1.49973
1.43304
1.34592
1.24562
1.1348
2.66861
2.40887
2.18258
1.97236
1.77233
1.57976
1.40634
1.26171
1.15049
1.07094
1.01623
0.979758
0.955303
0.941187
0.941759
0.96464
1.00947
1.07483
1.15537
1.24243
1.32523
1.39436
1.44274
1.46503
1.46024
1.43064
1.37864
1.30681
1.22107
1.12416
2.93854
2.69903
2.48332
2.27027
2.05757
1.84448
1.63989
1.45418
1.29645
1.1713
1.07805
1.01173
0.966584
0.937044
0.923336
0.93078
0.962085
1.01463
1.08319
1.15982
1.23499
1.30054
1.35037
1.3785
1.38241
1.36375
1.32436
1.26597
1.19345
1.10943
3.22632
3.00973
2.80532
2.59236
2.37278
2.14755
1.9221
1.70543
1.50787
1.338
1.20078
1.0961
1.02007
0.966588
0.933015
0.922045
0.934314
0.969498
1.0232
1.08811
1.15544
1.2171
1.26673
1.29856
1.30969
1.30004
1.27132
1.22453
1.16402
1.09163
3.51184
3.31304
3.12226
2.91877
2.7024
2.47406
2.23757
2.00061
1.77332
1.56577
1.38655
1.24001
1.12613
1.03944
0.980368
0.945941
0.935886
0.950093
0.985271
1.03527
1.09174
1.14681
1.19395
1.2275
1.24371
1.24106
1.22103
1.18416
1.13415
1.07207
3.77423
3.59947
3.42944
3.24282
3.03764
2.81434
2.5761
2.32937
2.08359
1.84889
1.63525
1.44967
1.29594
1.17147
1.07856
1.01485
0.977118
0.966066
0.978231
1.00822
1.04941
1.0946
1.13652
1.16869
1.18719
1.18928
1.17568
1.14678
1.10541
1.0523
4.01839
3.87274
3.72856
3.5646
3.37752
3.16716
2.93664
2.69163
2.44035
2.19176
1.95541
1.73899
1.54878
1.38681
1.25246
1.1519
1.07864
1.03411
1.01584
1.01972
1.03979
1.0696
1.10134
1.12818
1.14514
1.14879
1.13884
1.11546
1.08045
1.03452
4.2559
4.14399
4.03025
3.89491
3.73372
3.5462
3.3358
3.10789
2.86899
2.6252
2.38352
2.15013
1.93197
1.73406
1.55728
1.40833
1.28715
1.19507
1.1322
1.09701
1.08565
1.09143
1.10507
1.11872
1.12758
1.12763
1.1172
1.09601
1.06395
1.02238
4.50991
4.43802
4.3624
4.26554
4.14329
3.9957
3.82707
3.64277
3.44665
3.2396
3.02264
2.79705
2.56832
2.34208
2.12478
1.91414
1.72163
1.55273
1.4148
1.31217
1.24415
1.20465
1.18273
1.16913
1.15791
1.14414
1.12467
1.09726
1.06218
1.02101
4.83647
4.81712
4.7954
4.75758
4.70136
4.62942
4.5478
4.46165
4.37011
4.26474
4.13522
3.97144
3.77342
3.54379
3.29262
3.01047
2.69901
2.38992
2.10559
1.86523
1.67654
1.53678
1.43362
1.35555
1.29431
1.24285
1.19579
1.1492
1.10078
1.05209
5.36574
5.43103
5.50303
5.57458
5.6495
5.73673
5.84557
5.98127
6.13439
6.27771
6.3805
6.40736
6.3473
6.19274
5.95041
5.59542
5.09501
4.51194
3.91626
3.36221
2.8806
2.48402
2.16366
1.9115
1.71395
1.55791
1.43212
1.32751
1.23692
1.16195
6.45357
6.68241
6.9508
7.26326
7.63545
8.08494
8.62702
9.26555
9.97209
10.6803
11.3284
11.8295
12.1502
12.2624
12.1606
11.7769
11.0198
9.97392
8.76921
7.53131
6.34558
5.27901
4.36749
3.61889
3.02052
2.55112
2.1864
1.90323
1.68068
1.51942
9.21783
9.83138
10.5612
11.433
12.4758
13.7157
15.1734
16.8408
18.6346
20.4238
22.0631
23.4242
24.4526
25.1105
25.3507
25.0351
23.9959
22.3273
20.2242
17.8759
15.4218
13.0208
10.8036
8.85195
7.20379
5.85797
4.78826
3.95205
3.30375
2.85528
17.2439
18.6886
20.2684
22.15
24.3364
26.8591
29.7327
32.8842
36.0782
39.1049
41.7797
43.9943
45.6726
46.7906
47.2799
46.9265
45.6711
43.596
40.8298
37.5251
33.8222
29.9252
26.0112
22.2724
18.8653
15.8749
13.3294
11.199
9.44711
8.21464
35.6101
37.0715
39.1733
41.7811
44.8121
48.2815
52.0828
55.7571
59.0981
61.9703
64.2945
66.0659
67.0489
67.3863
67.0093
65.675
63.9496
61.8981
59.3999
56.4865
53.2613
49.8471
46.3108
42.7592
39.2901
35.9249
32.7004
29.6404
26.8046
24.7237
48.2005
47.4482
48.3737
50.436
52.9495
55.4544
57.687
59.5223
60.9443
61.8762
62.4147
62.6732
62.5216
61.9903
60.6727
58.3202
56.1863
54.0008
52.0032
50.123
48.4516
47.0568
46.0237
45.3874
45.057
44.7988
44.5533
44.2647
43.7837
43.0208
8.04984
9.83358
10.6142
11.0674
11.2646
11.1965
10.9014
10.4411
9.8711
9.24188
8.59331
7.96331
7.36475
6.82439
6.34617
5.94722
5.63679
5.48904
5.61657
6.0294
6.49432
6.7083
6.50583
5.88116
4.93662
3.79944
2.63656
1.55731
0.784478
0.543353
4.7584
5.26362
5.45905
5.54941
5.55044
5.44581
5.24361
4.96933
4.65026
4.31102
3.97201
3.6494
3.35424
3.09395
2.87992
2.71995
2.63401
2.66759
2.8955
3.31982
3.78362
4.08156
4.1024
3.85432
3.40426
2.82889
2.18299
1.50271
0.935933
0.537929
4.36227
4.62073
4.70135
4.70429
4.63391
4.49975
4.30668
4.06711
3.79789
3.51572
3.23613
2.97106
2.72918
2.5176
2.34582
2.22585
2.17547
2.23528
2.4667
2.86969
3.31592
3.63336
3.72036
3.57654
3.26034
2.80674
2.27693
1.69492
1.17325
0.729355
4.23223
4.35363
4.37167
4.33392
4.24309
4.10744
3.92964
3.71663
3.47988
3.23222
2.98656
2.75282
2.53879
2.35198
2.20269
2.10422
2.0745
2.15058
2.3776
2.74908
3.16505
3.47546
3.58678
3.49278
3.23734
2.8568
2.39508
1.87167
1.37933
0.924823
4.13909
4.13705
4.09795
4.03597
3.9429
3.81862
3.66227
3.47701
3.27092
3.05425
2.83796
2.63086
2.44043
2.27553
2.14656
2.06852
2.05999
2.1554
2.38457
2.72634
3.09964
3.3876
3.50267
3.43473
3.21693
2.88763
2.47959
2.0073
1.54696
1.1027
4.01569
3.8938
3.80654
3.73003
3.64406
3.53845
3.40797
3.25296
3.07896
2.8936
2.7064
2.52567
2.35911
2.2162
2.10828
2.05204
2.06609
2.17985
2.40912
2.72869
3.0619
3.31697
3.4232
3.36806
3.1771
2.88308
2.52259
2.09899
1.67559
1.25341
3.85411
3.62538
3.48896
3.39943
3.32422
3.24179
3.14128
3.0194
2.87869
2.72524
2.56776
2.41432
2.27281
2.15277
2.0671
2.03413
2.07166
2.20373
2.43251
2.73055
3.02616
3.24612
3.33658
3.28658
3.1158
2.8524
2.52658
2.15075
1.76643
1.37371
3.66001
3.33697
3.14927
3.04593
2.98231
2.92494
2.85678
2.76979
2.66356
2.54306
2.41614
2.29053
2.17476
2.07876
2.01614
2.00722
2.06953
2.21792
2.44625
2.72268
2.98058
3.1674
3.23947
3.1902
3.03653
2.79891
2.50509
2.16924
1.82395
1.46433
3.45698
3.03138
2.79114
2.67547
2.62412
2.5928
2.55931
2.50794
2.43569
2.34817
2.25187
2.15428
2.06444
1.99281
1.95366
1.96859
2.054
2.22061
2.44766
2.69879
2.92227
3.07766
3.13141
3.08077
2.94054
2.72617
2.4628
2.16123
1.85308
1.52775
3.25
2.76756
2.49343
2.35535
2.30066
2.28147
2.26856
2.24389
2.2019
2.14622
2.07919
2.00865
1.94395
1.8961
1.88001
1.91767
2.02397
2.20206
2.42507
2.65364
2.84875
2.97586
3.01296
2.96063
2.83177
2.63955
2.40397
2.1353
1.85862
1.5675
3.10112
2.59973
2.28349
2.10982
2.0335
2.00976
2.00544
1.99861
1.97937
1.94655
1.90499
1.85869
1.81707
1.79151
1.7966
1.85482
1.97862
2.1641
2.37979
2.58884
2.75833
2.86163
2.88493
2.8319
2.71388
2.54255
2.33234
2.09514
1.84916
1.59116
3.03089
2.53451
2.17919
1.95824
1.84554
1.79817
1.78573
1.78376
1.7779
1.76233
1.73839
1.7112
1.68894
1.68289
1.70577
1.78137
1.91823
2.10669
2.31284
2.50394
2.65097
2.73524
2.74839
2.69662
2.58993
2.43815
2.25221
2.04511
1.83123
1.60224
3.04058
2.55958
2.19189
1.92639
1.75583
1.66749
1.62809
1.61473
1.60944
1.60205
1.58988
1.57459
1.5662
1.57468
1.61119
1.69956
1.84376
2.03004
2.22497
2.39912
2.52756
2.59764
2.60466
2.55662
2.46226
2.32953
2.16834
1.99128
1.80534
1.60084
3.10905
2.64842
2.27682
1.98573
1.7757
1.63434
1.55047
1.50901
1.48891
1.47735
1.46808
1.45893
1.45665
1.47305
1.51774
1.61299
1.75812
1.93702
2.11889
2.27683
2.39032
2.45066
2.45558
2.41378
2.33307
2.21998
2.08547
1.93386
1.77129
1.58935
3.24216
2.80239
2.43084
2.12099
1.87691
1.69317
1.56593
1.48316
1.4325
1.40226
1.38446
1.37291
1.37073
1.38576
1.43209
1.52716
1.66629
1.83272
1.99932
2.14162
2.24307
2.29741
2.30401
2.27111
2.20678
2.11574
2.00313
1.87249
1.73074
1.56973
3.43899
3.0179
2.65485
2.33682
2.06703
1.84504
1.67139
1.54244
1.45181
1.39117
1.35241
1.32769
1.31743
1.32501
1.36343
1.45018
1.57616
1.72501
1.87354
2.00035
2.09187
2.14341
2.15595
2.13633
2.08808
2.01475
1.92105
1.80985
1.68637
1.54417
3.69284
3.2968
2.94594
2.62444
2.33593
2.08211
1.86654
1.69103
1.55487
1.45422
1.38362
1.33603
1.30893
1.30222
1.32435
1.3938
1.49943
1.62534
1.75264
1.86346
1.94712
2.00042
2.02003
2.01033
1.97551
1.91791
1.84102
1.74699
1.64008
1.51464
4.00098
3.62986
3.29301
2.97204
2.67098
2.39258
2.14211
1.92464
1.74365
1.5996
1.49063
1.41177
1.3597
1.33211
1.33308
1.37512
1.45357
1.55144
1.65372
1.74907
1.82447
1.87494
1.89851
1.89649
1.87256
1.82808
1.76542
1.68617
1.5938
1.48318
4.34615
4.00148
3.68134
3.36572
3.05881
2.7641
2.4878
2.23689
2.01761
1.83352
1.68602
1.57252
1.49054
1.43673
1.41254
1.42457
1.46879
1.53309
1.60639
1.67763
1.73752
1.77912
1.80119
1.80259
1.78534
1.75003
1.69809
1.63074
1.55021
1.45211
4.71161
4.39698
4.09816
3.79443
3.49001
3.18902
2.89857
2.62677
2.38156
2.1682
1.9901
1.84634
1.7358
1.65482
1.60386
1.58333
1.59009
1.61303
1.64704
1.68297
1.71357
1.73502
1.74603
1.74299
1.72482
1.69215
1.64555
1.58607
1.51326
1.42455
5.09053
4.81128
4.54015
4.25719
3.96658
3.6731
3.38478
3.11064
2.85955
2.63722
2.44737
2.2891
2.16214
2.06226
1.9893
1.93726
1.90083
1.87001
1.84499
1.82365
1.80468
1.78678
1.76783
1.74333
1.71192
1.67043
1.61985
1.56015
1.48872
1.40493
5.4963
5.25886
5.02431
4.77511
4.51532
4.25049
3.98971
3.74295
3.51961
3.32461
3.15994
3.02239
2.91096
2.81935
2.74527
2.67341
2.5876
2.47903
2.35675
2.23416
2.12146
2.02251
1.93664
1.85963
1.7876
1.71656
1.64386
1.56601
1.48449
1.39872
5.97551
5.78995
5.6075
5.414
5.21387
5.01387
4.82468
4.6576
4.52303
4.42376
4.35688
4.3135
4.29004
4.27472
4.25863
4.20529
4.06911
3.83991
3.54515
3.2275
2.92222
2.64756
2.41153
2.21141
2.04156
1.89551
1.76698
1.64996
1.53983
1.43653
6.64296
6.52986
6.43033
6.33448
6.24802
6.1808
6.14662
6.15851
6.23105
6.36175
6.53756
6.73709
6.95161
7.15835
7.3372
7.39077
7.22256
6.81255
6.21378
5.5165
4.81015
4.15101
3.5744
3.08819
2.68828
2.36418
2.10222
1.88853
1.70958
1.5638
7.76409
7.77036
7.82258
7.91219
8.04926
8.25099
8.5386
8.92944
9.43597
10.0455
10.7248
11.427
12.1353
12.8096
13.4116
13.7134
13.5549
12.8971
11.815
10.4692
9.02297
7.59937
6.30223
5.18284
4.25824
3.5211
2.94667
2.50376
2.1606
1.91324
9.9895
10.2495
10.61
11.0664
11.6457
12.3755
13.2855
14.3921
15.6969
17.1584
18.6966
20.2219
21.7137
23.1115
24.3445
24.9764
24.8199
23.8417
22.1398
19.9263
17.415
14.7775
12.2432
9.94614
7.97571
6.36863
5.1079
4.14237
3.41135
2.91773
15.0215
15.8635
16.8078
17.8957
19.2425
20.8607
22.7733
24.9729
27.4194
30.0123
32.6023
35.0583
37.3657
39.4429
41.1354
41.8119
41.4032
39.9908
37.7041
34.7392
31.2479
27.3584
23.4345
19.6239
16.1226
13.0984
10.6243
8.64805
7.10054
6.06016
26.4277
27.9421
29.6912
31.7201
34.0019
36.6246
39.5892
42.807
46.1514
49.462
52.5561
55.3097
57.6147
59.137
59.9228
59.2201
57.7173
55.5951
53.0913
50.2333
47.0496
43.6055
39.5788
35.3006
30.9982
26.8882
23.2512
20.0767
17.3768
15.4581
45.39
46.2145
47.9444
50.4227
53.3959
56.6288
59.907
63.0081
65.7962
68.193
70.1455
71.594
72.3769
72.2973
71.2905
68.594
65.726
62.7524
59.9875
57.3666
54.9084
52.6234
50.5546
48.7006
47.0033
45.1535
42.857
40.3999
37.8872
35.7421
53.8413
53.588
54.7793
57.0173
59.7477
62.4999
64.964
66.9725
68.4507
69.3683
69.7717
69.7022
68.9766
67.4064
64.6849
60.5852
56.8768
53.4288
50.6192
48.3801
46.7677
45.7326
45.3323
45.5638
46.3061
47.2831
48.3318
49.2164
49.6913
49.6007
11.7712
14.1805
14.9615
15.2224
15.2771
15.0429
14.5346
13.8228
12.9797
12.0775
11.1598
10.2734
9.43349
8.68375
8.02988
7.50998
7.16396
7.22921
8.06955
9.59518
11.0222
11.6493
11.3118
10.1878
8.56953
6.69601
4.79949
3.0332
1.73921
0.921223
6.5683
7.17577
7.34517
7.3491
7.28778
7.11886
6.83602
6.45973
6.02401
5.5618
5.1008
4.65724
4.24963
3.88712
3.59212
3.37398
3.28579
3.46374
4.11818
5.18444
6.18413
6.69664
6.6379
6.15013
5.40603
4.52896
3.59236
2.60143
1.72823
1.07827
5.99272
6.23408
6.26687
6.2071
6.08163
5.89022
5.63035
5.31066
4.95
4.57056
4.19212
3.82741
3.49062
3.19165
2.9491
2.78097
2.72873
2.90595
3.48133
4.39141
5.26656
5.76851
5.80925
5.4943
4.96082
4.30496
3.556
2.73416
1.97309
1.32498
5.86655
5.89951
5.85018
5.75239
5.60987
5.4212
5.18295
4.89906
4.58168
4.24729
3.91189
3.58625
3.28364
3.01569
2.8013
2.66093
2.63634
2.83156
3.36646
4.15789
4.9372
5.40848
5.48529
5.24924
4.81394
4.25195
3.60839
2.88627
2.18934
1.55751
5.80322
5.66097
5.53907
5.4137
5.27027
5.09691
4.88586
4.63706
4.35826
4.06211
3.76229
3.46807
3.19459
2.95364
2.76552
2.65392
2.66274
2.88761
3.40839
4.11431
4.78327
5.20324
5.28173
5.08477
4.70388
4.20501
3.6332
2.99192
2.35267
1.74588
5.70342
5.41188
5.21911
5.07015
4.93317
4.78277
4.60493
4.39447
4.15543
3.89763
3.63339
3.37132
3.1274
2.91469
2.75534
2.67726
2.72596
2.98728
3.49263
4.13049
4.69883
5.05251
5.11177
4.93198
4.58625
4.1351
3.61617
3.04461
2.4623
1.88985
5.55319
5.1318
4.86924
4.6962
4.56783
4.44475
4.3035
4.13359
3.93594
3.71831
3.49178
3.26463
3.05239
2.87056
2.74397
2.7046
2.79918
3.09966
3.59231
4.15966
4.6404
4.92122
4.94912
4.77368
4.45374
4.03961
3.56652
3.04655
2.52298
1.99164
5.36
4.82535
4.49383
4.29452
4.17289
4.07677
3.97315
3.84517
3.69105
3.5151
3.32776
3.13771
2.96022
2.81195
2.72197
2.72596
2.8708
3.209
3.68706
4.18522
4.58283
4.79201
4.784
4.60595
4.30565
3.92154
3.48952
3.01846
2.54457
2.0575
5.14296
4.5014
4.10765
3.87965
3.76083
3.68843
3.61984
3.53243
3.42187
3.28811
3.14105
2.98953
2.8488
2.73684
2.68648
2.73702
2.93399
3.3045
3.7623
4.19565
4.51304
4.65531
4.61283
4.42927
4.14388
3.78696
3.39255
2.96819
2.53999
2.09921
4.91081
4.17386
3.73152
3.47925
3.35711
3.29888
3.258
3.20593
3.13621
3.0433
2.93599
2.82306
2.71985
2.64621
2.63755
2.73684
2.98344
3.37697
3.80888
4.18476
4.42632
4.50667
4.43392
4.24613
3.97443
3.64379
3.2839
2.90501
2.52383
2.12262
4.66838
3.90908
3.42396
3.13915
2.99999
2.94184
2.91617
2.88973
2.84957
2.79045
2.72003
2.64369
2.57787
2.54338
2.57568
2.72253
3.01314
3.41714
3.82432
4.13498
4.31386
4.3427
4.2467
4.05816
3.80138
3.49759
3.17177
2.83849
2.49595
2.12463
4.4863
3.72662
3.19781
2.88047
2.71234
2.63811
2.61212
2.59856
2.57946
2.54663
2.50429
2.45986
2.42925
2.43195
2.50311
2.69416
3.02222
3.42801
3.79398
4.04932
4.17264
4.16234
4.05136
3.86697
3.62816
3.35273
3.06624
2.76912
2.45677
2.11357
4.37731
3.63555
3.08992
2.72208
2.51597
2.40885
2.36546
2.34945
2.33962
2.32407
2.30368
2.28219
2.28211
2.31654
2.42318
2.65145
2.99984
3.38966
3.71501
3.92384
4.00283
3.96683
3.8499
3.67554
3.45901
3.2189
2.96602
2.69603
2.41057
2.09334
4.35608
3.6481
3.1022
2.70021
2.42868
2.27209
2.19578
2.16068
2.14596
2.13629
2.12944
2.12593
2.14483
2.20502
2.34086
2.59615
2.94876
3.3107
3.59443
3.76195
3.80911
3.76026
3.64749
3.48966
3.30508
3.09629
2.86802
2.62206
2.3602
2.06649
4.40416
3.72941
3.18905
2.7676
2.46014
2.25113
2.12023
2.04964
2.01527
1.99833
1.99467
2.00091
2.03217
2.1077
2.26398
2.5337
2.87396
3.19923
3.44214
3.57474
3.60199
3.55277
3.45658
3.32664
3.16634
2.97979
2.77372
2.54886
2.30755
2.03516
4.5271
3.88596
3.3544
2.91543
2.57275
2.31963
2.145
2.03113
1.96344
1.92566
1.91374
1.92015
1.95666
2.03715
2.20472
2.47554
2.78935
3.07187
3.27598
3.382
3.4009
3.36837
3.29201
3.18015
3.03849
2.87135
2.68469
2.47787
2.25414
2.00098
4.72972
4.11899
3.59548
3.14994
2.78123
2.48768
2.26552
2.10586
1.99906
1.93312
1.90272
1.89942
1.93502
2.01617
2.18206
2.44243
2.72031
2.95781
3.1265
3.21797
3.24616
3.21971
3.15247
3.05343
2.92624
2.77454
2.60331
2.41095
2.20162
1.96551
5.00768
4.42403
3.91874
3.46976
3.08035
2.7521
2.48648
2.28143
2.13287
2.03319
1.97853
1.96053
1.98958
2.07004
2.22764
2.46935
2.70891
2.90417
3.04942
3.13204
3.15215
3.12094
3.05216
2.95842
2.83876
2.69623
2.53338
2.35084
2.15225
1.93073
5.34832
4.80253
4.3134
3.86478
3.46141
3.10689
2.80612
2.56209
2.37582
2.24399
2.16549
2.13311
2.15685
2.23816
2.39752
2.61494
2.82358
2.99314
3.11285
3.16621
3.15699
3.1001
3.02323
2.91696
2.7916
2.64416
2.48055
2.30163
2.1092
1.89923
5.75456
5.24007
4.76935
4.32713
3.91939
3.55081
3.2286
2.95925
2.74807
2.59558
2.50378
2.467
2.49768
2.59336
2.77337
2.99512
3.18874
3.33201
3.40642
3.3958
3.32306
3.22447
3.10984
2.96528
2.79746
2.62591
2.4518
2.26908
2.07684
1.87449
6.21998
5.73518
5.28705
4.8611
4.46329
4.09885
3.77661
3.50562
3.29467
3.14756
3.06931
3.05609
3.12632
3.2717
3.51123
3.78015
3.98697
4.09655
4.08421
3.96774
3.79413
3.61254
3.39824
3.16482
2.92753
2.69592
2.4716
2.26247
2.06116
1.86105
6.75842
6.3085
5.89291
5.49943
5.13383
4.80187
4.51361
4.28051
4.11443
4.02248
4.01218
4.08605
4.26453
4.53351
4.91459
5.30223
5.56179
5.62241
5.47557
5.18818
4.85157
4.47434
4.05011
3.6331
3.24935
2.90718
2.60254
2.33045
2.08726
1.87183
7.43386
7.02993
6.66561
6.332
6.03559
5.78294
5.58504
5.45739
5.41441
5.46928
5.63684
5.91554
6.33341
6.86352
7.54063
8.1472
8.51783
8.5383
8.20191
7.66797
6.99651
6.19221
5.3654
4.59441
3.92583
3.36868
2.91018
2.53216
2.21691
1.96194
8.3988
8.06373
7.78673
7.56324
7.40149
7.31013
7.29919
7.3953
7.61996
7.98761
8.51492
9.19542
10.0651
11.0697
12.2703
13.2087
13.7653
13.8012
13.2817
12.2694
10.9244
9.39808
7.8696
6.46947
5.27848
4.3193
3.56776
2.98503
2.53157
2.19656
9.98772
9.77596
9.65721
9.63622
9.72794
9.94355
10.2989
10.8191
11.536
12.4621
13.6082
14.9479
16.5265
18.2449
20.1772
21.4788
22.214
22.1771
21.2505
19.6174
17.4242
14.9162
12.3664
9.98237
7.93022
6.26888
4.98154
4.00797
3.28085
2.78911
12.9318
12.9726
13.1497
13.5121
14.0583
14.8025
15.7657
16.9724
18.4522
20.2001
22.1965
24.3847
26.8219
29.3377
31.93
32.8615
33.0703
32.3733
30.9733
28.9628
26.4114
23.2827
19.7203
16.1609
12.9683
10.2637
8.09875
6.42906
5.17844
4.37291
18.7515
19.2805
20.0317
20.9611
22.1565
23.6352
25.3978
27.4554
29.809
32.4128
35.2079
38.101
41.1409
43.6967
45.8296
45.3036
44.2209
42.4892
40.5037
38.2082
35.5999
32.6518
29.3767
25.7187
21.7454
18.0382
14.8311
12.175
10.0881
8.73261
29.7614
30.7069
32.0241
33.6914
35.5983
37.7417
40.1464
42.791
45.6166
48.5524
51.4074
53.992
56.4718
57.8961
58.504
55.6256
52.7296
49.7637
47.2442
44.9183
42.7178
40.5753
38.3567
36.0466
33.5835
30.627
27.3268
24.1339
21.3656
19.4026
44.7102
45.2675
46.6516
48.6611
51.0525
53.6204
56.2045
58.672
60.9834
63.0484
64.8047
66.1555
66.9133
66.4351
64.6741
59.1515
54.603
50.617
47.6402
45.4044
43.7989
42.7448
42.1765
41.9959
42.0349
42.0202
41.6395
40.713
39.1643
37.6004
49.3757
49.9021
51.3973
53.6407
56.25
58.8464
61.2041
63.1778
64.6965
65.7317
66.2633
66.2659
65.4184
63.1137
59.1561
52.0684
46.7834
42.4561
39.3943
37.2325
36.032
35.6709
36.1334
37.3555
39.1496
41.2332
43.3375
45.1759
46.49
47.0522
16.0909
19.1851
19.8815
19.9709
19.7509
19.2837
18.5146
17.5086
16.3515
15.1268
13.8781
12.6652
11.5013
10.4533
9.53542
8.82981
8.45214
9.03314
11.5063
15.2667
18.2153
19.1881
18.3534
16.3342
13.7328
10.9042
8.10616
5.47382
3.45014
2.00877
8.60157
9.32354
9.44691
9.37204
9.18704
8.92899
8.55311
8.06618
7.50896
6.91578
6.31854
5.73311
5.18694
4.68474
4.27189
3.96132
3.86463
4.30238
5.81365
7.98941
9.69009
10.2982
9.96042
9.06459
7.92661
6.70575
5.46926
4.18168
3.01461
2.06261
7.80007
8.02959
7.98979
7.85195
7.64017
7.37378
7.0377
6.63371
6.1819
5.70334
5.21946
4.74337
4.29638
3.8886
3.55369
3.31476
3.25879
3.66603
4.92175
6.69108
8.10271
8.68012
8.50856
7.88432
7.0502
6.14907
5.20543
4.15945
3.18743
2.35023
7.66245
7.60438
7.46317
7.28889
7.07352
6.81743
6.51087
6.15378
5.75737
5.33556
4.90533
4.47866
4.07587