/*--------------------------------*- C++ -*----------------------------------*\
  =========                 |
  \\      /  F ield         | OpenFOAM: The Open Source CFD Toolbox
   \\    /   O peration     | Website:  https://openfoam.org
    \\  /    A nd           | Version:  12
     \\/     M anipulation  |
\*---------------------------------------------------------------------------*/
FoamFile
{
    format      ascii;
    class       volScalarField;
    location    "1600/air";
    object      k;
}
// * * * * * * * * * * * * * * * * * * * * * * * * * * * * * * * * * * * * * //

dimensions      [0 2 -2 0 0 0 0];

internalField   nonuniform List<scalar> 
243000
(
0.0575113
0.0647366
0.0693846
0.0724336
0.0739848
0.0742331
0.0734262
0.0718032
0.0695738
0.0669174
0.0639655
0.0608769
0.0577913
0.0548095
0.0519299
0.0491452
0.0464367
0.0438795
0.0415745
0.0396194
0.0379891
0.036489
0.0347913
0.03252
0.0294681
0.0275633
0.0250808
0.0230392
0.0190094
0.0152011
0.0884986
0.0983542
0.102267
0.102687
0.101117
0.0982931
0.0946673
0.0905578
0.0861845
0.081712
0.0772542
0.0729396
0.0688349
0.0650061
0.0614715
0.0582443
0.0553228
0.0528359
0.0508978
0.0496215
0.048946
0.0485906
0.0480657
0.0467943
0.0443334
0.0404563
0.0356793
0.0300394
0.0242279
0.0179628
0.0963709
0.111932
0.11798
0.119464
0.118146
0.115112
0.111015
0.106301
0.101264
0.0961199
0.0910132
0.0860854
0.0813975
0.0770268
0.0730157
0.069399
0.0661995
0.0635968
0.0616963
0.0605845
0.060161
0.0601121
0.0599101
0.0589139
0.0565699
0.0525353
0.0470048
0.039946
0.0325462
0.0242651
0.0928116
0.111781
0.121582
0.125521
0.125669
0.123528
0.119932
0.115462
0.110487
0.105287
0.100052
0.0949452
0.0900533
0.085485
0.0813093
0.0775866
0.0743647
0.07185
0.0701191
0.0692057
0.068958
0.0690451
0.0689708
0.0681213
0.0659042
0.0619054
0.0562013
0.0487002
0.0405539
0.0313633
0.0842536
0.104343
0.117228
0.124026
0.126532
0.126118
0.123769
0.120235
0.115901
0.111141
0.106198
0.101263
0.0964652
0.0919538
0.0878278
0.0841835
0.0810958
0.0787832
0.077285
0.0765718
0.0764418
0.0765609
0.0764844
0.0756626
0.0735235
0.0696323
0.0639709
0.0564526
0.0480296
0.0384993
0.0751897
0.0922818
0.107029
0.116717
0.122019
0.123968
0.123538
0.121355
0.118079
0.114167
0.109863
0.105393
0.100938
0.0966937
0.0927864
0.0893662
0.0865288
0.0844927
0.0832594
0.0827411
0.0826969
0.0827975
0.0826518
0.0817877
0.0796861
0.0759281
0.0704302
0.0631238
0.0547385
0.0452097
0.0724465
0.0822019
0.0947333
0.105662
0.113488
0.117935
0.119689
0.119367
0.117599
0.114812
0.111379
0.107621
0.103718
0.0999141
0.096367
0.0932858
0.0907827
0.0890678
0.0881122
0.0877813
0.0878049
0.0878671
0.087625
0.0866821
0.0845916
0.0809688
0.0756991
0.0687252
0.06059
0.0512844
0.0755961
0.077958
0.0859284
0.095482
0.10374
0.109515
0.113249
0.114831
0.114748
0.113377
0.111101
0.10822
0.105013
0.101794
0.0987272
0.0960733
0.0939645
0.0925959
0.0919197
0.0917686
0.0918525
0.0918747
0.0915333
0.0905012
0.0884065
0.0849138
0.0799013
0.0733199
0.0655856
0.0566302
0.0824326
0.0789328
0.0813414
0.0876733
0.0950695
0.101379
0.106012
0.10874
0.110152
0.110234
0.109223
0.1074
0.105061
0.102512
0.10001
0.0978469
0.0961722
0.095161
0.0947616
0.0947824
0.0949262
0.0949177
0.0944914
0.0933779
0.0912769
0.087908
0.0831636
0.0770156
0.0697426
0.061224
0.0915319
0.0846559
0.0814932
0.0833207
0.0882418
0.093964
0.0989756
0.102571
0.104846
0.105948
0.10611
0.105385
0.103983
0.102205
0.10034
0.0987145
0.0974966
0.0968467
0.096718
0.0969028
0.0971109
0.097089
0.0966017
0.0954272
0.0933303
0.0900893
0.0856275
0.0798797
0.0730834
0.0650706
0.101222
0.0932078
0.0865313
0.083408
0.0844709
0.0881373
0.0925878
0.0965196
0.0994663
0.101331
0.102231
0.102462
0.10199
0.101027
0.099838
0.0987777
0.098027
0.097738
0.0978675
0.0982106
0.0984906
0.0984766
0.0979575
0.0967508
0.0946842
0.0915727
0.0873475
0.0819855
0.07567
0.0682366
0.111405
0.103623
0.095112
0.0883419
0.0849497
0.0851578
0.0877248
0.091097
0.0942426
0.0966595
0.0982099
0.0990105
0.0993151
0.0991332
0.0986274
0.0981376
0.0978509
0.0979136
0.0982904
0.0987901
0.0991505
0.0991651
0.0986492
0.0974466
0.0954157
0.0924183
0.0884252
0.0834269
0.0775745
0.0707152
0.121831
0.114074
0.105228
0.09669
0.0898982
0.086152
0.0855803
0.0871823
0.0896984
0.0921977
0.0941788
0.0954974
0.0962575
0.0967115
0.0968422
0.0969018
0.0970601
0.0974574
0.0980665
0.0987217
0.0991769
0.0992305
0.0987259
0.0975354
0.0955604
0.0926985
0.0889442
0.0842897
0.0788704
0.0725625
0.132372
0.124666
0.116081
0.107004
0.0983458
0.0913835
0.0872001
0.0858996
0.0866792
0.088472
0.0904204
0.0920391
0.0931884
0.0940045
0.0946391
0.0951871
0.0957572
0.0964639
0.0972875
0.0980866
0.0986379
0.0987542
0.0982972
0.0971574
0.0952517
0.0925207
0.0889736
0.0846484
0.079638
0.0738537
0.142936
0.135329
0.12722
0.118189
0.108871
0.100016
0.0927966
0.0881515
0.0861937
0.0862727
0.0874436
0.0889169
0.0902392
0.0912989
0.0922132
0.0931332
0.0940523
0.0950313
0.0960457
0.0969746
0.0976199
0.0978121
0.0974257
0.0963685
0.0945721
0.0919893
0.0886496
0.0846028
0.0799662
0.0746676
0.153432
0.145946
0.138086
0.129444
0.120206
0.110656
0.101581
0.0940779
0.0889985
0.0864799
0.0859632
0.0866042
0.0876792
0.0887808
0.089801
0.0909069
0.0920717
0.0932658
0.0944385
0.0954777
0.0962094
0.0964832
0.096183
0.0952297
0.0935718
0.0911707
0.0880647
0.084343
0.0800834
0.0752668
0.16375
0.156418
0.148808
0.1406
0.131706
0.12215
0.112297
0.102955
0.0951636
0.0897122
0.0867345
0.0857316
0.0859371
0.0866967
0.0876356
0.0887066
0.0899652
0.0912879
0.0925705
0.0936927
0.0944976
0.0948529
0.0946512
0.0938225
0.0923635
0.0902422
0.0874554
0.0840553
0.0801425
0.0757407
0.173758
0.166604
0.159254
0.151482
0.143019
0.133771
0.123834
0.113645
0.10403
0.0959919
0.090257
0.0869362
0.0855597
0.0854242
0.0859404
0.086809
0.0879317
0.0892461
0.0905623
0.0917284
0.0925886
0.0930373
0.092998
0.0923786
0.091149
0.0892935
0.0868022
0.083714
0.0801253
0.0760933
0.183309
0.176343
0.169265
0.161931
0.153933
0.145129
0.135468
0.125117
0.114586
0.104735
0.0965298
0.0906258
0.0870814
0.0854367
0.085048
0.0854138
0.0862396
0.0873614
0.0885893
0.0897516
0.0906812
0.0912494
0.091359
0.0909271
0.0899137
0.0883044
0.0860911
0.0833014
0.0800212
0.0763244
0.192262
0.185516
0.178804
0.171888
0.164353
0.15603
0.146801
0.136674
0.125898
0.115063
0.105058
0.0967993
0.0908475
0.0871847
0.0853613
0.0848126
0.0850752
0.0858424
0.0868663
0.0879386
0.0888708
0.0895113
0.0897425
0.0894726
0.0886565
0.0872737
0.0853198
0.082811
0.0798225
0.0764314
0.20052
0.194082
0.187877
0.181325
0.17422
0.16637
0.157627
0.147914
0.137308
0.126145
0.115095
0.105056
0.0968764
0.0909736
0.0872756
0.0853611
0.0847047
0.0848701
0.0855183
0.0863771
0.0872206
0.0878674
0.0881763
0.0880349
0.0873906
0.0862122
0.0844993
0.0822503
0.0795344
0.0764224
0.208079
0.202188
0.196262
0.190065
0.183386
0.176022
0.167803
0.158609
0.148415
0.137376
0.125926
0.114798
0.104875
0.0968606
0.0910833
0.0874243
0.0854613
0.0847064
0.0847377
0.0852082
0.0858354
0.0863955
0.086715
0.086655
0.0861472
0.0851459
0.0836482
0.0816382
0.0791747
0.0763235
0.214762
0.209209
0.203658
0.197888
0.191692
0.184867
0.177235
0.168652
0.159035
0.148422
0.137058
0.125471
0.114425
0.104708
0.0969391
0.0913397
0.0877332
0.085706
0.0848168
0.0846582
0.0848863
0.085225
0.0854565
0.0854081
0.0849847
0.0841228
0.0828057
0.0810102
0.0787769
0.0761664
0.22037
0.21524
0.210128
0.204837
0.199176
0.192951
0.185984
0.178116
0.169224
0.159267
0.148353
0.136828
0.125271
0.114408
0.104982
0.0974792
0.0920181
0.0883853
0.0862226
0.0851185
0.0846871
0.0845999
0.084588
0.084438
0.0840151
0.0832328
0.0820476
0.0804327
0.0784022
0.0760109
0.225145
0.220526
0.215929
0.211189
0.206144
0.200622
0.194442
0.187435
0.179451
0.170388
0.16025
0.149224
0.137724
0.126316
0.11572
0.106559
0.0991939
0.093674
0.0898465
0.0873831
0.0859096
0.0850694
0.0845474
0.0840884
0.0835074
0.0826835
0.0815469
0.0800416
0.0781621
0.0759518
0.229377
0.225465
0.221571
0.217582
0.213372
0.208789
0.203662
0.197814
0.191065
0.183257
0.174299
0.164241
0.153329
0.142
0.130821
0.120402
0.111226
0.103611
0.097689
0.0933153
0.0902151
0.0880637
0.086537
0.0853484
0.0842692
0.0831311
0.0818119
0.0802405
0.078388
0.0762808
0.234558
0.231817
0.22908
0.226298
0.223387
0.220232
0.216681
0.212553
0.207631
0.201687
0.194525
0.186058
0.176375
0.165785
0.154734
0.143606
0.132829
0.123003
0.114534
0.107548
0.101966
0.0975875
0.0941501
0.0913862
0.0890548
0.0869501
0.084912
0.0828294
0.0806343
0.0783457
0.246581
0.245843
0.24504
0.244251
0.24352
0.242795
0.241932
0.240698
0.238775
0.235814
0.23149
0.22561
0.218139
0.20924
0.199266
0.188225
0.176265
0.164311
0.152964
0.142659
0.133563
0.125679
0.118894
0.113061
0.108004
0.103503
0.0993927
0.0955605
0.0919249
0.0886346
0.291654
0.293647
0.295441
0.297892
0.301266
0.305226
0.309296
0.312947
0.315745
0.317197
0.31685
0.314664
0.310551
0.304715
0.297193
0.287659
0.275654
0.262599
0.249277
0.236269
0.223882
0.212241
0.201429
0.191504
0.182437
0.173672
0.165256
0.157313
0.14999
0.143854
0.49391
0.493173
0.494848
0.50079
0.508622
0.515385
0.520722
0.524738
0.527613
0.528585
0.52787
0.5262
0.523661
0.520683
0.516629
0.51137
0.502934
0.494741
0.486961
0.480138
0.474041
0.468695
0.463994
0.460076
0.456785
0.450513
0.44328
0.435862
0.429447
0.424237
0.0925703
0.104781
0.110574
0.113083
0.113101
0.111207
0.107908
0.103679
0.0988927
0.0938346
0.0887299
0.0838352
0.0792515
0.0751051
0.0713963
0.0681716
0.0654293
0.063396
0.0623992
0.0625884
0.0633846
0.063707
0.0625395
0.0592347
0.053628
0.045774
0.0364354
0.0258853
0.0213455
0.0200071
0.154154
0.173676
0.176893
0.172928
0.16516
0.155536
0.145201
0.134836
0.124834
0.115448
0.106845
0.0991288
0.0922772
0.0863661
0.0813532
0.0772816
0.0741407
0.0723504
0.0723104
0.0741622
0.0772291
0.0802539
0.0818401
0.0808501
0.0765533
0.0688524
0.0585624
0.0460246
0.035694
0.0287044
0.183489
0.205626
0.210467
0.206982
0.19898
0.188537
0.17694
0.165044
0.153378
0.142318
0.132128
0.12296
0.114818
0.10784
0.102027
0.0974768
0.0942237
0.0927469
0.0932869
0.0958163
0.0995484
0.103233
0.105447
0.104948
0.100749
0.0924991
0.0809438
0.0663262
0.052903
0.0414196
0.198012
0.219629
0.224846
0.222605
0.215779
0.206205
0.195166
0.183541
0.171865
0.160602
0.150097
0.140567
0.132082
0.124842
0.118927
0.114502
0.111674
0.110902
0.112174
0.115253
0.119251
0.122996
0.125216
0.124779
0.12059
0.112153
0.1001
0.0844498
0.0690906
0.0550946
0.202458
0.219618
0.226264
0.225932
0.220847
0.212871
0.203312
0.192997
0.182239
0.171644
0.161633
0.152446
0.144246
0.137297
0.131752
0.127856
0.125791
0.125926
0.127991
0.131551
0.135659
0.139241
0.141232
0.14069
0.13655
0.128229
0.116201
0.100343
0.0841049
0.0687552
0.20002
0.213087
0.219067
0.220192
0.217317
0.211916
0.204425
0.195574
0.186134
0.176808
0.167904
0.159543
0.15208
0.145816
0.140971
0.13788
0.136791
0.13791
0.140771
0.144749
0.148877
0.152204
0.153877
0.153162
0.149093
0.141089
0.12942
0.113941
0.0975798
0.0817149
0.192759
0.199566
0.204623
0.207044
0.206565
0.203806
0.198961
0.192553
0.185377
0.17762
0.16991
0.162639
0.156278
0.150992
0.147082
0.144997
0.144999
0.147118
0.150735
0.155074
0.159185
0.162238
0.163575
0.162651
0.158672
0.151087
0.140001
0.125292
0.109335
0.0935104
0.183341
0.182475
0.1849
0.188067
0.190166
0.190602
0.188645
0.184965
0.180087
0.174398
0.168423
0.162713
0.157483
0.15332
0.150518
0.149576
0.150691
0.153788
0.158111
0.162776
0.16687
0.169672
0.170705
0.169581
0.165694
0.158583
0.148227
0.134528
0.119335
0.103904
0.176109
0.169175
0.167917
0.169798
0.172465
0.174518
0.175015
0.174076
0.171626
0.16811
0.164049
0.15995
0.156169
0.153292
0.151666
0.15191
0.154126
0.158136
0.163109
0.168082
0.172181
0.174793
0.175593
0.17431
0.170538
0.163921
0.1544
0.141869
0.127688
0.112814
0.176409
0.163178
0.156582
0.155136
0.156609
0.158958
0.16086
0.1617
0.161215
0.1597
0.157491
0.155065
0.152799
0.151262
0.150869
0.152271
0.155521
0.160361
0.165939
0.171204
0.175345
0.177856
0.178512
0.177143
0.173539
0.167474
0.158755
0.147361
0.134289
0.120219
0.180678
0.16469
0.152584
0.146115
0.144587
0.145618
0.147584
0.149361
0.150304
0.15033
0.149586
0.148664
0.147849
0.147651
0.148447
0.150939
0.15512
0.160723
0.166785
0.172322
0.176571
0.179097
0.179697
0.178338
0.174939
0.169337
0.161397
0.151152
0.139279
0.126252
0.189252
0.171105
0.155684
0.144705
0.138414
0.136406
0.13682
0.138325
0.139862
0.140912
0.141356
0.141469
0.141865
0.142856
0.144732
0.1482
0.153179
0.159367
0.165857
0.171726
0.176156
0.178748
0.179358
0.178015
0.174747
0.169582
0.162514
0.153428
0.142779
0.130925
0.201616
0.181925
0.164051
0.149849
0.139581
0.133298
0.130404
0.130205
0.131129
0.132381
0.133484
0.134384
0.135485
0.137361
0.140111
0.144371
0.14997
0.156584
0.163386
0.169504
0.174137
0.17691
0.177684
0.176542
0.173566
0.168806
0.162384
0.154418
0.144976
0.134367
0.217437
0.197087
0.178092
0.161509
0.147826
0.137358
0.130567
0.126985
0.1257
0.125975
0.126885
0.128047
0.129522
0.131764
0.135052
0.139825
0.145811
0.152665
0.159656
0.165943
0.170774
0.173782
0.174838
0.174011
0.171458
0.167232
0.161509
0.154415
0.146293
0.136987
0.236289
0.216029
0.196797
0.178956
0.162848
0.148776
0.137709
0.129996
0.125402
0.12325
0.122781
0.123363
0.124672
0.126796
0.130123
0.135021
0.14109
0.147956
0.154967
0.161316
0.166306
0.169577
0.171
0.17059
0.168564
0.165012
0.160131
0.154007
0.146977
0.138847
0.25764
0.238209
0.219537
0.201261
0.183607
0.166843
0.152075
0.140128
0.131386
0.125734
0.122626
0.12151
0.121821
0.123285
0.126027
0.130538
0.136291
0.142876
0.149687
0.155956
0.161034
0.16456
0.166411
0.166516
0.165155
0.162427
0.158409
0.153128
0.146916
0.139833
0.2809
0.263249
0.245645
0.22735
0.208753
0.190216
0.172672
0.157071
0.144181
0.134403
0.127716
0.123759
0.122043
0.122057
0.123654
0.127102
0.132041
0.137959
0.144295
0.150308
0.155371
0.159138
0.161494
0.16226
0.161542
0.159503
0.156237
0.151726
0.146283
0.140024
0.305346
0.289775
0.273475
0.25561
0.23675
0.217319
0.197996
0.179664
0.163233
0.149437
0.138715
0.131136
0.126412
0.124054
0.123761
0.125615
0.129154
0.133926
0.139446
0.145029
0.150008
0.153943
0.156608
0.157852
0.157688
0.156278
0.153688
0.149929
0.145212
0.139682
0.329643
0.315856
0.301101
0.284413
0.266136
0.246651
0.226481
0.206403
0.187337
0.170156
0.155599
0.144104
0.135735
0.130117
0.127281
0.126884
0.128498
0.131724
0.136035
0.140796
0.14531
0.149105
0.151897
0.153498
0.153806
0.152931
0.150942
0.147876
0.143832
0.138981
0.352352
0.340634
0.327834
0.31284
0.295777
0.276936
0.256748
0.235867
0.215148
0.195487
0.177747
0.1626
0.150434
0.141173
0.135022
0.131748
0.13087
0.132007
0.134602
0.138037
0.141699
0.145073
0.147786
0.149525
0.150163
0.149698
0.148206
0.14572
0.1423
0.138078
0.373393
0.363886
0.353236
0.340245
0.324856
0.30724
0.28777
0.266987
0.245629
0.224515
0.204505
0.186372
0.170736
0.157944
0.14795
0.141266
0.137219
0.135623
0.135947
0.13753
0.13987
0.142447
0.144771
0.146381
0.14713
0.146905
0.145767
0.143736
0.140839
0.137172
0.392876
0.385597
0.377147
0.36635
0.353002
0.33716
0.319141
0.299393
0.278498
0.257097
0.235939
0.21578
0.197369
0.181352
0.167715
0.157093
0.149294
0.144165
0.141382
0.140474
0.14095
0.142244
0.143632
0.144717
0.145259
0.145032
0.144041
0.142295
0.13975
0.136531
0.411105
0.406026
0.399849
0.391478
0.380616
0.367238
0.351603
0.334064
0.315
0.294786
0.273934
0.253064
0.232965
0.214402
0.197778
0.183053
0.170772
0.161055
0.153972
0.149372
0.146907
0.146005
0.145808
0.145744
0.145521
0.144868
0.143653
0.141851
0.139395
0.136458
0.429112
0.426364
0.422728
0.417278
0.409701
0.399955
0.388215
0.374697
0.359505
0.342649
0.324286
0.304751
0.284731
0.264949
0.246233
0.227961
0.210174
0.194296
0.180886
0.170404
0.162864
0.157858
0.154462
0.151945
0.1499
0.147976
0.145927
0.143625
0.140929
0.138052
0.449521
0.449744
0.449578
0.44838
0.445918
0.442151
0.437106
0.43081
0.422995
0.413127
0.400882
0.386115
0.369251
0.35085
0.331877
0.311184
0.287502
0.263176
0.240092
0.219668
0.202645
0.189194
0.178594
0.170343
0.163856
0.158593
0.154113
0.150104
0.146283
0.142977
0.479332
0.48461
0.490704
0.497193
0.503952
0.510826
0.517646
0.524138
0.529463
0.532178
0.531495
0.526458
0.51716
0.504057
0.488069
0.467152
0.438645
0.405063
0.369103
0.333412
0.299762
0.269626
0.243712
0.222146
0.204588
0.190476
0.179155
0.17002
0.162474
0.157081
0.541837
0.557395
0.575783
0.596678
0.619645
0.644088
0.669505
0.695199
0.719358
0.739773
0.754558
0.762395
0.763233
0.758082
0.747594
0.728928
0.69806
0.657373
0.609881
0.558569
0.505429
0.453002
0.403529
0.358609
0.319211
0.285654
0.257779
0.235003
0.21659
0.204234
0.703964
0.737388
0.773279
0.812567
0.853877
0.896543
0.940011
0.982903
1.0216
1.05366
1.07757
1.09271
1.099
1.09772
1.08988
1.07218
1.04247
1.00262
0.953921
0.898328
0.837227
0.772796
0.706886
0.641951
0.580292
0.523534
0.472751
0.428085
0.389658
0.363501
1.01193
1.04089
1.07958
1.12387
1.17004
1.21732
1.26396
1.30408
1.33614
1.35952
1.37456
1.38141
1.37835
1.369
1.353
1.32721
1.29747
1.26466
1.22745
1.18638
1.14256
1.09685
1.0496
1.00167
0.953724
0.905663
0.858144
0.811724
0.767519
0.737117
1.19997
1.19716
1.21534
1.24701
1.28046
1.31059
1.33482
1.35205
1.36265
1.36638
1.36435
1.35836
1.34718
1.33261
1.3097
1.27652
1.24668
1.21688
1.19018
1.16607
1.14567
1.12994
1.11952
1.11446
1.11334
1.11262
1.11185
1.11084
1.1068
1.0978
0.130599
0.145506
0.149367
0.149953
0.148278
0.144489
0.139062
0.13259
0.125553
0.118358
0.111307
0.104686
0.0985737
0.0931839
0.0885346
0.0847833
0.0820291
0.0810219
0.0829274
0.0878535
0.093503
0.0969936
0.0966691
0.0920988
0.0836453
0.0717968
0.0575808
0.0415146
0.0269309
0.0206047
0.216084
0.240799
0.244445
0.239531
0.229174
0.216094
0.201857
0.18744
0.173417
0.160197
0.148009
0.137013
0.127177
0.118661
0.11141
0.105569
0.101317
0.100172
0.103682
0.112017
0.12237
0.131011
0.135182
0.133598
0.125977
0.112783
0.0954326
0.0747102
0.0556371
0.039618
0.261002
0.288327
0.294576
0.289996
0.279318
0.26521
0.249301
0.232723
0.216277
0.200564
0.185944
0.172664
0.16076
0.150499
0.141942
0.135333
0.13096
0.13042
0.134993
0.144648
0.156433
0.166539
0.172009
0.171335
0.16374
0.149544
0.130034
0.105863
0.0823954
0.0611344
0.289423
0.313576
0.319898
0.31614
0.306445
0.293092
0.277568
0.260919
0.244078
0.22773
0.212325
0.198217
0.185551
0.174689
0.165859
0.15941
0.155752
0.156256
0.161687
0.171769
0.18363
0.193749
0.199385
0.199107
0.191872
0.177717
0.157695
0.132298
0.106492
0.0820685
0.306537
0.325379
0.330023
0.32679
0.318487
0.306678
0.292543
0.276882
0.260821
0.244972
0.229799
0.215797
0.203218
0.19253
0.184115
0.178437
0.17598
0.177693
0.183787
0.193746
0.204981
0.214375
0.219571
0.21935
0.21257
0.199044
0.179561
0.154351
0.127818
0.101811
0.315482
0.325831
0.329125
0.327064
0.320291
0.310077
0.297431
0.283331
0.26898
0.254455
0.240199
0.226998
0.21513
0.205193
0.197699
0.193241
0.192283
0.195254
0.201865
0.211359
0.221543
0.229803
0.234207
0.233783
0.227426
0.214823
0.196468
0.172385
0.14628
0.119819
0.318105
0.320641
0.320524
0.317914
0.312649
0.304845
0.29509
0.28373
0.270945
0.257651
0.244724
0.232933
0.222243
0.213516
0.207325
0.204445
0.205148
0.209369
0.216381
0.225248
0.234174
0.241083
0.244495
0.243659
0.237626
0.226046
0.209166
0.186817
0.161942
0.135777
0.317094
0.310465
0.305647
0.30196
0.297991
0.292627
0.285641
0.276994
0.266846
0.255979
0.245107
0.234581
0.225304
0.218129
0.213539
0.212488
0.214916
0.220346
0.227672
0.235859
0.243488
0.248982
0.251313
0.249923
0.244107
0.233564
0.218358
0.198088
0.174853
0.149534
0.312646
0.29585
0.285743
0.280706
0.277869
0.274969
0.27109
0.265472
0.258129
0.249801
0.241111
0.232584
0.225197
0.21963
0.216805
0.217687
0.221853
0.228415
0.235993
0.243523
0.249924
0.254062
0.255321
0.253297
0.247658
0.23799
0.224234
0.206077
0.184822
0.161013
0.30578
0.281984
0.26767
0.260243
0.257121
0.25548
0.253634
0.250523
0.24593
0.24033
0.234015
0.227666
0.222181
0.218491
0.217525
0.220319
0.226152
0.233772
0.24156
0.248509
0.253818
0.25675
0.257012
0.254286
0.248431
0.239443
0.227174
0.211153
0.192191
0.170471
0.301823
0.273822
0.254629
0.243579
0.238492
0.236605
0.23577
0.234482
0.232108
0.22869
0.224709
0.220514
0.217001
0.215236
0.216093
0.220682
0.227994
0.236517
0.244521
0.251002
0.255427
0.257384
0.256711
0.253409
0.247437
0.238874
0.22775
0.213851
0.197307
0.178098
0.303021
0.27361
0.249726
0.233344
0.224854
0.220912
0.219602
0.219017
0.218094
0.216442
0.214232
0.211959
0.210304
0.210361
0.212881
0.219073
0.227677
0.236985
0.245176
0.251387
0.255127
0.256221
0.254865
0.251216
0.245295
0.237187
0.227002
0.214877
0.200909
0.184082
0.308237
0.278324
0.252603
0.232628
0.218731
0.210958
0.207507
0.206128
0.205507
0.204828
0.203916
0.202971
0.20286
0.204394
0.20834
0.21583
0.225362
0.235181
0.243512
0.249558
0.25286
0.253408
0.251642
0.247861
0.24219
0.23465
0.225488
0.215005
0.203195
0.188512
0.317967
0.288213
0.261313
0.238626
0.221281
0.209266
0.201872
0.197997
0.196235
0.195371
0.194953
0.194829
0.195517
0.198041
0.203014
0.211377
0.221463
0.231527
0.239924
0.24584
0.248886
0.249153
0.247247
0.243563
0.238316
0.23157
0.223671
0.214509
0.2042
0.191348
0.332383
0.303102
0.275914
0.251583
0.231228
0.215351
0.204008
0.196603
0.192262
0.189774
0.188778
0.188631
0.189523
0.192146
0.197587
0.206268
0.216433
0.226421
0.234747
0.24053
0.24347
0.243702
0.241921
0.238593
0.23405
0.228356
0.221475
0.213348
0.20412
0.192897
0.351259
0.323426
0.296849
0.271724
0.249164
0.229904
0.214472
0.202944
0.194975
0.189893
0.186957
0.185663
0.185923
0.187982
0.192934
0.201232
0.210917
0.220436
0.228448
0.234055
0.236998
0.237433
0.236083
0.233484
0.229713
0.224829
0.218859
0.211703
0.203466
0.193499
0.374908
0.348773
0.32323
0.29798
0.274012
0.252111
0.23306
0.217394
0.205289
0.196532
0.190676
0.187213
0.185858
0.186636
0.190146
0.197214
0.205776
0.214345
0.221728
0.227062
0.230106
0.231064
0.230253
0.228236
0.22516
0.221062
0.215984
0.209722
0.202383
0.193402
0.402065
0.377904
0.353736
0.328893
0.304232
0.280506
0.258594
0.239287
0.223139
0.210362
0.200877
0.19436
0.190521
0.189175
0.190661
0.195399
0.202162
0.209264
0.215627
0.220626
0.22369
0.224902
0.224534
0.223065
0.220628
0.217244
0.212938
0.207532
0.201006
0.192929
0.431233
0.409262
0.386743
0.362769
0.338064
0.313329
0.289449
0.267327
0.247745
0.231206
0.217961
0.207935
0.200975
0.196879
0.195728
0.197718
0.201892
0.206897
0.211784
0.21588
0.218495
0.219652
0.219511
0.218421
0.216469
0.213657
0.209989
0.20532
0.199491
0.192222
0.460994
0.441315
0.420659
0.397968
0.373838
0.348904
0.324023
0.300124
0.27809
0.258578
0.242055
0.228659
0.218434
0.211246
0.207158
0.206006
0.207149
0.209379
0.212096
0.214396
0.215856
0.216434
0.216098
0.21502
0.213237
0.210737
0.207501
0.203345
0.198045
0.191457
0.490186
0.472845
0.454228
0.433231
0.410322
0.38606
0.361254
0.336809
0.313624
0.292393
0.273675
0.257718
0.244756
0.234732
0.227799
0.223385
0.221043
0.219773
0.219209
0.218727
0.218041
0.217087
0.215764
0.214027
0.211839
0.209192
0.206004
0.201955
0.196931
0.190857
0.518245
0.503274
0.486898
0.468089
0.447181
0.424646
0.401228
0.377779
0.355148
0.333979
0.314809
0.297896
0.283586
0.271854
0.262907
0.25573
0.249599
0.243839
0.238443
0.233438
0.228885
0.224775
0.220997
0.217405
0.213834
0.210084
0.205969
0.201521
0.196451
0.190664
0.545557
0.533063
0.519342
0.503485
0.485696
0.466356
0.446127
0.425786
0.40609
0.387566
0.370617
0.355411
0.342338
0.33128
0.322335
0.313856
0.304103
0.292677
0.280239
0.267811
0.256234
0.24587
0.236856
0.229023
0.222114
0.215838
0.209906
0.204108
0.198054
0.192008
0.574165
0.564677
0.554536
0.54299
0.530133
0.516263
0.501958
0.487874
0.47464
0.462601
0.451919
0.442518
0.434726
0.428202
0.42273
0.415573
0.403228
0.385397
0.363388
0.339394
0.315686
0.293634
0.274153
0.257415
0.24325
0.231299
0.221098
0.212222
0.204094
0.196935
0.609706
0.6046
0.600021
0.595357
0.590593
0.585932
0.581804
0.57867
0.57699
0.576713
0.577611
0.579049
0.581305
0.58372
0.585608
0.582463
0.569039
0.545036
0.511985
0.473233
0.432275
0.391747
0.354092
0.320679
0.292119
0.268408
0.249023
0.23324
0.220169
0.210329
0.66607
0.668544
0.673588
0.680385
0.688797
0.698755
0.710405
0.723831
0.739107
0.755584
0.772121
0.787461
0.802047
0.815045
0.825391
0.825986
0.811507
0.782238
0.73975
0.687588
0.629282
0.567551
0.506569
0.44917
0.397671
0.353527
0.316972
0.287364
0.263645
0.247541
0.775796
0.793132
0.813646
0.836842
0.863218
0.891847
0.922317
0.95414
0.98674
1.0188
1.04839
1.07398
1.09638
1.11462
1.12698
1.1248
1.10544
1.07133
1.02426
0.966789
0.900654
0.826968
0.750303
0.672972
0.598476
0.530558
0.471591
0.421579
0.380242
0.353023
0.995801
1.02704
1.06343
1.10361
1.14484
1.18693
1.22907
1.26996
1.30837
1.34301
1.37211
1.39453
1.41018
1.41545
1.41153
1.38867
1.35491
1.31397
1.26893
1.22015
1.16785
1.11224
1.04766
0.978152
0.905994
0.833989
0.766624
0.704702
0.64974
0.612733
1.30413
1.32426
1.35825
1.40122
1.4468
1.49039
1.52898
1.56054
1.58456
1.60149
1.61122
1.61306
1.60676
1.59114
1.56378
1.51612
1.46718
1.41833
1.37389
1.33347
1.29746
1.26533
1.23809
1.21567
1.19575
1.17326
1.14325
1.11003
1.07501
1.04783
1.41062
1.4177
1.44264
1.47887
1.51727
1.55165
1.57851
1.59645
1.60539
1.60629
1.5991
1.58471
1.56214
1.52936
1.48253
1.41882
1.36065
1.3075
1.26425
1.23088
1.20859
1.19664
1.19548
1.20588
1.22436
1.24663
1.27014
1.29161
1.30621
1.31211
0.168261
0.185732
0.187786
0.185462
0.181676
0.175928
0.168457
0.159861
0.15069
0.14147
0.132487
0.124057
0.116257
0.109417
0.103568
0.0990466
0.0962402
0.0973404
0.105576
0.119739
0.133035
0.140134
0.139786
0.132851
0.120828
0.104765
0.0858566
0.0647579
0.0458106
0.0307626
0.279451
0.30826
0.308972
0.301458
0.28834
0.272119
0.254393
0.236408
0.218845
0.202216
0.1867
0.17254
0.159623
0.148254
0.13837
0.130345
0.125145
0.127254
0.14057
0.163167
0.186092
0.201707
0.207065
0.202393
0.189292
0.16932
0.144177
0.114682
0.0869583
0.063814
0.340497
0.370354
0.373495
0.366902
0.353512
0.336082
0.316367
0.295764
0.275206
0.255413
0.236728
0.219481
0.203696
0.189818
0.178031
0.168918
0.163697
0.166917
0.182352
0.207537
0.233159
0.25127
0.258585
0.255034
0.241804
0.22034
0.19232
0.158202
0.124293
0.0942698
0.381233
0.405484
0.409091
0.403306
0.390853
0.37407
0.354621
0.3338
0.312585
0.291786
0.271912
0.253369
0.23637
0.221482
0.209193
0.200211
0.19598
0.200483
0.21664
0.241705
0.266986
0.285094
0.292893
0.290191
0.277731
0.256711
0.228393
0.192978
0.156132
0.121981
0.409003
0.424926
0.427179
0.421634
0.410381
0.394969
0.376906
0.357188
0.336645
0.316138
0.296317
0.27763
0.260506
0.245636
0.233793
0.225793
0.223125
0.228957
0.24502
0.268446
0.291766
0.308446
0.315762
0.313491
0.302053
0.282339
0.255215
0.220564
0.183076
0.146543
0.426903
0.433367
0.432682
0.426815
0.416635
0.402838
0.386995
0.369331
0.350356
0.331067
0.312227
0.294269
0.277862
0.263816
0.253165
0.246829
0.246114
0.253205
0.268711
0.289701
0.310082
0.324455
0.330599
0.328313
0.317829
0.299791
0.274677
0.242066
0.205639
0.167998
0.436728
0.433871
0.428852
0.42192
0.413191
0.402581
0.388856
0.373026
0.355499
0.338164
0.321091
0.304539
0.289535
0.27699
0.268155
0.264065
0.265526
0.273789
0.28844
0.306618
0.323559
0.335107
0.339593
0.336901
0.327184
0.310968
0.288299
0.258472
0.22388
0.18634
0.440247
0.42829
0.417754
0.408955
0.401
0.392402
0.381736
0.369008
0.35504
0.339732
0.32412
0.309365
0.296343
0.285854
0.279359
0.277968
0.281724
0.291025
0.304619
0.319836
0.333217
0.341724
0.344233
0.340873
0.331701
0.316817
0.296284
0.269408
0.237557
0.201816
0.441303
0.418415
0.401649
0.390293
0.382686
0.376067
0.368317
0.358726
0.347727
0.335324
0.322431
0.310099
0.299091
0.291029
0.287272
0.288846
0.294926
0.305065
0.317474
0.329689
0.339712
0.345211
0.345637
0.340873
0.331515
0.31767
0.299516
0.275859
0.247488
0.214529
0.438732
0.405017
0.382685
0.368775
0.360922
0.355663
0.350422
0.343819
0.335961
0.326585
0.316548
0.306805
0.29843
0.293093
0.292324
0.296926
0.30527
0.315993
0.327138
0.336676
0.343526
0.346233
0.344702
0.339032
0.32949
0.316265
0.299509
0.27914
0.254725
0.224753
0.432346
0.39329
0.365893
0.348739
0.339476
0.334488
0.33085
0.326616
0.32129
0.314692
0.307563
0.300587
0.295043
0.292596
0.294927
0.302448
0.312776
0.323865
0.333721
0.34095
0.344985
0.345266
0.342075
0.335711
0.32616
0.313654
0.298402
0.280912
0.259599
0.232329
0.427704
0.385597
0.35342
0.332925
0.321083
0.315004
0.311744
0.308931
0.305592
0.301329
0.296633
0.292313
0.289649
0.290122
0.295444
0.305634
0.317519
0.328684
0.337366
0.342644
0.344379
0.342647
0.338161
0.331297
0.322011
0.31041
0.296983
0.281377
0.26229
0.23758
0.427632
0.384794
0.349731
0.3238
0.308322
0.299739
0.295418
0.292758
0.290511
0.287942
0.285276
0.28305
0.283066
0.286197
0.294283
0.306734
0.319649
0.330629
0.338263
0.342003
0.341866
0.338675
0.333319
0.326228
0.317406
0.307193
0.295248
0.280815
0.263493
0.241029
0.431033
0.388726
0.352861
0.324563
0.30399
0.290985
0.284218
0.280201
0.277878
0.27609
0.274797
0.274291
0.276097
0.281539
0.291947
0.306099
0.319718
0.330233
0.336798
0.339212
0.33778
0.333691
0.327956
0.320996
0.313182
0.304089
0.293051
0.279665
0.263581
0.243097
0.438928
0.397856
0.361751
0.331506
0.307942
0.2914
0.280208
0.273218
0.269582
0.267441
0.266612
0.267096
0.270063
0.277024
0.289085
0.304253
0.317807
0.327652
0.333422
0.334774
0.332586
0.328204
0.322743
0.316547
0.309349
0.300858
0.290584
0.278102
0.263086
0.244186
0.451864
0.412479
0.376527
0.344865
0.318756
0.298546
0.283729
0.273779
0.267369
0.263632
0.26215
0.262686
0.266125
0.273549
0.286532
0.301984
0.314941
0.323875
0.328884
0.329559
0.327145
0.323309
0.31833
0.312448
0.305626
0.297643
0.287981
0.276255
0.262152
0.244528
0.469928
0.432343
0.397565
0.365569
0.337493
0.314038
0.29545
0.281641
0.271994
0.265822
0.26276
0.262319
0.265516
0.272722
0.285421
0.300449
0.312326
0.320133
0.324446
0.324985
0.323078
0.319348
0.314462
0.308778
0.302237
0.294598
0.285377
0.274246
0.260899
0.244365
0.492679
0.4578
0.424471
0.392562
0.363141
0.337071
0.315041
0.297418
0.28416
0.274913
0.269492
0.267406
0.269461
0.275935
0.287414
0.30131
0.311749
0.318392
0.322307
0.322887
0.320716
0.316708
0.311614
0.306005
0.299506
0.291917
0.282925
0.272207
0.25946
0.243937
0.520165
0.487578
0.45577