/*--------------------------------*- C++ -*----------------------------------*\
  =========                 |
  \\      /  F ield         | OpenFOAM: The Open Source CFD Toolbox
   \\    /   O peration     | Website:  https://openfoam.org
    \\  /    A nd           | Version:  12
     \\/     M anipulation  |
\*---------------------------------------------------------------------------*/
FoamFile
{
    format      ascii;
    class       volScalarField;
    location    "1600/air";
    object      nut;
}
// * * * * * * * * * * * * * * * * * * * * * * * * * * * * * * * * * * * * * //

dimensions      [0 2 -1 0 0 0 0];

internalField   nonuniform List<scalar> 
243000
(
0.000126446
0.000129188
0.000128895
0.000127059
0.000124066
0.000120275
0.000116008
0.000111519
0.000106996
0.000102587
9.83792e-05
9.44684e-05
9.09387e-05
8.78457e-05
8.51579e-05
8.28453e-05
8.08635e-05
7.92467e-05
7.80701e-05
7.7418e-05
7.7273e-05
7.74463e-05
7.75693e-05
7.71331e-05
7.56934e-05
7.42879e-05
7.08977e-05
0.000308087
0.000274308
0.000236863
0.000471177
0.000478379
0.000470137
0.000454539
0.000435806
0.000415873
0.000395827
0.000376358
0.000357892
0.000340701
0.000324944
0.000310797
0.000298317
0.00028756
0.000278497
0.000271094
0.000265294
0.000261372
0.000259615
0.000260374
0.000263575
0.000268545
0.000273942
0.000277994
0.000278956
0.000273376
0.000266245
0.000254342
0.00023713
0.000212096
0.000580371
0.000625757
0.000642577
0.000646688
0.000643164
0.000634894
0.000623528
0.00061018
0.000595578
0.000580283
0.000564687
0.000549214
0.000534077
0.000519563
0.000505873
0.000493194
0.000481685
0.000472089
0.000464915
0.000460602
0.000458854
0.000458526
0.000457627
0.000453703
0.000444497
0.000428146
0.000404961
0.000373384
0.000337009
0.000290951
0.000569489
0.00062526
0.000652261
0.000662845
0.000663312
0.000657688
0.000648088
0.000635934
0.000622116
0.000607332
0.000592072
0.000576795
0.000561768
0.000547358
0.00053384
0.000521484
0.000510531
0.000501785
0.000495628
0.000492275
0.000491248
0.000491411
0.000491011
0.000487865
0.00047977
0.000464916
0.000442935
0.000412285
0.000376191
0.000330789
0.000542595
0.000603992
0.000640384
0.000658822
0.000665541
0.000664525
0.000658365
0.000648941
0.000637178
0.000623995
0.000609995
0.000595687
0.000581435
0.000567702
0.000554838
0.000543211
0.000533141
0.000525438
0.000520335
0.000517808
0.000517217
0.000517469
0.000517069
0.000514166
0.000506752
0.000493092
0.000472573
0.000443895
0.000409407
0.000366512
0.00051273
0.000567929
0.000611778
0.000639017
0.000653495
0.000658787
0.000657715
0.000651939
0.000643131
0.000632433
0.000620437
0.000607722
0.000594773
0.000582162
0.000570298
0.000559693
0.000550718
0.000544149
0.000540074
0.000538264
0.000537969
0.000538142
0.000537524
0.000534583
0.000527572
0.00051491
0.000495865
0.000469398
0.000437076
0.000397184
0.000503714
0.000536233
0.000575597
0.000607922
0.000630153
0.000642492
0.000647341
0.000646548
0.000641803
0.000634208
0.000624705
0.000614119
0.000602919
0.00059179
0.000581211
0.000571848
0.000564102
0.000558694
0.000555596
0.000554422
0.000554345
0.000554387
0.000553475
0.000550361
0.000543582
0.000531738
0.000514087
0.00048979
0.000459854
0.000423039
0.000514903
0.000522494
0.000548339
0.00057795
0.000602477
0.000619079
0.000629635
0.000634103
0.000633949
0.000630217
0.000623917
0.000615827
0.00060668
0.000597343
0.000588298
0.000580342
0.000573915
0.000569662
0.000567483
0.000566884
0.000566993
0.000566907
0.000565703
0.000562374
0.000555721
0.000544552
0.000528174
0.000505908
0.000478446
0.000444552
0.000537894
0.000526164
0.000533785
0.000553963
0.000576801
0.000595654
0.000609178
0.000617041
0.000621098
0.000621398
0.000618608
0.000613486
0.000606821
0.000599455
0.00059212
0.000585688
0.000580631
0.000577512
0.000576201
0.000576133
0.00057642
0.000576241
0.000574795
0.000571264
0.000564691
0.000554086
0.000538862
0.000518513
0.000493386
0.000462242
0.000566766
0.00054507
0.00053461
0.000540285
0.000555837
0.000573514
0.000588629
0.000599277
0.000605946
0.00060918
0.000609715
0.000607697
0.000603698
0.000598564
0.000593107
0.000588292
0.000584631
0.00058262
0.000582135
0.000582562
0.000583038
0.00058282
0.000581204
0.000577525
0.00057103
0.000560938
0.000546803
0.00052808
0.000505076
0.000476552
0.000595969
0.000571978
0.000551082
0.000540859
0.000544057
0.000555577
0.000569375
0.000581349
0.000590198
0.00059576
0.000598455
0.0005992
0.000597881
0.000595107
0.000591631
0.000588493
0.000586234
0.000585312
0.000585604
0.000586503
0.000587192
0.000586999
0.000585299
0.000581545
0.000575184
0.00056556
0.000552286
0.00053501
0.000513948
0.000488018
0.000625177
0.000603079
0.000577829
0.000556828
0.000545861
0.000546315
0.000554347
0.000564845
0.000574517
0.000581872
0.00058657
0.000589017
0.000589983
0.000589501
0.000588038
0.000586594
0.000585724
0.000585858
0.000586893
0.000588257
0.000589189
0.000589081
0.000587395
0.000583665
0.000577432
0.000568192
0.000555705
0.000539711
0.00052039
0.000496814
0.000653715
0.000632637
0.00060771
0.000582589
0.00056171
0.000549729
0.000547722
0.000552697
0.000560559
0.000568313
0.000574418
0.000578475
0.000580827
0.000582254
0.000582695
0.000582899
0.000583367
0.000584513
0.000586251
0.000588087
0.000589298
0.000589308
0.00058766
0.000583971
0.000577907
0.000569086
0.00055736
0.000542516
0.000524736
0.000503276
0.000681344
0.000661273
0.000638213
0.000612828
0.000587551
0.000566327
0.000553083
0.00054879
0.00055116
0.000556777
0.000562871
0.000567917
0.000571498
0.000574048
0.000576031
0.000577727
0.000579454
0.000581549
0.000583947
0.000586227
0.000587735
0.000587932
0.000586423
0.000582874
0.000577008
0.000568572
0.000557483
0.000543697
0.000527305
0.000507751
0.000707944
0.000688893
0.000667999
0.000643941
0.000618119
0.000592493
0.000570678
0.000556106
0.000549766
0.00054992
0.00055359
0.000558233
0.000562397
0.000565733
0.000568604
0.000571467
0.000574286
0.000577237
0.00058024
0.000582933
0.000584738
0.000585166
0.000583863
0.000580547
0.000574985
0.000566973
0.0005565
0.000543579
0.000528415
0.000510562
0.000733407
0.000715325
0.000695844
0.00067379
0.000649388
0.00062314
0.000597086
0.000574591
0.00055878
0.000550711
0.000548978
0.000550982
0.000554392
0.000557891
0.000561125
0.000564603
0.000568221
0.000571872
0.000575396
0.000578457
0.000580546
0.000581228
0.000580179
0.000577157
0.000571985
0.000564488
0.000554708
0.000542789
0.000528845
0.000512644
0.000757592
0.000740464
0.000722264
0.000702119
0.000679625
0.00065459
0.000627717
0.000601088
0.000577883
0.000561021
0.000551544
0.000548279
0.000548905
0.000551331
0.000554333
0.000557738
0.000561696
0.000565797
0.000569708
0.000573066
0.000575408
0.000576351
0.000575597
0.000572933
0.00056834
0.000561665
0.000552836
0.000541908
0.000529084
0.000514294
0.000780321
0.00076411
0.000747095
0.000728684
0.000708098
0.000684902
0.000659061
0.000631446
0.000604192
0.000580377
0.000562722
0.000552205
0.000547764
0.00054731
0.000548969
0.000551755
0.000555325
0.000559454
0.000563526
0.000567068
0.000569617
0.000570868
0.000570611
0.000568573
0.000564653
0.000558766
0.000550822
0.000540855
0.000529069
0.000515529
0.000801399
0.000786039
0.000770129
0.000753298
0.000734514
0.000713269
0.000689202
0.000662439
0.000634029
0.000606214
0.000581986
0.000563869
0.000552681
0.0005474
0.000546144
0.000547324
0.000549972
0.000553534
0.00055738
0.000560962
0.000563768
0.000565415
0.000565622
0.000564153
0.000560878
0.000555726
0.000548618
0.000539572
0.000528771
0.000516352
0.000820648
0.000806133
0.000791433
0.000776011
0.00075886
0.000739458
0.000717332
0.000692237
0.000664481
0.000635327
0.000607127
0.000582783
0.000564555
0.000553022
0.000547186
0.00054542
0.000546266
0.000548719
0.000551958
0.000555303
0.000558157
0.000560059
0.000560658
0.000559689
0.000557009
0.000552538
0.000546214
0.000538036
0.000528162
0.000516759
0.000837993
0.000824438
0.000811171
0.00079693
0.000781203
0.000763459
0.000743198
0.000720022
0.000693821
0.000665116
0.000635397
0.000607104
0.000583
0.000564944
0.000553323
0.000547208
0.000545096
0.000545623
0.000547683
0.000550383
0.000552994
0.000554946
0.000555805
0.00055524
0.000553085
0.000549233
0.000543642
0.000536268
0.00052726
0.000516775
0.000853543
0.000841379
0.000828974
0.00081581
0.000801389
0.000785187
0.000766704
0.000745484
0.000721222
0.000693982
0.000664526
0.00063456
0.000606563
0.00058294
0.000565283
0.000553803
0.000547545
0.000545115
0.0005452
0.000546677
0.000548625
0.000550329
0.00055124
0.000550937
0.000549204
0.000545895
0.000540965
0.000534331
0.000526124
0.000516491
0.000867036
0.000855761
0.000844347
0.00083233
0.000819237
0.000804574
0.000787855
0.000768618
0.000746472
0.000721231
0.000693169
0.000663315
0.000633514
0.000606063
0.000583164
0.000566075
0.000554787
0.000548336
0.000545473
0.000544936
0.000545621
0.000546636
0.000547284
0.000547024
0.000545555
0.000542676
0.000538304
0.000532338
0.000524861
0.000516014
0.000878177
0.000867902
0.000857553
0.000846718
0.000834977
0.000821879
0.000806969
0.000789789
0.000769907
0.000747008
0.000721058
0.000692581
0.000662773
0.000633451
0.000606837
0.000584775
0.00056817
0.000556846
0.000549987
0.000546436
0.000545012
0.000544672
0.000544553
0.000543973
0.000542505
0.000539869
0.000535907
0.000530507
0.000523676
0.000515546
0.000887528
0.000878388
0.000869205
0.000859646
0.000849361
0.000837962
0.000825019
0.000810092
0.000792734
0.000772549
0.00074931
0.000723171
0.000694839
0.000665518
0.000637055
0.000611361
0.000589881
0.000573251
0.000561424
0.000553667
0.000548955
0.000546218
0.000544471
0.000542907
0.000540933
0.000538158
0.000534343
0.000529285
0.000522939
0.000515405
0.000895714
0.000888058
0.000880383
0.000872461
0.000864028
0.000854757
0.000844265
0.000832131
0.000817898
0.000801102
0.000781372
0.000758588
0.000733047
0.000705532
0.000677262
0.00064979
0.00062458
0.000602851
0.000585391
0.000572144
0.000562551
0.000555774
0.000550884
0.000547019
0.000543464
0.000539689
0.000535291
0.000530025
0.000523774
0.000516594
0.000905653
0.00090037
0.000895078
0.000889673
0.000883989
0.000877791
0.000870762
0.000862508
0.000852551
0.00084035
0.000825385
0.000807316
0.00078612
0.000762239
0.00073647
0.000709555
0.000682464
0.000656777
0.000633797
0.000614187
0.000598043
0.000585056
0.00057463
0.000566083
0.000558748
0.000552024
0.000545425
0.000538598
0.000531315
0.000523623
0.000928481
0.000927138
0.00092568
0.000924252
0.00092294
0.000921645
0.000920089
0.000917825
0.000914239
0.000908644
0.000900362
0.000888941
0.000874183
0.000856242
0.000835651
0.000812227
0.000786048
0.000758966
0.000732329
0.000707262
0.000684365
0.000663871
0.000645697
0.000629634
0.000615351
0.000602334
0.000590178
0.000578604
0.000567398
0.000557051
0.00100991
0.00101343
0.00101659
0.00102087
0.00102671
0.00103351
0.00104046
0.00104666
0.0010514
0.0010539
0.00105339
0.00104982
0.001043
0.0010332
0.00102042
0.00100395
0.000982806
0.000959276
0.000934649
0.000909954
0.000885797
0.000862471
0.000840219
0.000819249
0.000799601
0.00078013
0.000760955
0.000742387
0.000724836
0.000709776
0.001315
0.00131404
0.00131626
0.00132414
0.00133447
0.00134336
0.00135033
0.00135556
0.00135929
0.0013606
0.00135971
0.00135758
0.00135433
0.0013505
0.00134524
0.00133838
0.0013273
0.00131644
0.00130605
0.00129686
0.00128859
0.0012813
0.00127485
0.00126944
0.00126488
0.00125616
0.00124603
0.00123554
0.00122638
0.00121889
0.00016051
0.000164414
0.000162755
0.000158785
0.000153415
0.000147223
0.000140639
0.000134006
0.000127561
0.000121474
0.00011586
0.000110848
0.00010648
0.000102817
9.98353e-05
9.75542e-05
9.59635e-05
9.52254e-05
9.56093e-05
9.72633e-05
9.9772e-05
0.000102298
0.000103978
0.000104091
0.000102121
9.74218e-05
8.99763e-05
7.85904e-05
6.77684e-05
0.000313493
0.00068092
0.000766658
0.000747103
0.000690361
0.000624379
0.000561368
0.000505654
0.000457575
0.000416376
0.000381268
0.000351859
0.000327264
0.000306351
0.000288938
0.000274201
0.000261988
0.000251611
0.000244274
0.000240247
0.000240211
0.000244693
0.00025347
0.00026448
0.00027402
0.000277212
0.000271889
0.000258477
0.000236108
0.000228822
0.000288919
0.00105955
0.00121859
0.00123138
0.00117681
0.00109596
0.00100835
0.000924078
0.000847336
0.000779035
0.000719405
0.000668479
0.000625353
0.00058848
0.000557746
0.000531961
0.000510278
0.000491265
0.000476385
0.000463767
0.000454025
0.000450056
0.000454281
0.000464922
0.000476
0.000480317
0.000470921
0.000447534
0.000407623
0.000376584
0.000375761
0.00130203
0.00149993
0.0015367
0.00150214
0.00143105
0.00134319
0.00125206
0.00116491
0.00108414
0.0010116
0.000948276
0.000893957
0.00084747
0.000809071
0.000777692
0.0007519
0.000729836
0.000712101
0.000693937
0.000675511
0.00066094
0.000655712
0.000659753
0.000668005
0.0006694
0.000655923
0.000625295
0.00057365
0.00052195
0.000492223
0.00143614
0.00162248
0.00169929
0.00169592
0.00164385
0.00156699
0.00148215
0.00139819
0.00131583
0.00123973
0.00117214
0.00111319
0.00106277
0.00102176
0.000989259
0.00096379
0.000943328
0.000926458
0.000905341
0.00088043
0.000857311
0.000842552
0.000838716
0.000841624
0.000839569
0.00082295
0.000788133
0.000730296
0.000665972
0.000619114
0.00150144
0.00167987
0.00176682
0.00178782
0.00176059
0.00170836
0.0016376
0.00155811
0.0014787
0.0014064
0.00134194
0.00128359
0.00123406
0.00119449
0.00116447
0.00114259
0.00112702
0.00111289
0.00109199
0.00106319
0.00103293
0.00101013
0.000999008
0.00099722
0.000991049
0.000972112
0.000935102
0.000874874
0.000804446
0.000747279
0.00153227
0.0016671
0.00175324
0.00179209
0.00179055
0.00176242
0.00171363
0.00165281
0.00159013
0.00152529
0.00146391
0.00140901
0.00136493
0.0013302
0.00130546
0.00128991
0.00128128
0.00127161
0.00125142
0.00122055
0.00118636
0.00115794
0.00114018
0.00113301
0.00112479
0.00110424
0.00106659
0.00100687
0.00093414
0.000870025
0.00152788
0.00160632
0.00167152
0.00171804
0.00174297
0.00174741
0.00172504
0.00168803
0.00164295
0.00159323
0.00154356
0.00149947
0.00146054
0.00143236
0.00141524
0.00140835
0.00140746
0.00140345
0.00138597
0.00135501
0.00131923
0.00128646
0.00126314
0.00125086
0.00124002
0.00122007
0.00118326
0.00112611
0.00105435
0.000986005
0.00152552
0.00154984
0.00158444
0.00161976
0.00165102
0.00167252
0.00167771
0.00167085
0.00164863
0.00161819
0.00158431
0.00155228
0.00152418
0.00150548
0.00149701
0.00150001
0.0015077
0.00150978
0.00149678
0.00146823
0.00143198
0.0013964
0.00136897
0.00135213
0.00133803
0.00131883
0.00128631
0.0012335
0.00116532
0.00109367
0.00156277
0.00152998
0.00151807
0.00152745
0.00154927
0.00157489
0.00159583
0.00160913
0.00161161
0.00160489
0.00159022
0.00157376
0.00155909
0.00155175
0.00155364
0.00156699
0.00158363
0.00159253
0.00158535
0.00156051
0.00152536
0.00148903
0.00145885
0.00143823
0.00142152
0.00140349
0.00137395
0.00132719
0.00126319
0.00119156
0.00161486
0.00154872
0.00149036
0.00146161
0.00146048
0.00147663
0.00150035
0.00152482
0.00154446
0.00155848
0.00156556
0.00156731
0.00156828
0.00157443
0.00158763
0.00161168
0.00163743
0.00165451
0.00165316
0.00163288
0.0016009
0.00156581
0.00153399
0.00151055
0.00149144
0.00147228
0.00144509
0.00140486
0.00134768
0.00128032
0.00169491
0.00159944
0.00150891
0.00144147
0.00140374
0.00139883
0.00141185
0.00143619
0.00146396
0.00149128
0.00151569
0.00153689
0.00155516
0.00157581
0.00160136
0.00163638
0.00167129
0.00169601
0.00170176
0.00168879
0.00166178
0.00162857
0.00159563
0.00156864
0.00154531
0.00152409
0.00150057
0.00146672
0.00141847
0.00135794
0.00179676
0.00168256
0.00156716
0.0014698
0.00140122
0.00136278
0.00134932
0.00136252
0.00138707
0.00141864
0.00145299
0.00148821
0.00152343
0.0015591
0.00159746
0.00164347
0.00168742
0.00171983
0.00173311
0.00172744
0.00170637
0.00167692
0.00164494
0.00161672
0.0015913
0.00156718
0.00154277
0.00151471
0.00147469
0.00142347
0.00192395
0.00180068
0.0016704
0.00154974
0.00145049
0.00137854
0.00133764
0.00132358
0.00133142
0.00135654
0.00139139
0.001433
0.00147897
0.00152833
0.00157918
0.00163568
0.00168827
0.00172825
0.00174954
0.00175137
0.00173681
0.00171209
0.00168268
0.00165451
0.00162874
0.00160359
0.00157863
0.00155185
0.0015211
0.00148069
0.00207299
0.00194817
0.00181253
0.00167835
0.00155622
0.00145365
0.00137857
0.00133296
0.00131533
0.00132127
0.00134563
0.00138442
0.00143318
0.00148945
0.00155073
0.00161635
0.00167667
0.0017238
0.00175289
0.00176219
0.00175448
0.00173524
0.00170977
0.00168289
0.00165811
0.00163403
0.00161041
0.00158601
0.00156083
0.00152896
0.00223863
0.00212005
0.00198741
0.00184831
0.00171189
0.00158586
0.00148001
0.00140065
0.00135038
0.00132856
0.00133173
0.00135628
0.00139813
0.00145341
0.00151786
0.00158983
0.00165609
0.00170932
0.00174538
0.00176189
0.00176111
0.0017479
0.00172749
0.00170336
0.00168113
0.00165969
0.00163814
0.00161486
0.00159089
0.00156544
0.00241665
0.00231084
0.00218688
0.00204906
0.00190614
0.00176547
0.00163633
0.00152691
0.00144312
0.00138801
0.00136174
0.00136249
0.00138685
0.0014309
0.0014904
0.00156208
0.00163097
0.00168825
0.00172996
0.00175314
0.00175922
0.00175253
0.00173822
0.00171893
0.00169894
0.00167899
0.00165884
0.00163658
0.00161371
0.00159054
0.00260087
0.00251095
0.00239935
0.0022683
0.00212601
0.00197922
0.00183561
0.00170346
0.00159036
0.0015021
0.00144221
0.00141199
0.0014099
0.00143293
0.00147747
0.00154019
0.0016068
0.00166503
0.00171038
0.00173972
0.00175277
0.00175242
0.00174255
0.00172695
0.00170873
0.00169076
0.00167212
0.00165214
0.00163036
0.00160859
0.00278481
0.00271015
0.00261335
0.00249427
0.00235886
0.00221309
0.00206313
0.00191653
0.00178116
0.00166422
0.00157151
0.0015072
0.00147244
0.00146593
0.00148724
0.00153177
0.00158785
0.00164364
0.0016904
0.00172333
0.00174067
0.00174476
0.00173921
0.00172754
0.00171187
0.00169605
0.00167933
0.00166198
0.00164165
0.00162154
0.00296051
0.00290122
0.00282051
0.00271622
0.00259201
0.00245259
0.002303
0.0021495
0.00199941
0.00186024
0.00173885
0.0016414
0.00157162
0.00153114
0.00152127
0.00153931
0.00157752
0.00162343
0.00166687
0.0017009
0.00172199
0.00173046
0.00172955
0.00172177
0.00170942
0.00169586
0.00168146
0.00166648
0.00164865
0.00163061
0.00312265
0.0030772
0.00301183
0.0029229
0.00281207
0.00268243
0.00253796
0.00238346
0.0022251
0.00206985
0.00192492
0.00179766
0.00169396
0.00161893
0.00157293
0.00155921
0.00157108
0.00160081
0.0016374
0.00166939
0.00169333
0.00170735
0.0017127
0.00170936
0.00170132
0.00169072
0.00167918
0.00166692
0.00165228
0.00163694
0.00326409
0.00322918
0.00317637
0.00310125
0.00300368
0.00288503
0.00274794
0.00259573
0.00243308
0.00226607
0.00210196
0.00194895
0.00181468
0.00170696
0.00162563
0.00157708
0.00155847
0.0015652
0.00158893
0.0016189
0.00164696
0.00166845
0.00168019
0.00168483
0.00168415
0.00167881
0.0016714
0.00166268
0.00165204
0.00164093
0.00337272
0.00334319
0.00329845
0.00323357
0.00314681
0.00303771
0.00290724
0.00275721
0.00259099
0.00241416
0.00223434
0.00206065
0.00190184
0.00176643
0.00165686
0.00157552
0.00152453
0.00150347
0.0015081
0.00153035
0.00156119
0.00159264
0.00161777
0.00163516
0.00164597
0.00165086
0.00165138
0.00165042
0.0016464
0.00164138
0.00342654
0.00339637
0.00335383
0.00329388
0.00321332
0.00310984
0.00298253
0.00283209
0.0026617
0.00247771
0.00228877
0.00210467
0.00193365
0.00178279
0.00165727
0.00155357
0.00147297
0.00142163
0.00139855
0.00140109
0.0014239
0.00145938
0.0014978
0.00153286
0.00156245
0.00158564
0.00160273
0.0016155
0.00162384
0.00163032
0.00338933
0.0033519
0.00330559
0.00324581
0.00316769
0.00306704
0.00294164
0.00279268
0.00262507
0.00244686
0.00226684
0.00209409
0.00193329
0.00178897
0.0016659
0.00155756
0.00146009
0.00138157
0.00132473
0.00129167
0.00128302
0.00129689
0.00132674
0.0013662
0.00140984
0.001453
0.00149259
0.00152752
0.00155701
0.00158337
0.00320417
0.00316297
0.00311779
0.0030631
0.00299355
0.00290477
0.00279542
0.00266848
0.00253004
0.00238656
0.00224426
0.00210865
0.00198111
0.00186477
0.00176298
0.00166774
0.00157142
0.00148055
0.00139822
0.00132842
0.00127446
0.0012394
0.00122395
0.00122728
0.00124716
0.00127994
0.00132121
0.00136694
0.0014136
0.00146154
0.00286649
0.00284416
0.00282519
0.00280261
0.00276987
0.00272216
0.00265869
0.00258284
0.00249927
0.00241158
0.00232253
0.00223326
0.00214403
0.00205977
0.00198419
0.00191013
0.00182764
0.00174193
0.00165524
0.00157082
0.00149083
0.00141842
0.00135651
0.00130751
0.00127303
0.00125365
0.00124899
0.00125767
0.00127794
0.00131477
0.00258647
0.00261854
0.00265519
0.0026828
0.00269635
0.00269336
0.0026747
0.00264409
0.00260349
0.00255515
0.00250129
0.00244261
0.00238001
0.00231774
0.00226112
0.00220474
0.00214154
0.00207526
0.00200581
0.00193549
0.00186521
0.00179612
0.00172894
0.00166525
0.00160647
0.00155389
0.00150902
0.00147273
0.00144647
0.00144766
0.00258803
0.00263036
0.00267771
0.00272081
0.00274944
0.00276232
0.00276067
0.00274507
0.00271877
0.00268431
0.00264481
0.00259962
0.00255019
0.00250308
0.0024587
0.00241391
0.00236918
0.00232548
0.00228278
0.00224257
0.00220593
0.0021722
0.00214096
0.00211186
0.00208355
0.00205485
0.0020268
0.00200067
0.00197793
0.00197788
0.00268861
0.00271851
0.00274808
0.00277485
0.00278684
0.00278768
0.00277976
0.00276406
0.00274206
0.00271557
0.00268415
0.00264967
0.00261253
0.00257826
0.00254446
0.00251464
0.00248956
0.00246796
0.00245154
0.00244149
0.00243813
0.00244193
0.00245091
0.00246285
0.00247592
0.00248697
0.00249722
0.00250891
0.00251806
0.00252124
0.000190692
0.000193772
0.000189176
0.000182854
0.000175663
0.000167814
0.000159654
0.000151538
0.000143724
0.00013642
0.000129756
0.000123858
0.000118743
0.000114514
0.000111162
0.00010878
0.000107435
0.000107634
0.000110196
0.000115209
0.00012116
0.000126216
0.000129275
0.000129804
0.000127554
0.000122105
0.000113177
9.96019e-05
8.3208e-05
7.03224e-05
0.000883133
0.000991439
0.000985117
0.000930509
0.000851624
0.000771727
0.00069936
0.000636313
0.000582036
0.000535762
0.000496371
0.000462964
0.000433975
0.000409585
0.000387894
0.00036877
0.000350743
0.000338547
0.000334141
0.000340167
0.000356192
0.000378473
0.000400908
0.000416771
0.00041957
0.00040468
0.000375478
0.000334292
0.000297664
0.000262604
0.00140546
0.00161921
0.00166117
0.00160891
0.00151528
0.00140681
0.00129882
0.0011985
0.00110846
0.00102976
0.000961572
0.0009031
0.000852252
0.000809698
0.000772982
0.000740549
0.000709525
0.000684853
0.000664885
0.000656195
0.000664195
0.000687018
0.000715751
0.000738704
0.000740101
0.000717098
0.000668356
0.000595085
0.000520782
0.000461185
0.00178131
0.00203271
0.00210678
0.00207549
0.00199189
0.00188227
0.00176453
0.00164856
0.00154075
0.00144404
0.00135854
0.00128454
0.00122051
0.00116772
0.00112401
0.00108688
0.00105244
0.00102178
0.000989588
0.000965934
0.000958851
0.000972101
0.000997522
0.00102151
0.00102347
0.000994995
0.000934454
0.000841625
0.000739961
0.000655446
0.00204316
0.0023032
0.00239202
0.00238141
0.00231531
0.00221667
0.00210315
0.00198438
0.00187179
0.00176836
0.00167469
0.00159308
0.001523
0.00146608
0.00142128
0.00138533
0.00135301
0.00131843
0.00127486
0.00123916
0.00121999
0.00122095
0.00123877
0.00126074
0.00126417
0.0012348
0.00117027
0.00106819
0.00095049
0.000846008
0.00223065
0.00245388
0.00256114
0.00258104
0.00253365
0.00244551
0.00233624
0.00222101
0.00211485
0.00201384
0.00191863
0.00183616
0.00176561
0.00170986
0.00166849
0.00163777
0.00161055
0.00157404
0.00152231
0.00147343
0.00144267
0.00143288
0.00144215
0.00146045
0.00146518
0.00144062
0.00137715
0.00127419
0.00114932
0.00103087
0.00236297
0.00255227
0.00265014
0.0026758
0.00264647
0.00257997
0.00249485
0.00239957
0.00229515
0.0021923
0.00209913
0.0020226
0.00195585
0.00190593
0.00187147
0.00184934
0.00182835
0.00179022
0.00173231
0.0016723
0.00163091
0.00161142
0.00161243
0.00162578
0.00163103
0.00161222
0.00155844
0.00146044
0.00133618
0.0012078
0.00247251
0.00259965
0.00266976
0.00269416
0.00267976
0.00263485
0.00257043
0.00249309
0.00240603
0.00231897
0.00223786
0.00216219
0.00210073
0.00205999
0.00203552
0.00202449
0.00200866
0.00197019
0.00190704
0.00183887
0.00179018
0.00176147
0.00175468
0.00176213
0.00176614
0.00175415
0.001713
0.00162799
0.00150861
0.00137431
0.00254479
0.00259864
0.00263276
0.00265061
0.00264813
0.00262446
0.00258433
0.00252908
0.00246203
0.00239167
0.00232345
0.00225997
0.00221088
0.0021785
0.00216537
0.00216647
0.00215663
0.00211456
0.00204781
0.00197767
0.0019237
0.00188757
0.00187359
0.00187432
0.00187724
0.00186986
0.00183746
0.00176848
0.00165903
0.00152724
0.00258927
0.0025858
0.0025861
0.00258788
0.00258622
0.00257478
0.00255214
0.0025173
0.00247211
0.00242205
0.00237047
0.00232239
0.00228545
0.00226594
0.00226517
0.00227811
0.00227425
0.00223357
0.00216554
0.00209452
0.00203532
0.00199366
0.00197313
0.00196564
0.00196154
0.00195486
0.00193211
0.00187923
0.00178863
0.00166853
0.00264381
0.00259568
0.0025554
0.00253091
0.00251737
0.00250695
0.00249465
0.0024759
0.0024496
0.00241808
0.00238556
0.00235454
0.00233235
0.0023273
0.00233924
0.00236306
0.00236444
0.00232643
0.00226119
0.00219024
0.00212878
0.00208348
0.00205588
0.00204083
0.0020304
0.0020198
0.00200155
0.0019645
0.00189475
0.0017941
0.00272659
0.00265836
0.00257557
0.00250249
0.00246559
0.00244261
0.00243053
0.00242027
0.00240782
0.00239242
0.00237609
0.0023629
0.00235681
0.00236656
0.00239108
0.00242475
0.00243209
0.0023993
0.00233912
0.00227147
0.0022098
0.00216012
0.00212708
0.00210628
0.00209088
0.00207665
0.00205917
0.00203191
0.00198381
0.00190343
0.00281226
0.0027238
0.00261999
0.00252825
0.00245234
0.00240199
0.0023803
0.00236819
0.00236167
0.00235693
0.00235386
0.00235473
0.00236476
0.00238773
0.00242459
0.00246678
0.00247914
0.00245214
0.0023986
0.00233632
0.00227668
0.00222487
0.00218805
0.00216268
0.00214398
0.00212725
0.0021104
0.00208933
0.0020583
0.0019979
0.00292671
0.00282282
0.0026992
0.00258083
0.00248177
0.00241157
0.00236554
0.00233813
0.00232771
0.0023253
0.00232997
0.0023416
0.00236187
0.00239626
0.00244397
0.00249303
0.0025107
0.00249065
0.00244502
0.00238901
0.00233232
0.00227977
0.00224052
0.00221191
0.0021909
0.00217399
0.00215902
0.00214145
0.00211867
0.00207335
0.0030668
0.00295046
0.00281861
0.00268574
0.00256377
0.00246511
0.00239202
0.0023455
0.00232239
0.00231147
0.00231668
0.00233253
0.0023584
0.00239784
0.00245351
0.00250739
0.0025301
0.00251757
0.00248063
0.00243129
0.00237844
0.0023266
0.00228617
0.00225589
0.00223409
0.00221821
0.00220384
0.00218777
0.00216661
0.00213338
0.00322899
0.00311952
0.00298727
0.00284363
0.00270313
0.00257829
0.00247689
0.00240318
0.00235663
0.00233282
0.00232604
0.00233666
0.00236145
0.00240025
0.00245712
0.00251314
0.00254018
0.00253523
0.00250699
0.00246474
0.00241655
0.00236711
0.00232666
0.00229662
0.00227439
0.002258
0.00224406
0.00222871
0.00220939
0.00218226
0.00342555
0.00332075
0.00319184
0.00304494
0.00289281
0.0027474
0.00261905
0.00251529
0.00243938
0.00239044
0.00236492
0.002361
0.00237514
0.0024074
0.00245704
0.00251141
0.00254161
0.00254405
0.00252459
0.00249007
0.00244741
0.00240208
0.00236209
0.00233209
0.00230964
0.00229321
0.00228049
0.0022659
0.00224764
0.00222257
0.00363637
0.00354091
0.00341985
0.00327565
0.00311875
0.00295978
0.00280955
0.0026775
0.00257001
0.0024898
0.00243632
0.0024082
0.00240262
0.00241784
0.00245419
0.00249888
0.0025305
0.00254036
0.00253039
0.00250467
0.00246831
0.00242796
0.00238998
0.00236133
0.00233952
0.00232352
0.00231153
0.00229886
0.00228153
0.00225863
0.00385089
0.00376726
0.00365664
0.00351904
0.00336269
0.00319662
0.0030309
0.0028753
0.00273788
0.00262393
0.00253593
0.00247457
0.00243884
0.0024281
0.00244089
0.00246973
0.00249758
0.00251294
0.0025129
0.00250018
0.00247285
0.00244066
0.00240765
0.00238196
0.00236218
0.00234765
0.00233708
0.00232658
0.00231047
0.00229008
0.00405942
0.00398643
0.0038861
0.00375657
0.00360398
0.00343556
0.00325996
0.00308618
0.00292248
0.0027754
0.0026497
0.00254862
0.00247391
0.00242699
0.00240812
0.0024123
0.00242878
0.00244606
0.00245813
0.00245809
0.0024472
0.0024299
0.00240707
0.00238729
0.0023726
0.00236202
0.0023549
0.00234632
0.00233269
0.00231584
0.00424816
0.00418235
0.00408997
0.00396788
0.00382012
0.0036519
0.00347007
0.00328217
0.00309574
0.00291764
0.0027543
0.00261136
0.00249358
0.00240461
0.00234772
0.00231826
0.0023134
0.00232459
0.00234403
0.00236105
0.00237093
0.00237376
0.00237006
0.00236483
0.00235924
0.00235778
0.00235787
0.00235279
0.00234454
0.00233349
0.00439787
0.0043347
0.00424661
0.00412969
0.00398586
0.00381819
0.00363148
0.00343166
0.00322528
0.00301954
0.00282266
0.00264255
0.00248643
0.0023592
0.00226601
0.00220161
0.00216686
0.00215857
0.00217119
0.00219518
0.0022225
0.00224827
0.0022697
0.00228747
0.00230211
0.00231402
0.00232263
0.00233394
0.00233978
0.00233911
0.00448278
0.00441697
0.00432893
0.00421402
0.00407204
0.00390394
0.0037127
0.00350319
0.00328139
0.00305593
0.00283738
0.00263557
0.00245861
0.0023106
0.00219578
0.00210817
0.00204543
0.0020077
0.00199372
0.00200001
0.00202209
0.00205499
0.00209371
0.00213466
0.00217485
0.00221194
0.00224419
0.00227242
0.00229265
0.00230977
0.00446637
0.0043948
0.00430396
0.00418905
0.00404827
0.00388096
0.00368928
0.00347842
0.00325395
0.00302747
0.00281156
0.00261597
0.00244674
0.0023053
0.00219199
0.00210304
0.00202606
0.00196223
0.00191261
0.00187926
0.00186464
0.00186939
0.00189246
0.0019311
0.00198095
0.00203661
0.00209283
0.00214633
0.00219288
0.00223207
0.00430916
0.00423388
0.00414214
0.00403182
0.00389999
0.00374482
0.00356787
0.00337505
0.00317536
0.00297982
0.00279978
0.00264084
0.00250611
0.00239396
0.00230132
0.00222656
0.00214996
0.00207301
0.00199675
0.00192522
0.00186386
0.00181751
0.00179052
0.00178573
0.00180356
0.00184144
0.00189404
0.00195548
0.00201921
0.00208099
0.00399704
0.00392462
0.00384872
0.00376483
0.00366657
0.00355083
0.00341881
0.00327636
0.00313215
0.00299454
0.00286979
0.00275981
0.0026663
0.00258689
0.00251861
0.00245843
0.00238796
0.00230984
0.00222454
0.00213536
0.00204649
0.00196178
0.00188635
0.00182561
0.00178452
0.00176621
0.00177028
0.00179414
0.00183382
0.00189013
0.00360599
0.0035689
0.00354489
0.00352194
0.00348516
0.00343158
0.00336184
0.00328094
0.00319588
0.00311257
0.00303419
0.00296106