/*--------------------------------*- C++ -*----------------------------------*\
  =========                 |
  \\      /  F ield         | OpenFOAM: The Open Source CFD Toolbox
   \\    /   O peration     | Website:  https://openfoam.org
    \\  /    A nd           | Version:  12
     \\/     M anipulation  |
\*---------------------------------------------------------------------------*/
FoamFile
{
    format      ascii;
    class       volScalarField;
    location    "1600/air";
    object      p_rgh;
}
// * * * * * * * * * * * * * * * * * * * * * * * * * * * * * * * * * * * * * //

dimensions      [1 -1 -2 0 0 0 0];

internalField   nonuniform List<scalar> 
243000
(
30.0779
30.0367
29.9634
29.8203
29.6758
29.5462
29.4356
29.3472
29.2806
29.236
29.211
29.2042
29.2085
29.227
29.2528
29.2973
29.3542
29.4285
29.5116
29.6043
29.7001
29.794
29.88
29.9541
30.0176
30.0685
30.1171
30.1422
30.1887
30.1771
30.0723
30.0117
29.9475
29.8137
29.6777
29.5516
29.4432
29.3561
29.2898
29.2464
29.2231
29.2172
29.2214
29.2392
29.2641
29.3076
29.3632
29.4361
29.5191
29.6119
29.7079
29.8019
29.8879
29.9619
30.0268
30.0783
30.1253
30.1478
30.1925
30.1694
30.053
29.9548
29.8858
29.7523
29.6245
29.5078
29.4091
29.3305
29.2711
29.2333
29.2141
29.2115
29.2176
29.2361
29.261
29.3042
29.3589
29.4317
29.5148
29.6079
29.7042
29.7991
29.8864
29.962
30.0274
30.0769
30.1236
30.1428
30.1926
30.162
30.024
29.8827
29.8083
29.675
29.5553
29.4488
29.3604
29.2909
29.2391
29.2075
29.1929
29.1938
29.202
29.2213
29.2461
29.2889
29.3423
29.4136
29.4942
29.585
29.6795
29.7737
29.8617
29.9392
30.0089
30.0628
30.1155
30.1338
30.1884
30.1542
29.9896
29.8113
29.7322
29.5994
29.4864
29.3878
29.3079
29.2461
29.2008
29.1744
29.1641
29.1679
29.1779
29.198
29.2224
29.2644
29.3163
29.3856
29.4636
29.5518
29.6442
29.7375
29.8264
29.9062
29.9794
30.0371
30.0957
30.1149
30.1776
30.1432
29.9499
29.7551
29.6651
29.533
29.426
29.3333
29.2598
29.2033
29.1625
29.1401
29.1328
29.1389
29.1503
29.1708
29.1943
29.2349
29.2849
29.3516
29.4264
29.5114
29.6013
29.6938
29.7835
29.8657
29.9426
30.0046
30.069
30.0907
30.161
30.128
29.9051
29.7129
29.6079
29.479
29.3767
29.2885
29.2192
29.1656
29.1267
29.106
29.0999
29.1071
29.1191
29.1395
29.1616
29.2003
29.2476
29.3114
29.3822
29.4635
29.5508
29.6424
29.7331
29.8179
29.8987
29.9651
30.0355
30.0613
30.1379
30.1063
29.8534
29.6741
29.5637
29.4431
29.3406
29.2548
29.1876
29.135
29.0963
29.0748
29.0675
29.074
29.0854
29.1049
29.1252
29.1612
29.2054
29.2654
29.3317
29.4091
29.4937
29.5844
29.6763
29.7637
29.8486
29.9196
29.9959
30.0271
30.109
30.0803
29.794
29.6296
29.5267
29.4154
29.3176
29.233
29.1643
29.1119
29.0715
29.0481
29.0379
29.0415
29.0504
29.0682
29.0859
29.1187
29.1591
29.2145
29.2759
29.3491
29.431
29.521
29.6141
29.7043
29.7933
29.8691
29.9512
29.9884
30.0752
30.0506
29.7274
29.5711
29.4842
29.3903
29.2993
29.2175
29.1479
29.0945
29.0519
29.0254
29.0114
29.0111
29.0156
29.03
29.0447
29.0736
29.1095
29.1597
29.2158
29.2847
29.364
29.4534
29.5479
29.641
29.7342
29.8147
29.9022
29.9459
30.0371
30.0178
29.6551
29.5012
29.4313
29.3578
29.2783
29.2028
29.1355
29.0795
29.0357
29.0063
28.9882
28.983
28.9821
28.9915
29.0021
29.0265
29.0573
29.1018
29.1524
29.2171
29.2937
29.3827
29.4787
29.5749
29.6721
29.7574
29.8499
29.9006
29.9957
29.9827
29.5771
29.4257
29.3718
29.3149
29.2491
29.184
29.1224
29.0662
29.021
28.9892
28.9674
28.9572
28.9502
28.9538
28.9587
28.9781
29.0032
29.0417
29.0868
29.1471
29.2213
29.31
29.4076
29.5069
29.6082
29.6984
29.7952
29.8532
29.952
29.9463
29.4952
29.3466
29.3066
29.2644
29.2123
29.158
29.1033
29.0514
29.0067
28.9729
28.9475
28.9328
28.9199
28.9171
28.9153
28.9292
28.948
28.9802
29.0197
29.0759
29.1478
29.2362
29.3356
29.4381
29.5434
29.6381
29.7391
29.8047
29.9064
29.9094
29.4092
29.2667
29.2378
29.2091
29.1683
29.125
29.0791
29.0332
28.9912
28.9564
28.9278
28.9088
28.8905
28.8813
28.8723
28.8799
28.8924
28.9182
28.952
29.0041
29.0738
29.1621
29.2633
29.369
29.4782
29.5775
29.6827
29.7554
29.8587
29.8724
29.3187
29.1852
29.1641
29.1475
29.1177
29.0847
29.0479
29.0088
28.9715
28.9381
28.9073
28.8844
28.8608
28.8457
28.8298
28.8307
28.8367
28.8561
28.8843
28.9323
29.0001
29.0884
29.1915
29.3003
29.4131
29.5173
29.6262
29.7057
29.8097
29.8352
29.2237
29.1021
29.0876
29.0796
29.06
29.0368
29.0091
28.9775
28.9453
28.9154
28.8845
28.8587
28.8303
28.8094
28.7872
28.7815
28.7812
28.7942
28.8169
28.8611
28.927
29.0154
29.1203
29.2323
29.3489
29.4578
29.5699
29.6558
29.76
29.798
29.1232
29.0161
29.0086
29.0072
28.9953
28.981
28.962
28.9384
28.9119
28.886
28.8575
28.8305
28.798
28.7716
28.7438
28.7323
28.7261
28.7328
28.7502
28.7906
28.8547
28.9433
29.0501
29.1653
29.2853
29.3986
29.5137
29.606
29.7101
29.7603
29.0171
28.9269
28.9253
28.9299
28.9247
28.9174
28.9064
28.8905
28.8706
28.8489
28.8238
28.7978
28.7628
28.7317
28.6986
28.6819
28.6708
28.6717
28.6839
28.7207
28.7833
28.8721
28.9806
29.0988
29.2223
29.3401
29.4575
29.5557
29.6602
29.7214
28.9052
28.8336
28.8366
28.8466
28.8485
28.8472
28.8428
28.8336
28.8202
28.8037
28.7822
28.7585
28.7229
28.6886
28.6509
28.6293
28.6142
28.6105
28.6179
28.6512
28.712
28.8008
28.9111
29.0324
29.1592
29.2809
29.4011
29.5044
29.61
29.6811
28.7863
28.7345
28.7413
28.7566
28.7651
28.7694
28.7711
28.7683
28.7607
28.7495
28.732
28.7111
28.6763
28.6404
28.5993
28.5737
28.5549
28.5475
28.5507
28.5805
28.6395
28.7283
28.8407
28.9653
29.0949
29.2206
29.3438
29.452
29.5596
29.6386
28.6591
28.6274
28.6381
28.6586
28.6727
28.6828
28.6901
28.6935
28.6919
28.6856
28.6724
28.6549
28.6216
28.5854
28.5422
28.5138
28.492
28.4813
28.4807
28.5075
28.5651
28.6545
28.7691
28.8961
29.0287
29.1583
29.2848
29.3979
29.5078
29.5939
28.5211
28.5101
28.5256
28.5503
28.57
28.586
28.5989
28.608
28.6121
28.6113
28.6029
28.5889
28.558
28.5222
28.478
28.4479
28.4238
28.4106
28.4074
28.4318
28.4884
28.5782
28.6946
28.8239
28.9594
29.0928
29.2227
29.3407
29.4534
29.5459
28.3747
28.3798
28.4004
28.4304
28.4565
28.4792
28.4982
28.5129
28.5222
28.5264
28.523
28.5128
28.4849
28.4505
28.4058
28.3747
28.3493
28.3346
28.3298
28.3524
28.4082
28.4984
28.616
28.7473
28.8857
29.0228
29.1563
29.279
29.395
29.4935
28.213
28.2282
28.2563
28.2938
28.3283
28.3594
28.3861
28.4074
28.4226
28.4318
28.433
28.4268
28.4022
28.3698
28.3255
28.2939
28.2677
28.2523
28.2467
28.2681
28.3233
28.4135
28.5316
28.6646
28.8054
28.9459
29.0827
29.2099
29.3293
29.4332
28.0365
28.0614
28.0992
28.1458
28.1902
28.2312
28.2662
28.2945
28.3159
28.3302
28.3356
28.3332
28.312
28.2821
28.2387
28.2072
28.1805
28.1649
28.1589
28.1796
28.2341
28.3238
28.4417
28.5758
28.7186
28.8621
29.0018
29.133
29.2558
29.3653
27.8123
27.8477
27.9005
27.9635
28.0259
28.0833
28.1319
28.1715
28.2023
28.2237
28.234
28.2358
28.2185
28.1911
28.1488
28.1173
28.0895
28.0733
28.0665
28.0858
28.1385
28.2262
28.3419
28.4752
28.6184
28.7628
28.9036
29.0372
29.1618
29.2748
27.6068
27.6585
27.7285
27.8083
27.888
27.9592
28.0188
28.0676
28.1059
28.1329
28.1466
28.1508
28.136
28.1115
28.0706
28.0393
28.0103
27.9936
27.9863
28.004
28.0539
28.138
28.2507
28.3828
28.5259
28.6713
28.8135
28.9503
29.0788
29.1981
27.1888
27.2828
27.4034
27.5345
27.6625
27.7718
27.8596
27.9305
27.9858
28.0267
28.0499
28.0605
28.05
28.0286
27.9888
27.9557
27.9228
27.9036
27.8932
27.9064
27.9481
28.0205
28.1203
28.2416
28.3759
28.5125
28.6454
28.7744
28.8938
29.0084
27.2063
27.3315
27.4776
27.6265
27.7617
27.8679
27.9477
28.0074
28.0506
28.082
28.0985
28.1035
28.0891
28.0643
28.021
27.9877
27.9573
27.9431
27.9388
27.959
28.0066
28.0835
28.1868
28.312
28.452
28.5966
28.7381
28.8777
29.0094
29.1412
25.9232
26.1433
26.4249
26.7155
26.9722
27.1677
27.315
27.4275
27.5123
27.5709
27.6056
27.6233
27.6166
27.5957
27.5539
27.5132
27.4677
27.4363
27.4097
27.4021
27.4164
27.4546
27.5177
27.5998
27.691
27.7773
27.8588
27.9414
28.0181
28.1189
29.8723
29.724
29.623
29.4591
29.3177
29.2053
29.1211
29.0607
29.0202
28.9985
28.9922
29.0009
29.0157
29.0411
29.0673
29.1099
29.1602
29.2298
29.3091
29.4028
29.503
29.6068
29.7085
29.8045
29.8966
29.9771
30.0558
30.1026
30.1664
30.1598
29.854
29.6881
29.5941
29.4397
29.3124
29.2074
29.1256
29.0663
29.0263
29.0064
29.0017
29.0107
29.0252
29.0499
29.0752
29.1168
29.1658
29.2348
29.3144
29.4087
29.5096
29.6141
29.7163
29.8124
29.9047
29.9852
30.0636
30.1095
30.1753
30.1492
29.8311
29.6499
29.5589
29.4095
29.2894
29.1896
29.1121
29.0558
29.0184
29.0013
28.9987
29.0082
29.0224
29.0465
29.0706
29.1109
29.1579
29.2246
29.3012
29.3923
29.4921
29.5975
29.7019
29.8004
29.8952
29.9771
30.0583
30.1015
30.1721
30.1397
29.8025
29.6088
29.5138
29.3679
29.2558
29.1633
29.092
29.0415
29.0084
28.9942
28.9934
29.0035
29.0173
29.0404
29.0628
29.1013
29.1454
29.2091
29.2819
29.3693
29.4659
29.5694
29.6734
29.7746
29.8729
29.9575
30.0438
30.0846
30.1634
30.1274
29.7702
29.57
29.4689
29.3277
29.2212
29.1346
29.0704
29.0251
28.9954
28.9835
28.9837
28.9941
29.0071
29.0289
29.0489
29.0848
29.1252
29.1851
29.2534
29.3367
29.4298
29.5314
29.6352
29.737
29.8373
29.9253
30.0159
30.0587
30.1477
30.1108
29.7297
29.5332
29.4275
29.2928
29.1912
29.1096
29.0507
29.0093
28.9821
28.9715
28.972
28.9819
28.9937
29.0135
29.0305
29.0631
29.0989
29.1543
29.2172
29.2959
29.3854
29.4855
29.5895
29.6924
29.7951
29.8854
29.9811
30.0263
30.1254
30.0896
29.684
29.498
29.3917
29.2638
29.1674
29.0911
29.0345
28.996
28.9702
28.9596
28.9593
28.968
28.9778
28.9952
29.0087
29.0372
29.0677
29.1177
29.1746
29.2482
29.3344
29.4332
29.5376
29.6422
29.7475
29.8407
29.9412
29.9894
30.0974
30.0637
29.6339
29.4643
29.3648
29.2453
29.1521
29.0783
29.0237
28.9858
28.9605
28.949
28.9468
28.9536
28.9606
28.9749
28.9843
29.008
29.0324
29.0762
29.1267
29.1952
29.2782
29.3759
29.4811
29.5876
29.6959
29.7923
29.8975
29.9494
30.0643
30.034
29.5794
29.4234
29.3425
29.2366
29.1477
29.0753
29.02
28.9793
28.9531
28.9401
28.9355
28.9394
28.9428
28.9533
28.9579
28.9763
28.994
29.0308
29.0746
29.138
29.218
29.3149
29.4213
29.5299
29.6414
29.7411
29.8509
29.9075
30.0273
30.0017
29.5211
29.3672
29.3113
29.2278
29.1483
29.0778
29.022
28.9794
28.9485
28.9328
28.9253
28.926
28.925
28.9311
28.9302
28.9426
28.9533
28.9826
29.0196
29.078
29.1551
29.2516
29.3593
29.4703
29.5851
29.6882
29.8022
29.8645
29.9874
29.9676
29.4606
29.3053
29.27
29.2102
29.147
29.0812
29.0262
28.9824
28.9489
28.9278
28.9165
28.9133
28.9075
28.9088
28.9015
28.9077
28.9109
28.9326
28.9627
29.0161
29.0907
29.187
29.2961
29.4098
29.5277
29.6344
29.7521
29.821
29.9452
29.9323
29.3983
29.2438
29.224
29.1807
29.136
29.0827
29.0305
28.9867
28.9513
28.9263
28.9097
28.9013
28.8905
28.8865
28.8723
28.8718
28.8677
28.8817
28.9049
28.9535
29.0258
29.1221
29.2328
29.3491
29.4703
29.5803
29.7013
29.7774
29.9017
29.8966
29.3339
29.1825
29.1757
29.1455
29.114
29.0762
29.0321
28.9903
28.9545
28.927
28.905
28.8906
28.8737
28.8642
28.8431
28.8354
28.8242
28.8308
28.8471
28.8911
28.9613
29.0577
29.1701
29.2892
29.4134
29.5267
29.6502
29.7338
29.8571
29.8612
29.2687
29.1216
29.1244
29.1054
29.0848
29.0582
29.0256
28.991
28.9564
28.928
28.9011
28.8815
28.8577
28.8417
28.8138
28.799
28.7807
28.7802
28.7902
28.8296
28.898
28.9946
29.1088
29.2307
29.3578
29.4742
29.5992
29.6902
29.8117
29.8277
29.2026
29.0607
29.07
29.0615
29.0495
29.0327
29.01
28.983
28.954
28.927
28.8966
28.8727
28.8428
28.8197
28.7846
28.7627
28.7372
28.7306
28.7348
28.7698
28.8365
28.9335
29.0495
29.1741
29.3039
29.4235
29.5486
29.6466
29.7659
29.7959
29.1331
28.9978
29.0136
29.0138
29.0092
29.0004
28.9866
28.9678
28.9444
28.9198
28.8899
28.8632
28.8278
28.7983
28.7557
28.7266
28.6941
28.682
28.6811
28.7122
28.7773
28.8748
28.9927
29.12
29.2518
29.3744
29.5001
29.6027
29.7198
29.7656
29.0592
28.9329
28.9541
28.9615
28.9634
28.9617
28.9555
28.9445
28.928
28.9079
28.8794
28.8516
28.8118
28.7766
28.7269
28.6907
28.6516
28.6345
28.6293
28.6569
28.721
28.819
28.9382
29.0676
29.2011
29.327
29.4536
29.5599
29.6737
29.7359
28.9802
28.866
28.8911
28.9049
28.9129
28.9171
28.9176
28.9136
28.9038
28.8894
28.8641
28.8363
28.7937
28.7537
28.6977
28.655
28.6094
28.5881
28.5793
28.6038
28.667
28.7657
28.8857
29.0168
29.1515
29.2815
29.4095
29.5196
29.6319
29.7053
28.8953
28.7966
28.8251
28.8444
28.858
28.8677
28.8736
28.8756
28.872
28.8633
28.8426
28.8164
28.7719
28.7285
28.6675
28.619
28.5674
28.5425
28.5307
28.5527
28.6157
28.7143
28.8348
28.9676
29.1045
29.238
29.3675
29.4812
29.5926
29.6746
28.8036
28.7236
28.7556
28.7799
28.7985
28.8133
28.8243
28.8315
28.8335
28.8301
28.8142
28.7907
28.7453
28.7003
28.6355
28.5823
28.526
28.4978
28.4838
28.5041
28.5665
28.6641
28.7848
28.9197
29.0593
29.1959
29.3271
29.444
29.555
29.6437
28.7039
28.646
28.6815
28.7109
28.7343
28.7543
28.77
28.7821
28.7889
28.7902
28.7791
28.7588
28.7135
28.6677
28.6007
28.5452
28.4846
28.4538
28.4379
28.4561
28.5173
28.6142
28.7359
28.873
29.0153
29.1547
29.2878
29.4076
29.5185
29.6121
28.5952
28.5625
28.6021
28.6367
28.6653
28.6906
28.7114
28.7283
28.7395
28.7449
28.7382
28.721
28.6769
28.6306
28.5632
28.506
28.4417
28.4084
28.3906
28.4076
28.4684
28.5653
28.6881
28.8268
28.9718
29.114
29.249
29.3715
29.4827
29.5802
28.4786
28.4721
28.5164
28.5567
28.5913
28.6226
28.6492
28.6714
28.6871
28.696
28.6931
28.6786
28.636
28.5904
28.5218
28.4636
28.3971
28.3613
28.3424
28.3594
28.4205
28.5175
28.6409
28.7808
28.9282
29.073
29.2101
29.3352
29.447
29.548
28.3551
28.3709
28.422
28.4693
28.5114
28.5502
28.5841
28.6129
28.6336
28.6458
28.6461
28.6338
28.593
28.5486
28.4779
28.4187
28.35
28.3132
28.2941
28.3123
28.3732
28.4701
28.5944
28.7357
28.8847
29.0316
29.1703
29.2974
29.41
29.5138
28.2252
28.263
28.3221
28.3773
28.4283
28.4764
28.5194
28.5559
28.5822
28.5982
28.6002
28.5895
28.5509
28.5078
28.436
28.3745
28.3029
28.2647
28.2463
28.2667
28.3276
28.4244
28.5492
28.6916
28.8434
28.9929
29.1331
29.2615
29.374
29.4798
28.0792
28.1412
28.2101
28.2761
28.3399
28.4013
28.4566
28.5031
28.5361
28.5568
28.5602
28.5502
28.5132
28.4713
28.399
28.3366
28.2622
28.2213
28.2036
28.2265
28.2868
28.3832
28.5069
28.6483
28.8009
28.9524
29.0942
29.2236
29.3351
29.4438
27.9479
28.0366
28.114
28.1903
28.2675
28.3435
28.4122
28.4692
28.5077
28.5307
28.5337
28.5234
28.489
28.4484
28.3754
28.3113
28.234
28.1904
28.1729
28.1978
28.2575
28.3538
28.478
28.6227
28.7772
28.9302
29.0732
29.2035
29.3143
29.425
27.7956
27.9088
28.0002
28.098
28.2022
28.3033
28.3912
28.4621
28.5138
28.5426
28.5466
28.5389
28.5085
28.4716
28.4003
28.3352
28.2531
28.2045
28.183
28.2048
28.2605
28.3502
28.4696
28.6103
28.7602
28.9076
29.0423
29.1668
29.2728
29.3827
27.8563
27.9769
28.0794
28.2007
28.3316
28.4539
28.5554
28.6345
28.6914
28.7259
28.7342
28.7299
28.7025
28.668
28.6007
28.5358
28.4463
28.3915
28.3612
28.3761
28.4231
28.5033
28.6108
28.7395
28.8797
29.0214
29.1548
29.2768
29.3783
29.4852
28.5185
28.6301
28.708
28.8173
28.9385
29.0492
29.1362
29.1976
29.2332
29.2478
29.2392
29.2204
29.1817
29.1415
29.0724
29.0112
28.9247
28.8735
28.848
28.8695
28.9239
29.0122
29.1269
29.2631
29.4118
29.5614
29.7008
29.8283
29.9352
30.0534
29.8831
29.6769
29.5891
29.4016
29.2462
29.1264
29.0435
28.9899
28.9577
28.9448
28.943
28.959
28.9758
29.004
29.0215
29.0529
29.075
29.1128
29.1518
29.2098
29.2822
29.375
29.4818
29.598
29.7217
29.8407
29.961
30.0445
30.134
30.1313
29.8671
29.6258
29.5503
29.3737
29.2364
29.1277
29.0478
28.9957
28.9647
28.954
28.9533
28.9697
28.9863
29.0143
29.0313
29.0629
29.085
29.1235
29.1626
29.2203
29.2935
29.3868
29.4937
29.6098
29.7332
29.8513
29.9708
30.0512
30.1422
30.1319
29.841
29.5833
29.5161
29.3488
29.2222
29.1201
29.0456
28.9961
28.9658
28.9556
28.9564
28.9728
28.9887
29.0162
29.032
29.0632
29.0838
29.1207
29.1562
29.2103
29.2814
29.376
29.4852
29.6032
29.7278
29.8452
29.9663
30.0436
30.1436
30.1246
29.7972
29.5371
29.4718
29.3123
29.1965
29.1031
29.0361
28.9916
28.9637
28.9556
28.9572
28.9733
28.9884
29.0158
29.0304
29.0608
29.0788
29.113
29.1442
29.1936
29.2597
29.3507
29.4615
29.5824
29.7089
29.8263
29.9495
30.0252
30.1344
30.1097
29.7398
29.4882
29.4221
29.2728
29.1678
29.0825
29.0221
28.9819
28.9577
28.9522
28.9549
28.9709
28.9849
29.0113
29.0236
29.0524
29.0664
29.0967
29.122
29.1658
29.2271
29.3147
29.4233
29.5439
29.6743
29.7932
29.9208
29.9957
30.1141
30.0876
29.6732
29.438
29.37
29.2334
29.1384
29.0611
29.0072
28.9719
28.9509
28.9475
28.9506
28.9662
28.9786
29.0036
29.0129
29.0393
29.0482
29.0731
29.0917
29.1293
29.1859
29.2708
29.3779
29.4981
29.6292
29.7512
29.8822
29.9589
30.0859
30.0596
29.6026
29.3882
29.3196
29.1965
29.1111
29.0418
28.9937
28.963
28.9444
28.9421
28.9451
28.96
28.9704
28.9935
28.9991
29.0223
29.025
29.0434
29.0548
29.0859
29.1379
29.2207
29.3272
29.4475
29.5794
29.7033
29.8375
29.9178
30.0518
30.0277
29.5305
29.337
29.2716
29.1633
29.0868
29.0252
28.9826
28.9553
28.9387
28.937
28.9392
28.9529
28.9608
28.9816
28.9826
29.002
28.9977
29.0087
29.0126
29.0372
29.0849
29.1661
29.2726
29.3938
29.5267
29.6519
29.7891
29.8743
30.0132
29.9932
29.4585
29.2842
29.227
29.1345
29.067
29.0125
28.974
28.949
28.934
28.9324
28.9333
28.9456
28.9503
28.9684
28.9639
28.9788
28.9669
28.9699
28.9665
28.9847
29.0282
29.1083
29.2156
29.3381
29.4725
29.5988
29.7385
29.8294
29.9711
29.9568
29.3883
29.2292
29.1859
29.1096
29.0517
29.0034
28.9682
28.9447
28.9303
28.9283
28.9277
28.9382
28.9392
28.9544
28.9436
28.9533
28.9331
28.9282
28.9177
28.9298
28.9692
29.0488
29.1572
29.2817
29.4177
29.5453
29.687
29.7841
29.9267
29.9197
29.3218
29.1735
29.1453
29.0827
29.0368
28.9956
28.9642
28.9423
28.9276
28.9249
28.9223
28.9311
28.9276
28.9397
28.9221
28.9263
28.897
28.8845
28.8672
28.8734
28.909
28.9885
29.0987
29.2256
29.3633
29.4929
29.6356
29.7387
29.8812
29.8832
29.2588
29.119
29.1041
29.0551
29.0197
28.9869
28.9599
28.9402
28.9253
28.922
28.9172
28.9239
28.9158
28.9246
28.8998
28.8982
28.8593
28.8395
28.8158
28.8166
28.8487
28.9286
29.0409
29.1707
29.3099
29.443
29.5849
29.694
29.8346
29.8484
29.1989
29.0653
29.0623
29.0265
29.0012
28.976
28.954
28.9369
28.9227
28.919
28.9123
28.9169
28.9038
28.9091
28.877
28.8693
28.8207
28.7938
28.7639
28.7601
28.7891
28.8697
28.9846
29.1177
29.2583
29.3949
29.5368
29.6503
29.7873
29.8148
29.1408
29.0125
29.0191
28.9955
28.9802
28.9626
28.9458
28.9319
28.9191
28.9156
28.9071
28.9099
28.8917
28.8932
28.8537
28.8401
28.7817
28.748
28.7123
28.7045
28.7308
28.8125
28.9305
29.0666
29.2096
29.3499
29.4911
29.6065
29.7394
29.7831
29.0822
28.9587
28.9741
28.9625
28.9559
28.9456
28.9345
28.9244
28.914
28.9109
28.9011
28.9023
28.8796
28.8769
28.83
28.8109
28.743
28.7027
28.6616
28.6504
28.6744
28.7575
28.8786
29.0172
29.164
29.3067
29.4469
29.5645
29.6935
29.7537
29.0231
28.9045
28.9279
28.9267
28.9278
28.9246
28.9193
28.9136
28.9061
28.9041
28.8937
28.8937
28.8669
28.8604
28.8059
28.7819
28.7049
28.6582
28.6122
28.598
28.6203
28.705
28.8286
28.9693
29.1196
29.2642
29.4052
29.5256
29.6514
29.7252
28.9624
28.8495
28.8798
28.8872
28.8951
28.8988
28.8995
28.8986
28.8946
28.8944
28.8841
28.8834
28.853
28.8431
28.7816
28.7531
28.6677
28.6147
28.5643
28.5474
28.5681
28.6542
28.78
28.9228
29.0762
29.2238
29.3662
29.4895
29.6131
29.6969
28.8968
28.7914
28.8284
28.8438
28.8582
28.8683
28.8749
28.8789
28.879
28.8809
28.8717
28.8709
28.8374
28.8248
28.7571
28.725
28.6315
28.5725
28.5176
28.4983
28.5176
28.6048
28.7319
28.8782
29.0346
29.1856
29.3295
29.4556
29.5775
29.6693
28.8236
28.7306
28.7735
28.7964
28.8171
28.8334
28.8456
28.8548
28.859
28.8634
28.8561
28.8557
28.8197
28.8051
28.7319
28.6976
28.5966
28.5321
28.4719
28.4507
28.4687
28.5562
28.685
28.8352
28.9946
29.1489
29.2946
29.4235
29.544
29.642
28.7413
28.6667
28.715
28.7451
28.772
28.7944
28.8123
28.8266
28.8352
28.8424
28.8372
28.8376
28.7998
28.7841
28.7062
28.6707
28.5627
28.4933
28.4279
28.4043
28.4206
28.5077
28.639
28.7927
28.9555
29.1133
29.261
29.3925
29.5121
29.6148
28.6493
28.599
28.6526
28.69
28.7233
28.752
28.7757
28.7954
28.8084
28.8187
28.816
28.8173
28.7784
28.7624
28.6804
28.6451
28.5303
28.4565
28.3846
28.3576
28.3719
28.4599
28.5931
28.7502
28.9166
29.0779
29.2279
29.3621
29.4813
29.588
28.548
28.5268
28.5861
28.6313
28.6715
28.707
28.737
28.7624
28.7801
28.7939
28.7938
28.7961
28.7567
28.7409
28.6553
28.6211
28.5002
28.4209
28.3413
28.3107
28.3249
28.4138
28.5475
28.7071
28.877
29.0422
29.1949
29.3319
29.4511
29.5612
28.4398
28.4489
28.5155
28.5694
28.6178
28.661
28.6981
28.7296
28.7525
28.7704
28.7726
28.7757
28.7361
28.7209
28.6323
28.5994
28.4726
28.3864
28.2989
28.2673
28.2829
28.3702
28.5031
28.6641
28.8364
29.0053
29.1614
29.3014
29.4211
29.5348
28.3261
28.3642
28.4413
28.5058
28.5639
28.616
28.6611
28.6995
28.7284
28.7505
28.7543
28.7577
28.7178
28.7035
28.6119
28.581
28.4483
28.3571
28.263
28.2307
28.2457
28.3297
28.4607
28.6225
28.7965
28.9677
29.1265
29.2699
29.391
29.5076
28.2059
28.2768
28.3679
28.4442
28.5129
28.5748
28.629
28.6754
28.7105
28.7363
28.7402
28.7432
28.7029
28.6902
28.5953
28.567
28.4276
28.333
28.2333
28.1973
28.2112
28.292
28.4205
28.5834
28.7591
28.9326
29.0934
29.2391
29.3612
29.4825
28.0813
28.1934
28.2976
28.3856
28.4663
28.5403
28.6049
28.659
28.7
28.7289
28.7325
28.7353
28.6954
28.6859
28.5889
28.5661
28.4214
28.3241
28.2164
28.1736
28.1824
28.2564
28.3814
28.5456
28.7236
28.9008
29.0645
29.2123
29.3351
29.4588
27.9695
28.1229
28.2385
28.34
28.4337
28.5194
28.5925
28.6534
28.7005
28.736
28.7402
28.7444
28.7068
28.7028
28.6063
28.5913
28.4405
28.3405
28.2221
28.1743
28.1827
28.2554
28.3715
28.5286
28.7063
28.8845
29.0495
29.1984
29.3207
29.444
27.8842
28.0642
28.188
28.303
28.4116
28.5107
28.5977
28.673
28.7274
28.7667
28.7711
28.7783
28.7457
28.7493
28.6551
28.6534
28.4986
28.3976
28.2702
28.2143
28.2174
28.2774
28.3855
28.5379
28.7122
28.8913
29.0569
29.2054
29.3249
29.4456
27.8723
28.0649
28.2023
28.331
28.4488
28.5561
28.6492
28.7282
28.7863
28.8286
28.8362
28.8484
28.8218
28.839
28.7529
28.7757
28.6257
28.5321
28.3972
28.3318
28.3217
28.3696
28.4627
28.6005
28.7618
28.9288
29.0866
29.2324
29.3527
29.4777
27.9619
28.1378
28.2732
28.4071
28.5297
28.6401
28.7333
28.8103
28.8664
28.9085
28.9199
28.9382
28.9187
28.9521
28.8795
28.9353
28.7977
28.7195
28.5877
28.5209
28.5024
28.5415
28.622
28.7452
28.8967
29.0619
29.2253
29.3793
29.5086
29.6358
29.8188
29.5719
29.5058
29.2841
29.1101
28.9828
28.9028
28.8633
28.8479
28.8512
28.8674
28.8991
28.9201
28.9491
28.9449
28.9483
28.9157
28.8992
28.8741
28.8817
28.9266
29.0229
29.1537
29.3053
29.4706
29.635
29.8048
29.9342
30.0671
30.0792
29.7931
29.4831
29.4391
29.2338
29.0851
28.9755
28.9042
28.8672
28.8547
28.8603
28.8772
28.9089
28.9293
28.9576
28.9528
28.9569
28.9259
28.9128
28.8902
28.8967
28.9389
29.0353
29.1661
29.3174
29.482
29.6456
29.8154
29.9429
30.0769
30.0853
29.7539
29.4173
29.382
29.1963
29.0653
28.9664
28.9029
28.8688
28.8585
28.8664
28.884
28.9152
28.9339
28.9609
28.9537
28.9566
28.9234
28.9088
28.8835
28.8853
28.9233
29.0238
29.1585
29.3115
29.4768
29.6395
29.8099
29.9356
30.0777
30.0799
29.6905
29.3536
29.321
29.1502
29.0367
28.9498
28.8957
28.8687
28.8609
28.8716
28.8899
28.9206
28.9375
28.9629
28.9526
28.9531
28.9153
28.8969
28.8678
28.8645
28.8971
28.9936
29.1328
29.2891
29.4552
29.6171
29.7882
29.9144
30.0654
30.0628
29.6095
29.2909
29.2586
29.1038
29.0062
28.9316
28.8863
28.8658
28.8621
28.8752
28.8939
28.9241
28.9378
28.9619
28.9469
28.9435
28.8982
28.8735
28.8387
28.8305
28.8589
28.9524
29.0892
29.2498
29.4178
29.5802
29.7525
29.8805
30.0397
30.0374
29.517
29.2275
29.1957
29.0572
28.9746
28.9124
28.8763
28.8624
28.8625
28.8777
28.8961
28.926
28.9368
28.9587
28.938
28.9289
28.8737
28.841
28.7993
28.7864
28.8114
28.9036
29.0394
29.2004
29.3704
29.5341
29.7082
29.8377
30.0031
30.0047
29.4206
29.1641
29.1343
29.0129
28.9455
28.8951
28.8678
28.8598
28.8624
28.8792
28.8973
28.9265
28.9348
28.9538
28.9261
28.9101
28.8428
28.8005
28.7514
28.7346
28.757
28.8492
28.9854
29.1457
29.3178
29.4827
29.6579
29.7898
29.9578
29.9673
29.3248
29.1016
29.0762
28.9726
28.9201
28.8805
28.861
28.8579
28.8623
28.8805
28.8978
28.9263
28.9318
28.9476
28.9119
28.8878
28.8066
28.7533
28.6969
28.6764
28.6975
28.7912
28.9291
29.0894
29.2627
29.429
29.6042
29.7388
29.9073
29.9278
29.2312
29.041
29.0231
28.9378
28.8986
28.8686
28.8559
28.8569
28.8629
28.8821
28.8984
28.9261
28.9281
28.9404
28.8957
28.8624
28.7659
28.7011
28.6373
28.6133
28.6349
28.7313
28.8719
29.0328
29.2074
29.375
29.5491
29.6872
29.854
29.888
29.1433
28.9847
28.9752
28.908
28.8808
28.8595
28.8527
28.8564
28.8641
28.8844
28.8993
28.9259
28.9238
28.9325
28.878
28.8346
28.7216
28.6449
28.5741
28.5478
28.5709
28.6711
28.8154
28.9783
29.1545
29.3231
29.4954
29.6375
29.8005
29.8487
29.0647
28.9332
28.9323
28.8825
28.8663
28.853
28.8511
28.8572
28.8664
28.8874
28.9007
28.9261
28.9192
28.924
28.8589
28.8049
28.6746
28.5861
28.5088
28.4815
28.5067
28.6118
28.7607
28.9268
29.1054
29.2754
29.447
29.59
29.7474
29.8112
28.9957
28.8845
28.8919
28.8593
28.8534
28.8478
28.8503
28.8595
28.8702
28.8911
28.9022
28.9261
28.9142
28.915
28.8388
28.7737
28.6255
28.5259
28.4428
28.4151
28.4436
28.5547
28.7078
28.8789
29.0604
29.2335
29.4032
29.5446
29.6968
29.7767
28.9329
28.8377
28.854
28.8377
28.841
28.8428
28.8493
28.8621
28.8745
28.8954
28.9044
28.9261
28.909
28.9055
28.8178
28.7414
28.5752
28.4656
28.3772
28.3497
28.3824
28.5003
28.6571
28.8346
29.0208
29.1962
29.3619
29.5033
29.6515
29.744
28.8755
28.7938
28.818
28.8167
28.8279
28.8366
28.8475
28.8639
28.8787
28.8997
28.9072
28.9263
28.9033
28.8956
28.796
28.7083
28.5246
28.4062
28.3129
28.2863
28.324
28.4488
28.61
28.7959
28.9856
29.1605
29.3244
29.4672
29.6118
29.7128
28.8224
28.7514
28.784
28.7945
28.8133
28.8286
28.8442
28.8637
28.8817
28.9037
28.9097
28.9267
28.8974
28.885
28.7735
28.6749
28.4744
28.3486
28.2504
28.2255
28.2689
28.4001
28.5682
28.76
28.9513
29.1275
29.2919
29.4357
29.5768
29.6837
28.7711
28.7086
28.7503
28.7708
28.7968
28.8187
28.8392
28.8622
28.8824
28.9069
28.9118
28.927
28.8914
28.874
28.7504
28.6416
28.4253
28.2931
28.1907
28.1682
28.2178
28.3539
28.5276
28.7237
28.9191
29.0986
29.2636
29.4084
29.5461
29.6568
28.7191
28.6655
28.7159
28.745
28.7779
28.8062
28.8321
28.859
28.8814
28.9079
28.9122
28.9271
28.8853
28.8629
28.7267
28.6087
28.3782
28.2405
28.1349
28.1145
28.1688
28.308
28.4882
28.6898
28.8899
29.0731
29.2391
29.3846
29.5194
29.6324
28.6656
28.6218
28.68
28.717
28.7564
28.7911
28.8228
28.8539
28.8789
28.9072
28.9115
28.9265
28.8789
28.852
28.7031
28.5771
28.3335
28.1922
28.0826
28.0625
28.1194
28.2635
28.451
28.6579
28.8629
29.0503
29.2177
29.3641
29.4962
29.6109
28.6068
28.5758
28.6416
28.6864
28.7324
28.7737
28.8113
28.8469
28.8749
28.9052
28.91
28.9249
28.8721
28.8418
28.6803
28.5483
28.2925
28.1476
28.0315
28.0112
28.0726
28.2216
28.4128
28.6266
28.8371
29.0293
29.1989
29.3462
29.4761
29.5919
28.5404
28.5264
28.6004
28.6531
28.706
28.7543
28.7979
28.8384
28.8697
28.9023
28.9079
28.9229
28.8658
28.8328
28.6594
28.5231
28.2549
28.1057
27.9825
27.9645
28.0301
28.1782
28.374
28.5955
28.8119
29.0091
29.1818
29.3306
29.4586
29.5755
28.4666
28.4728
28.5553
28.617
28.6779
28.7334
28.7831
28.8285
28.8637
28.8991
28.9058
28.9216
28.8604
28.8256
28.6413
28.5009
28.2195
28.0715
27.9419
27.924
27.9872
28.132
28.3352
28.5634
28.7859
28.9884
29.1653
29.3165
29.4433
29.5613
28.3854
28.413
28.5063
28.5789
28.6485
28.7116
28.7675
28.8181
28.8574
28.896
28.9044
28.922
28.8575
28.8223
28.6265
28.4833
28.1922
28.0462
27.9094
27.8875
27.9428
28.0857
28.296
28.5299
28.7584
28.9662
29.1476
29.3031
29.4298
29.5491
28.2948
28.3491
28.4552
28.5397
28.6189
28.6899
28.7519
28.8079
28.8517
28.8937
28.904
28.9239
28.8582
28.8233
28.6142
28.4735
28.1744
28.0248
27.878
27.8506
27.9025
28.0463
28.2562
28.4951
28.7295
28.9428
29.128
29.2878
29.417
29.5382
28.1958
28.284
28.4035
28.501
28.5902
28.6687
28.7372
28.7989
28.8473
28.8928
28.9063
28.9275
28.8606
28.8271
28.6057
28.4727
28.1631
28.0095
27.8518
27.8223
27.8729
28.0135
28.2198
28.4591
28.6997
28.9188
29.1085
29.2719
29.4032
29.5289
28.0919
28.2214
28.3537
28.4646
28.563
28.6494
28.7245
28.7919
28.8447
28.8943
28.9111
28.9339
28.8653
28.8355
28.6066
28.4832
28.1545
28.001
27.8369
27.8068
27.8544
27.9937
28.1925
28.4274
28.6709
28.8965
29.0912
29.259
29.3927
29.5214
27.9899
28.1623
28.3077
28.4307
28.5383
28.6325
28.7143
28.787
28.8442
28.9016
28.9196
28.9457
28.8769
28.8524
28.6185
28.5032
28.1523
28.0063
27.8329
27.8038
27.8501
27.9847
28.1779
28.4096
28.6488
28.879
29.0798
29.2524
29.3891
29.5187
27.8995
28.1107
28.2671
28.4013
28.5179
28.6196
28.7077
28.7857
28.8517
28.9158
28.937
28.9682
28.8976
28.8829
28.6453
28.5504
28.1889
28.0514
27.8649
27.8288
27.8639
27.9946
28.1832
28.4097
28.6452
28.8734
29.0784
29.2543
29.3926
29.522
27.8369
28.0692
28.2333
28.3788
28.5035
28.6125
28.7073
28.7976
28.8715
28.9394
28.9638
29.002
28.9321
28.9318
28.6913
28.6318
28.2631
28.1352
27.9383
27.8982
27.9237
28.0377
28.2111
28.4283
28.6562
28.8787
29.0822
29.2616
29.4039
29.5359
27.8006
28.0402
28.2107
28.3645
28.4985
28.6169
28.7228
28.8191
28.8958
28.9651
28.9919
29.0365
28.9707
28.99
28.7515
28.7415
28.3708
28.2568
28.0524
28.0069
28.0199
28.1146
28.2678
28.4699
28.6896
28.9082
29.1063
29.2808
29.4213
29.5561
27.8181
28.0337
28.2033
28.3607
28.4987
28.6251
28.7366
28.8366
28.9144
28.9856
29.0156
29.0651
29.0071
29.0478
28.8207
28.8723
28.5099
28.4163
28.2102
28.1608
28.1614
28.2386
28.368
28.5468
28.7467
28.9524
29.1464
29.3247
29.4749
29.6153
29.858
29.563
29.5058
29.2573
29.0582
28.9152
28.8289
28.7957
28.7881
28.8111
28.8452
28.9034
28.9452
29.01
29.0173
29.0357
28.9589
28.8705
28.7366
28.6644
28.6645
28.7514
28.8954
29.0639
29.2456
29.429
29.627
29.7929
29.9785
30.0148
29.8171
29.4446
29.4191
29.1886
29.0213
28.9006
28.8287
28.799
28.7961
28.8221
28.8574
28.9156
28.9567
29.0213
29.0274
29.0482
28.9751
28.894
28.7631
28.6861
28.6755
28.759
28.9019
29.0702
29.2525
29.4371
29.6371
29.8031
29.9912
30.0252
29.7645
29.3494
29.3434
29.1357
28.993
28.8875
28.8262
28.801
28.8029
28.8317
28.8675
28.9258
28.9652
29.03
29.0338
29.0566
28.9813
28.8948
28.7591
28.6812
28.664
28.7458
28.892
29.0623
29.2467
29.4318
29.6322
29.7947
29.988
30.0207
29.6803
29.2624
29.2639
29.0732
28.9536
28.8658
28.817
28.8011
28.8084
28.84
28.8765
28.9352
28.9726
29.0384
29.0386
29.063
28.9803
28.8888
28.7463
28.6642
28.639
28.7122