/*--------------------------------*- C++ -*----------------------------------*\
  =========                 |
  \\      /  F ield         | OpenFOAM: The Open Source CFD Toolbox
   \\    /   O peration     | Website:  https://openfoam.org
    \\  /    A nd           | Version:  12
     \\/     M anipulation  |
\*---------------------------------------------------------------------------*/
FoamFile
{
    format      ascii;
    class       volScalarField;
    location    "1600/air";
    object      T;
}
// * * * * * * * * * * * * * * * * * * * * * * * * * * * * * * * * * * * * * //

dimensions      [0 0 0 1 0 0 0];

internalField   nonuniform List<scalar> 
243000
(
300.866
300.835
300.814
300.798
300.784
300.771
300.759
300.748
300.737
300.727
300.717
300.707
300.697
300.687
300.676
300.666
300.654
300.642
300.629
300.613
300.593
300.57
300.545
300.518
300.492
300.468
300.446
300.429
300.415
300.394
300.932
300.871
300.836
300.811
300.791
300.775
300.761
300.748
300.736
300.725
300.714
300.703
300.693
300.682
300.672
300.661
300.649
300.637
300.623
300.607
300.588
300.567
300.542
300.517
300.492
300.468
300.446
300.428
300.413
300.399
301.046
300.928
300.868
300.831
300.804
300.783
300.766
300.751
300.737
300.725
300.713
300.701
300.69
300.679
300.668
300.657
300.645
300.632
300.618
300.603
300.585
300.564
300.541
300.517
300.492
300.469
300.447
300.428
300.412
300.399
301.203
301.015
300.919
300.862
300.824
300.796
300.774
300.756
300.741
300.727
300.714
300.701
300.689
300.678
300.666
300.654
300.642
300.629
300.615
300.599
300.582
300.562
300.54
300.517
300.493
300.47
300.449
300.43
300.413
300.399
301.396
301.142
300.997
300.91
300.855
300.816
300.788
300.765
300.747
300.731
300.716
300.703
300.69
300.677
300.665
300.652
300.64
300.626
300.612
300.597
300.58
300.561
300.54
300.518
300.495
300.473
300.451
300.432
300.414
300.4
301.605
301.315
301.112
300.984
300.902
300.847
300.809
300.78
300.757
300.738
300.721
300.706
300.692
300.678
300.665
300.652
300.638
300.624
300.61
300.595
300.578
300.559
300.54
300.518
300.497
300.475
300.454
300.435
300.417
300.402
301.778
301.508
301.265
301.09
300.972
300.893
300.839
300.801
300.771
300.748
300.728
300.711
300.695
300.68
300.666
300.652
300.638
300.624
300.609
300.593
300.577
300.559
300.54
300.519
300.499
300.478
300.457
300.438
300.42
300.404
301.9
301.688
301.439
301.226
301.069
300.959
300.884
300.831
300.792
300.762
300.738
300.718
300.7
300.684
300.668
300.653
300.638
300.623
300.608
300.592
300.576
300.558
300.54
300.521
300.501
300.481
300.461
300.442
300.423
300.407
301.979
301.836
301.618
301.389
301.196
301.05
300.946
300.873
300.821
300.782
300.752
300.728
300.707
300.689
300.672
300.656
300.64
300.624
300.608
300.592
300.576
300.559
300.541
300.522
300.503
300.484
300.464
300.445
300.427
300.411
302.027
301.941
301.781
301.567
301.352
301.171
301.034
300.934
300.862
300.811
300.772
300.742
300.717
300.696
300.677
300.66
300.643
300.626
300.609
300.593
300.576
300.559
300.542
300.524
300.505
300.487
300.468
300.449
300.431
300.415
302.059
302.008
301.906
301.738
301.529
301.324
301.151
301.019
300.922
300.851
300.8
300.761
300.731
300.706
300.685
300.665
300.647
300.629
300.611
300.594
300.577
300.56
300.543
300.526
300.508
300.49
300.472
300.454
300.436
300.419
302.085
302.054
301.993
301.878
301.704
301.499
301.301
301.134
301.005
300.909
300.839
300.788
300.749
300.719
300.694
300.672
300.652
300.633
300.614
300.596
300.579
300.562
300.545
300.528
300.511
300.493
300.476
300.458
300.441
300.424
302.11
302.085
302.047
301.977
301.853
301.675
301.473
301.28
301.117
300.99
300.895
300.826
300.775
300.737
300.707
300.682
300.659
300.638
300.618
300.6
300.582
300.564
300.547
300.53
300.514
300.497
300.48
300.463
300.445
300.429
302.133
302.111
302.085
302.041
301.961
301.829
301.649
301.449
301.259
301.099
300.974
300.88
300.812
300.762
300.724
300.694
300.668
300.645
300.624
300.604
300.585
300.568
300.55
300.534
300.517
300.5
300.484
300.467
300.45
300.434
302.155
302.135
302.114
302.083
302.033
301.944
301.804
301.622
301.423
301.236
301.078
300.955
300.864
300.797
300.748
300.711
300.68
300.654
300.631
300.61
300.59
300.571
300.554
300.537
300.521
300.504
300.488
300.472
300.456
300.44
302.176
302.157
302.137
302.113
302.079
302.021
301.923
301.777
301.592
301.393
301.209
301.054
300.935
300.846
300.781
300.733
300.696
300.666
300.64
300.617
300.596
300.576
300.558
300.541
300.525
300.509
300.493
300.477
300.461
300.445
302.194
302.175
302.156
302.135
302.109
302.07
302.004
301.897
301.743
301.555
301.358
301.178
301.028
300.913
300.827
300.765
300.718
300.681
300.651
300.626
300.603
300.582
300.563
300.546
300.529
300.513
300.497
300.482
300.466
300.451
302.208
302.189
302.171
302.152
302.13
302.101
302.056
301.981
301.864
301.703
301.513
301.318
301.143
301
300.889
300.808
300.748
300.702
300.666
300.637
300.612
300.589
300.57
300.551
300.534
300.518
300.502
300.487
300.471
300.456
302.217
302.199
302.182
302.164
302.144
302.12
302.087
302.035
301.951
301.824
301.656
301.465
301.275
301.106
300.97
300.866
300.788
300.73
300.686
300.652
300.623
300.598
300.577
300.558
300.54
300.523
300.507
300.492
300.477
300.462
302.222
302.204
302.188
302.171
302.152
302.131
302.105
302.067
302.008
301.913
301.776
301.603
301.412
301.228
301.068
300.94
300.842
300.769
300.714
300.671
300.638
300.61
300.586
300.566
300.547
300.53
300.513
300.498
300.483
300.468
302.22
302.204
302.189
302.172
302.155
302.136
302.114
302.085
302.042
301.973
301.867
301.721
301.544
301.357
301.181
301.031
300.911
300.819
300.75
300.698
300.657
300.625
300.598
300.575
300.555
300.537
300.52
300.504
300.489
300.474
302.209
302.195
302.18
302.166
302.15
302.134
302.116
302.093
302.06
302.01
301.931
301.814
301.661
301.483
301.302
301.135
300.995
300.884
300.799
300.733
300.684
300.645
300.613
300.587
300.565
300.546
300.528
300.511
300.496
300.481
302.19
302.177
302.164
302.152
302.139
302.125
302.11
302.092
302.068
302.031
301.973
301.883
301.756
301.598
301.422
301.249
301.093
300.963
300.86
300.78
300.719
300.671
300.634
300.604
300.578
300.557
300.537
300.52
300.504
300.488
302.161
302.15
302.141
302.131
302.121
302.11
302.099
302.085
302.067
302.039
301.997
301.929
301.829
301.694
301.534
301.363
301.2
301.056
300.936
300.84
300.764
300.706
300.661
300.625
300.595
300.571
300.549
300.53
300.513
300.497
302.121
302.114
302.108
302.102
302.096
302.089
302.081
302.071
302.058
302.039
302.007
301.957
301.88
301.771
301.632
301.473
301.31
301.158
301.024
300.912
300.823
300.752
300.697
300.653
300.618
300.589
300.564
300.543
300.524
300.507
302.068
302.067
302.065
302.064
302.063
302.06
302.056
302.051
302.042
302.029
302.007
301.97
301.912
301.826
301.71
301.57
301.416
301.263
301.122
300.998
300.895
300.811
300.744
300.69
300.647
300.613
300.584
300.559
300.538
300.519
302
302.005
302.01
302.014
302.018
302.02
302.021
302.019
302.015
302.006
301.99
301.963
301.919
301.853
301.761
301.643
301.506
301.362
301.22
301.09
300.976
300.88
300.802
300.737
300.685
300.643
300.609
300.579
300.555
300.533
301.905
301.916
301.927
301.937
301.945
301.95
301.952
301.951
301.947
301.938
301.924
301.902
301.868
301.817
301.745
301.651
301.538
301.413
301.284
301.16
301.045
300.944
300.857
300.785
300.725
300.676
300.635
300.601
300.572
300.547
301.704
301.714
301.724
301.732
301.736
301.735
301.729
301.718
301.703
301.684
301.663
301.638
301.607
301.566
301.512
301.444
301.365
301.275
301.179
301.082
300.988
300.903
300.827
300.761
300.705
300.658
300.619
300.586
300.557
300.533
300.853
300.851
300.864
300.874
300.876
300.87
300.859
300.846
300.831
300.814
300.797
300.78
300.761
300.738
300.71
300.679
300.646
300.608
300.567
300.526
300.486
300.45
300.418
300.391
300.368
300.348
300.331
300.318
300.306
300.296
300.841
300.811
300.791
300.775
300.762
300.749
300.738
300.726
300.716
300.705
300.695
300.684
300.674
300.663
300.651
300.639
300.626
300.611
300.593
300.569
300.541
300.509
300.476
300.445
300.418
300.396
300.377
300.363
300.35
300.337
300.875
300.832
300.803
300.782
300.765
300.75
300.737
300.724
300.712
300.701
300.69
300.679
300.668
300.657
300.645
300.632
300.619
300.604
300.586
300.564
300.538
300.508
300.478
300.448
300.422
300.4
300.38
300.364
300.351
300.339
300.909
300.857
300.822
300.796
300.775
300.757
300.741
300.727
300.713
300.701
300.689
300.676
300.665
300.652
300.64
300.627
300.613
300.597
300.58
300.559
300.534
300.507
300.479
300.452
300.426
300.404
300.384
300.368
300.353
300.34
300.946
300.89
300.849
300.817
300.791
300.77
300.751
300.734
300.718
300.704
300.69
300.677
300.664
300.651
300.637
300.623
300.608
300.592
300.575
300.554
300.532
300.507
300.48
300.454
300.43
300.408
300.388
300.371
300.356
300.342
300.989
300.933
300.887
300.849
300.817
300.79
300.767
300.746
300.728
300.711
300.695
300.68
300.665
300.651
300.636
300.621
300.605
300.588
300.57
300.551
300.529
300.506
300.481
300.457
300.434
300.412
300.393
300.375
300.359
300.345
301.044
300.991
300.94
300.895
300.855
300.821
300.792
300.766
300.743
300.723
300.704
300.687
300.67
300.654
300.637
300.621
300.604
300.586
300.568
300.548
300.527
300.505
300.482
300.459
300.437
300.416
300.397
300.379
300.363
300.348
301.124
301.076
301.017
300.96
300.909
300.865
300.827
300.795
300.766
300.741
300.718
300.697
300.678
300.659
300.641
300.623
300.604
300.585
300.566
300.547
300.526
300.505
300.483
300.462
300.44
300.42
300.401
300.384
300.367
300.352
301.212
301.181
301.119
301.049
300.983
300.925
300.876
300.834
300.797
300.766
300.738
300.712
300.689
300.668
300.647
300.627
300.606
300.586
300.566
300.546
300.526
300.505
300.485
300.464
300.444
300.424
300.406
300.388
300.372
300.356
301.296
301.285
301.23
301.154
301.074
301.001
300.938
300.884
300.838
300.799
300.764
300.733
300.706
300.681
300.657
300.634
300.611
300.589
300.567
300.546
300.526
300.506
300.486
300.467
300.447
300.429
300.41
300.393
300.376
300.361
301.365
301.374
301.338
301.266
301.179
301.092
301.014
300.947
300.89
300.841
300.798
300.76
300.727
300.698
300.67
300.643
300.618
300.594
300.57
300.548
300.528
300.508
300.489
300.47
300.451
300.433
300.415
300.398
300.382
300.366
301.425
301.447
301.432
301.376
301.292
301.198
301.106
301.024
300.953
300.893
300.841
300.795
300.755
300.72
300.687
300.657
300.628
300.601
300.576
300.553
300.531
300.511
300.491
300.473
300.455
300.437
300.42
300.403
300.387
300.372
301.481
301.508
301.509
301.475
301.405
301.312
301.212
301.116
301.031
300.957
300.893
300.838
300.79
300.748
300.71
300.674
300.642
300.612
300.584
300.559
300.536
300.515
300.495
300.477
300.459
300.442
300.425
300.409
300.393
300.378
301.536
301.562
301.572
301.557
301.507
301.427
301.327
301.223
301.123
301.035
300.958
300.891
300.834
300.783
300.738
300.697
300.66
300.625
300.595
300.567
300.543
300.52
300.5
300.482
300.464
300.447
300.431
300.415
300.399
300.384
301.592
301.613
301.626
301.622
301.592
301.531
301.443
301.338
301.23
301.127
301.035
300.956
300.887
300.827
300.773
300.725
300.682
300.643
300.609
300.578
300.551
300.528
300.507
300.488
300.47
300.453
300.437
300.421
300.405
300.39
301.65
301.665
301.676
301.676
301.66
301.618
301.548
301.453
301.344
301.232
301.127
301.033
300.951
300.88
300.817
300.761
300.71
300.666
300.627
300.593
300.563
300.537
300.515
300.495
300.476
300.459
300.443
300.427
300.411
300.396
301.709
301.716
301.723
301.724
301.714
301.687
301.635
301.556
301.456
301.344
301.23
301.123
301.027
300.943
300.87
300.804
300.746
300.694
300.649
300.611
300.578
300.549
300.525
300.503
300.484
300.466
300.45
300.434
300.418
300.403
301.767
301.767
301.768
301.766
301.758
301.739
301.702
301.642
301.557
301.452
301.338
301.223
301.115
301.019
300.933
300.856
300.789
300.729
300.678
300.634
300.596
300.564
300.537
300.514
300.493
300.475
300.458
300.441
300.425
300.411
301.821
301.816
301.812
301.806
301.797
301.781
301.753
301.707
301.639
301.549
301.442
301.326
301.211
301.104
301.006
300.918
300.841
300.772
300.713
300.662
300.619
300.583
300.553
300.527
300.505
300.485
300.467
300.45
300.434
300.419
301.87
301.861
301.851
301.841
301.829
301.813
301.79
301.755
301.702
301.628
301.533
301.424
301.309
301.195
301.088
300.99
300.902
300.824
300.756
300.697
300.648
300.607
300.572
300.543
300.518
300.497
300.477
300.459
300.443
300.427
301.911
301.897
301.884
301.87
301.856
301.839
301.817
301.788
301.746
301.686
301.607
301.511
301.402
301.288
301.176
301.07
300.972
300.884
300.807
300.74
300.683
300.636
300.596
300.563
300.535
300.511
300.49
300.471
300.453
300.437
301.94
301.924
301.909
301.892
301.875
301.856
301.835
301.809
301.774
301.726
301.662
301.581
301.483
301.376
301.264
301.154
301.049
300.953
300.867
300.791
300.726
300.672
300.626
300.588
300.556
300.529
300.505
300.485
300.466
300.449
301.956
301.939
301.921
301.903
301.885
301.865
301.844
301.82
301.79
301.751
301.699
301.632
301.549
301.452
301.347
301.238
301.131
301.029
300.935
300.851
300.778
300.715
300.663
300.619
300.583
300.551
300.525
300.501
300.48
300.462
301.957
301.94
301.923
301.905
301.886
301.866
301.846
301.823
301.796
301.763
301.721
301.667
301.598
301.515
301.42
301.318
301.213
301.109
301.01
300.919
300.838
300.768
300.708
300.658
300.615
300.579
300.548
300.521
300.498
300.477
301.939
301.923
301.907
301.89
301.873
301.854
301.835
301.814
301.791
301.764
301.729
301.685
301.63
301.561
301.48
301.388
301.29
301.189
301.089
300.994
300.907
300.829
300.762
300.704
300.655
300.613
300.577
300.546
300.519
300.496
301.9
301.886
301.873
301.859
301.844
301.828
301.811
301.793
301.773
301.75
301.722
301.687
301.642
301.587
301.519
301.441
301.354
301.26
301.164
301.07
300.98
300.897
300.822
300.758
300.701
300.653
300.612
300.576
300.545
300.519
301.836
301.827
301.817
301.806
301.794
301.781
301.767
301.752
301.735
301.715
301.692
301.663
301.627
301.582
301.527
301.461
301.386
301.303
301.217
301.128
301.041
300.958
300.881
300.812
300.751
300.697
300.65
300.61
300.575
300.545
301.741
301.734
301.726
301.718
301.71
301.701
301.69
301.677
301.661
301.643
301.621
301.596
301.566
301.528
301.48
301.423
301.359
301.288
301.211
301.133
301.054
300.979
300.907
300.84
300.78
300.726
300.679
300.637
300.599
300.567
301.586
301.576
301.57
301.566
301.561
301.555
301.546
301.533
301.516
301.496
301.474
301.45
301.421
301.386
301.341
301.29
301.234
301.174
301.109
301.042
300.975
300.91
300.85
300.794
300.744
300.698
300.658
300.622
300.59
300.56
301.295
301.272
301.264
301.266
301.268
301.266
301.257
301.242
301.221
301.199
301.175
301.15
301.123
301.09
301.05
301.005
300.957
300.905
300.853
300.8
300.749
300.702
300.659
300.622
300.59
300.562
300.537
300.516
300.496
300.478
300.72
300.716
300.724
300.736
300.745
300.75
300.749
300.743
300.734
300.722
300.708
300.693
300.676
300.654
300.625
300.593
300.561
300.525
300.489
300.453
300.419
300.388
300.361
300.338
300.318
300.301
300.287
300.275
300.264
300.255
300.813
300.791
300.775
300.761
300.748
300.736
300.724
300.713
300.702
300.692
300.681
300.67
300.659
300.647
300.635
300.622
300.607
300.589
300.564
300.533
300.496
300.458
300.424
300.396
300.374
300.357
300.343
300.332
300.321
300.302
300.816
300.791
300.772
300.755
300.741
300.728
300.716
300.705
300.694
300.683
300.672
300.661
300.649
300.637
300.625
300.611
300.596
300.578
300.555
300.526
300.493
300.46
300.428
300.401
300.379
300.361
300.346
300.334
300.322
300.307
300.823
300.797
300.777
300.759
300.743
300.729
300.716
300.703
300.691
300.679
300.667
300.656
300.644
300.631
300.618
300.603
300.587
300.569
300.547
300.521
300.491
300.46
300.431
300.405
300.383
300.365
300.35
300.336
300.324
300.31
300.833
300.808
300.786
300.768
300.75
300.735
300.72
300.707
300.693
300.68
300.668
300.655
300.641
300.627
300.613
300.597
300.581
300.562
300.54
300.516
300.489
300.46
300.433
300.409
300.388
300.369
300.353
300.339
300.327
300.313
300.848
300.824
300.803
300.783
300.764
300.747
300.731
300.715
300.7
300.685
300.671
300.657
300.642
300.627
300.611
300.594
300.576
300.556
300.535
300.512
300.487
300.461
300.436
300.413
300.392
300.374
300.358
300.343
300.329
300.316
300.869
300.848
300.826
300.806
300.785
300.766
300.747
300.729
300.712
300.695
300.679
300.662
300.646
300.629
300.612
300.593
300.573
300.553
300.532
300.509
300.486
300.462
300.438
300.416
300.396
300.378
300.362
300.347
300.333
300.319
300.897
300.879
300.859
300.838
300.816
300.794
300.772
300.751
300.73
300.71
300.691
300.673
300.654
300.635
300.615
300.595
300.573
300.551
300.53
300.508
300.485
300.463
300.441
300.42
300.401
300.383
300.367
300.351
300.337
300.323
300.933
300.921
300.904
300.882
300.858
300.832
300.805
300.78
300.756
300.732
300.709
300.687
300.666
300.644
300.622
300.599
300.575
300.552
300.529
300.507
300.485
300.464
300.443
300.424
300.405
300.388
300.372
300.356
300.341
300.327
300.978
300.976
300.964
300.943
300.914
300.883
300.85
300.819
300.789
300.761
300.734
300.708
300.683
300.658
300.633
300.607
300.58
300.555
300.531
300.508
300.487
300.466
300.446
300.428
300.41
300.393
300.377
300.361
300.346
300.331
301.034
301.042
301.035
301.014
300.983
300.946
300.907
300.869
300.833
300.798
300.766
300.735
300.705
300.676
300.647
300.618
300.588
300.561
300.535
300.511
300.489
300.469
300.45
300.432
300.415
300.398
300.382
300.367
300.351
300.337
301.095
301.109
301.109
301.093
301.062
301.021
300.975
300.93
300.886
300.844
300.805
300.768
300.733
300.7
300.667
300.633
300.6
300.57
300.542
300.517
300.494
300.474
300.455
300.437
300.42
300.404
300.388
300.372
300.357
300.342
301.159
301.177
301.183
301.173
301.145
301.104
301.054
301.001
300.949
300.9
300.853
300.81
300.769
300.73
300.691
300.653
300.616
300.582
300.552
300.525
300.501
300.48
300.461
300.443
300.426
300.41
300.394
300.379
300.363
300.348
301.226
301.245
301.255
301.251
301.229
301.19
301.139
301.082
301.022
300.965
300.91
300.86
300.812
300.766
300.722
300.679
300.637
300.599
300.566
300.536
300.511
300.488
300.468
300.45
300.433
300.417
300.401
300.385
300.369
300.354
301.297
301.314
301.325
301.324
301.309
301.276
301.228
301.168
301.104
301.039
300.977
300.918
300.862
300.81
300.76
300.71
300.664
300.621
300.584
300.551
300.523
300.499
300.478
300.458
300.441
300.424
300.408
300.392
300.376
300.361
301.369
301.383
301.393
301.394
301.383
301.357
301.314
301.257
301.191
301.121
301.051
300.984
300.921
300.862
300.804
300.748
300.696
300.649
300.607
300.57
300.539
300.512
300.489
300.469
300.45
300.433
300.416
300.4
300.384
300.369
301.444
301.453
301.46
301.46
301.451
301.43
301.394
301.342
301.278
301.206
301.132
301.058
300.987
300.92
300.856
300.793
300.735
300.682
300.635
300.594
300.559
300.529
300.503
300.481
300.461
300.443
300.425
300.409
300.392
300.377
301.518
301.523
301.524
301.522
301.513
301.495
301.465
301.42
301.361
301.291
301.214
301.136
301.059
300.985
300.914
300.845
300.781
300.722
300.669
300.623
300.583
300.55
300.521
300.496
300.474
300.454
300.436
300.419
300.402
300.386
301.59
301.589
301.586
301.58
301.57
301.553
301.526
301.487
301.434
301.369
301.295
301.215
301.134
301.055
300.978
300.904
300.834
300.769
300.71
300.658
300.613
300.575
300.543
300.515
300.49
300.469
300.449
300.43
300.413
300.396
301.656
301.651
301.644
301.634
301.621
301.603
301.578
301.543
301.497
301.439
301.369
301.292
301.21
301.128
301.046
300.967
300.892
300.822
300.757
300.7
300.649
300.606
300.569
300.537
300.51
300.486
300.464
300.444
300.425
300.408
301.713
301.704
301.694
301.68
301.665
301.645
301.621
301.589
301.548
301.496
301.433
301.361
301.283
301.2
301.117
301.035
300.956
300.881
300.811
300.748
300.691
300.643
300.601
300.565
300.534
300.506
300.482
300.46
300.439
300.421
301.758
301.747
301.733
301.718
301.7
301.679
301.654
301.625
301.588
301.542
301.486
301.421
301.348
301.269
301.188
301.105
301.024
300.946
300.871
300.803
300.741
300.686
300.639
300.598
300.562
300.531
300.503
300.479
300.456
300.436
301.788
301.775
301.76
301.743
301.724
301.702
301.678
301.65
301.616
301.576
301.527
301.47
301.404
301.332
301.255
301.175
301.095
301.015
300.938
300.864
300.797
300.737
300.684
300.637
300.596
300.561
300.529
300.501
300.476
300.453
301.8
301.787
301.772
301.755
301.735
301.713
301.69
301.663
301.633
301.598
301.555
301.505
301.448
301.384
301.314
301.24
301.164
301.086
301.008
300.932
300.861
300.795
300.736
300.683
300.637
300.596
300.559
300.527
300.499
300.473
301.791
301.778
301.765
301.749
301.732
301.712
301.69
301.665
301.637
301.605
301.568
301.525
301.475
301.419
301.358
301.291
301.221
301.148
301.074
300.999
300.926
300.857
300.793
300.735
300.683
300.636
300.595
300.558
300.525
300.497
301.756
301.746
301.735
301.721
301.706
301.689
301.669
301.647
301.622
301.593
301.559
301.522
301.478
301.429
301.374
301.314
301.252
301.186
301.119
301.05
300.981
300.912
300.847
300.786
300.73
300.678
300.632
300.591
300.555
300.523
301.691
301.683
301.674
301.663
301.65
301.636
301.619
301.599
301.576
301.549
301.518
301.483
301.444
301.398
301.347
301.292
301.235
301.176
301.117
301.057
300.996
300.936
300.876
300.818
300.763
300.712
300.665
300.622
300.582
300.548
301.582
301.573
301.565
301.557
301.548
301.537
301.523
301.505
301.483
301.456
301.426
301.393
301.355
301.31
301.259
301.202
301.147
301.093
301.041
300.991
300.942
300.895
300.846
300.799
300.754
300.709
300.668
300.628
300.592
300.559
301.404
301.39
301.38
301.373
301.37
301.365
301.356
301.34
301.318
301.291
301.261
301.227
301.189
301.146
301.096
301.04
300.988
300.937
300.889
300.843
300.8
300.76
300.726
300.695
300.667
300.64
300.611
300.583
300.556
300.53
301.108
301.094
301.088
301.089
301.092
301.093
301.088
301.076
301.058
301.036
301.009
300.98
300.947
300.908
300.861
300.809
300.762
300.716
300.673
300.633
300.597
300.565
300.538
300.515
300.495
300.479
300.465
300.453
300.44
300.426
300.654
300.657
300.668
300.682
300.697
300.708
300.713
300.713
300.707
300.696
300.68
300.661
300.638
300.609
300.572
300.53
300.493
300.455
300.421
300.39
300.363
300.339
300.319
300.302
300.288
300.276
300.266
300.257
300.249
300.24
300.809
300.786
300.768
300.754
300.74
300.728
300.716
300.704
300.693
300.682
300.671
300.659
300.648
300.635
300.622
300.608
300.591
300.568
300.536
300.496
300.453
300.416
300.386
300.364
300.347
300.335
300.326
300.318
300.309
300.299
300.801
300.774
300.755
300.74
300.726
300.714
300.702
300.691
300.68
300.669
300.658
300.646
300.635
300.622
300.609
300.594
300.577
300.555
300.526
300.49
300.453
300.419
300.391
300.369
300.352
300.339
300.328
300.319
300.31
300.299
300.798
300.772
300.753
300.736
300.722
300.709
300.697
300.685
300.673
300.662
300.651
300.639
300.626
300.613
300.599
300.583
300.566
300.544
300.517
300.485
300.452
300.421
300.395
300.374
300.357
300.343
300.331
300.321
300.311
300.3
300.8
300.776
300.757
300.74
300.725
300.711
300.698
300.685
300.673
300.66
300.648
300.635
300.622
300.608
300.592
300.576
300.557
300.535
300.51
300.481
300.451
300.423
300.398
300.378
300.361
300.347
300.335
300.323
300.312
300.301
300.806
300.785
300.766
300.749
300.733
300.718
300.704
300.69
300.676
300.663
300.649
300.635
300.62
300.605
300.588
300.57
300.55
300.528
300.504
300.477
300.45
300.425
300.402
300.383
300.366
300.352
300.338
300.326
300.314
300.302
300.818
300.799
300.781
300.764
300.747
300.731
300.715
300.7
300.684
300.669
300.654
300.639
300.623
300.605
300.587
300.567
300.545
300.523
300.499
300.475
300.45
300.427
300.406
300.388
300.371
300.357
300.343
300.329
300.317
300.304
300.836
300.82
300.803
300.785
300.768
300.75
300.732
300.715
300.698
300.681
300.664
300.646
300.628
300.609
300.588
300.566
300.543
300.52
300.497
300.474
300.451
300.429
300.41
300.393
300.377
300.362
300.347
300.333
300.32
300.307
300.862
300.848
300.832
300.815
300.796
300.776
300.757
300.737
300.717
300.697
300.678
300.658
300.638
300.616
300.593
300.568
300.543
300.519
300.496
300.473
300.452
300.432
300.414
300.398
300.382
300.367
300.353
300.338
300.324
300.31
300.895
300.884
300.869
300.852
300.833
300.811
300.789
300.766
300.743
300.72
300.698
300.675
300.652
300.627
300.601
300.573
300.546
300.52
300.496
300.474
300.454
300.436
300.419
300.403
300.388
300.373
300.358
300.343
300.328
300.313
300.935
300.928
300.917
300.9
300.879
300.855
300.829
300.803
300.776
300.75
300.724
300.698
300.671
300.643
300.613
300.582
300.552
300.524
300.5
300.478
300.459
300.441
300.425
300.409
300.394
300.379
300.364
300.348
300.333
300.318
300.984
300.981
300.971
300.956
300.935
300.909
300.879
300.849
300.818
300.787
300.757
300.726
300.695
300.664
300.63
300.595
300.561
300.532
300.506
300.484
300.465
300.447
300.431
300.416
300.401
300.386
300.37
300.354
300.338
300.322
301.039
301.039
301.032
301.019
300.998
300.97
300.938
300.903
300.867
300.832
300.797
300.762
300.726
300.69
300.651
300.612
300.576
300.543
300.516
300.493
300.473
300.455
300.439
300.423
300.408
300.393
300.377
300.361
300.344
300.328
301.1
301.102
301.097
301.086
301.066
301.038
301.004
300.965
300.925
300.884
300.844
300.804
300.763
300.722
300.678
300.635
300.594
300.559
300.53
300.505
300.483
300.465
300.448
300.432
300.416
300.401
300.384
300.368
300.351
300.334
301.167
301.169
301.166
301.156
301.138
301.111
301.075
301.034
300.99
300.944
300.898
300.853
300.807
300.76
300.711
300.663
300.619
300.581
300.548
300.521
300.497
300.477
300.459
300.442
300.425
300.409
300.393
300.376
300.358
300.342
301.237
301.239
301.236
301.227
301.21
301.184
301.149
301.107
301.06
301.01
300.959
300.908
300.856
300.804
300.751
300.698
300.649
300.607
300.572
300.541
300.515
300.492
300.472
300.454
300.436
300.419
300.402
300.385
300.367
300.35
301.31
301.311
301.307
301.297
301.281
301.256
301.223
301.181
301.132
301.079
301.024
300.968
300.911
300.855
300.796
300.738
300.686
300.64
300.601
300.567
300.537
300.512
300.489
300.469
300.45
300.432
300.413
300.395
300.376
300.359
301.384
301.383
301.377
301.366
301.35
301.326
301.294
301.253
301.205
301.15
301.092
301.032
300.971
300.91
300.847
300.786
300.73
300.68
300.636
300.598
300.564
300.536
300.51
300.487
300.466
300.446
300.426
300.407
300.387
300.369
301.456
301.452
301.445
301.432
301.415
301.391
301.36
301.321
301.274
301.22
301.16
301.098
301.034
300.969
300.903
300.839
300.78
300.726
300.678
300.635
300.597
300.565
300.536
300.51
300.486
300.463
300.442
300.42
300.4
300.38
301.523
301.517
301.507
301.493
301.474
301.45
301.42
301.382
301.337
301.285
301.226
301.163
301.097
301.031
300.963
300.897
300.835
300.778
300.726
300.679
300.637
300.6
300.567
300.537
300.509
300.484
300.459
300.436
300.414
300.393
301.581
301.574
301.562
301.547
301.527
301.502
301.472
301.436
301.394
301.344
301.287
301.226
301.161
301.094
301.025
300.959
300.896
300.836
300.78
300.729
300.683
300.641
300.603
300.569
300.537
300.508
300.48
300.455
300.43
300.408
301.628
301.619
301.607
301.59
301.57
301.545
301.516
301.481
301.441
301.395
301.342
301.283
301.221
301.155
301.089
301.023
300.96
300.899
300.841
300.786
300.735
300.689
300.646
300.606
300.569
300.536
300.505
300.476
300.449
300.424
301.659
301.65
301.637
301.621
301.601
301.577
301.549
301.516
301.479
301.436
301.387
301.333
301.275
301.213
301.15
301.086
301.024
300.963
300.904
300.847
300.793
300.742
300.693
300.648
300.607
300.568
300.533
300.5
300.47
300.443
301.671
301.663
301.652
301.637
301.618
301.595
301.569
301.539
301.505
301.466
301.421
301.372
301.318
301.261
301.202
301.141
301.081
301.023
300.964
300.907
300.851
300.796
300.744
300.694
300.648
300.605
300.565
300.528
300.494
300.465
301.662
301.657
301.648
301.636
301.619
301.599
301.574
301.547
301.515
301.479
301.438
301.393
301.344
301.291
301.235
301.177
301.119
301.062
301.007
300.952
300.898
300.844
300.791
300.739
300.689
300.642
300.598
300.558
300.521
300.488
301.627
301.625
301.619
301.609
301.596
301.578
301.556
301.531
301.502
301.469
301.431
301.389
301.343
301.292
301.237
301.176
301.117
301.061
301.009
300.961
300.914
300.867
300.819
300.771
300.722
300.674
300.629
300.586
300.547
300.512
301.56
301.559
301.556
301.549
301.538
301.524
301.505
301.483
301.456
301.424
301.388
301.347
301.301
301.248
301.191
301.126
301.064
301.008
300.959
300.916
300.877
300.84
300.804
300.767
300.727
300.686
300.645
300.605
300.567
300.532
301.448
301.446
301.442
301.438
301.431
301.421
301.407
301.388
301.363
301.332
301.296
301.255
301.208
301.153
301.093
301.023
300.96
300.904
300.858
300.819
300.785
300.756
300.73
300.706
300.683
300.657
300.627
300.596
300.563
300.533
301.266
301.261
301.257
301.256
301.255
301.253
301.245
301.231
301.209
301.179
301.144
301.104
301.06
301.006
300.945
300.873
300.81
300.756
300.712
300.676
300.647
300.623
300.604
300.588
300.575
300.564
300.551
300.535
300.514
300.493
300.983
300.984
300.987
300.994
301.001
301.006
301.007
300.999
300.984
300.962
300.933
300.899
300.86
300.81
300.752
300.683
300.625
300.576
300.536
300.504
300.478
300.458
300.443
300.432
300.424
300.417
300.411
300.405
300.397
300.387
300.607
300.62
300.637
300.657
300.676
300.693
300.703
300.708
300.704
300.693
300.676
300.652
300.622
300.582
300.532
300.474
300.426
300.385
300.352
300.325
300.304
300.288
300.275
300.266
300.26
300.254
300.249
300.244
300.238
300.232
300.812
300.784
300.765
300.75
300.736
300.722
300.71
300.698
300.686
300.674
300.662
300.651
300.638
300.626
300.612
300.596
300.577
300.549
300.507
300.459
300.416
300.382
300.359
300.343
300.331
300.323
300.316
300.309
300.303
300.294
300.794
300.765
300.745
300.729
300.715
300.702
300.691
300.679
300.668
300.657
300.646
300.635
300.623
300.61
300.596
300.58
300.56
300.534
300.497
300.455
300.417
300.386
300.364
300.348
300.336
300.327
300.319
300.311
300.303
300.294
300.782
300.754
300.734
300.719
300.705
300.693
300.681
300.67
300.659
300.647
300.636
300.624
300.612
300.598
300.584
300.567
300.547
300.521
300.488
300.451
300.417
300.39
300.369
300.353
300.341
300.331
300.322
300.313
300.304
300.294
300.776
300.753
300.735
300.719
300.705
300.692
300.679
300.667
300.655
300.643
300.63
300.618
300.604
300.59
300.574
300.556
300.536
300.511
300.48
300.448
300.418
300.393
300.374
300.359