/*--------------------------------*- C++ -*----------------------------------*\
  =========                 |
  \\      /  F ield         | OpenFOAM: The Open Source CFD Toolbox
   \\    /   O peration     | Website:  https://openfoam.org
    \\  /    A nd           | Version:  12
     \\/     M anipulation  |
\*---------------------------------------------------------------------------*/
FoamFile
{
    format      ascii;
    class       volScalarField;
    location    "550/porous";
    object      rho;
}
// * * * * * * * * * * * * * * * * * * * * * * * * * * * * * * * * * * * * * //

dimensions      [1 -3 0 0 0 0 0];

internalField   nonuniform List<scalar> 
140000
(
933.891
933.891
933.891
933.891
933.891
933.891
933.891
933.891
933.892
933.899
934.194
934.42
934.619
934.805
934.982
935.153
935.321
935.486
935.648
935.808
935.966
936.122
936.277
936.431
936.583
936.734
936.883
937.031
937.178
937.323
937.466
937.608
937.748
937.885
938.02
938.153
938.283
938.412
938.539
938.666
938.793
938.92
939.048
939.176
939.305
939.434
939.564
939.695
939.827
939.962
940.1
940.242
940.389
940.542
940.701
940.868
941.045
941.231
941.43
941.618
941.346
941.237
941.205
941.225
941.288
941.389
941.525
941.693
941.893
942.102
933.891
933.891
933.891
933.891
933.891
933.891
933.891
933.891
933.891
933.896
934.123
934.302
934.461
934.611
934.754
934.894
935.03
935.165
935.298
935.43
935.56
935.689
935.817
935.945
936.072
936.198
936.323
936.448
936.572
936.696
936.818
936.94
937.061
937.18
937.299
937.415
937.531
937.646
937.759
937.873
937.987
938.102
938.217
938.333
938.449
938.565
938.681
938.797
938.914
939.031
939.149
939.269
939.391
939.516
939.644
939.774
939.91
940.051
940.199
940.339
940.166
940.086
940.051
940.047
940.068
940.113
940.18
940.268
940.378
940.502
933.891
933.891
933.891
933.891
933.891
933.891
933.891
933.891
933.891
933.895
934.104
934.265
934.407
934.538
934.663
934.784
934.901
935.016
935.128
935.24
935.349
935.458
935.565
935.672
935.777
935.882
935.987
936.09
936.193
936.296
936.398
936.499
936.6
936.7
936.798
936.896
936.992
937.088
937.183
937.279
937.376
937.473
937.572
937.67
937.769
937.867
937.966
938.064
938.161
938.259
938.357
938.455
938.553
938.651
938.75
938.85
938.951
939.054
939.158
939.258
939.09
938.999
938.942
938.907
938.888
938.884
938.893
938.914
938.949
938.992
933.891
933.891
933.891
933.891
933.891
933.891
933.891
933.891
933.891
933.895
934.1
934.257
934.393
934.519
934.636
934.75
934.859
934.966
935.07
935.172
935.272
935.371
935.468
935.565
935.66
935.754
935.847
935.939
936.031
936.122
936.212
936.302
936.39
936.478
936.564
936.649
936.733
936.817
936.9
936.983
937.068
937.153
937.24
937.326
937.412
937.498
937.584
937.669
937.754
937.838
937.922
938.005
938.088
938.17
938.252
938.334
938.415
938.496
938.577
938.651
938.479
938.376
938.302
938.246
938.204
938.171
938.147
938.132
938.124
938.123
933.891
933.891
933.891
933.891
933.891
933.891
933.891
933.891
933.891
933.895
934.099
934.255
934.39
934.514
934.63
934.741
934.848
934.951
935.052
935.151
935.248
935.342
935.436
935.528
935.618
935.708
935.796
935.883
935.97
936.055
936.14
936.224
936.307
936.389
936.469
936.548
936.626
936.703
936.779
936.857
936.935
937.015
937.095
937.175
937.255
937.334
937.413
937.491
937.568
937.645
937.722
937.797
937.872
937.946
938.019
938.092
938.163
938.234
938.304
938.367
938.192
938.083
938.002
937.937
937.883
937.838
937.8
937.769
937.743
937.723
933.891
933.891
933.891
933.891
933.891
933.891
933.891
933.891
933.891
933.895
934.1
934.256
934.391
934.514
934.63
934.74
934.846
934.949
935.049
935.147
935.242
935.336
935.428
935.518
935.607
935.694
935.78
935.865
935.95
936.033
936.116
936.197
936.277
936.356
936.434
936.51
936.584
936.658
936.732
936.807
936.883
936.96
937.037
937.114
937.191
937.267
937.343
937.418
937.492
937.565
937.638
937.71
937.781
937.851
937.921
937.989
938.056
938.122
938.187
938.245
938.069
937.958
937.874
937.806
937.748
937.698
937.655
937.617
937.585
937.557
933.891
933.891
933.891
933.891
933.891
933.891
933.891
933.891
933.891
933.895
934.1
934.257
934.392
934.515
934.631
934.741
934.847
934.95
935.05
935.147
935.242
935.336
935.427
935.516
935.604
935.691
935.776
935.861
935.944
936.026
936.108
936.188
936.267
936.345
936.421
936.496
936.569
936.642
936.715
936.789
936.864
936.94
937.016
937.092
937.168
937.243
937.317
937.39
937.463
937.535
937.606
937.677
937.746
937.814
937.882
937.948
938.013
938.077
938.14
938.195
938.02
937.908
937.823
937.754
937.695
937.643
937.598
937.558
937.523
937.493
933.891
933.891
933.891
933.891
933.891
933.891
933.891
933.891
933.891
933.895
934.101
934.258
934.393
934.517
934.633
934.743
934.849
934.952
935.052
935.149
935.245
935.338
935.429
935.518
935.606
935.692
935.777
935.86
935.943
936.025
936.106
936.186
936.264
936.341
936.417
936.491
936.565
936.637
936.71
936.784
936.859
936.935
937.01
937.086
937.161
937.235
937.309
937.382
937.454
937.526
937.596
937.666
937.735
937.803
937.869
937.935
937.999
938.062
938.123
938.177
938.002
937.891
937.806
937.736
937.676
937.624
937.578
937.538
937.502
937.47
933.891
933.891
933.891
933.891
933.891
933.891
933.891
933.891
933.891
933.895
934.101
934.259
934.394
934.518
934.634
934.745
934.851
934.954
935.054
935.151
935.247
935.34
935.431
935.52
935.607
935.693
935.778
935.861
935.943
936.025
936.105
936.185
936.263
936.34
936.416
936.49
936.563
936.636
936.709
936.783
936.859
936.934
937.01
937.086
937.161
937.235
937.309
937.381
937.454
937.525
937.595
937.665
937.733
937.801
937.867
937.932
937.996
938.059
938.12
938.173
937.998
937.887
937.801
937.731
937.672
937.62
937.573
937.533
937.496
937.465
933.891
933.891
933.891
933.891
933.891
933.891
933.891
933.891
933.891
933.895
934.102
934.259
934.395
934.519
934.635
934.746
934.852
934.956
935.056
935.153
935.249
935.342
935.433
935.522
935.609
935.695
935.779
935.862
935.944
936.025
936.105
936.184
936.263
936.34
936.416
936.49
936.564
936.637
936.71
936.785
936.86
936.936
937.012
937.088
937.163
937.237
937.311
937.384
937.456
937.527
937.598
937.667
937.736
937.803
937.869
937.934
937.998
938.06
938.121
938.174
937.999
937.888
937.803
937.733
937.673
937.621
937.575
937.534
937.497
937.466
933.891
933.891
933.891
933.891
933.891
933.891
933.891
933.891
933.891
933.895
934.102
934.26
934.396
934.52
934.636
934.747
934.853
934.957
935.057
935.155
935.25
935.343
935.434
935.523
935.61
935.695
935.779
935.862
935.943
936.024
936.104
936.183
936.262
936.339
936.416
936.491
936.565
936.639
936.713
936.787
936.863
936.939
937.015
937.091
937.166
937.24
937.314
937.387
937.459
937.53
937.601
937.671
937.739
937.807
937.873
937.938
938.002
938.064
938.124
938.177
938.003
937.891
937.806
937.736
937.676
937.624
937.578
937.537
937.501
937.469
933.891
933.891
933.891
933.891
933.891
933.891
933.891
933.891
933.891
933.895
934.102
934.26
934.396
934.52
934.637
934.747
934.854
934.958
935.058
935.156
935.251
935.345
935.435
935.524
935.611
935.696
935.779
935.861
935.943
936.023
936.103
936.182
936.261
936.339
936.417
936.493
936.568
936.642
936.716
936.791
936.866
936.942
937.018
937.094
937.169
937.244
937.317
937.39
937.463
937.534
937.605
937.674
937.743
937.81
937.877
937.942
938.005
938.068
938.128
938.181
938.007
937.895
937.81
937.74
937.68
937.628
937.582
937.541
937.505
937.473
933.891
933.891
933.891
933.891
933.891
933.891
933.891
933.891
933.891
933.895
934.102
934.26
934.396
934.52
934.637
934.748
934.855
934.958
935.059
935.157
935.252
935.345
935.436
935.525
935.611
935.696
935.779
935.86
935.941
936.021
936.101
936.181
936.261
936.34
936.418
936.495
936.57
936.645
936.72
936.794
936.87
936.946
937.022
937.097
937.172
937.247
937.32
937.394
937.466
937.537
937.608
937.678
937.746
937.814
937.88
937.945
938.009
938.071
938.132
938.185
938.01
937.899
937.814
937.744
937.684
937.632
937.586
937.545
937.509
937.477
933.891
933.891
933.891
933.891
933.891
933.891
933.891
933.891
933.891
933.895
934.103
934.26
934.396
934.52
934.637
934.748
934.855
934.959
935.059
935.157
935.253
935.346
935.437
935.525
935.611
935.696
935.778
935.859
935.939
936.02
936.1
936.181
936.261
936.341
936.42
936.497
936.574
936.649
936.724
936.799
936.874
936.95
937.025
937.101
937.176
937.25
937.324
937.397
937.469
937.541
937.611
937.681
937.75
937.817
937.884
937.949
938.013
938.075
938.135
938.188
938.014
937.902
937.817
937.747
937.688
937.636
937.59
937.549
937.512
937.481
933.891
933.891
933.891
933.891
933.891
933.891
933.891
933.891
933.891
933.895
934.102
934.26
934.396
934.52
934.636
934.748
934.855
934.958
935.059
935.157
935.253
935.346
935.437
935.525
935.611
935.695
935.777
935.858
935.938
936.018
936.099
936.181
936.262
936.343
936.422
936.501
936.578
936.654
936.729
936.804
936.878
936.954
937.029
937.104
937.179
937.253
937.327
937.4
937.472
937.544
937.614
937.684
937.753
937.821
937.887
937.952
938.016
938.078
938.139
938.191
938.017
937.905
937.82
937.75
937.691
937.639
937.593
937.552
937.516
937.484
933.891
933.891
933.891
933.891
933.891
933.891
933.891
933.891
933.891
933.895
934.102
934.259
934.395
934.519
934.636
934.747
934.854
934.958
935.059
935.157
935.253
935.346
935.437
935.525
935.611
935.695
935.776
935.856
935.936
936.017
936.099
936.181
936.264
936.345
936.425
936.505
936.583
936.659
936.735
936.809
936.883
936.958
937.033
937.108
937.182
937.256
937.33
937.403
937.475
937.547
937.617
937.687
937.756
937.823
937.89
937.955
938.019
938.081
938.141
938.194
938.02
937.908
937.823
937.753
937.694
937.642
937.596
937.555
937.518
937.487
933.891
933.891
933.891
933.891
933.891
933.891
933.891
933.891
933.891
933.895
934.102
934.259
934.395
934.519
934.635
934.747
934.854
934.958
935.059
935.157
935.253
935.346
935.436
935.525
935.611
935.694
935.775
935.855
935.935
936.016
936.099
936.183
936.266
936.348
936.429
936.508
936.587
936.665
936.74
936.815
936.888
936.963
937.037
937.111
937.186
937.26
937.333
937.406
937.478
937.549
937.62
937.69
937.758
937.826
937.892
937.957
938.021
938.083
938.144
938.197
938.022
937.911
937.826
937.756
937.696
937.644
937.598
937.557
937.521
937.489
933.891
933.891
933.891
933.891
933.891
933.891
933.891
933.891
933.891
933.895
934.101
934.258
934.394
934.518
934.634
934.746
934.853
934.957
935.058
935.156
935.252
935.345
935.436
935.525
935.61
935.693
935.774
935.854
935.935
936.017
936.1
936.185
936.269
936.351
936.432
936.512
936.591
936.67
936.746
936.82
936.894
936.967
937.041
937.115
937.189
937.262
937.336
937.408
937.48
937.552
937.622
937.692
937.761
937.828
937.894
937.96
938.023
938.086
938.146
938.199
938.024
937.913
937.828
937.758
937.698
937.646
937.6
937.559
937.523
937.491
933.891
933.891
933.891
933.891
933.891
933.891
933.891
933.891
933.891
933.895
934.101
934.257
934.393
934.516
934.633
934.745
934.852
934.956
935.058
935.156
935.252
935.345
935.436
935.524
935.61
935.693
935.774
935.854
935.935
936.017
936.102
936.187
936.272
936.354
936.435
936.515
936.595
936.673
936.751
936.825
936.898
936.971
937.044
937.117
937.191
937.264
937.337
937.41
937.482
937.553
937.624
937.694
937.762
937.83
937.896
937.961
938.025
938.087
938.147
938.201
938.026
937.914
937.829
937.759
937.699
937.647
937.601
937.56
937.524
937.492
933.891
933.891
933.891
933.891
933.891
933.891
933.891
933.891
933.891
933.895
934.1
934.257
934.392
934.516
934.632
934.744
934.852
934.956
935.057
935.156
935.252
935.345
935.436
935.524
935.61
935.693
935.774
935.854
935.935
936.019
936.104
936.19
936.274
936.356
936.437
936.517
936.597
936.676
936.754
936.829
936.902
936.974
937.046
937.119
937.192
937.266
937.338
937.411
937.483
937.554
937.625
937.694
937.763
937.83
937.897
937.962
938.025
938.088
938.148
938.202
938.027
937.915
937.83
937.76
937.7
937.648
937.602
937.561
937.524
937.493
933.891
933.891
933.891
933.891
933.891
933.891
933.891
933.891
933.891
933.895
934.099
934.255
934.39
934.514
934.631
934.743
934.851
934.955
935.056
935.155
935.251
935.345
935.436
935.525
935.61
935.694
935.775
935.855
935.936
936.02
936.106
936.192
936.275
936.358
936.439
936.519
936.598
936.677
936.755
936.831
936.904
936.975
937.047
937.12
937.193
937.266
937.338
937.411
937.483
937.554
937.625
937.694
937.763
937.83
937.897
937.962
938.025
938.088
938.148
938.202
938.027
937.915
937.83
937.76
937.7
937.648
937.602
937.561
937.524
937.493
933.891
933.891
933.891
933.891
933.891
933.891
933.891
933.891
933.891
933.895
934.099
934.255
934.39
934.514
934.631
934.742
934.85
934.955
935.056
935.155
935.251
935.345
935.436
935.525
935.611
935.694
935.776
935.856
935.938
936.022
936.108
936.193
936.277
936.359
936.44
936.52
936.599
936.678
936.756
936.832
936.905
936.976
937.048
937.12
937.192
937.265
937.338
937.41
937.482
937.553
937.624
937.694
937.762
937.83
937.896
937.961
938.025
938.087
938.148
938.202
938.027
937.915
937.829
937.759
937.7
937.647
937.601
937.56
937.524
937.493
933.891
933.891
933.891
933.891
933.891
933.891
933.891
933.891
933.891
933.895
934.098
934.253
934.389
934.513
934.63
934.742
934.85
934.954
935.056
935.155
935.251
935.345
935.437
935.526
935.612
935.695
935.777
935.857
935.939
936.024
936.11
936.194
936.278
936.36
936.441
936.521
936.6
936.679
936.757
936.833
936.906
936.977
937.048
937.119
937.191
937.264
937.337
937.409
937.481
937.552
937.623
937.693
937.761
937.829
937.895
937.96
938.024
938.087
938.148
938.202
938.027
937.915
937.829
937.759
937.699
937.647
937.601
937.56
937.524
937.492
933.891
933.891
933.891
933.891
933.891
933.891
933.891
933.891
933.891
933.895
934.097
934.253
934.388
934.512
934.629
934.741
934.849
934.954
935.056
935.155
935.251
935.345
935.437
935.526
935.613
935.697
935.778
935.859
935.941
936.026
936.111
936.196
936.279
936.361
936.442
936.522
936.601
936.68
936.758
936.834
936.907
936.978
937.048
937.119
937.191
937.263
937.336
937.408
937.48
937.551
937.622
937.692
937.76
937.828
937.894
937.959
938.023
938.086
938.147
938.202
938.026
937.914
937.829
937.759
937.699
937.647
937.601
937.56
937.523
937.492
933.891
933.891
933.891
933.891
933.891
933.891
933.891
933.891
933.891
933.895
934.097
934.252
934.387
934.511
934.629
934.741
934.849
934.954
935.056
935.155
935.252
935.346
935.438
935.527
935.614
935.698
935.78
935.861
935.944
936.028
936.113
936.198
936.281
936.363
936.444
936.524
936.603
936.681
936.759
936.835
936.908
936.978
937.048
937.118
937.19
937.262
937.335
937.407
937.479
937.55
937.621
937.691
937.759
937.827
937.893
937.958
938.022
938.085
938.146
938.201
938.026
937.914
937.828
937.758
937.699
937.646
937.6
937.559
937.523
937.492
933.891
933.891
933.891
933.891
933.891
933.891
933.891
933.891
933.891
933.895
934.096
934.251
934.386
934.51
934.628
934.74
934.849
934.954
935.056
935.155
935.252
935.346
935.438
935.528
935.615
935.7
935.782
935.864
935.946
936.03
936.116
936.2
936.283
936.365
936.445
936.525
936.604
936.683
936.76
936.836
936.909
936.979
937.048
937.118
937.189
937.262
937.334
937.406
937.478
937.549
937.62
937.689
937.758
937.826
937.892
937.957
938.021
938.084
938.146
938.203
938.027
937.914
937.829
937.759
937.699
937.647
937.6
937.559
937.523
937.492
933.891
933.891
933.891
933.891
933.891
933.891
933.891
933.891
933.891
933.895
934.096
934.251
934.386
934.51
934.628
934.74
934.848
934.954
935.056
935.155
935.252
935.347
935.439
935.529
935.617
935.702
935.784
935.866
935.948
936.033
936.118
936.202
936.285
936.366
936.447
936.527
936.606
936.684
936.762
936.837
936.91
936.98
937.048
937.118
937.189
937.261
937.333
937.405
937.477
937.548
937.619
937.689
937.757
937.825
937.891
937.956
938.021
938.084
938.146
938.202
938.027
937.914
937.829
937.759
937.699
937.647
937.6
937.56
937.523
937.492
933.891
933.891
933.891
933.891
933.891
933.891
933.891
933.891
933.891
933.895
934.095
934.25
934.385
934.51
934.627
934.74
934.848
934.954
935.056
935.155
935.253
935.347
935.44
935.53
935.618
935.703
935.787
935.869
935.951
936.035
936.12
936.204
936.287
936.368
936.449
936.529
936.608
936.686
936.763
936.839
936.911
936.98
937.049
937.118
937.189
937.26
937.333
937.405
937.476
937.548
937.618
937.688
937.756
937.824
937.89
937.956
938.02
938.083
938.146
938.203
938.027
937.914
937.829
937.759
937.699
937.647
937.601
937.56
937.524
937.492
933.891
933.891
933.891
933.891
933.891
933.891
933.891
933.891
933.891
933.895
934.095
934.25
934.385
934.509
934.627
934.739
934.848
934.953
935.056
935.155
935.253
935.348
935.44
935.531
935.619
935.705
935.789
935.871
935.953
936.037
936.121
936.206
936.288
936.37
936.45
936.53
936.609
936.687
936.765
936.84
936.912
936.981
937.049
937.118
937.188
937.26
937.332
937.404
937.475
937.547
937.617
937.687
937.755
937.823
937.889
937.955
938.019
938.083
938.146
938.205
938.028
937.915
937.83
937.759
937.7
937.647
937.601
937.56
937.524
937.492
933.891
933.891
933.891
933.891
933.891
933.891
933.891
933.891
933.891
933.895
934.095
934.249
934.384
934.509
934.627
934.739
934.848
934.953
935.056
935.155
935.253
935.348
935.441
935.531
935.62
935.706
935.79
935.873
935.955
936.038
936.122
936.207
936.29
936.371
936.451
936.531
936.61
936.688
936.766
936.841
936.912
936.98
937.048
937.117
937.187
937.259
937.331
937.403
937.474
937.545
937.616
937.685
937.754
937.822
937.888
937.954
938.018
938.082
938.146
938.204
938.028
937.915
937.829
937.759
937.699
937.647
937.601
937.56
937.524
937.492
933.891
933.891
933.891
933.891
933.891
933.891
933.891
933.891
933.891
933.895
934.094
934.249
934.384
934.508
934.626
934.739
934.847
934.953
935.055
935.155
935.253
935.348
935.441
935.532
935.62
935.707
935.792
935.875
935.957
936.039
936.123
936.207
936.29
936.371
936.451
936.531
936.61
936.688
936.766
936.84
936.911
936.979
937.047
937.116
937.186
937.257
937.329
937.401
937.472
937.544
937.614
937.684
937.752
937.82
937.886
937.952
938.017
938.082
938.146
938.206
938.028
937.915
937.83
937.759
937.699
937.647
937.601
937.56
937.524
937.492
933.891
933.891
933.891
933.891
933.891
933.891
933.891
933.891
933.891
933.895
934.094
934.248
934.383
934.508
934.626
934.738
934.847
934.952
935.055
935.155
935.252
935.348
935.441
935.532
935.621
935.708
935.793
935.876
935.958
936.04
936.123
936.206
936.289
936.37
936.45
936.53
936.609
936.687
936.764
936.837
936.907
936.976
937.044
937.113
937.183
937.255
937.327
937.398
937.47
937.541
937.611
937.681
937.75
937.818
937.884
937.95
938.015
938.08
938.145
938.205
938.028
937.915
937.829
937.759
937.699
937.646
937.6
937.559
937.523
937.491
933.891
933.891
933.891
933.891
933.891
933.891
933.891
933.891
933.891
933.895
934.094
934.248
934.383
934.508
934.625
934.738
934.846
934.952
935.054
935.154
935.252
935.347
935.44
935.532
935.621
935.708
935.794
935.877
935.959
936.04
936.122
936.205
936.287
936.368
936.448
936.527
936.606
936.684
936.76
936.833
936.903
936.971
937.04
937.109
937.18
937.252
937.324
937.395
937.467
937.538
937.608
937.678
937.747
937.815
937.882
937.948
938.013
938.079
938.144
938.204
938.026
937.913
937.828
937.757
937.697
937.645
937.599
937.558
937.522
937.49
933.891
933.891
933.891
933.891
933.891
933.891
933.891
933.891
933.891
933.895
934.093
934.247
934.382
934.507
934.624
934.737
934.846
934.951
935.054
935.153
935.251
935.346
935.44
935.531
935.62
935.708
935.794
935.878
935.96
936.041
936.121
936.203
936.284
936.365
936.445
936.524
936.602
936.679
936.754
936.827
936.897
936.966
937.035
937.105
937.176
937.248
937.32
937.392
937.463
937.534
937.605
937.675
937.744
937.811
937.879
937.945
938.01
938.076
938.142
938.204
938.025
937.912
937.826
937.756
937.696
937.643
937.597
937.556
937.52
937.488
933.891
933.891
933.891
933.891
933.891
933.891
933.891
933.891
933.891
933.895
934.093
934.247
934.382
934.506
934.624
934.736
934.845
934.95
935.053
935.153
935.25
935.345
935.439
935.53
935.62
935.708
935.794
935.878
935.96
936.041
936.121
936.201
936.281
936.361
936.44
936.519
936.597
936.673
936.748
936.82
936.891
936.961
937.031
937.101
937.173
937.245
937.316
937.388
937.46
937.531
937.601
937.671
937.74
937.808
937.875
937.942
938.008
938.074
938.14
938.202
938.023
937.91
937.824
937.753
937.693
937.641
937.595
937.554
937.518
937.486
933.891
933.891
933.891
933.891
933.891
933.891
933.891
933.891
933.891
933.895
934.093
934.247
934.381
934.506
934.623
934.735
934.844
934.949
935.052
935.151
935.249
935.344
935.438
935.529
935.619
935.707
935.793
935.877
935.96
936.04
936.12
936.199
936.278
936.357
936.436
936.514
936.591
936.667
936.741
936.814
936.885
936.956
937.027
937.098
937.169
937.241
937.313
937.385
937.457
937.528
937.598
937.668
937.737
937.805
937.873
937.939
938.005
938.072
938.139
938.2
938.021
937.908
937.822
937.751
937.691
937.639
937.592
937.551
937.515
937.484
933.891
933.891
933.891
933.891
933.891
933.891
933.891
933.891
933.891
933.895
934.092
934.246
934.381
934.505
934.622
934.735
934.843
934.948
935.05
935.15
935.248
935.343
935.436
935.528
935.618
935.706
935.792
935.876
935.959
936.039
936.118
936.196
936.275
936.353
936.431
936.508
936.585
936.661
936.735
936.808
936.88
936.952
937.023
937.094
937.166
937.238
937.31
937.382
937.454
937.525
937.595
937.665
937.734
937.802
937.87
937.936
938.003
938.069
938.136
938.198
938.019
937.905
937.819
937.749
937.689
937.636
937.59
937.549
937.512
937.481
933.891
933.891
933.891
933.891
933.891
933.891
933.891
933.891
933.891
933.895
934.092
934.246
934.38
934.504
934.621
934.734
934.842
934.947
935.049
935.149
935.246
935.341
935.435
935.526
935.616
935.704
935.79
935.875
935.957
936.038
936.116
936.194
936.271
936.349
936.426
936.503
936.579
936.655
936.729
936.803
936.876
936.948
937.02
937.092
937.164
937.236
937.308
937.38
937.451
937.522
937.593
937.662
937.731
937.799
937.867
937.934
938
938.067
938.134
938.196
938.017
937.903
937.817
937.746
937.686
937.633
937.587
937.546
937.509
937.478
933.891
933.891
933.891
933.891
933.891
933.891
933.891
933.891
933.891
933.895
934.092
934.246
934.38
934.504
934.621
934.732
934.841
934.945
935.048
935.147
935.244
935.34
935.433
935.525
935.614
935.702
935.789
935.873
935.956
936.036
936.114
936.191
936.268
936.344
936.421
936.498
936.574
936.65
936.724
936.798
936.872
936.944
937.017
937.089
937.162
937.234
937.306
937.378
937.449
937.52
937.59
937.66
937.729
937.797
937.864
937.931
937.998
938.065
938.132
938.194
938.014
937.9
937.814
937.743
937.683
937.63
937.584
937.542
937.506
937.474
933.891
933.891
933.891
933.891
933.891
933.891
933.891
933.891
933.891
933.895
934.092
934.245
934.379
934.503
934.619
934.731
934.839
934.944
935.046
935.145
935.242
935.338
935.431
935.522
935.612
935.7
935.786
935.871
935.953
936.033
936.111
936.188
936.264
936.34
936.416
936.493
936.569
936.645
936.72
936.794
936.868
936.942
937.015
937.087
937.16
937.232
937.304
937.376
937.447
937.518
937.588
937.657
937.726
937.794
937.862
937.929
937.996
938.062
938.129
938.191
938.012
937.898
937.811
937.74
937.68
937.627
937.581
937.539
937.503
937.471
933.891
933.891
933.891
933.891
933.891
933.891
933.891
933.891
933.891
933.895
934.091
934.245
934.379
934.502
934.619
934.73
934.838
934.942
935.044
935.143
935.24
935.335
935.429
935.52
935.61
935.698
935.784
935.868
935.95
936.03
936.108
936.184
936.26
936.336
936.412
936.488
936.565
936.641
936.716
936.791
936.866
936.939
937.013
937.086
937.158
937.23
937.302
937.374
937.445
937.516
937.586
937.656
937.724
937.793
937.86
937.927
937.994
938.061
938.128
938.189
938.01
937.896
937.809
937.738
937.677
937.625
937.578
937.537
937.5
937.468
933.891
933.891
933.891
933.891
933.891
933.891
933.891
933.891
933.891
933.895
934.091
934.244
934.378
934.501
934.617
934.729
934.836
934.941
935.042
935.141
935.238
935.333
935.426
935.517
935.607
935.695
935.781
935.865
935.947
936.027
936.104
936.18
936.256
936.332
936.408
936.485
936.561
936.638
936.714
936.789
936.864
936.938
937.012
937.085
937.157
937.23
937.302
937.373
937.445
937.515
937.585
937.655
937.724
937.792
937.86
937.927
937.994
938.061
938.128
938.189
938.01
937.895
937.809
937.738
937.677
937.624
937.578
937.537
937.5
937.468
933.891
933.891
933.891
933.891
933.891
933.891
933.891
933.891
933.891
933.895
934.091
934.244
934.378
934.5
934.616
934.728
934.835
934.939
935.04
935.139
935.236
935.331
935.424
935.515
935.604
935.692
935.778
935.862
935.944
936.024
936.102
936.178
936.253
936.329
936.406
936.483
936.56
936.637
936.713
936.789
936.864
936.939
937.013
937.086
937.159
937.232
937.304
937.376
937.447
937.518
937.588
937.658
937.727
937.795
937.863
937.931
937.998
938.065
938.133
938.194
938.015
937.901
937.814
937.743
937.683
937.63
937.584
937.543
937.506
937.475
933.891
933.891
933.891
933.891
933.891
933.891
933.891
933.891
933.891
933.895
934.091
934.244
934.377
934.5
934.615
934.726
934.833
934.937
935.038
935.137
935.234
935.329
935.422
935.513
935.602
935.69
935.776
935.861
935.943
936.023
936.1
936.177
936.253
936.33
936.407
936.485
936.563
936.64
936.717
936.794
936.87
936.945
937.019
937.093
937.167
937.24
937.313
937.386
937.457
937.529
937.6
937.67
937.74
937.809
937.878
937.946
938.014
938.082
938.15
938.213
938.033
937.919
937.833
937.762
937.702
937.65
937.604
937.564
937.528
937.498
933.891
933.891
933.891
933.891
933.891
933.891
933.891
933.891
933.891
933.895
934.092
934.244
934.377
934.5
934.615
934.726
934.833
934.937
935.038
935.137
935.234
935.329
935.423
935.514
935.604
935.693
935.779
935.864
935.947
936.028
936.106
936.184
936.262
936.34
936.418
936.497
936.576
936.655
936.733
936.811
936.888
936.965
937.041
937.117
937.192
937.266
937.34
937.414
937.488
937.56
937.633
937.705
937.776
937.847
937.918
937.988
938.058
938.128
938.198
938.262
938.083
937.969
937.884
937.815
937.756
937.706
937.662
937.624
937.591
937.563
933.891
933.891
933.891
933.891
933.891
933.891
933.891
933.891
933.891
933.895
934.091
934.244
934.377
934.5
934.616
934.728
934.835
934.94
935.042
935.142
935.24
935.337
935.431
935.525
935.616
935.706
935.795
935.881
935.966
936.049
936.13
936.21
936.29
936.371
936.453
936.535
936.616
936.698
936.779
936.86
936.94
937.02
937.099
937.178
937.256
937.334
937.411
937.488
937.565
937.641
937.717
937.793
937.868
937.943
938.017
938.092
938.166
938.24
938.315
938.384
938.206
938.094
938.012
937.946
937.892
937.846
937.808
937.775
937.749
937.729
933.891
933.891
933.891
933.891
933.891
933.891
933.891
933.891
933.891
933.895
934.093
934.247
934.382
934.506
934.625
934.738
934.849
934.956
935.061
935.165
935.266
935.366
935.465
935.562
935.658
935.753
935.846
935.937
936.027
936.115
936.201
936.287
936.374
936.461
936.548
936.636
936.724
936.812
936.899
936.986
937.073
937.159
937.245
937.33
937.415
937.5
937.584
937.668
937.752
937.835
937.918
938.002
938.085
938.168
938.251
938.334
938.418
938.502
938.588
938.668
938.492
938.387
938.312
938.256
938.212
938.179
938.155
938.139
938.131
938.13
933.891
933.891
933.891
933.891
933.891
933.891
933.891
933.891
933.891
933.895
934.099
934.257
934.398
934.528
934.653
934.774
934.892
935.008
935.122
935.234
935.345
935.455
935.563
935.671
935.777
935.882
935.986
936.089
936.19
936.289
936.387
936.486
936.584
936.683
936.783
936.883
936.983
937.083
937.183
937.282
937.381
937.479
937.578
937.675
937.773
937.87
937.967
938.064
938.16
938.257
938.354
938.452
938.55
938.649
938.749
938.851
938.954
939.06
939.168
939.272
939.101
939.009
938.951
938.915
938.895
938.891
938.899
938.92
938.954
938.997
933.891
933.891
933.891
933.891
933.891
933.891
933.891
933.891
933.891
933.896
934.118
934.296
934.453
934.603
934.746
934.886
935.024
935.159
935.294
935.426
935.558
935.688
935.818
935.946
936.074
936.2
936.325
936.448
936.569
936.689
936.808
936.927
937.046
937.165
937.284
937.403
937.522
937.641
937.759
937.877
937.993
938.109
938.225
938.34
938.455
938.569
938.683
938.798
938.913
939.029
939.147
939.266
939.388
939.513
939.641
939.773
939.911
940.055
940.205
940.351
940.175
940.093
940.057
940.052
940.073
940.117
940.183
940.271
940.38
940.504
933.891
933.891
933.891
933.891
933.891
933.891
933.891
933.891
933.892
933.899
934.191
934.416
934.613
934.798
934.975
935.147
935.317
935.482
935.646
935.808
935.967
936.125
936.281
936.436
936.588
936.739
936.887
937.033
937.176
937.317
937.456
937.594
937.732
937.869
938.005
938.141
938.275
938.409
938.541
938.672
938.802
938.931
939.059
939.186
939.313
939.439
939.567
939.695
939.825
939.958
940.096
940.236
940.383
940.536
940.696
940.865
941.043
941.233
941.434
941.625
941.351
941.241
941.207
941.227
941.29
941.39
941.525
941.693
941.891
942.1
933.891
933.891
933.891
933.891
933.891
933.891
933.891
933.891
933.891
933.896
934.12
934.326
934.518
934.7
934.876
935.046
935.214
935.378
935.54
935.701
935.859
936.016
936.172
936.326
936.479
936.63
936.78
936.929
937.076
937.222
937.366
937.509
937.649
937.788
937.924
938.057
938.189
938.318
938.446
938.573
938.7
938.828
938.956
939.084
939.213
939.343
939.472
939.603
939.736
939.871
940.009
940.15
940.297
940.45
940.608
940.775
940.951
941.137
941.334
941.526
941.323
941.224
941.192
941.211
941.273
941.371
941.504
941.67
941.866
942.075
933.891
933.891
933.891
933.891
933.891
933.891
933.891
933.891
933.891
933.894
934.054
934.21
934.359
934.503
934.642
934.779
934.913
935.046
935.177
935.307
935.437
935.565
935.693
935.819
935.946
936.071
936.196
936.321
936.444
936.568
936.69
936.812
936.933
937.052
937.171
937.288
937.404
937.519
937.633
937.746
937.861
937.975
938.09
938.206
938.322
938.437
938.553
938.669
938.786
938.903
939.021
939.141
939.262
939.386
939.513
939.643
939.778
939.917
940.063
940.205
940.101
940.037
940.007
940.004
940.025
940.067
940.131
940.215
940.321
940.443
933.891
933.891
933.891
933.891
933.891
933.891
933.891
933.891
933.891
933.894
934.038
934.177
934.308
934.434
934.554
934.672
934.787
934.9
935.011
935.12
935.229
935.336
935.443
935.548
935.653
935.757
935.861
935.964
936.066
936.168
936.27
936.371
936.471
936.57
936.669
936.766
936.863
936.958
937.054
937.149
937.245
937.342
937.44
937.538
937.636
937.734
937.831
937.929
938.026
938.124
938.221
938.319
938.416
938.515
938.613
938.713
938.813
938.915
939.018
939.12
939.019
938.945
938.894
938.861
938.843
938.839
938.846
938.865
938.897
938.939
933.891
933.891
933.891
933.891