/*--------------------------------*- C++ -*----------------------------------*\
  =========                 |
  \\      /  F ield         | OpenFOAM: The Open Source CFD Toolbox
   \\    /   O peration     | Website:  https://openfoam.org
    \\  /    A nd           | Version:  12
     \\/     M anipulation  |
\*---------------------------------------------------------------------------*/
FoamFile
{
    format      ascii;
    class       volScalarField;
    location    "550/porous";
    object      T;
}
// * * * * * * * * * * * * * * * * * * * * * * * * * * * * * * * * * * * * * //

dimensions      [0 0 0 1 0 0 0];

internalField   nonuniform List<scalar> 
140000
(
400
400
400
400
400
400
400
400
400
399.992
399.675
399.432
399.218
399.018
398.827
398.642
398.461
398.283
398.107
397.934
397.762
397.593
397.424
397.257
397.092
396.927
396.764
396.603
396.443
396.284
396.127
395.972
395.818
395.668
395.519
395.373
395.23
395.088
394.948
394.808
394.668
394.527
394.386
394.244
394.101
393.958
393.814
393.669
393.522
393.372
393.218
393.06
392.896
392.725
392.547
392.36
392.162
391.954
391.731
391.518
391.824
391.947
391.983
391.96
391.889
391.776
391.623
391.434
391.209
390.973
400
400
400
400
400
400
400
400
400
399.995
399.752
399.559
399.388
399.227
399.073
398.922
398.775
398.63
398.486
398.344
398.203
398.063
397.924
397.785
397.648
397.511
397.374
397.239
397.104
396.969
396.835
396.702
396.57
396.44
396.31
396.183
396.056
395.931
395.806
395.681
395.556
395.429
395.302
395.175
395.047
394.919
394.791
394.663
394.534
394.405
394.274
394.141
394.006
393.868
393.726
393.58
393.429
393.273
393.108
392.951
393.145
393.234
393.273
393.277
393.253
393.204
393.129
393.031
392.908
392.77
400
400
400
400
400
400
400
400
400
399.996
399.772
399.599
399.446
399.305
399.171
399.041
398.915
398.791
398.669
398.549
398.43
398.313
398.197
398.082
397.967
397.853
397.74
397.628
397.515
397.404
397.293
397.183
397.073
396.965
396.857
396.751
396.645
396.541
396.437
396.332
396.226
396.119
396.011
395.903
395.795
395.687
395.579
395.471
395.364
395.256
395.149
395.041
394.933
394.824
394.715
394.604
394.493
394.379
394.264
394.153
394.339
394.44
394.503
394.542
394.563
394.567
394.558
394.534
394.496
394.448
400
400
400
400
400
400
400
400
400
399.996
399.777
399.608
399.461
399.327
399.2
399.078
398.96
398.845
398.732
398.622
398.514
398.407
398.302
398.198
398.095
397.993
397.892
397.791
397.692
397.593
397.495
397.398
397.301
397.206
397.112
397.019
396.928
396.837
396.746
396.655
396.563
396.469
396.375
396.28
396.186
396.092
395.998
395.905
395.812
395.72
395.628
395.536
395.445
395.354
395.264
395.174
395.084
394.995
394.906
394.824
395.014
395.128
395.209
395.27
395.317
395.353
395.38
395.397
395.405
395.406
400
400
400
400
400
400
400
400
400
399.996
399.777
399.609
399.464
399.332
399.207
399.087
398.972
398.86
398.752
398.645
398.54
398.438
398.337
398.238
398.14
398.043
397.947
397.852
397.758
397.665
397.573
397.482
397.392
397.303
397.216
397.13
397.045
396.961
396.878
396.793
396.708
396.621
396.533
396.446
396.359
396.272
396.186
396.1
396.015
395.931
395.847
395.764
395.682
395.601
395.52
395.44
395.362
395.284
395.207
395.138
395.33
395.45
395.539
395.61
395.669
395.719
395.761
395.796
395.824
395.846
400
400
400
400
400
400
400
400
400
399.996
399.777
399.609
399.464
399.331
399.207
399.088
398.974
398.863
398.755
398.649
398.546
398.445
398.346
398.248
398.152
398.057
397.964
397.872
397.78
397.69
397.6
397.512
397.424
397.339
397.254
397.172
397.09
397.009
396.929
396.847
396.764
396.68
396.596
396.512
396.428
396.345
396.262
396.18
396.099
396.018
395.939
395.86
395.782
395.705
395.629
395.554
395.48
395.407
395.336
395.272
395.465
395.587
395.679
395.754
395.818
395.872
395.92
395.961
395.997
396.027
400
400
400
400
400
400
400
400
400
399.996
399.776
399.608
399.463
399.33
399.206
399.087
398.972
398.862
398.754
398.649
398.546
398.445
398.347
398.25
398.154
398.061
397.968
397.877
397.786
397.697
397.609
397.522
397.436
397.351
397.268
397.187
397.107
397.027
396.948
396.867
396.785
396.702
396.619
396.536
396.454
396.372
396.291
396.21
396.13
396.051
395.973
395.896
395.82
395.745
395.671
395.598
395.527
395.457
395.388
395.327
395.52
395.642
395.735
395.812
395.876
395.933
395.982
396.026
396.065
396.098
400
400
400
400
400
400
400
400
400
399.996
399.775
399.607
399.461
399.328
399.204
399.085
398.97
398.859
398.752
398.646
398.544
398.443
398.345
398.248
398.153
398.06
397.968
397.877
397.787
397.698
397.611
397.524
397.439
397.355
397.272
397.191
397.112
397.033
396.954
396.873
396.791
396.708
396.625
396.543
396.461
396.38
396.299
396.219
396.14
396.062
395.984
395.908
395.833
395.758
395.685
395.613
395.543
395.473
395.406
395.346
395.539
395.662
395.755
395.832
395.897
395.954
396.004
396.049
396.088
396.122
400
400
400
400
400
400
400
400
400
399.996
399.775
399.606
399.46
399.327
399.202
399.083
398.969
398.857
398.75
398.644
398.541
398.441
398.342
398.246
398.151
398.058
397.967
397.876
397.787
397.699
397.611
397.525
397.44
397.356
397.274
397.193
397.113
397.034
396.954
396.873
396.791
396.709
396.626
396.543
396.461
396.38
396.3
396.22
396.141
396.063
395.986
395.909
395.834
395.76
395.687
395.616
395.546
395.477
395.41
395.351
395.543
395.666
395.759
395.836
395.902
395.959
396.009
396.054
396.094
396.129
400
400
400
400
400
400
400
400
400
399.996
399.774
399.605
399.459
399.326
399.201
399.082
398.967
398.856
398.748
398.642
398.539
398.439
398.34
398.244
398.149
398.057
397.966
397.876
397.787
397.699
397.612
397.525
397.44
397.356
397.274
397.193
397.112
397.033
396.953
396.872
396.789
396.706
396.623
396.541
396.459
396.378
396.297
396.217
396.138
396.06
395.983
395.907
395.832
395.758
395.685
395.614
395.544
395.475
395.408
395.35
395.542
395.665
395.758
395.835
395.9
395.958
396.008
396.053
396.093
396.128
400
400
400
400
400
400
400
400
400
399.996
399.774
399.605
399.459
399.325
399.2
399.081
398.966
398.854
398.746
398.641
398.538
398.437
398.339
398.242
398.148
398.056
397.965
397.876
397.787
397.699
397.613
397.526
397.441
397.357
397.274
397.192
397.111
397.031
396.95
396.869
396.786
396.703
396.62
396.538
396.456
396.374
396.294
396.214
396.135
396.057
395.979
395.903
395.828
395.754
395.681
395.61
395.54
395.471
395.405
395.346
395.538
395.661
395.754
395.831
395.897
395.954
396.004
396.049
396.089
396.124
400
400
400
400
400
400
400
400
400
399.996
399.774
399.604
399.458
399.325
399.2
399.08
398.965
398.853
398.745
398.639
398.536
398.436
398.337
398.241
398.147
398.055
397.965
397.876
397.788
397.701
397.614
397.528
397.442
397.357
397.273
397.19
397.108
397.028
396.947
396.865
396.783
396.7
396.617
396.534
396.452
396.371
396.29
396.21
396.131
396.053
395.975
395.899
395.824
395.75
395.677
395.605
395.535
395.467
395.4
395.342
395.534
395.657
395.75
395.827
395.892
395.95
396
396.045
396.085
396.119
400
400
400
400
400
400
400
400
400
399.996
399.774
399.604
399.458
399.325
399.199
399.08
398.965
398.853
398.744
398.639
398.535
398.435
398.337
398.241
398.147
398.055
397.965
397.877
397.79
397.702
397.616
397.529
397.442
397.356
397.272
397.188
397.105
397.024
396.943
396.861
396.779
396.696
396.613
396.531
396.449
396.367
396.287
396.207
396.127
396.049
395.972
395.895
395.82
395.746
395.673
395.601
395.531
395.463
395.396
395.338
395.53
395.653
395.746
395.823
395.888
395.945
395.996
396.041
396.08
396.115
400
400
400
400
400
400
400
400
400
399.996
399.773
399.604
399.458
399.325
399.199
399.08
398.964
398.853
398.744
398.638
398.535
398.434
398.336
398.24
398.147
398.056
397.966
397.878
397.791
397.704
397.617
397.529
397.442
397.355
397.269
397.185
397.101
397.019
396.938
396.857
396.774
396.692
396.609
396.527
396.445
396.364
396.283
396.203
396.124
396.045
395.968
395.891
395.816
395.742
395.669
395.597
395.527
395.459
395.393
395.334
395.526
395.649
395.742
395.819
395.884
395.941
395.992
396.037
396.076
396.111
400
400
400
400
400
400
400
400
400
399.996
399.774
399.604
399.458
399.325
399.2
399.08
398.965
398.853
398.744
398.638
398.535
398.434
398.336
398.24
398.147
398.056
397.967
397.88
397.793
397.706
397.618
397.53
397.441
397.353
397.267
397.181
397.097
397.014
396.932
396.851
396.77
396.687
396.605
396.523
396.441
396.36
396.28
396.2
396.12
396.042
395.965
395.888
395.813
395.738
395.666
395.594
395.524
395.455
395.389
395.331
395.523
395.645
395.739
395.815
395.881
395.938
395.988
396.033
396.073
396.107
400
400
400
400
400
400
400
400
400
399.996
399.774
399.605
399.459
399.326
399.2
399.081
398.965
398.853
398.744
398.638
398.535
398.434
398.336
398.24
398.147
398.057
397.968
397.882
397.795
397.707
397.618
397.529
397.439
397.351
397.263
397.177
397.092
397.009
396.926
396.845
396.764
396.683
396.601
396.519
396.438
396.357
396.276
396.196
396.117
396.039
395.961
395.885
395.809
395.735
395.662
395.591
395.521
395.452
395.386
395.328
395.52
395.642
395.736
395.812
395.878
395.935
395.985
396.03
396.07
396.104
400
400
400
400
400
400
400
400
400
399.996
399.774
399.605
399.459
399.326
399.201
399.081
398.965
398.853
398.744
398.638
398.535
398.434
398.336
398.241
398.148
398.057
397.969
397.883
397.796
397.708
397.618
397.527
397.437
397.348
397.26
397.173
397.087
397.003
396.92
396.839
396.759
396.678
396.596
396.515
396.434
396.353
396.273
396.193
396.114
396.036
395.958
395.882
395.807
395.732
395.66
395.588
395.518
395.45
395.383
395.325
395.517
395.64
395.733
395.81
395.875
395.932
395.983
396.027
396.067
396.102
400
400
400
400
400
400
400
400
400
399.996
399.775
399.607
399.461
399.327
399.202
399.082
398.966
398.854
398.745
398.639
398.535
398.435
398.337
398.241
398.148
398.058
397.97
397.884
397.797
397.708
397.617
397.525
397.434
397.344
397.256
397.169
397.083
396.997
396.914
396.833
396.753
396.673
396.592
396.511
396.431
396.35
396.27
396.19
396.112
396.033
395.956
395.88
395.804
395.73
395.657
395.586
395.516
395.447
395.381
395.322
395.514
395.637
395.731
395.808
395.873
395.93
395.981
396.025
396.065
396.1
400
400
400
400
400
400
400
400
400
399.996
399.775
399.607
399.462
399.329
399.203
399.083
398.967
398.855
398.746
398.639
398.536
398.435
398.337
398.241
398.148
398.058
397.971
397.884
397.797
397.707
397.615
397.522
397.431
397.341
397.253
397.166
397.079
396.993
396.909
396.827
396.748
396.669
396.589
396.509
396.428
396.348
396.268
396.189
396.11
396.032
395.954
395.878
395.803
395.728
395.656
395.584
395.514
395.446
395.379
395.321
395.513
395.636
395.729
395.806
395.872
395.929
395.979
396.024
396.064
396.098
400
400
400
400
400
400
400
400
400
399.996
399.776
399.608
399.462
399.329
399.204
399.084
398.968
398.855
398.746
398.64
398.536
398.435
398.337
398.241
398.148
398.058
397.97
397.884
397.796
397.706
397.613
397.52
397.428
397.339
397.251
397.163
397.077
396.991
396.906
396.824
396.744
396.666
396.587
396.507
396.427
396.347
396.267
396.188
396.109
396.031
395.953
395.877
395.802
395.728
395.655
395.584
395.514
395.445
395.378
395.32
395.512
395.635
395.729
395.805
395.871
395.928
395.979
396.023
396.063
396.098
400
400
400
400
400
400
400
400
400
399.996
399.777
399.61
399.465
399.331
399.205
399.085
398.969
398.856
398.747
398.64
398.536
398.435
398.337
398.241
398.148
398.058
397.97
397.883
397.795
397.704
397.611
397.518
397.426
397.337
397.249
397.162
397.075
396.989
396.904
396.821
396.742
396.664
396.585
396.506
396.426
396.347
396.267
396.188
396.109
396.031
395.953
395.877
395.802
395.728
395.655
395.583
395.514
395.445
395.378
395.319
395.512
395.635
395.728
395.805
395.871
395.928
395.979
396.023
396.063
396.098
400
400
400
400
400
400
400
400
400
399.996
399.777
399.61
399.465
399.332
399.206
399.086
398.969
398.857
398.747
398.64
398.536
398.435
398.336
398.24
398.147
398.057
397.969
397.882
397.793
397.702
397.609
397.516
397.425
397.336
397.248
397.16
397.074
396.988
396.903
396.82
396.74
396.663
396.585
396.506
396.427
396.347
396.268
396.188
396.11
396.031
395.954
395.878
395.802
395.728
395.656
395.584
395.514
395.446
395.379
395.319
395.512
395.635
395.729
395.805
395.871
395.928
395.979
396.024
396.063
396.098
400
400
400
400
400
400
400
400
400
399.996
399.779
399.612
399.466
399.333
399.207
399.086
398.97
398.857
398.747
398.641
398.536
398.435
398.336
398.24
398.147
398.056
397.968
397.88
397.791
397.7
397.607
397.514
397.424
397.334
397.246
397.159
397.073
396.987
396.902
396.819
396.739
396.662
396.585
396.507
396.428
396.348
396.269
396.189
396.111
396.033
395.955
395.879
395.803
395.729
395.656
395.585
395.515
395.446
395.379
395.319
395.512
395.635
395.729
395.806
395.871
395.929
395.979
396.024
396.064
396.098
400
400
400
400
400
400
400
400
400
399.996
399.779
399.613
399.467
399.334
399.208
399.087
398.971
398.858
398.748
398.641
398.536
398.435
398.336
398.239
398.145
398.055
397.966
397.878
397.789
397.697
397.605
397.513
397.422
397.333
397.245
397.158
397.072
396.986
396.901
396.819
396.739
396.661
396.585
396.507
396.428
396.349
396.27
396.191
396.112
396.034
395.956
395.88
395.805
395.731
395.658
395.586
395.516
395.447
395.38
395.319
395.512
395.636
395.729
395.806
395.872
395.929
395.98
396.025
396.064
396.099
400
400
400
400
400
400
400
400
400
399.996
399.779
399.613
399.468
399.334
399.208
399.087
398.971
398.858
398.748
398.641
398.536
398.434
398.335
398.238
398.144
398.053
397.964
397.876
397.787
397.695
397.602
397.511
397.42
397.331
397.243
397.156
397.07
396.985
396.9
396.817
396.738
396.661
396.585
396.508
396.429
396.35
396.271
396.192
396.113
396.035
395.957
395.881
395.806
395.732
395.659
395.587
395.517
395.448
395.38
395.32
395.513
395.636
395.73
395.807
395.872
395.93
395.98
396.025
396.065
396.099
400
400
400
400
400
400
400
400
400
399.996
399.781
399.614
399.469
399.335
399.209
399.088
398.971
398.858
398.748
398.64
398.536
398.434
398.334
398.237
398.143
398.051
397.962
397.873
397.784
397.693
397.6
397.509
397.418
397.329
397.242
397.155
397.068
396.983
396.899
396.816
396.736
396.66
396.584
396.508
396.43
396.351
396.272
396.193
396.114
396.036
395.959
395.882
395.807
395.733
395.66
395.588
395.518
395.449
395.38
395.318
395.512
395.636
395.729
395.806
395.872
395.929
395.98
396.025
396.065
396.099
400
400
400
400
400
400
400
400
400
399.996
399.781
399.614
399.469
399.336
399.209
399.088
398.971
398.858
398.748
398.64
398.535
398.433
398.333
398.236
398.141
398.049
397.959
397.871
397.782
397.69
397.598
397.506
397.416
397.327
397.24
397.153
397.067
396.981
396.897
396.814
396.735
396.659
396.584
396.508
396.43
396.352
396.273
396.194
396.115
396.037
395.96
395.883
395.808
395.734
395.661
395.589
395.519
395.449
395.381
395.319
395.512
395.636
395.73
395.806
395.872
395.929
395.98
396.025
396.065
396.099
400
400
400
400
400
400
400
400
400
399.996
399.781
399.615
399.47
399.336
399.209
399.088
398.971
398.858
398.748
398.64
398.535
398.433
398.333
398.235
398.14
398.047
397.957
397.868
397.779
397.688
397.596
397.504
397.414
397.325
397.238
397.151
397.065
396.98
396.895
396.813
396.734
396.658
396.584
396.508
396.431
396.352
396.273
396.194
396.116
396.038
395.961
395.884
395.809
395.735
395.662
395.59
395.519
395.45
395.381
395.318
395.512
395.635
395.729
395.806
395.872
395.929
395.98
396.024
396.064
396.099
400
400
400
400
400
400
400
400
400
399.996
399.782
399.616
399.47
399.337
399.21
399.089
398.972
398.858
398.748
398.64
398.535
398.432
398.332
398.234
398.139
398.046
397.955
397.866
397.777
397.686
397.594
397.502
397.412
397.324
397.236
397.149
397.063
396.978
396.894
396.811
396.733
396.658
396.584
396.508
396.431
396.353
396.274
396.195
396.117
396.039
395.962
395.885
395.81
395.736
395.663
395.591
395.52
395.45
395.38
395.316
395.511
395.634
395.728
395.806
395.871
395.929
395.979
396.024
396.064
396.098
400
400
400
400
400
400
400
400
400
399.996
399.782
399.616
399.471
399.337
399.21
399.089
398.972
398.858
398.748
398.64
398.535
398.432
398.332
398.234
398.138
398.044
397.953
397.863
397.774
397.684
397.593
397.501
397.411
397.323
397.235
397.149
397.062
396.977
396.892
396.811
396.733
396.658
396.584
396.509
396.432
396.354
396.275
396.197
396.118
396.04
395.963
395.887
395.811
395.737
395.664
395.592
395.521
395.451
395.381
395.317
395.511
395.635
395.729
395.806
395.871
395.929
395.979
396.024
396.064
396.098
400
400
400
400
400
400
400
400
400
399.996
399.783
399.617
399.471
399.337
399.211
399.089
398.972
398.859
398.748
398.64
398.535
398.432
398.332
398.233
398.137
398.043
397.951
397.861
397.773
397.683
397.592
397.501
397.411
397.322
397.235
397.148
397.062
396.977
396.893
396.812
396.735
396.66
396.586
396.511
396.434
396.356
396.277
396.199
396.12
396.042
395.965
395.889
395.813
395.739
395.666
395.594
395.523
395.452
395.38
395.315
395.51
395.634
395.728
395.806
395.871
395.929
395.979
396.024
396.064
396.098
400
400
400
400
400
400
400
400
400
399.996
399.783
399.617
399.472
399.338
399.211
399.09
398.973
398.859
398.749
398.641
398.535
398.432
398.332
398.233
398.137
398.042
397.95
397.86
397.771
397.682
397.592
397.502
397.412
397.323
397.236
397.15
397.064
396.978
396.895
396.815
396.738
396.663
396.589
396.513
396.436
396.358
396.28
396.201
396.123
396.045
395.968
395.891
395.816
395.742
395.668
395.596
395.525
395.453
395.382
395.316
395.511
395.635
395.729
395.806
395.872
395.93
395.98
396.025
396.065
396.099
400
400
400
400
400
400
400
400
400
399.996
399.783
399.617
399.472
399.338
399.212
399.091
398.973
398.86
398.749
398.641
398.536
398.433
398.332
398.233
398.137
398.042
397.949
397.859
397.77
397.682
397.593
397.503
397.414
397.326
397.239
397.152
397.066
396.982
396.899
396.82
396.743
396.668
396.593
396.517
396.44
396.362
396.283
396.205
396.126
396.048
395.971
395.895
395.819
395.745
395.671
395.599
395.527
395.455
395.383
395.317
395.512
395.637
395.731
395.808
395.874
395.931
395.982
396.027
396.066
396.101
400
400
400
400
400
400
400
400
400
399.996
399.784
399.618
399.473
399.339
399.212
399.091
398.974
398.861
398.75
398.642
398.537
398.434
398.333
398.234
398.137
398.042
397.949
397.858
397.769
397.681
397.594
397.505
397.417
397.329
397.242
397.156
397.071
396.987
396.905
396.826
396.749
396.674
396.598
396.522
396.444
396.366
396.287
396.209
396.13
396.052
395.975
395.898
395.823
395.748
395.675
395.602
395.53
395.458
395.385
395.317
395.513
395.638
395.732
395.81
395.875
395.933
395.983
396.028
396.068
396.103
400
400
400
400
400
400
400
400
400
399.996
399.784
399.618
399.473
399.34
399.213
399.092
398.975
398.862
398.751
398.643
398.538
398.435
398.334
398.235
398.138
398.043
397.949
397.858
397.769
397.681
397.595
397.508
397.42
397.333
397.247
397.161
397.077
396.993
396.912
396.833
396.756
396.679
396.603
396.526
396.448
396.37
396.291
396.212
396.134
396.056
395.979
395.902
395.827
395.752
395.678
395.605
395.532
395.46
395.387
395.32
395.516
395.64
395.735
395.812
395.878
395.935
395.986
396.031
396.071
396.105
400
400
400
400
400
400
400
400
400
399.996
399.784
399.619
399.474
399.34
399.214
399.093
398.976
398.863
398.752
398.644
398.539
398.436
398.335
398.236
398.139
398.044
397.95
397.859
397.769
397.682
397.596
397.51
397.424
397.338
397.252
397.167
397.083
397
396.919
396.84
396.762
396.685
396.608
396.53
396.452
396.373
396.294
396.216
396.138
396.06
395.982
395.906
395.83
395.755
395.681
395.608
395.536
395.462
395.389
395.322
395.518
395.643
395.737
395.815
395.881
395.938
395.989
396.034
396.073
396.108
400
400
400
400
400
400
400
400
400
399.996
399.784
399.619
399.475
399.341
399.215
399.094
398.977
398.864
398.753
398.646
398.54
398.437
398.336
398.237
398.14
398.045
397.951
397.86
397.77
397.683
397.597
397.512
397.427
397.342
397.257
397.173
397.089
397.007
396.926
396.846
396.768
396.69
396.612
396.534
396.455
396.376
396.298
396.219
396.141
396.063
395.986
395.909
395.833
395.759
395.685
395.611
395.538
395.465
395.392
395.323
395.52
395.645
395.74
395.817
395.883
395.941
395.992
396.037
396.076
396.111
400
400
400
400
400
400
400
400
400
399.996
399.785
399.62
399.475
399.342
399.216
399.095
398.978
398.865
398.755
398.647
398.542
398.439
398.338
398.239
398.142
398.046
397.953
397.861
397.772
397.685
397.599
397.515
397.431
397.347
397.263
397.179
397.096
397.013
396.932
396.852
396.773
396.694
396.615
396.537
396.458
396.379
396.3
396.222
396.143
396.066
395.988
395.912
395.836
395.762
395.687
395.614
395.541
395.467
395.394
395.326
395.523
395.648
395.743
395.82
395.887
395.944
395.995
396.04
396.08
396.115
400
400
400
400
400
400
400
400
400
399.996
399.785
399.62
399.476
399.343
399.217
399.096
398.98
398.867
398.757
398.649
398.544
398.441
398.34
398.241
398.144
398.048
397.955
397.863
397.774
397.687
397.602
397.518
397.435
397.352
397.268
397.184
397.101
397.019
396.938
396.857
396.777
396.698
396.618
396.539
396.46
396.381
396.303
396.224
396.146
396.068
395.991
395.915
395.839
395.764
395.69
395.617
395.544
395.47
395.396
395.329
395.526
395.651
395.746
395.823
395.89
395.947
395.998
396.043
396.084
396.118
400
400
400
400
400
400
400
400
400
399.996
399.785
399.621
399.476
399.343
399.218
399.097
398.981
398.868
398.758
398.651
398.546
398.443
398.342
398.243
398.146
398.051
397.957
397.866
397.777
397.69
397.605
397.522
397.439
397.356
397.273
397.19
397.107
397.024
396.942
396.861
396.781
396.701
396.621
396.542
396.462
396.384
396.305
396.226
396.148
396.071
395.994
395.917
395.842
395.767
395.693
395.62
395.546
395.473
395.399
395.331
395.528
395.654
395.749
395.827
395.893
395.951
396.002
396.047
396.087
396.122
400
400
400
400
400
400
400
400
400
399.996
399.786
399.621
399.477
399.344
399.219
399.099
398.983
398.87
398.76
398.653
398.548
398.445
398.345
398.246
398.149
398.054
397.96
397.869
397.78
397.693
397.608
397.526
397.443
397.361
397.278
397.195
397.112
397.029
396.946
396.865
396.784
396.703
396.623
396.543
396.464
396.385
396.306
396.228
396.15
396.072
395.996
395.919
395.844
395.769
395.695
395.621
395.548
395.475
395.401
395.333
395.531
395.656
395.751
395.829
395.896
395.953
396.004
396.05
396.09
396.125
400
400
400
400
400
400
400
400
400
399.996
399.785
399.621
399.478
399.345
399.22
399.1
398.984
398.872
398.762
398.655
398.551
398.448
398.348
398.249
398.152
398.057
397.963
397.872
397.783
397.696
397.612
397.53
397.448
397.365
397.282
397.199
397.115
397.032
396.949
396.867
396.786
396.705
396.624
396.544
396.465
396.386
396.307
396.229
396.151
396.073
395.996
395.92
395.845
395.77
395.696
395.622
395.548
395.475
395.401
395.333
395.531
395.656
395.751
395.829
395.896
395.954
396.005
396.05
396.09
396.125
400
400
400
400
400
400
400
400
400
399.996
399.786
399.622
399.478
399.346
399.221
399.101
398.986
398.874
398.764
398.658
398.553
398.451
398.35
398.251
398.155
398.06
397.966
397.875
397.786
397.7
397.615
397.533
397.451
397.368
397.284
397.201
397.117
397.033
396.95
396.867
396.785
396.704
396.623
396.543
396.463
396.384
396.305
396.226
396.148
396.07
395.993
395.917
395.841
395.766
395.691
395.617
395.544
395.47
395.396
395.328
395.525
395.651
395.746
395.823
395.89
395.948
395.998
396.043
396.083
396.118
400
400
400
400
400
400
400
400
400
399.996
399.786
399.622
399.479
399.347
399.222
399.103
398.988
398.875
398.766
398.66
398.555
398.453
398.352
398.254
398.157
398.061
397.968
397.877
397.788
397.701
397.617
397.534
397.451
397.367
397.283
397.199
397.114
397.029
396.945
396.862
396.779
396.697
396.616
396.535
396.454
396.374
396.295
396.215
396.137
396.058
395.981
395.904
395.827
395.751
395.676
395.601
395.526
395.451
395.376
395.308
395.505
395.63
395.725
395.803
395.868
395.925
395.976
396.02
396.059
396.092
400
400
400
400
400
400
400
400
400
399.996
399.785
399.622
399.479
399.347
399.223
399.103
398.988
398.876
398.766
398.659
398.555
398.452
398.351
398.252
398.154
398.059
397.965
397.873
397.783
397.696
397.61
397.526
397.442
397.357
397.271
397.185
397.099
397.013
396.928
396.843
396.759
396.675
396.592
396.51
396.427
396.346
396.265
396.184
396.104
396.024
395.944
395.865
395.787
395.709
395.632
395.555
395.478
395.401
395.324
395.253
395.45
395.575
395.669
395.745
395.809
395.864
395.913
395.954
395.991
396.021
400
400
400
400
400
400
400
400
400
399.996
399.786
399.622
399.478
399.346
399.221
399.101
398.985
398.872
398.762
398.654
398.548
398.444
398.342
398.241
398.142
398.044
397.948
397.854
397.763
397.673
397.585
397.498
397.41
397.322
397.233
397.144
397.055
396.966
396.878
396.79
396.702
396.615
396.529
396.443
396.357
396.272
396.187
396.103
396.019
395.935
395.852
395.769
395.686
395.604
395.522
395.441
395.359
395.277
395.195
395.118
395.315
395.438
395.528
395.6
395.66
395.71
395.753
395.788
395.817
395.839
400
400
400
400
400
400
400
400
400
399.996
399.784
399.618
399.474
399.339
399.212
399.09
398.971
398.855
398.741
398.63
398.52
398.412
398.305
398.2
398.096
397.994
397.893
397.794
397.697
397.601
397.507
397.413
397.319
397.225
397.13
397.034
396.938
396.842
396.747
396.652
396.557
396.463
396.369
396.276
396.183
396.091
395.998
395.906
395.814
395.722
395.631
395.54
395.448
395.357
395.265
395.174
395.081
394.988
394.894
394.805
395
395.116
395.198
395.26
395.308
395.345
395.371
395.389
395.398
395.399
400
400
400
400
400
400
400
400
400
399.996
399.778
399.608
399.456
399.316
399.182
399.051
398.924
398.799
398.676
398.555
398.435
398.316
398.199
398.082
397.967
397.853
397.74
397.629
397.52
397.412
397.305
397.198
397.09
396.982
396.874
396.764
396.655
396.546
396.437
396.329
396.22
396.112
396.005
395.898
395.791
395.684
395.578
395.472
395.365
395.258
395.151
395.044
394.936
394.827
394.716
394.604
394.49
394.373
394.253
394.138
394.327
394.43
394.493
394.533
394.554
394.56
394.551
394.527
394.49
394.442
400
400
400
400
400
400
400
400
400
399.995
399.757
399.566
399.397
399.236
399.082
398.93
398.782
398.636
398.491
398.347
398.205
398.063
397.923
397.784
397.646
397.508
397.373
397.239
397.107
396.976
396.846
396.717
396.587
396.457
396.326
396.196
396.065
395.935
395.806
395.677
395.549
395.421
395.294
395.167
395.041
394.915
394.789
394.662
394.535
394.407
394.276
394.144
394.009
393.871
393.728
393.581
393.428
393.268
393.101
392.938
393.135
393.226
393.266
393.271
393.248
393.199
393.125
393.028
392.906
392.768
400
400
400
400
400
400
400
400
400
399.992
399.678
399.437
399.225
399.025
398.834
398.649
398.466
398.287
398.11
397.934
397.761
397.59
397.42
397.252
397.086
396.922
396.76
396.601
396.445
396.291
396.138
395.987
395.836
395.686
395.536
395.387
395.238
395.091
394.945
394.801
394.657
394.515
394.374
394.233
394.093
393.952
393.811
393.669
393.524
393.376
393.223
393.066
392.903
392.732
392.553
392.364
392.164
391.952
391.726
391.511
391.819
391.943
391.98
391.958
391.887
391.775
391.623
391.434
391.211
390.976
400
400
400
400
400
400
400
400
400
399.995
399.755
399.533
399.327
399.131
398.942
398.758
398.577
398.399
398.224
398.05
397.878
397.708
397.539
397.372
397.205
397.04
396.877
396.714
396.553
396.394
396.236
396.08
395.926
395.775
395.625
395.479
395.334
395.191
395.051
394.91
394.77
394.629
394.488
394.345
394.203
394.06
393.916
393.771
393.623
393.473
393.32
393.162
392.998
392.828
392.651
392.464
392.267
392.059
391.837
391.622
391.85
391.962
391.997
391.976
391.907
391.796
391.647
391.461
391.239
391.003
400
400
400
400
400
400
400
400
400
399.997
399.826
399.658
399.498
399.344
399.194
399.047
398.902
398.758
398.616
398.476
398.336
398.197
398.059
397.922
397.785
397.648
397.513
397.377
397.243
397.108
396.975
396.842
396.71
396.58
396.45
396.322
396.195
396.069
395.945
395.82
395.695
395.569
395.442
395.315
395.188
395.06
394.932
394.804
394.676
394.547
394.416
394.283
394.149
394.012
393.871
393.727
393.577
393.422
393.259
393.101
393.217
393.288
393.321
393.325
393.302
393.255
393.183
393.089
392.972
392.836
400
400
400
400
400
400
400
400
400
399.998
399.843
399.694
399.552
399.418
399.288
399.162
399.038
398.916
398.796
398.678
398.561
398.445
398.33
398.215
398.102
397.989
397.877
397.765
397.654
397.543
397.433
397.323
397.214
397.106
396.998
396.892
396.787
396.682
396.578
396.474
396.369
396.263
396.156
396.049
395.941
395.834
395.727
395.619
395.512
395.405
395.298
395.191
395.083
394.975
394.866
394.756
394.645
394.532
394.419
394.306
394.418
394.5
394.556
394.592
394.612
394.617
394.609
394.588
394.552
394.507
400
400
400
400
400
400
400
400
400
399.998
399.847
399.702
399.566
399.438
399.315
399.196
399.081
398.968
398.857
398.748
398.641
398.536
398.431
398.328
398.226
398.125
398.024
397.925
397.826
397.728
397.63
397.534
397.438
397.343
397.249
397.156
397.064
396.974
396.883
396.793
396.701
396.608
396.515
396.421
396.328
396.234
396.141
396.048
395.956
395.864
395.772
395.681
395.59
395.5
395.409
395.32
395.23
395.141
395.052
394.968
395.085
395.179
395.252
395.31
395.355
395.39
395.416
395.434
395.443
395.445
400
400
400
400
400
400
400
400
400
399.998
399.847
399.703
399.569
399.442
399.322
399.205
399.092
398.983
398.875
398.77
398.667
398.565
398.465
398.367
398.269
398.173
398.078
397.984
397.891
397.798
397.706
397.615
397.526
397.437
397.35
397.263
397.179
397.095
397.011
396.927
396.842
396.756
396.67
396.583
396.497
396.411
396.325
396.24
396.155
396.071
395.987
395.905
395.822
395.741
395.66
395.581
395.502
395.423
395.346
395.274
395.395
395.494
395.575
395.642
395.698
395.746
395.786
395.821
395.849
395.871
400
400
400
400
400
400
400
400
400
399.998
399.847
399.703
399.568
399.442
399.321
399.206
399.093
398.984
398.878
398.774
398.672
398.572
398.473
398.377
398.281
398.187
398.094
398.002
397.911
397.821
397.732
397.644
397.557
397.471
397.386
397.303
397.222
397.141
397.061
396.979
396.897
396.814
396.731
396.648
396.564
396.481
396.399
396.318
396.236
396.156
396.076
395.998
395.92
395.842
395.766
395.691
395.617
395.544
395.472
395.405
395.527
395.628
395.711
395.781
395.842
395.894
395.94
395.981
396.016
396.046
400
400
400
400
400
400
400
400
400
399.998
399.846
399.702
399.567
399.441
399.32
399.204
399.092
398.983
398.877
398.773
398.672
398.572
398.474
398.378
398.283
398.19
398.098
398.007
397.917
397.828
397.74
397.653
397.567
397.483
397.399
397.318
397.238
397.158
397.079
396.999
396.917
396.836
396.753
396.671
396.589
396.508