/*--------------------------------*- C++ -*----------------------------------*\
  =========                 |
  \\      /  F ield         | OpenFOAM: The Open Source CFD Toolbox
   \\    /   O peration     | Website:  https://openfoam.org
    \\  /    A nd           | Version:  12
     \\/     M anipulation  |
\*---------------------------------------------------------------------------*/
FoamFile
{
    format      ascii;
    class       volScalarField;
    location    "450/air";
    object      alphat;
}
// * * * * * * * * * * * * * * * * * * * * * * * * * * * * * * * * * * * * * //

dimensions      [1 -1 -1 0 0 0 0];

internalField   nonuniform List<scalar> 
243000
(
0.000207702
0.000204991
0.000198059
0.000189821
0.000180798
0.000171523
0.000162285
0.000153293
0.000144635
0.000136519
0.000129088
0.000122796
0.000117434
0.000112603
0.000107656
0.000102333
9.67577e-05
9.97181e-05
0.000114784
0.000132364
0.000142107
0.00014434
0.00014087
0.000132599
0.000128014
0.000129268
0.000133615
0.000140064
0.000150219
0.000165508
0.000801108
0.000777089
0.000736464
0.000692813
0.000649924
0.000609137
0.000570911
0.000535444
0.000502668
0.000473001
0.000446616
0.000424551
0.00040566
0.000390078
0.000375536
0.000361741
0.000351314
0.000384369
0.000468653
0.000548297
0.000588086
0.000599733
0.000592195
0.000571636
0.000550209
0.00054709
0.000559378
0.000578091
0.000610394
0.000657134
0.00105054
0.00105574
0.00103805
0.00101261
0.000983729
0.000953178
0.000921731
0.000889944
0.00085803
0.000827163
0.000798139
0.000773094
0.000749341
0.000727563
0.000704087
0.00067855
0.000659227
0.000722503
0.000879787
0.00101229
0.00106469
0.00106474
0.00103146
0.000978302
0.000920818
0.000879608
0.000863144
0.000855726
0.000864158
0.000886279
0.00111333
0.00111795
0.00110054
0.0010755
0.00104682
0.00101611
0.000984083
0.000951342
0.000918301
0.000886438
0.000856927
0.000831954
0.000807689
0.00078436
0.000758269
0.000728682
0.000706205
0.000772875
0.000946426
0.00108941
0.00114731
0.00115136
0.00112178
0.00107293
0.00101751
0.000972498
0.000949413
0.000939124
0.000945523
0.000965113
0.00115563
0.00115974
0.00114352
0.00112001
0.00109278
0.00106318
0.00103174
0.000999098
0.000965877
0.000933837
0.000904443
0.000879826
0.000855279
0.000830457
0.000801525
0.000767217
0.000739755
0.000804175
0.000987568
0.00113934
0.001202
0.00121007
0.00118466
0.00114063
0.00108881
0.00104348
0.00101624
0.00100336
0.00100812
0.00102779
0.00118525
0.00118878
0.00117403
0.00115251
0.00112724
0.00109927
0.00106897
0.00103699
0.00100415
0.000972439
0.000943482
0.000919269
0.00089448
0.000868212
0.00083626
0.000796994
0.000765495
0.000823271
0.00100992
0.00116974
0.00123715
0.00124918
0.00122806
0.00118885
0.00114126
0.00109748
0.00106854
0.00105393
0.00105726
0.00107728
0.00120624
0.0012092
0.00119604
0.00117666
0.00115352
0.00112737
0.00109845
0.00106743
0.0010353
0.00100421
0.000975835
0.000951951
0.000926848
0.000899138
0.000864068
0.000819925
0.000788063
0.000839968
0.00102072
0.00118499
0.00125774
0.00127351
0.00125662
0.00122209
0.00117895
0.00113778
0.00110882
0.00109392
0.00109611
0.00111627
0.00122085
0.00122337
0.00121192
0.00119473
0.00117374
0.00114944
0.00112197
0.00109204
0.00106079
0.00103047
0.00100271
0.000979017
0.000953496
0.000924303
0.000886106
0.000837616
0.00080721
0.00085531
0.00102385
0.00119035
0.00126664
0.00128623
0.00127343
0.00124342
0.00120475
0.00116681
0.00113903
0.00112488
0.0011264
0.00114669
0.00123038
0.00123275
0.00122312
0.00120813
0.00118926
0.00116678
0.00114075
0.00111195
0.00108167
0.00105215
0.00102497
0.00100131
0.000975266
0.00094449
0.000903282
0.000852333
0.000823769
0.000868858
0.00102424
0.00118836
0.00126792
0.00128982
0.00128068
0.00125525
0.0012211
0.0011865
0.00116064
0.00114802
0.00114945
0.00117001
0.001236
0.00123843
0.00123063
0.00121783
0.00120101
0.00118028
0.00115565
0.00112798
0.00109866
0.00106993
0.00104323
0.00101946
0.000992785
0.00096035
0.000916379
0.000865933
0.000838451
0.000880773
0.00102506
0.00117937
0.00126132
0.00128586
0.00127935
0.00125778
0.0012286
0.00119821
0.00117467
0.00116421
0.00116636
0.00118737
0.00123834
0.00124109
0.00123506
0.00122442
0.0012096
0.00119054
0.00116724
0.00114067
0.00111228
0.0010843
0.00105797
0.00103398
0.00100652
0.000972431
0.000926111
0.000877812
0.000851475
0.00089105
0.00102534
0.00116778
0.00124867
0.00127577
0.00127196
0.0012536
0.00122814
0.00120218
0.00118225
0.0011741
0.00117773
0.0011995
0.00123767
0.00124117
0.001237
0.00122842
0.00121545
0.0011979
0.00117586
0.00115037
0.0011229
0.00109561
0.00106957
0.00104524
0.00101689
0.000981221
0.000933176
0.000888034
0.000863004
0.000899774
0.00102479
0.00115742
0.00123371
0.00126117
0.00125959
0.00124426
0.00122232
0.00119994
0.00118363
0.00117865
0.0011837
0.00120719
0.0012346
0.00123906
0.00123691
0.00123019
0.00121896
0.00120282
0.00118192
0.00115738
0.00113075
0.00110415
0.00107832
0.00105354
0.00102427
0.000987197
0.000940016
0.000897188
0.000873253
0.000907096
0.00102332
0.00114758
0.00122005
0.00124636
0.00124507
0.00123102
0.00121224
0.00119321
0.00118039
0.00117856
0.0011856
0.00121092
0.00122924
0.00123487
0.00123472
0.00123005
0.00122035
0.00120549
0.00118565
0.00116203
0.00113615
0.00111006
0.00108441
0.00105912
0.00102894
0.000990853
0.000946197
0.00090547
0.000882407
0.000913177
0.00102092
0.00113778
0.00120709
0.00123237
0.00123144
0.00121884
0.00120128
0.00118321
0.00117319
0.00117433
0.00118397
0.00121135
0.00122156
0.00122872
0.00123062
0.0012279
0.00121984
0.00120615
0.00118724
0.00116448
0.00113934
0.00111373
0.00108812
0.00106229
0.00103136
0.000992954
0.000951622
0.000913006
0.000890625
0.000918175
0.00101765
0.0011277
0.00119435
0.00121881
0.00121831
0.00120693
0.00119065
0.00117386
0.00116388
0.00116658
0.00117888
0.0012086
0.00121161
0.00122061
0.00122459
0.00122382
0.00121726
0.00120477
0.00118689
0.001165
0.00114055
0.00111537
0.00108981
0.00106355
0.00103213
0.000995436
0.000956674
0.000919974
0.000898071
0.000922237
0.00101355
0.00111723
0.00118154
0.0012054
0.00120534
0.00119506
0.00118006
0.00116466
0.00115505
0.00115625
0.00117069
0.00120287
0.00119953
0.00121057
0.00121666
0.00121776
0.00121259
0.00120124
0.00118439
0.00116347
0.00113986
0.00111525
0.00108983
0.0010632
0.00103236
0.000998058
0.000961538
0.000926538
0.000904907
0.000925514
0.00100873
0.00110628
0.00116846
0.00119193
0.00119234
0.00118305
0.00116934
0.00115534
0.00114641
0.00114686
0.00115989
0.00119436
0.00118563
0.0011987
0.00120684
0.00120969
0.0012059
0.00119556
0.00117973
0.00115987
0.0011372
0.00111322
0.00108817
0.00106221
0.00103318
0.00100091
0.000966354
0.000932841
0.000911263
0.000928128
0.00100326
0.00109477
0.00115499
0.00117823
0.00117914
0.0011708
0.00115836
0.00114577
0.00113773
0.00113799
0.00114991
0.00118312
0.00117308
0.00118661
0.00119582
0.00119981
0.00119731
0.001188
0.00117319
0.00115484
0.00113372
0.001111
0.00108711
0.00106212
0.00103456
0.00100405
0.000971233
0.000939012
0.000917283
0.000930217
0.000997231
0.00108263
0.00114103
0.00116419
0.00116562
0.00115823
0.00114706
0.00113586
0.00112888
0.00112935
0.00114052
0.00116967
0.00116137
0.00117538
0.00118553
0.00119026
0.00118865
0.00118041
0.00116702
0.00115015
0.00113055
0.00110919
0.00108651
0.0010626
0.00103643
0.0010075
0.000976258
0.000945169
0.000923116
0.000931996
0.000990773
0.00106998
0.0011265
0.00114973
0.00115173
0.00114531
0.00113541
0.0011256
0.00111983
0.00112073
0.00113147
0.00115749
0.00115018
0.00116473
0.00117567
0.00118109
0.00118036
0.00117314
0.00116106
0.00114565
0.00112757
0.00110764
0.00108629
0.00106355
0.0010387
0.00101128
0.000981502
0.000951417
0.000928911
0.000933693
0.000984103
0.00105691
0.00111139
0.00113476
0.00113744
0.00113202
0.00112342
0.00111504
0.00111055
0.00111204
0.00112253
0.00114609
0.00113929
0.0011544
0.001166
0.00117209
0.00117225
0.00116602
0.00115519
0.0011412
0.00112467
0.00110627
0.00108636
0.00106489
0.00104136
0.00101541
0.000987033
0.000957874
0.000934824
0.000935473
0.000977454
0.00104356
0.00109573
0.00111923
0.00112268
0.00111833
0.00111108
0.00110427
0.00110105
0.00110322
0.00111366
0.00113516
0.00112845
0.00114414
0.00115639
0.00116314
0.00116412
0.00115891
0.00114932
0.00113675
0.00112184
0.00110505
0.00108668
0.00106662
0.00104444
0.00101995
0.000992963
0.000964715
0.000941077
0.000937659
0.000971253
0.00103022
0.00107965
0.00110321
0.00110745
0.00110422
0.0010984
0.00109326
0.00109126
0.00109423
0.00110473
0.00112444
0.00111751
0.00113386
0.00114676
0.00115411
0.00115586
0.00115169
0.00114338
0.00113229
0.00111904
0.00110396
0.0010873
0.00106878
0.00104808
0.0010251
0.000999591
0.000972324
0.000948123
0.000940683
0.000966038
0.00101746
0.00106355
0.00108696
0.0010919
0.0010898
0.00108555
0.00108203
0.00108128
0.00108512
0.00109571
0.00111381
0.0011065
0.00112354
0.00113705
0.00114492
0.00114737
0.00114431
0.00113735
0.00112785
0.00111637
0.00110322
0.00108849
0.00107176
0.00105287
0.00103167
0.00100789
0.000981844
0.000957318
0.000946002
0.000963127
0.00100635
0.00104839
0.00107115
0.00107658
0.00107552
0.00107286
0.00107089
0.00107133
0.00107607
0.00108668
0.00110327
0.00109568
0.00111309
0.00112729
0.00113559
0.0011387
0.00113686
0.00113147
0.00112382
0.00111457
0.00110383
0.00109143
0.00107726
0.00106097
0.00104225
0.00102085
0.000996585
0.000972059
0.000957072
0.000966193
0.000999945
0.00103654
0.00105768
0.00106309
0.00106271
0.00106126
0.00106053
0.00106204
0.0010675
0.00107792
0.00109301
0.00108602
0.00110361
0.00111808
0.00112713
0.00113103
0.00113084
0.00112777
0.00112305
0.00111696
0.00110979
0.00110135
0.00109138
0.00107939
0.00106479
0.0010471
0.00102557
0.00100152
0.000982898
0.000983527
0.00100624
0.00103549
0.00105261
0.00105653
0.00105564
0.00105418
0.00105382
0.0010557
0.00106111
0.00107076
0.00108405
0.00108304
0.00110073
0.00111573
0.00112664
0.00113305
0.00113649
0.00113818
0.00113901
0.0011391
0.00113872
0.0011376
0.00113517
0.00113047
0.00112233
0.00111005
0.00109227
0.00106917
0.00104733
0.00103859
0.00104821
0.00106594
0.00107617
0.00107531
0.00107082
0.00106651
0.00106366
0.00106333
0.00106624
0.00107285
0.00108248
0.00113576
0.00115365
0.00117057
0.00118621
0.0011995
0.00121149
0.00122275
0.00123337
0.00124334
0.00125363
0.00126311
0.00127063
0.00127429
0.00127289
0.00126538
0.00125089
0.00122971
0.0012072
0.00119135
0.00118792
0.00119179
0.00119227
0.00118423
0.00117387
0.00116358
0.0011541
0.00114632
0.00114071
0.00113811
0.00113884
0.00149113
0.00150219
0.00151326
0.00152555
0.00153674
0.00154841
0.00155766
0.00156492
0.00157129
0.00158141
0.00159023
0.00159603
0.00159676
0.00159279
0.00158261
0.00156853
0.00155195
0.00153758
0.0015279
0.00152419
0.00152546
0.00152712
0.00152716
0.00152612
0.00152387
0.00152016
0.00151525
0.00150917
0.00150256
0.00149593
0.000252786
0.000253656
0.000245804
0.000234799
0.00022221
0.000209001
0.000195643
0.000182465
0.00016961
0.000157431
0.000146084
0.000136224
0.000127393
0.000120628
0.000115816
0.000119934
0.000139256
0.000171981
0.000192184
0.000204938
0.000211533
0.000213671
0.000212464
0.000209152
0.000205253
0.000201733
0.000199374
0.000196621
0.00019865
0.00020233
0.00112175
0.00115893
0.00105119
0.0009215
0.000808349
0.00071575
0.00064181
0.000583965
0.000538507
0.000504993
0.000476903
0.000452655
0.000437327
0.000451285
0.000476129
0.000538594
0.000670676
0.00084309
0.000957365
0.00101733
0.00103593
0.00102544
0.000995114
0.000955295
0.000917325
0.000889356
0.000861365
0.000817147
0.000760192
0.000724896
0.0018475
0.00197144
0.00187204
0.00170245
0.00152754
0.00137066
0.00123843
0.00113189
0.00104777
0.00098646
0.000934728
0.000889145
0.000853312
0.000862701
0.000888604
0.000981342
0.00121253
0.00151568
0.00173355
0.00185999
0.00190768
0.00189537
0.00184037
0.00176362
0.00169282
0.00162975
0.00157039
0.00148971
0.00138769
0.00132821
0.0024326
0.00259904
0.00253894
0.00237985
0.00218747
0.00199729
0.0018261
0.00168181
0.00156726
0.00147767
0.0014012
0.00133362
0.00127325
0.00126513
0.00127975
0.00138644
0.00168589
0.00209358
0.00239409
0.0025794
0.00265932
0.00265742
0.00259162
0.00249855
0.00239561
0.00230368
0.00221964
0.00211661
0.00198564
0.0019116
0.00291739
0.00309635
0.00308459
0.00295452
0.00276899
0.00256708
0.00237327
0.00220351
0.00206265
0.00194996
0.00185242
0.00176268
0.00167696
0.00164512
0.00164144
0.00175078
0.00209359
0.00257573
0.00294302
0.00317674
0.00328667
0.00330277
0.00323719
0.00314094
0.00302808
0.00291235
0.00280601
0.00268533
0.00253746
0.00245219
0.00332711
0.00351315
0.00353975
0.0034475
0.00328091
0.00308013
0.00287506
0.00268741
0.00252647
0.00239646
0.00227914
0.00216795
0.00205733
0.00199877
0.0019715
0.00207273
0.00243451
0.0029632
0.00339132
0.00366493
0.00380092
0.00383716
0.00377995
0.0036861
0.00357632
0.0034595
0.00334183
0.00320264
0.00303548
0.00294597
0.00368852
0.00387423
0.00393167
0.00387724
0.00373443
0.00354185
0.00333283
0.00313388
0.00295735
0.00281304
0.0026776
0.00254567
0.00241102
0.00232464
0.00226975
0.00235655
0.00270987
0.0032596
0.00374071
0.00405702
0.00421521
0.00426887
0.00422662
0.00414108
0.00404098
0.00393211
0.00381807
0.00368165
0.00349997
0.00340529
0.00400602
0.0041911
0.00427595
0.00425647
0.00413824
0.00395725
0.00374886
0.00354304
0.00335458
0.00319716
0.0030455
0.00289384
0.00273656
0.00262235
0.00253742
0.00260409
0.00293197
0.00351278
0.00403217
0.0043675
0.00454261
0.00460746
0.00458438
0.00451369
0.00442649
0.00433385
0.0042307
0.00410379
0.0039188
0.00382197
0.00428469
0.00446831
0.00458155
0.00459338
0.0044983
0.00433003
0.0041249
0.00391491
0.00371764
0.0035464
0.00338187
0.00321167
0.00303321
0.00289101
0.00277768
0.00282222
0.00312904
0.00370528
0.00426352
0.00462498
0.00480667
0.00486571
0.0048448
0.00479686
0.00474091
0.00467021
0.00458328
0.00447383
0.0042899
0.00419717
0.00454343
0.00471995
0.00485401
0.00489293
0.00481842
0.00466253
0.00446207
0.00424999
0.00404677
0.00386156
0.00368337
0.00349858
0.00330112
0.00313215
0.00299493
0.00301972
0.00330488
0.00385451
0.00440013
0.00479082
0.00499278
0.00505612
0.00504443
0.00500269
0.00495034
0.00490552
0.00485746
0.00478236
0.00462157
0.00453696
0.00477825
0.00494829
0.00509556
0.00515781
0.00510078
0.00495618
0.00476105
0.0045485
0.00434005
0.00414458
0.00395107
0.00375177
0.00353982
0.0033484
0.00319577
0.00319783
0.00345887
0.00396521
0.00449737
0.00490318
0.00512191
0.00518819
0.00518655
0.00515908
0.00511912
0.00508241
0.00504862
0.00500987
0.004908
0.00483952
0.0049909
0.0051555
0.00531065
0.00538957
0.00534649
0.00521174
0.0050223
0.0048106
0.0045981
0.00439494
0.00419073
0.0039796
0.0037528
0.00354286
0.00338232
0.00335719
0.00358974
0.00404592
0.00455701
0.00496648
0.00520448
0.00527134
0.00527881
0.00526517
0.00524354
0.00522473
0.00520452
0.00518674
0.00512838
0.00509892
0.00517988
0.00534412
0.00550076
0.00558777
0.00555581
0.00542956
0.00524617
0.00503677
0.00482215
0.00461312
0.0044013
0.00418044
0.00394185
0.00372144
0.0035477
0.00349763
0.00369488
0.00410026
0.00458072
0.00498504
0.00523188
0.00531015
0.00532818
0.00532594
0.00532252
0.00532619
0.00533083
0.0053326
0.00530747
0.00530702
0.00533857
0.00550858
0.00566713
0.00575354
0.005728
0.00560941
0.00543291
0.00522795
0.00501379
0.00480197
0.00458495
0.00435648
0.00411223
0.00389135
0.00369448
0.00361944
0.00377585
0.0041298
0.00457183
0.00496268
0.00521116
0.00529727
0.00532841
0.00534153
0.00535552
0.00538561
0.00541913
0.00545102
0.00545911
0.0054858
0.00546821
0.00564324
0.00580681
0.00588952
0.00586678
0.00575464
0.00558473
0.00538645
0.00517586
0.00496414
0.00474483
0.00451288
0.00427139
0.00404432
0.00382312
0.0037228
0.00383466
0.00413636
0.004534
0.0049039
0.00514823
0.00523974
0.0052857
0.00531629
0.00534893
0.00539893
0.00546563
0.00553457
0.00558004
0.00563496
0.00555906
0.00574149
0.0059087
0.00599749
0.00597488
0.00587009
0.00570885
0.0055178
0.0053132
0.0051047
0.00488718
0.00465662
0.00441727
0.00417236
0.00393312
0.00380767
0.00387435
0.00412248
0.00447143
0.00481373
0.00504896
0.00514436
0.0052059
0.00525533
0.00530776
0.00537816
0.00547087
0.00558047
0.00566455
0.00574871
0.00561869
0.00581194
0.00598164
0.00607071
0.00605479
0.00595952
0.00580937
0.00562867
0.00543213
0.00522871
0.00501329
0.00478621
0.00454022
0.00427675
0.00402417
0.00387417
0.00389878
0.00409207
0.00438954
0.00469768
0.00491931
0.00501735
0.00509443
0.00516351
0.00523618
0.00532702
0.0054433
0.00558214
0.00571039
0.00582341
0.00564992
0.00585759
0.00602707
0.00611692
0.00611061
0.00602732
0.00589081
0.00571959
0.0055337
0.00533713
0.0051235
0.00489066
0.00463245
0.0043578
0.0040954
0.0039216
0.00390068
0.00403665
0.00428726
0.00456113
0.00476561
0.0048637
0.00495598
0.00504572
0.00513834
0.00524848
0.00538593
0.0055497
0.00571182
0.00586241
0.00564375
0.00587287
0.0060504
0.00614788
0.0061474
0.00607409
0.00594815
0.00578552
0.0056048
0.00540995
0.00519554
0.00495917
0.00469473
0.00441438
0.00414487
0.00394891
0.00388488
0.00395609
0.0041596
0.00440414
0.00459244
0.00468967
0.00479545
0.00490301
0.00501523
0.00514463
0.00530169
0.00548524
0.00567242
0.00587947
0.00560528
0.00583691
0.00601931
0.00612522
0.00613946
0.00607272
0.00595572
0.00580514
0.00563232
0.00544146
0.00522855
0.00499099
0.00472467
0.00444282
0.00416865
0.0039533
0.00385155
0.0038705
0.0040156
0.00422328
0.00440442
0.00450979
0.00462905
0.00475259
0.00488043
0.00502393
0.00519378
0.0053899
0.00559557
0.00584202
0.00553015
0.00575694
0.00594208
0.00605106
0.00608328
0.00602359
0.00591737
0.00577965
0.00561653
0.00543102
0.00521981
0.00498144
0.00471571
0.00443533
0.00415919
0.00392858
0.00379711
0.00378251
0.0038692
0.00403833
0.00420551
0.00432339
0.00446252
0.00460165
0.00474422
0.00489919
0.00507746
0.00527936
0.00549249
0.00576058
0.00542328
0.00564175
0.00581618
0.00593902
0.00598295
0.00593218
0.00583581
0.0057095
0.00555456
0.0053733
0.00516231
0.00492181
0.00465438
0.0043775
0.00410328
0.0038644
0.00371181
0.00366733
0.00371495
0.00385188
0.00399767
0.00412036
0.00428137
0.00444291
0.00460527
0.00477409
0.00496026
0.00516445
0.00537974
0.00564199
0.00527889
0.005483
0.0056613
0.00579274
0.00584038
0.00579864
0.00570889
0.00558962
0.00543826
0.0052555
0.00503945
0.00479296
0.00452188
0.00424783
0.00398112
0.00374507
0.0035797
0.00352012
0.00355688
0.00365375
0.00377989
0.00390926
0.00408285
0.0042587
0.00443749
0.00461729
0.0048063
0.00501412
0.00523612
0.00548391
0.00510414
0.00530742
0.00548387
0.00561021
0.00565185
0.00561193
0.00552606
0.00540332
0.00524498
0.00505188
0.00482512
0.00456955
0.00429411
0.0040237
0.00377156
0.00354851
0.00338524
0.00332859
0.00335458
0.00344768
0.00354792
0.00368962
0.00387275
0.00405939
0.00424663
0.00443638
0.00463513
0.00484774
0.00506978
0.00529088
0.00491358
0.00510638
0.00526658
0.00537623
0.00539841
0.00534886
0.00525265
0.00511651
0.00494222
0.00473223
0.00449413
0.00423358
0.00396073
0.00370256
0.00347419
0.00327608
0.00312894
0.00308034
0.00311406
0.00319878
0.00329504
0.00345249
0.00363864
0.00383339
0.00403226
0.00423284
0.0044379
0.00465284
0.00486985
0.00506804
0.00467209
0.0048454
0.00497793
0.00504817
0.00503662
0.00496302
0.00484514
0.00468955
0.00450147
0.00428775
0.00405685
0.00381407
0.00356916
0.00334288
0.00315478
0.00299484
0.00286841
0.00282222
0.00285644
0.00293661
0.00303508
0.00318881
0.00336409
0.00355637
0.00375975
0.0039682
0.00417976
0.00439576
0.00460867
0.00479337
0.00432513
0.00446309
0.00454569
0.00456691
0.00451764
0.00442256
0.00429534
0.00414367
0.00397469
0.0037958
0.00361395
0.00343298
0.00325545
0.00308587
0.00295179
0.00283572
0.00273067
0.00267732
0.00268869
0.00274691
0.0028266
0.00294656
0.00307871
0.003236
0.00341485
0.00360902
0.00381306
0.00402139
0.00422696
0.00440737
0.00382599
0.00391721
0.00396025
0.0039587
0.00390804
0.00383543
0.00374835
0.00365291
0.00355085
0.00344619
0.00334346
0.00324263
0.00313895
0.00302803
0.00293731
0.0028521
0.00277001
0.00271701
0.00270571
0.00273321
0.00277987
0.00285159
0.00292303
0.00301245
0.00312184
0.0032508
0.00339843
0.00355818
0.00371829
0.00386751
0.00338965
0.0034535
0.00349327
0.00351182
0.00350078
0.00348081
0.00345378
0.00342054
0.00337933
0.00332625
0.0032692
0.00321067
0.00314268
0.00308053
0.00301566
0.00295222
0.00289457
0.0028562
0.00284012
0.00285207
0.00287534
0.00291095
0.00294872
0.00299681
0.0030549
0.00312266
0.00320001
0.0032805
0.00334986
0.00341171
0.00327945
0.0033279
0.00335876
0.00337559
0.00337316
0.00336352
0.00334722
0.00332719
0.00330284
0.00327357
0.00324277
0.00320706
0.00316371
0.00311762
0.00307381
0.00303622
0.00300711
0.00299478
0.00299434
0.0030058
0.00302076
0.00304345
0.00306778
0.00309582
0.0031266
0.00315737
0.00318666
0.00321907
0.00325204
0.0032764
0.000291014
0.000288642
0.000278462
0.000265535
0.000250986
0.000235721
0.000220236
0.00020491
0.000189857
0.000175433
0.000161532
0.00014875
0.000139083
0.000138947
0.000149026
0.000175727
0.000203284
0.000232291
0.000249211
0.00025953
0.00026461
0.000266227
0.000265417
0.000263058
0.000259805
0.000255997
0.000252323
0.000247408
0.000244751
0.000241599
0.00136492
0.0014616
0.00135261
0.00119321
0.0010489
0.000930492
0.000838111
0.000767482
0.000712222
0.000669907
0.000624555
0.000575503
0.000567836
0.000657054
0.000769876
0.000941671
0.00113107
0.00132532
0.00144896
0.0015039
0.00150629
0.0014766
0.00142817
0.00137281
0.00131314
0.00124866
0.00117641
0.00108118
0.000967902
0.000876334
0.0023071
0.00250808
0.00243236
0.00224306
0.00203026
0.00183325
0.00166766
0.00153498
0.00142854
0.0013467
0.0012609
0.00116948
0.00113946
0.001274
0.00145516
0.00174769
0.00208461
0.00241761
0.00265821
0.00278422
0.00281305
0.00276885
0.00268385
0.00258062
0.00246649
0.00233656
0.00219681
0.00202192
0.00181598
0.00164633
0.00306886
0.00333063
0.00330973
0.00314972
0.00292701
0.00269383
0.00248113
0.00230051
0.00215077
0.00203363
0.0019102
0.0017828
0.00172579
0.0018776
0.0020953
0.00246379
0.00290408
0.00333609
0.00366532
0.00385621
0.00392045
0.00387811
0.00377449
0.00364254
0.00349293
0.00332459
0.00314109
0.00291033
0.00262925
0.00240323
0.0037236
0.00400158
0.00404515
0.00393447
0.00372851
0.00348429
0.00324381
0.00302878
0.00284514
0.00269824
0.0025421
0.00238573
0.00230209
0.00245428
0.00268743
0.00309275
0.00359663
0.00410172
0.00449743
0.00474204
0.00484054
0.00481034
0.00470148
0.00455666
0.00438897
0.00420398
0.00399527
0.00373098
0.0034006
0.00312947
0.00430573
0.00459265
0.0046932
0.00463358
0.00445435
0.00421183
0.00395562
0.0037159
0.00350529
0.00333066
0.00314892
0.00296777
0.00285894
0.00299941
0.00322778
0.00364451
0.00418136
0.00473174
0.00518602
0.00547363
0.00559981
0.00558686
0.0054822
0.00533693
0.00516611
0.00497617
0.0047598
0.00447944
0.00411635
0.00381257
0.00483244
0.00513041
0.00528162
0.00527168
0.00512128
0.00488599
0.00462096
0.00436293
0.00412984
0.00393121
0.00372548
0.00352296
0.00339057
0.00350975
0.00372101
0.00412808
0.00467353
0.00524795
0.00574505
0.00607737
0.00622287
0.00622639
0.00613223
0.00599593
0.00583638
0.00564983
0.00544035
0.00516159
0.00477798
0.00445654
0.00530959
0.00562734
0.005828
0.00586354
0.0057398
0.00551309
0.00524291
0.00497039
0.00471767
0.00449563
0.00426704
0.00404683
0.0038937
0.0039939
0.0041703
0.00455155
0.00508481
0.00570728
0.00623779
0.00659395
0.00673694
0.00673428
0.0066512
0.00653958
0.00640937
0.00624308
0.00604402
0.00578534
0.00539705
0.00506236
0.00576603
0.00609639
0.00634294
0.00641697
0.00631529
0.00609624
0.00582253
0.00553787
0.0052673
0.00502282
0.0047742
0.0045374
0.00436535
0.00443871
0.0045788
0.00492176
0.00545645
0.00605336
0.00660119
0.00699531
0.00715026
0.00715194
0.00707451
0.00695115
0.00681588
0.00668627
0.00653639
0.00631289
0.00595916
0.00563926
0.00620505
0.00654535
0.00683168
0.00693499
0.00684955
0.00663604
0.00635945
0.00606428
0.00577741
0.00551199
0.0052443
0.00499655
0.00481456
0.0048473
0.00495057
0.00524895
0.00575066
0.00633181
0.00688669
0.00731373
0.00747846
0.00748869
0.00742387
0.00731329
0.00717552
0.00704614
0.00690782
0.00674721
0.00646121
0.00617909
0.00662223
0.00697451
0.0072919
0.00741705
0.00734201
0.00713172
0.00685256
0.00654842
0.00624704
0.00596258
0.00567872
0.00542201
0.00522795
0.00522383
0.00529023
0.00554511
0.00600399
0.00655819
0.00710618
0.0075584
0.00773271
0.00775438
0.00770499
0.00761183
0.00749382
0.007368
0.00724556
0.00710892
0.00690548
0.00667992
0.00701911
0.00738433
0.00772036
0.0078607
0.00779079
0.00758167
0.00730076
0.00698951
0.00667583
0.00637536
0.00607978
0.0058157
0.00560933
0.00557162
0.00560336
0.00581421
0.00621756
0.00673405
0.00726241
0.00773014
0.00792097
0.00795768
0.0079256
0.00785312
0.00775909
0.00765832
0.00755231
0.00744522
0.00728973
0.00713926
0.00740203
0.00777268
0.00811699
0.00826305
0.00819359
0.00798442
0.00770334
0.00738748
0.0070649
0.00675259
0.00644945
0.00617939
0.00596178
0.00589506
0.00588844
0.00604752
0.00639059
0.00685947
0.0073571
0.00783034
0.00803866
0.00809787
0.00809151
0.00804243
0.00797569
0.00790563
0.00783005
0.00775503
0.00764812
0.00755742
0.00775831
0.00813755
0.00847839
0.0086211
0.00854825
0.00834017
0.00806064
0.00774334
0.00741582
0.00709659
0.00679001
0.00651453
0.00628697
0.00618958
0.00614274
0.00624432
0.00652149
0.00693284
0.00739212
0.00785987
0.00808544
0.00817392
0.00820102
0.00818327
0.00814601
0.00811119
0.00807564
0.00803536
0.00797867
0.00793915
0.00808832
0.0084753
0.00880139
0.0089323
0.00885413
0.00864976
0.00837393
0.00805897
0.00773111
0.00740956
0.0071032
0.00682132
0.00658574
0.00645128
0.00636227
0.00640297
0.00660807
0.00695332
0.007368
0.00781864
0.0080611
0.00818384
0.00825222
0.00827452
0.00827401
0.00827404
0.00828187
0.00828822
0.00827872
0.00829028
0.00838481
0.0087733
0.0090817
0.00919558
0.00911255
0.00891467
0.00864515
0.00833682
0.00801322
0.00769209
0.00738765
0.00710491
0.00685414
0.00667474
0.00654161
0.00651869
0.00664784
0.00692088
0.00728482
0.00770747
0.00796537
0.00812536
0.00824209
0.00831283
0.0083571
0.00839754
0.00844553
0.00850091
0.00854481
0.00860542
0.00863061
0.00901946
0.00931476
0.00941037
0.00932648
0.00913726
0.00887584
0.00857823
0.00826338
0.00794796
0.00763587
0.00734213
0.00707219
0.00685208
0.00667379
0.00658772
0.00663811
0.00683571
0.0071426
0.00752948
0.00779822
0.00799657
0.00816613
0.00829305
0.00839
0.00847698
0.00856895
0.0086691
0.00876702
0.00887779
0.00883242
0.00921536
0.00949433
0.00957752
0.00949864
0.00932
0.00906939
0.00877473
0.00846012
0.00814619
0.00783131
0.00752722
0.00723531
0.00697527
0.00674986
0.00660053
0.00657498
0.00669789
0.00694295
0.0072883
0.00755991
0.00779528
0.0080201
0.00820956
0.00836609
0.00850472
0.00864462
0.00879063
0.00893651
0.00909036
0.00898345
0.00935489
0.00959929
0.0096898
0.00961919
0.00943642
0.00919045
0.0089029
0.0085958
0.00828318
0.00796367
0.00764723
0.0073304
0.0070322
0.00676101
0.00655112
0.00645413
0.00648964
0.00667085
0.0069854
0.00726585
0.00754292
0.0078185
0.00806295
0.00827444
0.00847083
0.00866256
0.00885617
0.00904755
0.00924288
0.00907979
0.00940308
0.00962715
0.00972829
0.0096602
0.00948051
0.00923935
0.00895921
0.00865732
0.00834358
0.00801596
0.00768356
0.00734016
0.00700775
0.0066944
0.00642947
0.00627043
0.0062419
0.00636259
0.00662879
0.00690377
0.00723981
0.00758379
0.00788314
0.00814645
0.00839218
0.00862497
0.0088564
0.0090886
0.00932341
0.00908172
0.00935621
0.00958848
0.00968385
0.00961678
0.00944199
0.00920383
0.00892746
0.00862641
0.00830707
0.0079665
0.0076144
0.00724401
0.0068819
0.00653312
0.00622305
0.00601516
0.00593606
0.00600586
0.00622409
0.00648536
0.00684709
0.00724662
0.00763421
0.00798513
0.0082851
0.00855726
0.00881822
0.00907528
0.0093376
0.00897424
0.00924349
0.00945978
0.00954378
0.00947413
0.00930021
0.00906263
0.00878538
0.0084791
0.00814859
0.00778968
0.0074149
0.00701921
0.00663207
0.00625966
0.00592036
0.00567683
0.00556521
0.00559929
0.0057716
0.00601881
0.00639742
0.00683
0.00726429
0.00767095
0.00803822
0.00836793
0.00867349
0.00896351
0.00924867
0.00877067
0.00903203
0.00922338
0.00928927
0.0092103
0.00903081
0.00878758
0.00850236
0.00818408
0.00783762
0.00746048
0.00706281
0.00664742
0.00624331
0.0058618
0.0055102
0.00524929
0.00512578
0.00514149
0.00527708
0.00550585
0.00589827
0.00634803
0.00680974
0.0072453
0.00764952
0.00803163
0.00839069
0.00871649
0.00903169
0.00844077
0.00868922
0.00885292
0.00889149
0.00879352
0.00860019
0.00834412
0.00804492
0.0077118
0.00735087
0.00696302
0.00655227
0.00613027
0.00572465
0.00535141
0.00500492
0.00474796
0.00462219
0.00463575
0.00474941
0.00496652
0.00534937
0.00580034
0.00627024
0.00673045
0.00716894
0.00758625
0.00797855
0.00833524
0.00866885
0.00795296
0.00818284
0.00830627
0.00830917
0.00818352
0.00797116
0.00770113
0.00739175
0.00705347
0.00669372
0.00631524
0.00591899
0.00551436
0.00513262
0.00478989
0.00447013
0.00422928
0.00410759
0.00411642
0.00421779
0.00441524
0.00476991
0.00519023
0.00564182
0.00610224
0.00655508
0.0069928
0.00740797
0.00778716
0.00813249
0.0072644
0.00746085
0.00753595
0.00750175
0.00735222
0.00713116
0.006865
0.00657054
0.00625828
0.00593439
0.00560106
0.00525878
0.00490804
0.00458051
0.00429276
0.00401592
0.00380157
0.0036898
0.00369139
0.00377132
0.00392703
0.00421218
0.00456437
0.0049574
0.00537588
0.00580541
0.00623366
0.0066487
0.00703382
0.00738197
0.00635054
0.00650256
0.00654114
0.00649195
0.00635012
0.00615901
0.00594062
0.00570763
0.0054668
0.00522036
0.00496847
0.00471119
0.00444526
0.00418889
0.00396361
0.00375003
0.00358548
0.00348839
0.00347468
0.003524
0.00362973
0.0038108
0.00403613
0.0043305
0.00465742
0.00500537
0.00536827
0.00573272
0.00608302
0.00640496
0.0053473
0.00546355
0.00550058
0.00547993
0.00539421
0.00527985
0.00514992
0.00501096
0.00486466
0.00470905
0.00454348
0.00436851
0.00417511
0.00398587
0.00382483
0.00365581
0.00352417
0.00344396
0.00342054
0.00344722
0.00351634
0.0036308
0.00376464
0.00392961
0.00413352
0.00437361
0.00462613
0.00487994
0.00513032
0.00536531
0.00462674
0.0047149
0.00476388
0.00478136
0.00475578
0.00471211
0.00465442
0.00458578
0.00450648
0.00440959
0.00429266
0.00415761
0.00402729
0.00388148
0.00374483
0.00360842
0.00350447
0.00344148
0.00342015
0.00343573
0.00348081
0.00355752