/*--------------------------------*- C++ -*----------------------------------*\
  =========                 |
  \\      /  F ield         | OpenFOAM: The Open Source CFD Toolbox
   \\    /   O peration     | Website:  https://openfoam.org
    \\  /    A nd           | Version:  12
     \\/     M anipulation  |
\*---------------------------------------------------------------------------*/
FoamFile
{
    format      ascii;
    class       volScalarField;
    location    "450/air";
    object      epsilon;
}
// * * * * * * * * * * * * * * * * * * * * * * * * * * * * * * * * * * * * * //

dimensions      [0 2 -3 0 0 0 0];

internalField   nonuniform List<scalar> 
243000
(
6.58857
7.36967
7.71382
7.84679
7.7907
7.59105
7.27559
6.87122
6.39571
5.88491
5.37062
4.91937
4.50851
4.09717
3.62874
3.10497
2.58973
2.88442
4.35387
6.22081
7.00503
6.64616
5.57665
4.18499
3.26183
2.90327
2.76743
2.74623
2.91078
3.33773
4.64726
4.92971
4.8675
4.68023
4.43846
4.16963
3.88522
3.59269
3.29529
3.00653
2.73477
2.50246
2.28991
2.10141
1.9023
1.69741
1.54665
2.07687
3.6669
5.39237
6.04311
5.80132
5.03424
4.05526
3.18727
2.71034
2.50154
2.37833
2.40521
2.56731
5.39132
5.46985
5.20072
4.8302
4.43228
4.03632
3.65396
3.29202
2.9526
2.64642
2.37818
2.16154
1.96767
1.79948
1.62776
1.45489
1.35314
1.88926
3.46516
5.14842
5.88042
5.82776
5.28568
4.51566
3.75991
3.24866
3.03971
2.9449
3.02218
3.24686
6.41932
6.49959
6.20212
5.79157
5.34497
4.89325
4.4495
4.02361
3.62127
3.25868
2.94486
2.69512
2.46505
2.25541
2.03366
1.80187
1.66478
2.31967
4.31517
6.40671
7.34673
7.35697
6.78369
5.93701
5.05923
4.39194
4.05105
3.89628
3.96273
4.20319
7.18457
7.26218
6.96334
6.5465
6.08559
5.60947
5.13097
4.66285
4.21555
3.81129
3.46354
3.18835
2.92721
2.67671
2.40114
2.10164
1.9121
2.61721
4.90829
7.32211
8.43877
8.53199
7.97701
7.11657
6.18502
5.42176
4.97466
4.75649
4.80708
5.08309
7.75848
7.82872
7.54281
7.13959
6.6853
6.20495
5.71022
5.21633
4.73867
4.30517
3.93262
3.63701
3.34823
3.05782
2.72524
2.35336
2.11753
2.80614
5.25792
7.92544
9.19498
9.37985
8.87669
8.04459
7.11026
6.30304
5.78528
5.5191
5.54965
5.85793
8.18623
8.24728
7.98296
7.60517
7.17008
6.69809
6.19956
5.69206
5.19546
4.74245
4.35201
4.03897
3.72448
3.39504
3.00369
2.55919
2.30908
2.95949
5.43347
8.24383
9.65919
9.93463
9.50403
8.72862
7.82825
7.01841
6.46557
6.17634
6.18793
6.5216
8.49665
8.54987
8.31362
7.96854
7.5602
7.1043
6.61024
6.09777
5.59092
5.12575
4.72231
4.39327
4.05422
3.68636
3.23627
2.72628
2.48084
3.11011
5.48666
8.3626
9.86907
10.2339
9.88673
9.1871
8.34674
7.56589
7.00922
6.71919
6.71867
7.07378
8.70754
8.75811
8.55555
8.24784
7.87081
7.43589
6.95167
6.44034
5.92957
5.45757
5.04435
4.69996
4.33727
3.93093
3.42456
2.87704
2.63726
3.24939
5.46851
8.32918
9.90136
10.3194
10.0558
9.44868
8.68743
7.95414
7.41737
7.14578
7.14342
7.51848
8.838
8.88983
8.72375
8.45631
8.11325
7.70215
7.23143
6.72554
6.2153
5.74015
5.31919
4.95971
4.5739
4.12962
3.57198
3.01849
2.78122
3.37455
5.45461
8.14814
9.75303
10.2258
10.0247
9.50482
8.84627
8.1913
7.69267
7.45636
7.46777
7.86283
8.89908
8.95748
8.8283
8.60289
8.29532
7.90985
7.45503
6.95774
6.45118
5.9755
5.54804
5.17407
4.76468
4.28439
3.68422
3.14496
2.91292
3.48411
5.43364
7.89209
9.46984
9.99061
9.85484
9.41162
8.8367
8.27429
7.84591
7.6528
7.69451
8.11189
8.89596
8.96952
8.87904
8.6953
8.42253
8.06239
7.62508
7.13942
6.63941
6.16534
5.73258
5.34403
4.91157
4.39839
3.77209
3.25755
3.03281
3.57811
5.40301
7.66746
9.12509
9.65466
9.57352
9.20617
8.71366
8.23048
7.87784
7.7479
7.82011
8.27472
8.84041
8.93337
8.88485
8.74024
8.50141
8.16647
7.74661
7.27273
6.78092
6.3111
5.87411
5.47111
5.01699
4.47611
3.8583
3.36101
3.1421
3.65736
5.36095
7.45861
8.81827
9.30939
9.24013
8.91827
8.50267
8.09577
7.81718
7.75259
7.8643
8.35804
8.73621
8.8525
8.84623
8.74348
8.53556
8.22478
7.82283
7.3624
6.87937
6.41311
5.97341
5.55672
5.08312
4.52367
3.93627
3.45651
3.24177
3.72293
5.30711
7.25637
8.53337
8.99305
8.93611
8.64935
8.26798
7.89384
7.68029
7.67688
7.83931
8.37316
8.58387
8.72992
8.76612
8.7041
8.5295
8.24128
7.85636
7.41054
6.93809
6.47672
6.03401
5.60516
5.11682
4.55615
4.00641
3.54514
3.33281
3.77609
5.24183
7.05546
8.26027
8.69528
8.65042
8.39376
8.04622
7.70546
7.49765
7.53306
7.74646
8.32332
8.38588
8.56671
8.64503
8.6229
8.47952
8.21578
7.85122
7.42129
6.96032
6.50498
6.06129
5.62347
5.12687
4.59294
4.07273
3.62853
3.41643
3.81816
5.1659
6.8531
7.99311
8.40888
8.37553
8.14567
7.83117
7.5233
7.32829
7.33889
7.59382
8.21252
8.14678
8.3646
8.48411
8.50017
8.38547
8.14622
7.80297
7.39256
6.94761
6.50205
6.06027
5.6161
5.13373
4.632
4.13736
3.70824
3.49407
3.85069
5.08077
6.64747
7.72814
8.12891
8.10645
7.90126
7.61872
7.34292
7.16556
7.16399
7.39283
8.04591
7.87488
8.12765
8.2856
8.33627
8.24986
8.03251
7.71239
7.32444
6.89861
6.466
6.03451
5.60425
5.14915
4.67437
4.2019
3.78574
3.56696
3.87491
4.98746
6.43736
7.46297
7.85183
7.84
7.6581
7.40631
7.16169
7.00497
7.00079
7.20526
7.82782
7.63189
7.88893
8.0652
8.13693
8.07681
7.88225
7.58771
7.23237
6.83799
6.43017
6.01894
5.60551
5.1725
4.72077
4.26773
3.86241
3.63644
3.89224
4.88721
6.22261
7.19581
7.57526
7.57414
7.41472
7.19252
6.97813
6.84405
6.84402
7.03248
7.56958
7.40989
7.67137
7.8625
7.94791
7.90637
7.73571
7.47113
7.14698
6.78307
6.40104
6.01097
5.61539
5.20269
4.77158
4.33596
3.93959
3.704
3.90485
4.78172
6.00415
6.9257
7.29798
7.30793
7.17071
6.97714
6.79192
6.68229
6.69004
6.86857
7.33919
7.202
7.46832
7.67129
7.7688
7.74502
7.59647
7.35943
7.0653
6.73132
6.37602
6.0089
5.63218
5.23884
4.82718
4.4076
4.0186
3.7713
3.91541
4.67391
5.78326
6.65238
7.01877
7.04087
6.92592
6.76032
6.60434
6.51923
6.53711
6.70954
7.12787
7.00297
7.27447
7.48625
7.59534
7.58859
7.46109
7.25007
6.98501
6.68104
6.3537
6.01121
5.65496
5.2807
4.88798
4.48371
4.10095
3.8403
3.92645
4.56694
5.56259
6.37666
6.73696
6.77207
6.67984
6.54214
6.41667
6.3549
6.38435
6.55376
6.9285
6.80788
7.08463
7.30454
7.42435
7.43371
7.32694
7.1412
6.9046
6.63171
6.33361
6.01744
5.68358
5.3289
4.95499
4.56593
4.18901
3.91382
3.94201
4.46691
5.34628
6.10095
6.45399
6.50183
6.43214
6.32286
6.22816
6.18838
6.23051
6.39903
6.73619
6.61406
6.89719
7.12473
7.25372
7.27773
7.19188
7.0319
6.82441
6.58301
6.31557
6.02828
5.719
5.38567
5.03149
4.65863
4.28814
3.99786
3.96843
4.38035
5.1422
5.83163
6.17444
6.23316
6.18501
6.1051
6.03954
6.02091
6.0766
6.24456
6.54805
6.42168
6.71149
6.94559
7.08198
7.11907
7.05492
6.92165
6.74491
6.53643
6.30335
6.04863
5.7675
5.46063
5.1295
4.77592
4.41407
4.1093
4.02213
4.322
4.96454
5.5827
5.90904
5.97458
5.94575
5.89408
5.85528
5.85621
5.92521
6.09139
6.36413
6.23511
6.52599
6.76787
6.90969
6.95886
6.91827
6.81495
6.67312
6.50519
6.31405
6.098
5.85701
5.58793
5.28919
4.96243
4.61393
4.2949
4.14876
4.34229
4.85265
5.38886
5.68599
5.75077
5.73467
5.70386
5.68603
5.70361
5.78281
5.94382
6.18723
6.06953
6.35866
6.60227
6.75502
6.81843
6.80856
6.74829
6.65942
6.54736
6.41716
6.26608
6.09067
5.88429
5.64005
5.35486
5.02595
4.68869
4.47432
4.54923
4.92082
5.35437
5.59457
5.6384
5.61538
5.58612
5.57449
5.59799
5.67598
5.82265
6.03376
6.01489
6.30508
6.55781
6.74376
6.85294
6.90989
6.93614
6.94695
6.94436
6.93243
6.9057
6.854
6.76037
6.60554
6.38091
6.07105
5.69698
5.38821
5.31597
5.516
5.80558
5.95341
5.92462
5.84557
5.77111
5.72058
5.70966
5.74978
5.84957
6.00107
6.91798
7.24302
7.55989
7.86037
8.1223
8.3638
8.59494
8.81679
9.0272
9.24712
9.45064
9.61058
9.68269
9.63919
9.4584
9.1277
8.67188
8.22966
7.96295
7.94183
8.03356
8.02887
7.8592
7.65359
7.45233
7.26968
7.12035
7.01193
6.9591
6.96811
15.5593
15.9072
16.2605
16.659
17.034
17.4221
17.734
17.9799
18.1929
18.5371
18.8362
19.0289
19.0407
18.8859
18.5213
18.0281
17.4711
17.0162
16.7287
16.631
16.6796
16.7275
16.7228
16.6869
16.6113
16.4884
16.3266
16.1281
15.9144
15.703
11.8808
13.9565
14.7319
14.8307
14.4387
13.7049
12.7176
11.5579
10.2847
8.99852
7.76405
6.70574
5.75902
5.06352
4.59415
5.24787
8.30949
15.0376
19.8032
22.388
22.6583
21.241
18.797
15.9823
13.3247
11.0668
9.28424
7.70094
6.82586
6.16853
8.17889
8.41928
8.56594
8.56773
8.36987
7.99804
7.48219
6.85948
6.17493
5.47951
4.84222
4.3016
3.85224
3.64958
3.73003
4.68513
7.14697
11.5118
14.2586
15.6158
15.8581
15.2334
14.0042
12.4838
10.9272
9.43398
8.16118
6.99296
6.28505
5.88472
8.06605
7.77294
7.57114
7.41714
7.22676
6.95286
6.57915
6.11508
5.58676
5.04218
4.5584
4.15938
3.82925
3.73596
3.93839
4.9174
7.19831
10.9032
13.2057
14.3597
14.6738
14.2968
13.4107
12.2494
10.957
9.70372
8.5803
7.51041
6.84235
6.5285
8.19177
7.62253
7.23521
6.98672
6.78914
6.56301
6.26526
5.88787
5.4401
4.98914
4.59711
4.27463
4.00438
3.95713
4.19674
5.10342
7.23484
10.505
12.5877
13.6839
14.0678
13.8501
13.1731
12.2012
11.1235
10.0203
9.0006
8.00052
7.35904
7.09102
8.27392
7.5544
7.04062
6.73866
6.53687
6.34186
6.09592
5.77808
5.40076
5.01891
4.69053
4.42377
4.19377
4.16627
4.4025
5.19148
7.14433
10.0627
11.9957
13.0693
13.5125
13.4163
12.9006
12.0791
11.134
10.1769
9.27008
8.36312
7.73008
7.48211
8.28155
7.46425
6.886
6.54949
6.34651
6.17385
5.96678
5.69946
5.38096
5.05502
4.78011
4.55506
4.35475
4.3324
4.54229
5.20486
6.94123
9.5533
11.3693
12.4322
12.9189
12.9124
12.5259
11.846
11.0129
10.1487
9.33818
8.55027
7.94828
7.69633
8.19355
7.33652
6.73333
6.38164
6.18164
6.02672
5.85036
5.62475
5.35798
5.08139
4.85055
4.65682
4.47793
4.45051
4.61924
5.15328
6.65523
8.98069
10.7247
11.7719
12.2845
12.341
12.0557
11.5008
10.7777
10.0024
9.2623
8.55103
7.9879
7.73902
8.03036
7.17491
6.57391
6.22286
6.03016
5.89085
5.73967
5.54914
5.32697
5.09459
4.89858
4.72759
4.56277
4.5225
4.64184
5.05658
6.34042
8.38443
10.0729
11.1071
11.6292
11.7246
11.5154
11.0643
10.4499
9.75993
9.08676
8.44693
7.91549
7.666
7.81333
6.98626
6.40739
6.06942
5.88803
5.76358
5.63367
5.47292
5.28781
5.09588
4.92404
4.76884
4.61202
4.5544
4.62191
4.94171
6.04627
7.82766
9.4353
10.4604
10.9775
11.0894
10.9327
10.565
10.0445
9.44369
8.83653
8.25995
7.76678
7.51199
7.55984
6.77966
6.23631
5.92079
5.75421
5.64451
5.5329
5.39689
5.2411
5.08338
4.93229
4.78428
4.62988
4.55287
4.57395
4.8323
5.78558
7.35487
8.83844
9.85071
10.3501
10.4598
10.3354
10.0305
9.58708
9.06501
8.52729
8.01442
7.56171
7.302
7.28441
6.56382
6.06428
5.77779
5.62882
5.53375
5.43805
5.32224
5.19052
5.05675
4.92401
4.7818
4.62371
4.5262
4.5175
4.73124
5.55849
6.94771
8.31951
9.30217
9.76709
9.85816
9.74797
9.48624
9.10346
8.64813
8.17255
7.71545
7.31027
7.05549
6.99692
6.34495
5.89482
5.64169
5.51231
5.43151
5.34954
5.24993
5.13689
5.01982
4.89718
4.75735
4.59714
4.48432
4.46519
4.64274
5.36716
6.59638
7.87518
8.8291
9.2538
9.30629
9.19157
8.95359
8.61541
8.21465
7.79366
7.39544
7.03003
6.78949
6.70631
6.12755
5.73047
5.51372
5.4051
5.33786
5.26758
5.18074
5.08142
4.97607
4.85948
4.72033
4.55889
4.43961
4.41846
4.57068
5.21031
6.2974
7.50209
8.42686
8.81529
8.82748
8.68942
8.45209
8.14111
7.78188
7.40737
7.05864
6.7348
6.51353
6.41919
5.91537
5.57371
5.3948
5.30719
5.25255
5.19233
5.1157
5.02643
4.9287
4.81575
4.67722
4.51859
4.40905
4.38477
4.5187
5.08567
6.05365
7.19529
8.09182
8.44819
8.42264
8.25397
8.00451
7.70016
7.36534
7.02743
6.71968
6.43573
6.23536
6.13888
5.71081
5.42729
5.28548
5.21848
5.17557
5.12443
5.05653
4.97512
4.88251
4.77242
4.63665
4.48915
4.39578
4.37118
4.48972
4.99344
5.8635
6.94941
7.81967
8.15001
8.08974
7.88643
7.61536
7.30679
6.98368
6.66673
6.38912
6.14126
5.96302
5.8721
5.51788
5.29291
5.18698
5.14
5.10846
5.06622
5.0064
4.93218
4.84462
4.73821
4.61042
4.48555
4.40572
4.38351
4.48832
4.93569
5.72309
6.75806
7.60539
7.91746
7.82646
7.58699
7.28798
6.96644
6.64569
6.34078
6.07829
5.85885
5.70271
5.62688
5.34321
5.17403
5.10221
5.07475
5.05493
5.0224
4.97071
4.9057
4.82728
4.73207
4.61622
4.51082
4.44534
4.42741
4.51886
4.91433
5.62734
6.61361
7.44336
7.7463
7.63018
7.35474
7.02411
6.68362
6.35735
6.0572
5.80376
5.59761
5.46022
5.41196
5.19413
5.07664
5.03659
5.02854
5.0217
5.00087
4.96429
4.91121
4.84117
4.75672
4.65795
4.57469
4.52241
4.50991
4.58839
4.93751
5.58847
6.51867
7.32782
7.63077
7.49857
7.18868
6.82397
6.46168
6.12504
5.8236
5.57301
5.37425
5.24336
5.24694
5.08656
5.01294
5.00038
5.01193
5.02098
5.01552
4.99442
4.95564
4.89846
4.82807
4.74827
4.68673
4.64774
4.64106
4.70626
5.00719
5.60813
6.48305
7.26165
7.56749
7.42693
7.08729
6.69256
6.30697
5.95478
5.64591
5.39359
5.1981
5.06503
5.13436
5.03125
5.00156
5.01276
5.04467
5.07165
5.08396
5.07802
5.05466
5.01266
4.95934
4.90078
4.86261
4.83794
4.83724
4.88795
5.13841
5.67304
6.50143
7.2564
7.55313
7.39717
7.03181
6.61397
6.21085
5.84618
5.53101
5.27506
5.07828
4.94744
5.08358
5.03723
5.04405
5.08293
5.13841
5.18539
5.21698
5.22867
5.22329
5.20256
5.17325
5.13977
5.12809
5.1209
5.12701
5.16089
5.35475
5.80977
6.56785
7.2921
7.58732
7.41304
7.01783
6.58345
6.16761
5.79365
5.47339
5.21514
5.01992
4.89297
5.10301
5.1036
5.15209
5.22304
5.30672
5.37771
5.43292
5.46761
5.48974
5.50612
5.51567
5.51254
5.5288
5.54816
5.56387
5.5771
5.70292
6.05894
6.71427
7.38447
7.68173
7.50375
7.07389
6.61613
6.18488
5.80016
5.47395
5.21428
5.0237
4.90625
5.20177
5.25002
5.34368
5.45368
5.5733
5.6763
5.76532
5.83696
5.91774
5.99225
6.06129
6.1109
6.15797
6.22196
6.25588
6.24265
6.2787
6.50579
7.02152
7.59992
7.87719
7.68673
7.22963
6.75737
6.31324
5.91891
5.58615
5.32116
5.12697
5.01409
5.40525
5.50511
5.65284
5.81455
5.98471
6.13541
6.2892
6.43866
6.60483
6.77723
6.95122
7.10788
7.21928
7.36111
7.43684
7.39191
7.29454
7.33144
7.64713
8.07627
8.28612
8.04204
7.53452
7.03473
6.57331
6.16633
5.82245
5.54794
5.34911
5.23981
5.77113
5.9325
6.15348
6.39377
6.64685
6.89374
7.16145
7.45548
7.78687
8.1463
8.52393
8.88995
9.18744
9.46553
9.64374
9.57009
9.26256
8.97426
8.96637
9.13781
9.18557
8.78969
8.16763
7.59523
7.08551
6.64339
6.27072
5.97072
5.75517
5.64147
6.44567
6.69693
7.03701
7.41746
7.83179
8.27392
8.78438
9.37436
10.0447
10.7885
11.5888
12.397
13.1387
13.7093
14.1148
14.0154
13.3483
12.485
11.8712
11.5637
11.2526
10.5179
9.63061
8.85947
8.2001
7.64109
7.17341
6.79393
6.51971
6.37143
7.90146
8.32218
8.89393
9.56054
10.3336
11.2131
12.2607
13.484
14.8642
16.3986
18.0565
19.7473
21.3453
22.573
23.2643
23.0329
21.7043
19.8699
18.2027
17.0126
16.0266
14.6814
13.2809
12.0445
10.9779
10.0667
9.30215
8.67555
8.21529
7.9327
11.7085
12.5104
13.6027
14.9031
16.4831
18.3098
20.4518
22.8981
25.5638
28.4298
31.4059
34.3072
36.8751
38.6373
39.0495
37.972
35.5316
32.5461
29.6739
27.4367
25.6847
23.8308
21.9168
20.0693
18.2757
16.5778
15.0436
13.7178
12.6748
11.9517
22.7903
24.38
26.4322
28.7848
31.6054
34.7461
38.2081
41.8533
45.5473
49.0059
51.9771
54.3064
55.5995
55.1035
53.067
49.7687
46.2078
42.9051
40.09
38.0249
36.7138
36.1346
35.4132
34.515
33.2423
31.5312
29.4042
27.0825
25.0021
23.3656
43.5114
46.3703
49.0527
51.2259
53.5477
55.7706
57.5724
58.9987
60.0086
60.1494
59.237
57.5562
55.2643
52.4028
48.5039
44.423
41.1465
38.6133
36.7332
35.559
35.0907
35.5741
36.6773
38.2189
39.8959
41.4777
42.7285
43.4006
43.4771
43.5105
18.1297
20.5525
21.408
21.4367
20.7902
19.6463
18.1275
16.3586
14.4212
12.4574
10.5137
8.76109
7.56916
7.90695
10.109
16.6929
25.2683
36.3499
42.6381
45.0387
44.0253
40.835
36.4266
31.5997
26.8715
22.5079
18.7432
15.283
12.7297
10.4868
11.076
10.9011
10.8564
10.8536
10.6819
10.3155
9.75486
9.03262
8.19454
7.2918
6.40672
5.56654
5.21601
5.95225
7.92677
12.0839
17.0095
22.3971
25.1164
26.0902
25.6611
24.2948
22.3478
20.0758
17.702
15.3767
13.3016
11.3511
9.95355
8.85734
10.5686
9.80389
9.28644
9.0131
8.81593
8.58071
8.24004
7.7748
7.20148
6.56015
5.9284
5.34196
5.19903
6.01638
7.87022
11.3359
15.2951
19.3413
21.3989
22.1677
21.9538
21.0651
19.7167
18.0622
16.2596
14.4531
12.772
11.1336
9.96094
9.15018
10.5178
9.41493
8.70012
8.29571
8.07318
7.88767
7.6459
7.30463
6.86566
6.36239
5.88016
5.44807
5.41456
6.24484
7.9537
10.9478
14.3129
17.6281
19.407
20.1265
20.0585
19.4443
18.4277
17.1151
15.6323
14.0831
12.6129
11.1678
10.1367
9.42208
10.3655
9.14132
8.31668
7.857
7.62383
7.46841
7.28629
7.02473
6.67988
6.28088
5.91409
5.59956
5.6406
6.44486
7.9835
10.573
13.4607
16.2548
17.8509
18.549
18.5886
18.1704
17.3944
16.3371
15.0968
13.7389
12.4345
11.139
10.1735
9.51821
10.0917
8.83657
7.97853
7.50654
7.27723
7.145
7.00512
6.80333
6.53505
6.22812
5.95078
5.73353
5.83019
6.58638
7.95057
10.1627
12.6378
15.0186
16.4666
17.1415
17.2554
16.9781
16.3869
15.5354
14.4967
13.3177
12.1494
10.9894
10.0663
9.42641
9.74492
8.50252
7.65654
7.19483
6.97754
6.86559
6.75894
6.60599
6.40303
6.1733
5.97386
5.83649
5.97369
6.66952
7.85305
9.72027
11.8331
13.8736
15.191
15.8362
15.9934
15.8136
15.3628
14.6779
13.8104
12.8034
11.7567
10.7173
9.84266
9.23896
9.34275
8.15103
7.34443
6.90692
6.70648
6.6134
6.53441
6.42278
6.27586
6.11349
5.98105
5.90726
6.0707
6.68316
7.7011
9.26381
11.0536
12.8157
14.018
14.6268
14.7989
14.6792
14.3309
13.7792
13.0569
12.1981
11.2836
10.3508
9.52908
8.95375
8.91234
7.79443
7.0423
6.63812
6.45785
6.38291
6.32754
6.25097
6.15151
6.04597
5.96744
5.94698
6.12532
6.65623
7.51502
8.80361
10.3058
11.8444
12.949
13.5193
13.6845
13.5952
13.3168
12.8662
12.2624
11.5311
10.7354
9.91887
9.1581
8.6036
8.47448
7.44254
6.75245
6.38757
6.22979
6.17237
6.1372
6.0899
6.02967
5.97054
5.93704
5.95531
6.12982
6.59426
7.31211
8.36285
9.63056
10.9662
11.9906
12.5239
12.6652
12.5831
12.347
11.9697
11.4595
10.8353
10.1441
9.43282
8.74346
8.21822
8.0424
7.10306
6.47892
6.15589
6.02194
5.98109
5.96297
5.93952
5.91089
5.88888
5.89103
5.93875
6.10736
6.50442
7.10341
7.96512
9.03732
10.2027
11.1553
11.6521
11.7545
11.6613
11.4433
11.1147
10.6763
10.14
9.53979
8.92224
8.30778
7.81917
7.62416
6.78048
6.22388
5.94377
5.83415
5.80869
5.8046
5.80015
5.79651
5.80329
5.83217
5.90139
6.06243
6.40097
6.90753
7.61486
8.52536
9.54736
10.4373
10.9014
10.9662
10.8453
10.6218
10.3188
9.93247
9.46708
8.94514
8.40993
7.86806
7.42374
7.22543
6.47721
5.98875
5.75158
5.66614
5.65483
5.66212
5.67273
5.68832
5.71678
5.76599
5.85061
6.00491
6.30349
6.7326
7.31533
8.09314
8.99486
9.83002
10.2676
10.2961
10.1408
9.89614
9.59595
9.24174
8.83107
8.37544
7.91101
7.43645
7.03707
6.8492
6.19482
5.77444
5.57949
5.5178
5.51885
5.53614
5.55922
5.59007
5.63511
5.70024
5.79715
5.95064
6.22185
6.58696
7.06956
7.73856
8.54121
9.32626
9.74534
9.74295
9.54984
9.27304
8.95912
8.61571
8.24296
7.84064
7.43515
7.02179
6.66746
6.49554
5.93452
5.58204
5.42812
5.38974
5.40166
5.42897
5.4635
5.50748
5.5668
5.64595
5.75656
5.92218
6.16577
6.47881
6.88069
7.45943
8.18054
8.92033
9.32943
9.30342
9.07193
8.75604
8.41594
8.06774
7.71308
7.34881
6.99051
6.63095
6.32047
6.1704
5.69842
5.41406
5.29993
5.28414
5.30696
5.34555
5.39223
5.44938
5.52428
5.62035
5.74501
5.91757
6.14495
6.41676
6.75262
7.25507
7.90749
8.6074
9.01421
8.97329
8.70496
8.34595
7.97185
7.60598
7.25436
6.91086
6.58616
6.27069
6.00059
5.88087
5.49494
5.27508
5.19977
5.20544
5.24095
5.29415
5.35634
5.42922
5.51809
5.63499
5.77772
5.96002
6.17205
6.41126
6.6915
7.12773
7.71918
8.38453
8.79286
8.74883
8.4464
8.04402
7.63043
7.2371
6.87518
6.53841
6.23336
5.9495
5.71361
5.6347
5.33156
5.17305
5.13527
5.16227
5.21353
5.28223
5.36366
5.4591
5.56841
5.70571
5.86631
6.06031
6.26251
6.47669
6.70797
7.08424
7.61676
8.24987
8.66145
8.62829
8.29608
7.85069
7.39376
6.96634
6.58422
6.24172
5.94305
5.67916
5.46843
5.44253
5.21734
5.11856
5.11325
5.16061
5.23816
5.32999
5.43424
5.55282
5.68758
5.84997
6.03125
6.23979
6.43842
6.63477
6.82027
7.1383
7.62792
8.2282
8.62313
8.59867
8.23349
7.75176
7.2602
6.80156
6.39033
6.03092
5.72662
5.47175
5.27802
5.31406
5.17026
5.12302
5.14793
5.22518
5.32909
5.44891
5.58169
5.73164
5.90052
6.09604
6.30457
6.53293
6.73366
6.92064
7.0608
7.31618
7.73748
8.29424
8.68287
8.68041
8.26078
7.7265
7.20362
6.71882
6.2838
5.90851
5.59563
5.3398
5.15263
5.27338
5.19613
5.19205
5.25649
5.3692
5.50727
5.66333
5.83473
6.0289
6.24596
6.48853
6.73648
6.99463
7.20797
7.39413
7.48725
7.66973
8.00493
8.49694
8.86383
8.88257
8.43811
7.84996
7.25757
6.71589
6.25498
5.86281
5.53946
5.28115
5.09754
5.32831
5.30609
5.35415
5.4648
5.62241
5.80644
6.01267
6.24026
6.50018
6.78875
7.10247
7.41255
7.71978
7.96495
8.16326
8.20463
8.29574
8.51493
8.90558
9.22709
9.24116
8.76933
8.13183
7.49021
6.89938
6.3829
5.94876
5.59688
5.32531
5.14144
5.50944
5.53794
5.64695
5.81526
6.03479
6.28514
6.56649
6.88143
7.24406
7.64445
8.07175
8.48625
8.88145
9.1935
9.43043
9.41976
9.38477
9.43281
9.66979
9.89605
9.85705
9.32646
8.6254
7.91744
7.26466
6.69438
6.21387
5.8232
5.52206
5.32394
5.86486
5.95337
6.13887
6.38752
6.70007
7.05442
7.45748
7.91671
8.44701
9.03118
9.6494
10.248
10.8085
11.2544
11.5853
11.5356
11.3167
11.0961
11.0876
11.1311
10.9533
10.2939
9.47739
8.6646
7.91589
7.26414
6.71478
6.26638
5.92058
5.69741
6.5069
6.67714
6.97352
7.34795
7.8132
8.34457
8.95785
9.66753
10.4856
11.3848
12.3348
13.2644
14.1391
14.8453
15.3716
15.3103
14.8295
14.1949
13.7619
13.4588
12.9996
12.0801
11.0356
10.0302
9.10656
8.30387
7.62967
7.07791
6.65147
6.37723
7.70921
8.00896
8.48824
9.08019
9.81644
10.6687
11.6638
12.8232
14.1459
15.5916
17.1149
18.6218
20.0587
21.2252
22.0724
22.0153
21.1303
19.7965
18.6171
17.7152
16.8472
15.5329
14.0728
12.7012
11.4429
10.3352
9.40125
8.63457
8.03769
7.64828
10.2147
10.7441
11.5515
12.5395
13.7769
15.2202
16.9053
18.8493
21.0146
23.3365
25.7455
28.1092
30.3453
32.0676
33.0839
32.2857
30.311
27.94
25.8521
24.2548
22.9825
21.6059
20.019
18.1353
16.3101
14.6368
13.17
11.9358
10.9508
10.2847
16.0989
17.033
18.4084
20.069
22.1533
24.5545
27.3005
30.3569
33.6085
36.9377
40.2163
43.2414
45.7863
46.9062
46.215
43.5122
40.1404
36.7539
33.9499
31.9223
30.6067
29.7422
28.8568
27.718
25.9735
23.7614
21.5562
19.5028
17.7167
16.4292
29.8462
31.3386
33.3624
35.7008
38.5884
41.8024
45.2949
48.9166
52.4641
55.708
58.326
59.9475
59.7964
57.9129
54.4443
49.4516
44.8726
41.0086
38.1084
36.2661
35.4816
35.7512
36.4097
37.1736
37.6819
37.6786
36.6276
34.7264
32.461
30.5206
48.0798
50.7981
53.0954
55.0385
57.2366
59.4417
61.4959
63.3073
64.6285
65.0867
64.2224
62.0219
58.6332
54.2526
48.9004
43.0217
38.3945
34.951
32.5526
31.2291
30.925
31.8187
33.5415
35.8678
38.4941
41.1546
43.6204
45.63
47.0691
47.9995
24.2872
27.4459
28.013
27.8789
26.9921
25.5059
23.5668
21.3127
18.8163
16.196
13.4378
10.7656
10.1864
14.4909
22.8997
35.0805
48.5385
64.7764
72.5781
73.7577
70.2406
64.242
57.0297
49.597
42.4213
35.7312
29.758
24.0846
19.4403
15.0958
13.7784
13.4983
13.1483
13.091
12.9311
12.5685
11.9827
11.1964
10.2448
9.15619
7.98039
6.75549
7.08658
10.0713
15.044
21.3265
27.8711
34.7682
37.5858
37.8304
36.2944
33.7875
30.7891
27.5881
24.3771
21.2608
18.4216
15.7036
13.6909
11.8421
12.7997
11.7274
10.9288
10.5489
10.3437
10.1415
9.83343
9.37141
8.75924
8.01907
7.21618
6.40221
6.96138
9.54965
13.5362
18.3645
23.3519
28.3038
30.3124
30.4802
29.463
27.7738
25.7207
23.4627
21.1251
18.7797
16.604
14.4979
12.9693
11.6418
12.4767
11.004
10.037
9.52704
9.29086
9.14374
8.94858
8.62991
8.18043
7.6234
7.02532
6.48411
7.15767
9.47649
12.8309
16.8463
20.9336
24.8561
26.5439
26.7562
26.0568
24.814
23.2592
21.4952
19.6145
17.6687
15.816
13.9926
12.6453
11.4664
12.1059
10.478
9.43632
8.88563
8.64627
8.53051
8.39719
8.16608
7.82848
7.40831
6.97951
6.65297
7.38808
9.46104
12.3341
15.7003
19.0977
22.2868
23.7714
24.0352
23.5637
22.6302
21.4197
20.0046
18.4524
16.8004
15.1704
13.558
12.3047
11.2696
11.5908
9.9564
8.92198
8.38173
8.15641
8.06507
7.97379
7.80772
7.56079
7.25825
6.98105
6.8294
7.59689
9.44246
11.9021
14.7074
17.5229
20.1303
21.4466
21.7419
21.4331
20.7273
19.7734
18.6274
17.3366
15.9284
14.5034
13.0616
11.8782
10.9646
10.9897
9.43154
8.45207
7.94859
7.74571
7.67674
7.61913
7.50772
7.33966
7.14166
6.99063
6.99339
7.774
9.40698
11.4975
13.8096
16.1262
18.2567
19.4161
19.7157
19.5149
18.9746
18.2153
17.2826
16.2064
15.0051
13.7615
12.4878
11.3743
10.5269
10.3665
8.92366
8.02146
7.5659
7.38916
7.34173
7.31309
7.24979
7.15155
7.04605
7.00419
7.14048
7.91943
9.35279
11.1113
12.9933
14.8863
16.6203
17.6303
17.9118
17.7739
17.3484
16.731
15.9632
15.0634
14.0406
12.9592
11.8452
10.8153
10.02
9.76174
8.44687
7.62982
7.22572
7.07721
7.05084
7.04759
7.02681
6.99012
6.96623
7.02242
7.26648
8.0346
9.28258
10.7433
12.2574
13.7961
15.2041
16.0742
16.3207
16.2102
15.8572
15.3399
14.6962
13.9379
13.0664
12.1287
11.1601
10.2258
9.48804
9.18953
8.00572
7.27627
6.92432
6.80549
6.79948
6.81843
6.83469
6.85172
6.89641
7.03909
7.37103
8.11631
9.19464
10.397
11.6049
12.8558
13.9996
14.7445
14.9421
14.8319
14.5158
14.0643
13.5117
12.864
12.1184
11.3067
10.4684
9.63413
8.95946
8.65864
7.60423
6.96028
6.65965
6.57126
6.58303
6.62238
6.67049
6.73287
6.83629
7.05252
7.45624
8.16555
9.09303
10.0792
11.0454
12.0542
12.983
13.6211
13.7775
13.6465
13.3362
12.9201
12.4298
11.8666
11.2241
10.5216
9.79767
9.06152
8.45436
8.17237
7.24347
6.68075
6.42968
6.37097
6.39828
6.45605
6.53151
6.6322
6.78847
7.06258
7.5193
8.18748
8.98787
9.80465
10.5691
11.3749
12.1276
12.677
12.7979
12.647
12.3271
11.9175
11.4626
10.9601
10.4
9.79052
9.16507
8.52151
7.98386
7.73035
6.92071
6.43555
6.23205
6.20109
6.24235
6.31697
6.41636
6.54955
6.75086
7.07065
7.56221
8.19143
8.8935
9.57297
10.1694
10.8058
11.4148
11.8919
11.9856
11.8158
11.4793
11.0637
10.6178
10.152
9.65411
9.12124
8.57936
8.0213
7.55117
7.32926
6.63264
6.2223
6.06457
6.05873
6.11334
6.20418
6.32543
6.4903
6.72485
7.08169
7.5954
8.19356
8.82239
9.38633
9.84329
10.339
10.8308
11.2504
11.3262
11.1398
10.7826
10.3515
9.90124
9.44862
8.99134
8.51773
8.04538
7.56421
7.15831
6.96481
6.37661
6.03938
5.9266
5.94209
6.01134
6.11889
6.26287
6.45343
6.71358
7.10773
7.63842
8.21967
8.7834
9.24942
9.59073
9.9705
10.366
10.741
10.8086
10.609
10.2286
9.77665
9.31098
8.85611
8.41726
7.9847
7.56712
7.1517
6.80452
6.63732
6.15192
5.88706
5.81788
5.85304
5.93925
6.06627
6.22976
6.44082
6.7385
7.1759
7.72193
8.28523
8.7777
9.17055
9.41584
9.70011
10.0152
10.3556
10.4259
10.2166
9.81231
9.33467
8.84534
8.37584
7.93916
7.52725
7.14778
6.78624
6.48934
6.35275
5.963
5.76883
5.74082
5.79601
5.90203
6.04506
6.23106
6.48544
6.82637
7.29339
7.84705
8.3945
8.8358
9.16421
9.32843
9.53255
9.78041
10.0901
10.1752
9.96003
9.52995
9.02256
8.50372
8.00937
7.56093
7.15468
6.79437
6.46984
6.21486
6.11773
5.81957
5.6936
5.70136
5.77548
5.9022
6.08105
6.30759
6.59833
6.97519
7.47113
8.0331
8.56914
8.97118
9.25196
9.34634
9.4804
9.67069
9.94967
10.0561
9.84176
9.38124
8.84213
8.28734
7.75925
7.28686
6.87282
6.51719
6.21261
5.98533
5.94391
5.73381
5.67074
5.7065
5.81694
5.97973
6.19314
6.45695
6.78812
7.20474
7.73362
8.30829
8.84046
9.21633
9.46696
9.49917
9.56799
9.70468
9.95828
10.0712
9.83227
9.32971
8.75863
8.17168
7.61444
7.11881
6.68975
6.32535
6.02562
5.8146
5.84267
5.72813
5.70869
5.78326
5.93235
6.13622
6.39225
6.70205
7.08325
7.5494
8.11789
8.71496
9.25591
9.62105
9.86196
9.83603
9.83794
9.918
10.1249
10.2405
10.0128
9.4646
8.80057
8.14818
7.55866
7.03725
6.58952
6.21414
5.91559
5.71233
5.8433
5.78984
5.82443
5.94785
6.14387
6.39945
6.71029
7.08005
7.52747
8.06041
8.68543
9.32167
9.88955
10.2656
10.5225
10.4439
10.367
10.3695
10.5089
10.6002
10.3756
9.79333
9.07285
8.35067
7.66954
7.07203
6.57604
6.18235
5.87811
5.67888
5.94942
5.95127
6.05204
6.2349
6.49084
6.81423
7.1996
7.65209
8.19245
8.82082
9.53197
10.2373
10.8629
11.2836
11.5915
11.4644
11.2987
11.1653
11.1972
11.2273
10.9806
10.3573
9.5716
8.76702
8.01169
7.34165
6.78015
6.33085
5.99259
5.77343
6.20686
6.26855
6.44378
6.70315
7.04055
7.45831
7.95051
8.5235
9.20021
9.97121
10.8179
11.6429
12.3785
12.8967
13.3085
13.1371
12.8402
12.4861
12.3376
12.2502
11.9462
11.2652
10.405
9.4776
8.61741
7.85176
7.20194
6.67963
6.28474
6.03648
6.69287
6.82529
7.09508
7.45985
7.91547
8.47304
9.12611
9.88232
10.766
11.756
12.8188
13.8471
14.7784
15.4764
16.0694
15.8693
15.2867
14.5916
14.1544
13.8693
13.4624
12.7071
11.7564
10.6793
9.64638
8.73681
7.95659
7.32353
6.84341
6.54403
7.56387
7.79113
8.195
8.71525
9.35258
10.1284
11.0324
12.0749
13.2796
14.6086
16.0125
17.373
18.6313
19.6251
20.4863
20.028
18.9761
17.77
16.9078
16.3282
15.779
14.9643
13.9441
12.7413
11.4376
10.283
9.29173
8.47464
7.85028
7.45627
9.17013
9.53735
10.1458
10.9072
11.8336
12.9586
14.2579
15.7474
17.4416
19.2804
21.1922
23.0486
24.7845
26.1682
27.1834
25.8652
24.0318
22.1012
20.686
19.7444
19.0688
18.3093
17.358
16.1407
14.6806
13.1027
11.7425
10.6057
9.71497
9.13614
12.3389
12.9189
13.8408
14.9727
16.3472
18.0096
19.8975
22.0344
24.4048
26.9127
29.4559
31.8876
34.0879
35.638
35.7127
32.737
29.7503
26.9479
24.9621
23.7057
23.0284
22.6122
22.1092
21.2743
20.0327
18.3603
16.429
14.767
13.3901
12.4421
18.9539
19.8175
21.146
22.7511
24.7041
27.0279
29.6069
32.4491
35.4768
38.536
41.4678
44.0574
45.9478
45.8524
43.8877
38.4778
34.1825
30.6194
28.2536
26.8747
26.4069
26.6506
27.0926
27.3906
27.2462
26.4577
25.0042
22.878
20.8692
19.3072
31.723
32.9052
34.5022
36.3466
38.5946
41.1964
44.0047
46.9574
49.8974
52.5821
54.7332
55.8342
55.0292
52.1592
47.3208
39.7601
34.5177
30.5643
28.1757
26.9747
26.8077
27.7396
29.2869
31.1143
32.8792
34.2324
34.9381
34.8792
33.8123
32.2934
44.351
46.9169
49.0721
50.739
52.4579
54.2728
56.0898
57.8158
59.235
59.9763
59.6023
57.5696
53.8367
48.6908
42.1982
34.1123
28.8527
25.2808
23.1844
22.187
22.1419
23.1644
24.9956
27.4585
30.3351
33.4084
36.4647
39.2778
41.738
43.9141
30.7144
34.7311
34.9956
34.5822
33.4169
31.5827
29.2334
26.5086
23.4626
20.1414
16.4216
12.5359
14.2339
24.5412
39.0246
58.3198
78.6892
102.436
112.324
110.677
102.628
91.973
80.3976
69.5126
59.3026
49.9206
41.5094
33.4531
26.5584
19.8776
16.5195
16.2198
15.6283
15.456
15.2762
14.893
14.2672
13.397
12.3151
11.0155
9.51512
7.85144
9.68657
15.3154
22.5567
31.2898
40.3998
49.8013
53.0112
51.9452
48.5359
44.1964
39.5956
35.1609
30.9174
26.9365
23.3666
19.9647
17.4387
14.7905
15.0266
13.7303
12.7083
12.2167
11.9813
11.7807
11.4721
10.9767
10.2934
9.41949
8.42023
7.3832
9.2161
13.6449
19.1706
25.6411
32.4173
38.9667
41.0367
40.2794
37.9541
35.0019
31.8783
28.7955
25.7866
22.8788
20.2168
17.6483
15.8475
14.04
14.4343
12.6708
11.4807
10.8725
10.6096
10.4686
10.2802
9.94217
9.44343
8.78992
8.07108
7.43338
9.19374
12.9719
17.5748
22.846
28.3409
33.4007
35.0586
34.5501
32.8234
30.5776
28.1866
25.7806