/*--------------------------------*- C++ -*----------------------------------*\
  =========                 |
  \\      /  F ield         | OpenFOAM: The Open Source CFD Toolbox
   \\    /   O peration     | Website:  https://openfoam.org
    \\  /    A nd           | Version:  12
     \\/     M anipulation  |
\*---------------------------------------------------------------------------*/
FoamFile
{
    format      ascii;
    class       volScalarField;
    location    "450/air";
    object      k;
}
// * * * * * * * * * * * * * * * * * * * * * * * * * * * * * * * * * * * * * //

dimensions      [0 2 -2 0 0 0 0];

internalField   nonuniform List<scalar> 
243000
(
0.114507
0.120316
0.120991
0.11946
0.116163
0.11168
0.106345
0.100441
0.0941269
0.0877229
0.0814939
0.0760758
0.0712282
0.0664978
0.0612015
0.0552064
0.0490229
0.0523942
0.068894
0.0884426
0.097333
0.0956002
0.0865097
0.0726851
0.0631321
0.0598999
0.0594864
0.0606883
0.0647167
0.0727486
0.188861
0.191593
0.185336
0.176264
0.166245
0.155985
0.145761
0.135735
0.125949
0.116697
0.108148
0.100864
0.0943164
0.0886032
0.0827238
0.0767016
0.0721209
0.0871588
0.12766
0.167623
0.183982
0.182146
0.168621
0.148669
0.129348
0.119039
0.115695
0.114717
0.118566
0.127129
0.232954
0.235228
0.227437
0.216477
0.20438
0.191974
0.179606
0.167503
0.155755
0.144777
0.134811
0.126489
0.118816
0.111966
0.104769
0.0972464
0.0923846
0.113931
0.170023
0.222587
0.244241
0.243292
0.228083
0.205298
0.181768
0.165234
0.158412
0.155299
0.158127
0.166021
0.261675
0.263852
0.255726
0.244282
0.231514
0.218231
0.204782
0.191457
0.178443
0.166305
0.155437
0.146514
0.138065
0.130149
0.121525
0.112151
0.106058
0.130549
0.196778
0.257611
0.283422
0.284282
0.269503
0.246572
0.221677
0.201997
0.191785
0.187124
0.189391
0.197091
0.282033
0.284054
0.276192
0.265023
0.252387
0.238997
0.225158
0.211209
0.197447
0.184596
0.173177
0.163876
0.154819
0.145891
0.135765
0.124287
0.116338
0.14144
0.21436
0.281652
0.310934
0.313873
0.300356
0.278383
0.253577
0.232484
0.219859
0.213694
0.215379
0.223651
0.296799
0.298581
0.29125
0.28074
0.268656
0.255581
0.241765
0.227582
0.213441
0.200201
0.188468
0.178905
0.169331
0.159438
0.147744
0.134054
0.12454
0.148191
0.224336
0.296901
0.329289
0.33439
0.322615
0.3022
0.278382
0.257081
0.24311
0.235903
0.236977
0.245795
0.307544
0.309063
0.302407
0.292755
0.281437
0.268904
0.255352
0.241189
0.226926
0.213522
0.201631
0.191854
0.181796
0.170969
0.157672
0.1418
0.131958
0.153793
0.229257
0.304766
0.340302
0.34748
0.337696
0.319178
0.296904
0.276222
0.261801
0.254232
0.25478
0.263986
0.31519
0.316502
0.31063
0.301942
0.291499
0.279623
0.266472
0.25249
0.23828
0.224863
0.212904
0.202916
0.192381
0.180633
0.165745
0.147935
0.138432
0.159133
0.230729
0.307633
0.345185
0.354435
0.346732
0.330312
0.309931
0.290436
0.276269
0.268884
0.269118
0.278646
0.320301
0.321538
0.316551
0.308889
0.299372
0.288212
0.275536
0.261834
0.247787
0.234452
0.222471
0.212255
0.201245
0.18856
0.172152
0.153287
0.144185
0.163975
0.230504
0.306743
0.345918
0.356411
0.350681
0.336581
0.318339
0.300299
0.286877
0.280117
0.280311
0.290168
0.323406
0.324671
0.320607
0.314003
0.305431
0.295006
0.282845
0.269482
0.255666
0.242464
0.230476
0.220009
0.208512
0.194889
0.177098
0.158253
0.14938
0.168263
0.230366
0.302229
0.34241
0.354244
0.349957
0.337922
0.322227
0.306243
0.293905
0.288142
0.288692
0.298922
0.324805
0.326234
0.323082
0.31755
0.309925
0.300241
0.288613
0.275625
0.262077
0.249037
0.237037
0.226309
0.214287
0.199759
0.18082
0.162636
0.154057
0.171988
0.230009
0.296046
0.335694
0.348763
0.34597
0.3357
0.321992
0.308298
0.297767
0.293137
0.294451
0.305153
0.324641
0.326444
0.324246
0.319756
0.313034
0.304048
0.292953
0.28038
0.267135
0.254276
0.242264
0.231246
0.218687
0.20332
0.18367
0.166481
0.158255
0.175165
0.229349
0.290546
0.327576
0.340877
0.339329
0.330771
0.31898
0.307189
0.298537
0.295513
0.297583
0.309175
0.323202
0.325488
0.324324
0.320797
0.314937
0.306622
0.296031
0.28384
0.270905
0.258263
0.246238
0.234909
0.221827
0.205739
0.186417
0.169967
0.162035
0.177833
0.228334
0.285374
0.320254
0.332777
0.331457
0.323827
0.313788
0.303804
0.296969
0.295574
0.298648
0.311193
0.320571
0.323444
0.323313
0.320825
0.315739
0.308048
0.297946
0.286153
0.273512
0.261036
0.249011
0.237369
0.223799
0.207218
0.188903
0.173155
0.165445
0.180041
0.226959
0.280301
0.313373
0.325248
0.324181
0.317335
0.308041
0.298745
0.293448
0.293583
0.297951
0.311516
0.316747
0.320377
0.321295
0.319808
0.315549
0.308433
0.298779
0.287387
0.275061
0.26276
0.2507
0.238762
0.224808
0.208174
0.191119
0.176084
0.168532
0.181836
0.225233
0.275192
0.306698
0.318065
0.317258
0.311089
0.302544
0.293992
0.288789
0.289844
0.295527
0.310221
0.311775
0.316302
0.318271
0.317771
0.314281
0.307772
0.298632
0.287657
0.275645
0.263527
0.251464
0.239297
0.225116
0.209268
0.1932
0.178817
0.171346
0.18327
0.223178
0.269975
0.300084
0.311064
0.310516
0.304952
0.29715
0.289358
0.284426
0.284814
0.291566
0.307404
0.305743
0.311242
0.314258
0.314709
0.311926
0.306012
0.297395
0.286908
0.275311
0.263455
0.251447
0.239105
0.225286
0.210426
0.195215
0.18141
0.173942
0.184396
0.220835
0.264603
0.293437
0.304131
0.303837
0.298833
0.291761
0.284724
0.280195
0.280247
0.286336
0.303176
0.298839
0.30528
0.309293
0.310617
0.308532
0.303144
0.29508
0.285141
0.274018
0.262487
0.250716
0.238733
0.225706
0.211681
0.197218
0.183914
0.176365
0.185256
0.218234
0.259045
0.286695
0.297181
0.297143
0.292673
0.286312
0.280022
0.275985
0.275958
0.281458
0.297614
0.292617
0.299232
0.303745
0.305617
0.304186
0.299342
0.291866
0.28272
0.272387
0.261491
0.250266
0.238743
0.226361
0.213057
0.199253
0.186378
0.178665
0.185901
0.215409
0.25328
0.279809
0.290154
0.290381
0.286433
0.280768
0.275211
0.271732
0.271807
0.276921
0.290981
0.286876
0.293668
0.298601
0.300833
0.299861
0.29559
0.288846
0.28047
0.270907
0.26068
0.250027
0.239003
0.227219
0.214563
0.201353
0.188844
0.180893
0.186403
0.212411
0.247346
0.272752
0.283014
0.283527
0.280103
0.275121
0.270283
0.267419
0.267701
0.272581
0.285015
0.281448
0.28843
0.293711
0.296268
0.295741
0.292007
0.28594
0.278311
0.269511
0.259983
0.249954
0.239461
0.228253
0.216209
0.203551
0.191356
0.183107
0.18685
0.209327
0.241277
0.265514
0.27573
0.276562
0.273675
0.269375
0.265268
0.263035
0.263591
0.268335
0.279488
0.276206
0.28339
0.288945
0.291818
0.291725
0.288508
0.283085
0.276184
0.268154
0.259363
0.250007
0.240093
0.229452
0.218006
0.205874
0.193961
0.185369
0.187318
0.206254
0.235144
0.258112
0.268278
0.269462
0.267135
0.263529
0.260202
0.258581
0.259454
0.264146
0.274227
0.271025
0.278416
0.284232
0.287406
0.287726
0.285026
0.280233
0.27405
0.266822
0.258807
0.250171
0.240892
0.230834
0.219982
0.208374
0.196731
0.187767
0.187934
0.203374
0.229066
0.250609
0.260692
0.262229
0.260471
0.257588
0.255065
0.254031
0.25526
0.259956
0.26911
0.265834
0.273467
0.279537
0.282976
0.283676
0.281503
0.277358
0.271916
0.265507
0.258309
0.250465
0.241884
0.232461
0.22223
0.211177
0.199829
0.190494
0.188897
0.200892
0.223279
0.243185
0.253095
0.254943
0.253741
0.251624
0.249878
0.249418
0.251035
0.255746
0.264064
0.260642
0.268525
0.274827
0.278488
0.279532
0.277912
0.274447
0.269796
0.264248
0.257971
0.251024
0.243244
0.234606
0.2251
0.214703
0.203734
0.194075
0.190742
0.199306
0.218222
0.236246
0.245787
0.24784
0.247149
0.245786
0.244765
0.244849
0.246853
0.251546
0.259093
0.255569
0.263554
0.27012
0.273957
0.275322
0.27431
0.271617
0.267876
0.263402
0.258259
0.252385
0.245751
0.238234
0.229744
0.220258
0.209856
0.199945
0.194889
0.200138
0.215111
0.230812
0.239591
0.241631
0.241275
0.240479
0.240035
0.240591
0.242899
0.247479
0.254277
0.251041
0.259045
0.265706
0.269865
0.271611
0.271405
0.269843
0.267507
0.264536
0.26106
0.256998
0.252241
0.246582
0.239792
0.231724
0.222192
0.212068
0.205145
0.206758
0.217361
0.230005
0.237114
0.238536
0.237969
0.2372
0.236925
0.237651
0.239932
0.244135
0.250077
0.249576
0.257622
0.264536
0.269585
0.272544
0.2741
0.274833
0.275155
0.275124
0.274851
0.274198
0.272893
0.27048
0.266422
0.260438
0.252014
0.241535
0.232431
0.229763
0.234993
0.243083
0.247383
0.246725
0.244574
0.242531
0.241154
0.240899
0.242089
0.244953
0.249232
0.274129
0.282709
0.29095
0.298662
0.305302
0.31136
0.317103
0.322568
0.327717
0.333066
0.337996
0.341873
0.343668
0.342728
0.338516
0.330656
0.319562
0.30841
0.301278
0.300334
0.30252
0.302521
0.298319
0.293103
0.287955
0.283249
0.279384
0.276578
0.27523
0.275505
0.471173
0.478175
0.485232
0.493132
0.500463
0.508053
0.514109
0.518867
0.523
0.529636
0.535394
0.539126
0.539439
0.536591
0.529689
0.520266
0.509443
0.500399
0.494543
0.492462
0.493372
0.494364
0.494313
0.493617
0.492139
0.489722
0.486532
0.482599
0.478345
0.474112
0.169633
0.184184
0.18628
0.18267
0.175337
0.165663
0.154396
0.142144
0.129278
0.116506
0.104251
0.0935604
0.0838457
0.0764958
0.0713708
0.0775059
0.104912
0.156885
0.190422
0.209156
0.213839
0.208137
0.195271
0.178667
0.161637
0.14606
0.133014
0.120314
0.113875
0.109279
0.296515
0.305834
0.293801
0.275092
0.254618
0.234149
0.214397
0.195758
0.178302
0.162603
0.148509
0.13634
0.126795
0.125373
0.130178
0.155017
0.213398
0.303892
0.360758
0.389322
0.396022
0.386299
0.364928
0.337629
0.309663
0.283388
0.259438
0.233908
0.213887
0.202113
0.377892
0.383221
0.368538
0.347816
0.325152
0.302035
0.279198
0.257262
0.236515
0.217963
0.201705
0.1879
0.176622
0.175435
0.182791
0.214415
0.287983
0.396546
0.467119
0.504756
0.516926
0.508777
0.485641
0.454424
0.421192
0.389029
0.359154
0.32729
0.301513
0.288159
0.436962
0.435684
0.419478
0.399024
0.377036
0.354143
0.330774
0.307653
0.285406
0.265351
0.248008
0.233316
0.220673
0.2187
0.226483
0.25967
0.340493
0.457489
0.535926
0.580241
0.597572
0.592945
0.571183
0.539822
0.504802
0.469959
0.437295
0.40264
0.37403
0.36027
0.48088
0.473336
0.456005
0.436531
0.416145
0.394583
0.371887
0.348801
0.326204
0.305718
0.288056
0.272907
0.259214
0.255943
0.262742
0.294319
0.377062
0.496637
0.580053
0.629307
0.651084
0.650596
0.631734
0.602217
0.567787
0.532479
0.498947
0.463661
0.433347
0.419132
0.51371
0.501082
0.483002
0.464775
0.44624
0.426372
0.404895
0.382526
0.360336
0.34013
0.32257
0.307149
0.292606
0.287722
0.292512
0.32068
0.400846
0.518974
0.606169
0.659253
0.684626
0.687945
0.672651
0.646061
0.613679
0.579528
0.546464
0.51195
0.480589
0.46588
0.537935
0.521583
0.503261
0.486432
0.469769
0.451659
0.431611
0.410333
0.389006
0.369471
0.352218
0.336562
0.321242
0.31452
0.316532
0.340261
0.414169
0.527693
0.618287
0.674945
0.703054
0.709362
0.697791
0.674703
0.645298
0.613347
0.581704
0.548911
0.517294
0.502218
0.554906
0.536374
0.518477
0.503189
0.488338
0.471936
0.453364
0.433329
0.413102
0.394406
0.377515
0.361585
0.345499
0.336764
0.335524
0.35437
0.420616
0.529289
0.622105
0.680231
0.710101
0.718315
0.710225
0.690871
0.664985
0.636015
0.606457
0.575955
0.544856
0.5295
0.565992
0.546379
0.529739
0.516152
0.503034
0.488253
0.471115
0.452348
0.433284
0.415448
0.398867
0.382611
0.365724
0.354855
0.350325
0.364782
0.42439
0.525231
0.619011
0.679353
0.709756
0.717916
0.71143
0.69596
0.674688
0.649385
0.622396
0.594612
0.564646
0.54923
0.573223
0.553097
0.537825
0.526076
0.51462
0.501355
0.485569
0.46802
0.450064
0.433007
0.416632
0.399999
0.382293
0.369311
0.361897
0.373191
0.4267
0.519385
0.608614
0.670925
0.702372
0.71075
0.705798
0.692498
0.673518
0.652006
0.629346
0.60549
0.578217
0.562939
0.576959
0.557156
0.543313
0.533503
0.523641
0.511781
0.497246
0.48082
0.463845
0.447445
0.431172
0.414132
0.395621
0.38074
0.371528
0.380049
0.427922
0.512106
0.59695
0.659479
0.691054
0.698945
0.694998
0.683849
0.66737
0.648173
0.62806
0.607935
0.585788
0.571434
0.577844
0.559077
0.546797
0.538848
0.5305
0.519927
0.506533
0.491119
0.474981
0.459097
0.442866
0.425447
0.406191
0.389827
0.380034
0.385786
0.428445
0.504083
0.584616
0.646557
0.677998
0.684512
0.680802
0.671116
0.657015
0.640463
0.622669
0.605541
0.587074
0.575272
0.576226
0.559337
0.548655
0.542363
0.535482
0.526082
0.513724
0.499225
0.483803
0.468322
0.452125
0.434367
0.414572
0.397522
0.387212
0.390742
0.428375
0.495862
0.572079
0.632785
0.663421
0.669046
0.664969
0.655749
0.643393
0.629305
0.614289
0.599787
0.584487
0.57476
0.572233
0.557885
0.549201
0.544377
0.53876
0.530434
0.51905
0.505428
0.490669
0.475554
0.4594
0.441403
0.421565
0.405102
0.393653
0.395255
0.427901
0.48796
0.559722
0.61865
0.648119
0.65267
0.648042
0.638996
0.627574
0.615526
0.603172
0.59159
0.579405
0.57167
0.566264
0.554745
0.548533
0.545171
0.540685
0.533325
0.522825
0.510079
0.496009
0.481268
0.465252
0.447312
0.428235
0.412414
0.399845
0.399607
0.427357
0.480663
0.547812
0.604525
0.632681
0.636101
0.63084
0.621718
0.610875
0.600026
0.589881
0.581171
0.572145
0.56654
0.558318
0.549968
0.546406
0.545001
0.541544
0.535168
0.525618
0.513724
0.500397
0.486155
0.470497
0.453092
0.435331
0.419402
0.406147
0.4041
0.427173
0.474129
0.536503
0.590669
0.617519
0.619889
0.613995
0.604639
0.594103
0.58412
0.57548
0.569101
0.562976
0.559537
0.549384
0.544462
0.543554
0.543827
0.541704
0.536421
0.527954
0.517032
0.504628
0.491169
0.476241
0.45966
0.442646
0.426554
0.412894
0.40904
0.427618
0.468467
0.525895
0.577256
0.602903
0.604414
0.597958
0.588321
0.577914
0.568514
0.560976
0.556116
0.552437
0.551008
0.540227
0.538895
0.540459
0.542386
0.541738
0.53771
0.53053
0.520892
0.509639
0.496978
0.482749
0.466805
0.450323
0.434321
0.420416
0.414734
0.428784
0.463711
0.516026
0.564383
0.588974
0.589893
0.583032
0.573172
0.562846
0.553843
0.547089
0.543302
0.541303
0.541727
0.531578
0.533967
0.538109
0.541822
0.542507
0.539791
0.533949
0.525534
0.515285
0.503374
0.489815
0.474651
0.458899
0.443172
0.429077
0.421534
0.430984
0.459945
0.506941
0.552096
0.575776
0.576433
0.569401
0.559498
0.549327
0.540624
0.534413
0.531324
0.530473
0.533196
0.524016
0.529442
0.536165
0.541549
0.54399
0.542526
0.537988
0.530874
0.521748
0.510749
0.498052
0.483802
0.468952
0.453624
0.439331
0.42988
0.434787
0.457682
0.498852
0.540472
0.563323
0.564092
0.557194
0.54756
0.537706
0.52931
0.523499
0.520844
0.520741
0.525282
0.517931
0.526139
0.535015
0.542071
0.546575
0.546431
0.54329
0.53757
0.529696
0.51989
0.508303
0.495022
0.481151
0.466323
0.451804
0.440376
0.440767
0.458
0.49224
0.52982
0.551698
0.5529
0.546498
0.537511
0.528263
0.52031
0.51487
0.512507
0.512933
0.518723
0.513904
0.524316
0.535002
0.544433
0.550926
0.552311
0.55065
0.546429
0.540091
0.532043
0.521998
0.50961
0.496352
0.482218
0.467493
0.454086
0.44976
0.460532
0.487713
0.520759
0.541242
0.54306
0.537448
0.529491
0.521211
0.513934
0.508945
0.506887
0.507876
0.51409
0.511954
0.524301
0.537609
0.549502
0.557896
0.561082
0.561102
0.55868
0.554897
0.54896
0.540692
0.529503
0.516328
0.503029
0.488266
0.472948
0.463461
0.467572
0.488125
0.51459
0.532972
0.535383
0.530606
0.523921
0.516951
0.510618
0.506143
0.504602
0.506224
0.51243
0.513216
0.528281
0.544282
0.558455
0.568779
0.573917
0.576634
0.576958
0.575756
0.57242
0.566598
0.5576
0.544778
0.532483
0.51812
0.500917
0.485792
0.482635
0.494705
0.515335
0.529615
0.532008
0.527599
0.521953
0.516074
0.510914
0.50751
0.506703
0.508865
0.514607
0.520397
0.538001
0.556581
0.573344
0.58588
0.593964
0.599944
0.604171
0.606868
0.607416
0.605527
0.600218
0.590195
0.579183
0.56622
0.547612
0.52625
0.513637
0.516062
0.52802
0.53737
0.538035
0.532499
0.527081
0.52216
0.518069
0.515431
0.51507
0.517403
0.522669
0.536376
0.55689
0.57873
0.598456
0.614314
0.626821
0.63817
0.648593
0.657798
0.66536
0.670799
0.672743
0.669969
0.662301
0.652771
0.633676
0.604964
0.57997
0.568693
0.569143
0.570816
0.565675
0.556023
0.548347
0.542467
0.538024
0.535083
0.534121
0.535815
0.540266
0.57146
0.595865
0.621771
0.646252
0.668295
0.688814
0.709855
0.731175
0.751889
0.771795
0.790274
0.805534
0.815589
0.816612
0.810769
0.790684
0.752998
0.713016
0.68353
0.667833
0.657541
0.642571
0.624735
0.60995
0.598226
0.588979
0.582029
0.577334
0.576083
0.578106
0.654314
0.684463
0.717722
0.751196
0.784995
0.819658
0.856413
0.894598
0.931973
0.968285
1.00249
1.03193
1.05267
1.0584
1.04796
1.01831
0.970646
0.91974
0.876011
0.846437
0.825881
0.805734
0.782309
0.759926
0.738212
0.717475
0.698859
0.682934
0.671146
0.66475
0.859401
0.897274
0.939724
0.983351
1.02883
1.07569
1.12365
1.17038
1.21361
1.24899
1.27528
1.2919
1.29333
1.27481
1.23781
1.18603
1.13151
1.08289
1.04354
1.01833
1.00466
1.00288
0.999219
0.994441
0.985328
0.970203
0.948438
0.921645
0.89489
0.873107
1.16833
1.21501
1.25548
1.28624
1.31462
1.33972
1.35789
1.3705
1.37713
1.37268
1.35584
1.32913
1.29361
1.25048
1.19456
1.13615
1.08813
1.05183
1.02573
1.01111
1.00693
1.01766
1.03744
1.06384
1.09234
1.11925
1.14127
1.15603
1.16299
1.16782
0.224831
0.238433
0.239015
0.233557
0.223615
0.210656
0.195586
0.179214
0.161967
0.144705
0.127559
0.111732
0.100385
0.102476
0.119884
0.167174
0.221305
0.283802
0.318418
0.334028
0.333528
0.322249
0.303934
0.281852
0.258329
0.23471
0.212661
0.190166
0.17264
0.15571
0.380684
0.390793
0.375214
0.352341
0.327654
0.303173
0.279704
0.257464
0.236148
0.21597
0.195429
0.174811
0.168027
0.193093
0.241184
0.329245
0.428258
0.532051
0.589252
0.612027
0.607644
0.585523
0.552368
0.513361
0.471542
0.42862
0.386987
0.342737
0.303687
0.272639
0.483392
0.485445
0.465247
0.440092
0.414
0.388003
0.362523
0.337724
0.313458
0.290395
0.267083
0.244119
0.237681
0.270368
0.330426
0.434444
0.551273
0.667747
0.736666
0.76757
0.768044
0.746585
0.711242
0.667624
0.619373
0.568447
0.518203
0.464208
0.416132
0.379795
0.556118
0.54812
0.525162
0.500166
0.475541
0.450813
0.425842
0.400677
0.375496
0.351415
0.32741
0.30443
0.298592
0.334459
0.398646
0.506958
0.62942
0.748867
0.823802
0.860746
0.866667
0.848891
0.815425
0.772105
0.722711
0.669333
0.615781
0.557761
0.505101
0.465608
0.608073
0.591896
0.567499
0.543868
0.52141
0.498761
0.475221
0.450778
0.425955
0.402178
0.378806
0.357075
0.352061
0.388514
0.452336
0.558229
0.679297
0.797381
0.875206
0.916354
0.927048
0.913928
0.88417
0.843702
0.796115
0.743407
0.689549
0.630717
0.575457
0.533977
0.645094
0.623313
0.59855
0.576738
0.556653
0.53624
0.51446
0.491308
0.467615
0.444957
0.422932
0.403042
0.398936
0.434233
0.494761
0.594148
0.709709
0.823228
0.90266
0.946433
0.960684
0.952056
0.926678
0.89037
0.846355
0.796286
0.743943
0.686431
0.629787
0.586497
0.67146
0.64607
0.62186
0.602108
0.584321
0.566053
0.546112
0.524545
0.502401
0.481294
0.460946
0.443101
0.439807
0.472721
0.527996
0.618462
0.726046
0.833264
0.912522
0.958556
0.974995
0.969953
0.948909
0.917267
0.877977
0.831875
0.782351
0.727641
0.670918
0.627712
0.689019
0.662319
0.639624
0.622034
0.606354
0.590051
0.571905
0.552027
0.531609
0.51221
0.493638
0.477826
0.475154
0.504789
0.553567
0.634021
0.731945
0.835166
0.913396
0.959576
0.975871
0.971942
0.954513
0.928167
0.894542
0.853443
0.80777
0.757003
0.701564
0.658555
0.701175
0.673987
0.65328
0.637822
0.624035
0.609503
0.593038
0.574833
0.556143
0.538441
0.521595
0.507703
0.505396
0.531126
0.573032
0.642768
0.732121
0.826853
0.903057
0.950166
0.966774
0.963891
0.94891
0.924644
0.893917
0.858647
0.81926
0.774017
0.722641
0.681275
0.709168
0.682275
0.663753
0.650339
0.638253
0.625302
0.610369
0.593738
0.576676
0.560554
0.545313
0.533167
0.530956
0.552469
0.587782
0.647019
0.726601
0.813695
0.887543
0.935063
0.951153
0.94885
0.935927
0.914713
0.886608
0.854365
0.818588
0.780189
0.735122
0.696886
0.713567
0.687924
0.671575
0.66018
0.649642
0.638095
0.624535
0.609336
0.593749
0.579051
0.565274
0.554649
0.552281
0.569631
0.598924
0.649067
0.719237
0.798761
0.869564
0.916843
0.931726
0.92944
0.917853
0.899167
0.874462
0.845082
0.812893
0.778731
0.740642
0.706643
0.715174
0.691494
0.677216
0.667781
0.658669
0.648369
0.636034
0.62212
0.607852
0.594423
0.58199
0.572639
0.569978
0.583616
0.607874
0.649855
0.710918
0.782969
0.850271
0.896774
0.91078
0.907939
0.896784
0.879911
0.858152
0.832403
0.803522
0.773589
0.74035
0.711667
0.714859
0.693328
0.681108
0.67348
0.665688
0.656514
0.645294
0.632556
0.619487
0.60721
0.596034
0.587744
0.584834
0.595755
0.61524
0.649696
0.702273
0.767023
0.830501
0.875866
0.888989
0.885577
0.874536
0.858597
0.839143
0.816719
0.791587
0.765621
0.737119
0.712716
0.71242
0.693747
0.683522
0.677551
0.671006
0.662889
0.652741
0.641139
0.629219
0.618053
0.608093
0.600731
0.597873
0.60652
0.621586
0.649034
0.693755
0.751421
0.810852
0.854834
0.867234
0.863326
0.852175
0.836755
0.818721
0.79913
0.777694
0.755424
0.731485
0.710975
0.70829
0.69291
0.684729
0.680266
0.674966
0.667913
0.658878
0.648464
0.637734
0.627728
0.619016
0.612587
0.610484
0.616445
0.627417
0.648428
0.68568
0.736488
0.791711
0.834139
0.846108
0.841872
0.83057
0.815407
0.798355
0.78063
0.762348
0.743814
0.723988
0.707306
0.702774
0.690775
0.685029
0.682062
0.678045
0.672141
0.66435
0.655278
0.645881
0.637177
0.629881
0.624582
0.622594
0.626008
0.633184
0.648217
0.678307
0.722429
0.7733
0.814034
0.825954
0.821636
0.810302
0.795349
0.778962
0.762595
0.746455
0.731098
0.715214
0.702105
0.695965
0.687733
0.684819
0.683484
0.680875
0.676291
0.669968
0.66253
0.654713
0.647368
0.641266
0.636768
0.634728
0.63571
0.639318
0.648716
0.671893
0.709408
0.755741
0.794621
0.806908
0.802826
0.791761
0.777128
0.761254
0.745822
0.731271
0.718178
0.705594
0.69584
0.689109
0.684756
0.684736
0.685298
0.684321
0.681295
0.676532
0.670623
0.664348
0.658435
0.653535
0.649714
0.647425
0.646138
0.646269
0.650214
0.666709
0.69759
0.739115
0.77592
0.788961
0.785508
0.775102
0.761061
0.745747
0.731006
0.717583
0.706108
0.695972
0.688819
0.683002
0.682517
0.684929
0.687894
0.688657
0.687242
0.68419
0.680004
0.675449
0.67108
0.667368
0.664058
0.661287
0.657859
0.654706
0.653235
0.66313
0.687219
0.723562
0.757959
0.772049
0.769682
0.760383
0.747317
0.732775
0.718692
0.706072
0.695697
0.687366
0.682377
0.67852
0.681271
0.686259
0.691676
0.694511
0.694886
0.693706
0.691418
0.688761
0.68608
0.683549
0.680593
0.677128
0.671645
0.665405
0.658504
0.661769
0.678842
0.709503
0.740937
0.756098
0.755284
0.747595
0.735982
0.722581
0.709308
0.697321
0.687687
0.680582
0.677181
0.676065
0.681306
0.689561
0.697424
0.702522
0.70506
0.705948
0.705737
0.705204
0.704394
0.703085
0.700384
0.696071
0.688653
0.679483
0.667164
0.663653
0.67337
0.697709
0.725426
0.741279
0.742342
0.736629
0.727001
0.715258
0.70312
0.691857
0.682731
0.676337
0.674085
0.675624
0.68438
0.695617
0.706042
0.713635
0.718589
0.721874
0.724091
0.726034
0.727382
0.727432
0.72503
0.719843
0.710653
0.698845
0.681195
0.670512
0.672451
0.689661
0.712739
0.72836
0.731487
0.727873
0.720464
0.710603
0.699713
0.689266
0.680714
0.675068
0.67386
0.679245
0.691225
0.7055
0.718647
0.729063
0.736796
0.742921
0.748093
0.753053
0.757035
0.758952
0.757137
0.751378
0.740761
0.726833
0.704114
0.685762
0.679176
0.688664
0.705786
0.719445
0.724332
0.722714
0.717217
0.70872
0.699117
0.690222
0.682999
0.677967
0.677721
0.687612
0.703051
0.720762
0.736962
0.750692
0.761812
0.771538
0.780556
0.7894
0.796903
0.801687
0.80139
0.795987
0.784782
0.769689
0.742554
0.716109
0.69941
0.700127
0.71009
0.720257
0.724686
0.724169
0.719999
0.713081
0.705069
0.697399
0.690981
0.686582
0.686958
0.703136
0.722634
0.7442
0.764175
0.782087
0.797715
0.812391
0.826823
0.84115
0.853813
0.863213
0.866567
0.863473
0.853463
0.838797
0.808493
0.773703
0.7457
0.734942
0.735796
0.739826
0.741337
0.739217
0.734844
0.7283
0.720892
0.71379
0.7077
0.703492
0.704037
0.731542
0.75579
0.782115
0.807195
0.830934
0.853147
0.875237
0.897797
0.920274
0.940814
0.957612
0.967851
0.970377
0.964183
0.951713
0.91915
0.875876
0.83495
0.809703
0.798373
0.794437
0.790069
0.78288
0.775174
0.766291
0.756888
0.748134
0.740572
0.73503
0.734652
0.787367
0.817266
0.850047
0.882414
0.914825
0.946986
0.980177
1.0145
1.04835
1.07958
1.10627
1.12563
1.13607
1.13359
1.11995
1.07609
1.01934
0.965016
0.926193
0.903401
0.892423
0.886616
0.878267
0.865858
0.851611
0.836406
0.821746
0.808525
0.797877
0.793555
0.907072
0.943241
0.984022
1.02562
1.06918
1.11366
1.15977
1.20638
1.25071
1.29011
1.32234
1.34456
1.35263
1.33767
1.30065
1.23379
1.16333
1.10018
1.05355
1.0255
1.0141
1.01581
1.01881
1.02011
1.01274
0.996384
0.976092
0.953639
0.932048
0.917981
1.14905
1.18869
1.23294
1.27786
1.32505
1.37282
1.42028
1.46508
1.50414
1.53328
1.54804
1.54454
1.51827
1.46687
1.39698
1.30685
1.22669
1.16193
1.11646
1.09155
1.08672
1.1028
1.12766
1.1565
1.18356
1.20348
1.21034
1.20257
1.18376
1.16357
1.3897
1.44173
1.48294
1.51468
1.5442
1.5705
1.59134
1.6069
1.61489
1.60788
1.58127
1.53591
1.47341
1.39662
1.30677
1.20909
1.13097
1.07338
1.03466
1.01559
1.01477
1.03653
1.07287
1.11987
1.17229
1.22563
1.27739
1.32247
1.35852
1.38648
0.273212
0.289147
0.28597
0.278304
0.266157
0.250726
0.232997
0.213787
0.193384
0.172335
0.150165
0.128081
0.121994
0.152912
0.206913
0.275062
0.342636
0.417841
0.454619
0.464679
0.45588
0.43629
0.410141
0.380975
0.350522
0.319646
0.289619
0.257681
0.229053
0.198572
0.455591
0.465126
0.447253
0.421756
0.394301
0.367352
0.341607
0.316842
0.292154
0.266764
0.237584
0.205577
0.215008
0.293677
0.399118
0.524074
0.646224
0.771545
0.83029
0.842467
0.820965
0.78206
0.733607
0.680316
0.624884
0.56818
0.51185
0.450137
0.39276
0.339103
0.574751
0.572697
0.54885
0.521054
0.493199
0.466099
0.439547
0.412909
0.385415
0.356664
0.323989
0.289349
0.305116
0.400325
0.522651
0.66599
0.806152
0.940456
1.0104
1.03054
1.01261
0.973153
0.921872
0.863277
0.800512
0.734606
0.668143
0.594636
0.526375
0.46437
0.655757
0.642191
0.614392
0.587036
0.561458
0.536704
0.511649
0.485357
0.457475
0.428188
0.395791
0.363313
0.384274
0.484884
0.60957
0.756124
0.89933
1.03198
1.10738
1.13395
1.12209
1.08646
1.03765
0.979935
0.916296
0.847802
0.777788
0.700076
0.626612
0.55889
0.712766
0.689078
0.659667
0.63409
0.611463
0.589518
0.566579
0.541674
0.514881
0.486934
0.457035
0.429196
0.454739
0.554492
0.674977
0.815678
0.953748
1.08058
1.15824
1.18936
1.18347
1.15304
1.10886
1.05496
0.993876
0.926499
0.85654
0.778556
0.702282
0.633812
0.752123
0.721678
0.692341
0.66923
0.64958
0.630379
0.609715
0.586745
0.561942
0.536499
0.510346
0.488274
0.517812
0.612851
0.725253
0.855057
0.983357
1.1011
1.17963
1.21363
1.2123
1.18717
1.14838
1.09978
1.04327
0.979364
0.911711
0.836049
0.758705
0.691482
0.7777
0.744563
0.716771
0.69641
0.679487
0.662806
0.644433
0.623718
0.601443
0.579143
0.557355
0.541418
0.574159
0.662246
0.764227
0.880382
0.996433
1.10559
1.18265
1.21729
1.21815
1.1976
1.16421
1.12164
1.07099
1.01202
0.948437
0.876968
0.800507
0.733461
0.7946
0.760962
0.735728
0.718069
0.70352
0.689092
0.67294
0.654615
0.635135
0.616262
0.599025
0.58923
0.624288
0.704142
0.794441
0.895749
0.999687
1.09658
1.17067
1.20659
1.20859
1.19138
1.16015
1.12023
1.07461
1.02304
0.965919
0.90041
0.827993
0.764273
0.806287
0.7735
0.750903
0.735697
0.723197
0.710775
0.696718
0.680786
0.664164
0.648768
0.636011
0.632209
0.668607
0.739586
0.817727
0.903985
0.994574
1.08054
1.15077
1.18639
1.18924
1.17476
1.14723
1.11035
1.06749
1.01953
0.966935
0.909858
0.843982
0.785472
0.813999
0.783035
0.76323
0.750239
0.739538
0.728905
0.716791
0.703165
0.689335
0.677312
0.668807
0.670777
0.707485
0.769391
0.835495
0.907218
0.98501
1.06055
1.12637
1.16074
1.16395
1.15141
1.12699
1.09399
1.05438
1.01011
0.96173
0.909711
0.85199
0.799501
0.818758
0.79034
0.773321
0.76234
0.753248
0.744215
0.733884
0.722433
0.71126
0.702421
0.697905
0.705256
0.741274
0.794269
0.848923
0.907836
0.972799
1.03826
1.09921
1.13258
1.13577
1.12435
1.10234
1.07273
1.03714
0.996567
0.952697
0.905941
0.854958
0.80863
0.821434
0.795911
0.781575
0.772433
0.764807
0.757218
0.748537
0.739131
0.73046
0.724574
0.723868
0.735879
0.770388
0.814944
0.859343
0.905809
0.958874
1.01469
1.0705
1.1027
1.10625
1.09594
1.07556
1.0487
1.01678
0.980463
0.941038
0.899543
0.854332
0.814456
0.822556
0.800047
0.788246
0.78081
0.77456
0.768312
0.761198
0.753741
0.747435
0.744217
0.747274
0.762964
0.795361
0.832256
0.867246
0.902102
0.943974
0.990647
1.04119
1.07221
1.07637
1.06711
1.04844
1.02364
0.994792
0.96263
0.927538
0.891225
0.851892
0.817929
0.82249
0.802954
0.793506
0.787703
0.7828
0.777864
0.772303
0.766757
0.76271
0.762006
0.768584
0.78695
0.816915
0.846896
0.873111
0.897226
0.928661
0.966717
1.01194
1.04182
1.04688
1.03875
1.02171
0.998829
0.972416
0.943808
0.91298
0.881496
0.847853
0.819393
0.82118
0.804764
0.797566
0.793369
0.789864
0.786296
0.78235
0.778719
0.776855
0.778716
0.788362
0.808457
0.835843
0.859336
0.877419
0.891624
0.913375
0.943314
0.983211
1.01201
1.01829
1.01146
0.996124
0.975065
0.950764
0.924945
0.898004
0.870841
0.842422
0.818741
0.81867
0.805653
0.800698
0.79816
0.796183
0.79413
0.79193
0.790256
0.790673
0.795138
0.807381
0.828373
0.852674
0.870099
0.880682
0.885733
0.898486
0.920738
0.955319
0.983063
0.990888
0.985636
0.972168
0.952938
0.930547
0.907048
0.883057
0.859702
0.835971
0.816736
0.815262
0.805931
0.80327
0.802563
0.802335
0.802019
0.801778
0.802176
0.80493
0.811757
0.826073
0.847085
0.868087
0.879763
0.883487
0.880041
0.884394
0.899229
0.928464
0.955177
0.964738
0.961408
0.950066
0.932833
0.912303
0.890777
0.869207
0.848781
0.828886
0.813648
0.811487
0.806077
0.805774
0.807295
0.809097
0.810632
0.812333
0.814966
0.820095
0.829161
0.844993
0.865293
0.882853
0.888994
0.886552
0.875142
0.871579
0.879028
0.903015
0.928375
0.939841
0.938763
0.929864
0.91493
0.896397
0.876682
0.85709
0.838855
0.821923
0.809915
0.808209
0.806341
0.808908
0.812845
0.816807
0.820406
0.824305
0.829316
0.83685
0.847997
0.864823
0.883838
0.897803
0.898683
0.890801
0.871763
0.860572
0.860691
0.879295
0.902772
0.916222
0.917743
0.911585
0.899314
0.883068
0.865215
0.847213
0.830585
0.815931
0.806423
0.806305
0.807738
0.813391
0.819879
0.826197
0.832131
0.838458
0.845971
0.855941
0.869042
0.886445
0.903777
0.913926
0.910183
0.897402
0.87102
0.85203
0.845133
0.857818
0.87872
0.893765
0.898226
0.895151
0.885954
0.872428
0.85653
0.83993
0.824475
0.811552
0.803881
0.805969
0.811049
0.819945
0.829192
0.838096
0.846674
0.855656
0.86582
0.878321
0.89332
0.911049
0.926506
0.932793
0.925102
0.908053
0.874473
0.847555
0.833391
0.839561
0.857057
0.873001