/*--------------------------------*- C++ -*----------------------------------*\
  =========                 |
  \\      /  F ield         | OpenFOAM: The Open Source CFD Toolbox
   \\    /   O peration     | Website:  https://openfoam.org
    \\  /    A nd           | Version:  12
     \\/     M anipulation  |
\*---------------------------------------------------------------------------*/
FoamFile
{
    format      ascii;
    class       volScalarField;
    location    "450/air";
    object      nut;
}
// * * * * * * * * * * * * * * * * * * * * * * * * * * * * * * * * * * * * * //

dimensions      [0 2 -1 0 0 0 0];

internalField   nonuniform List<scalar> 
243000
(
0.00017911
0.000176783
0.000170797
0.000163681
0.000155885
0.000147874
0.000139897
0.000132139
0.000124676
0.000117687
0.000111293
0.000105883
0.000101278
9.71346e-05
9.2899e-05
8.83414e-05
8.35191e-05
8.56547e-05
9.81138e-05
0.000113167
0.000121717
0.000123762
0.000120781
0.000113616
0.000109972
0.000111226
0.00011508
0.000120702
0.000129499
0.000142706
0.000690767
0.000670162
0.000635118
0.000597448
0.000560413
0.000525182
0.000492164
0.000461538
0.00043325
0.000407661
0.000384912
0.00036589
0.000349622
0.000336225
0.000323761
0.000311935
0.000302673
0.000329196
0.000399995
0.000468952
0.000504118
0.0005147
0.000508312
0.000490526
0.000472437
0.000470538
0.000481576
0.000497992
0.00052603
0.000566569
0.000905912
0.000910423
0.000895158
0.000873175
0.000848191
0.000821756
0.000794545
0.000767055
0.000739477
0.000712826
0.000687778
0.00066617
0.000645714
0.000627002
0.000606895
0.000585005
0.000567675
0.000618345
0.000750819
0.000866104
0.000912997
0.000914104
0.000885781
0.000840018
0.000790865
0.000756379
0.000742994
0.00073707
0.000744623
0.00076402
0.000960017
0.000963998
0.000948967
0.00092732
0.000902509
0.000875944
0.00084823
0.00081992
0.000791369
0.000763859
0.000738387
0.000716843
0.000695955
0.000675919
0.000653578
0.000628233
0.000608101
0.000661246
0.000807601
0.000932258
0.000984047
0.000988651
0.000963613
0.000921639
0.000874175
0.00083613
0.000817153
0.000808822
0.00081464
0.000831754
0.00099642
0.000999949
0.000985933
0.000965609
0.000942052
0.00091644
0.000889238
0.000861021
0.000832321
0.000804661
0.000779294
0.000758066
0.00073695
0.000715645
0.000690882
0.000661505
0.000637049
0.000687937
0.000842556
0.000975062
0.0010311
0.0010392
0.00101783
0.000980069
0.000935663
0.000897197
0.000874514
0.000864052
0.000868494
0.000885639
0.00102186
0.00102489
0.00101214
0.000993527
0.000971659
0.000947459
0.000921252
0.000893616
0.000865253
0.000837885
0.000812902
0.000792036
0.000770729
0.000748197
0.000720868
0.000687252
0.000659226
0.000704331
0.000861445
0.00100102
0.00106132
0.00107289
0.00105526
0.00102171
0.00098093
0.000943698
0.000919442
0.000907487
0.000910733
0.000928209
0.00103985
0.00104238
0.00103101
0.00101424
0.000994214
0.000971595
0.000946587
0.000919789
0.000892046
0.000865219
0.000840752
0.000820186
0.000798627
0.000774877
0.000744901
0.00070712
0.000678694
0.000719281
0.000870584
0.00101402
0.00107902
0.00109383
0.00107991
0.00105042
0.00101347
0.000978411
0.000954063
0.000941832
0.000944121
0.000961723
0.0010523
0.00105447
0.00104457
0.0010297
0.00101154
0.000990528
0.000966785
0.000940939
0.000913971
0.000887811
0.000863889
0.000843503
0.000821602
0.0007966
0.000763975
0.000722459
0.000695217
0.000732802
0.00087325
0.00101851
0.0010866
0.00110478
0.0010944
0.00106884
0.00103575
0.00100342
0.000980022
0.000968402
0.00097016
0.000987865
0.00106038
0.00106242
0.0010541
0.00104113
0.00102481
0.00100539
0.000982901
0.000958044
0.000931915
0.000906464
0.000883048
0.000862709
0.000840378
0.000814044
0.000778867
0.000735035
0.000709461
0.000744721
0.000874441
0.00101669
0.00108766
0.00110788
0.00110066
0.00107907
0.00104986
0.00102037
0.000998585
0.000988263
0.000989955
0.00100789
0.00106509
0.00106718
0.00106044
0.00104937
0.00103484
0.00101694
0.000995672
0.000971797
0.000946511
0.000921754
0.000898767
0.000878349
0.000855497
0.000827766
0.000790246
0.000746715
0.000722086
0.000755102
0.000875616
0.00100892
0.00108192
0.00110446
0.00109951
0.00108126
0.00105634
0.00103044
0.0010106
0.00100214
0.00100444
0.00102277
0.00106695
0.00106934
0.00106412
0.00105493
0.00104213
0.00102569
0.0010056
0.000982682
0.000958211
0.000934106
0.000911457
0.000890869
0.000867359
0.000838239
0.000798713
0.000756942
0.000733291
0.000764095
0.000876275
0.000999466
0.00107099
0.00109575
0.00109313
0.00107766
0.00105595
0.00103384
0.00101707
0.00101056
0.00101412
0.00103313
0.00106624
0.00106928
0.00106568
0.00105827
0.00104709
0.00103196
0.00101297
0.000990998
0.000967331
0.000943835
0.000921448
0.000900584
0.000876333
0.000845878
0.000804894
0.000765734
0.000743215
0.000771761
0.00087619
0.000990876
0.00105835
0.00108318
0.00108246
0.00106959
0.00105092
0.00103188
0.00101819
0.0010144
0.00101917
0.00103968
0.00106345
0.00106733
0.00106549
0.0010597
0.00105002
0.00103613
0.00101813
0.000996996
0.000974065
0.000951175
0.000928986
0.000907754
0.000882733
0.000851092
0.000810623
0.00077358
0.00075204
0.000778218
0.000875272
0.000982682
0.00104676
0.0010706
0.00107008
0.00105825
0.00104222
0.00102605
0.00101535
0.00101421
0.00102071
0.0010428
0.00105869
0.00106359
0.00106348
0.00105949
0.00105115
0.00103837
0.0010213
0.00100097
0.000978694
0.000956259
0.000934239
0.000912586
0.000886804
0.000854289
0.0008159
0.000780679
0.000759922
0.000783606
0.000873532
0.000974481
0.00103573
0.00105868
0.00105845
0.00104784
0.00103291
0.00101755
0.00100908
0.00101046
0.00101919
0.00104307
0.00105193
0.00105817
0.00105985
0.00105754
0.00105064
0.00103889
0.00102264
0.00100306
0.000981431
0.000959415
0.000937443
0.000915348
0.000888929
0.000856043
0.00082053
0.000787136
0.000767003
0.000788063
0.000871008
0.000966025
0.00102487
0.0010471
0.0010472
0.00103766
0.00102383
0.00100952
0.00100111
0.00100369
0.00101469
0.00104061
0.00104322
0.00105107
0.00105456
0.00105394
0.00104835
0.00103765
0.0010223
0.00100349
0.00098246
0.00096083
0.000938919
0.000916461
0.000889618
0.000858136
0.000824838
0.000793104
0.000773426
0.000791718
0.000867759
0.000957197
0.00101394
0.00103563
0.00103609
0.00102749
0.00101477
0.00100162
0.00099352
0.0009948
0.00100753
0.00103558
0.00103269
0.00104231
0.00104763
0.00104865
0.00104429
0.00103458
0.00102012
0.00100215
0.000981867
0.000960736
0.000938954
0.000916185
0.000889767
0.000860344
0.000828984
0.000798725
0.000779327
0.000794705
0.000863873
0.000947928
0.00100276
0.00102407
0.00102493
0.00101719
0.00100557
0.000993626
0.000986084
0.000986668
0.000998122
0.00102815
0.00102064
0.00103199
0.0010391
0.00104165
0.00103848
0.00102965
0.00101609
0.000999046
0.000979577
0.000959005
0.000937487
0.000915268
0.000890415
0.000862749
0.000833088
0.000804125
0.000784819
0.000797125
0.000859424
0.000938181
0.00099122
0.00101231
0.00101358
0.00100667
0.000996139
0.000985397
0.000978604
0.000978996
0.00098951
0.00101837
0.00100974
0.0010215
0.00102955
0.00103309
0.00103105
0.00102312
0.00101041
0.000994664
0.000976534
0.000957046
0.00093654
0.000915145
0.000891552
0.000865407
0.000837249
0.000809416
0.000790031
0.000799106
0.000854495
0.000927837
0.000979233
0.00100023
0.00100195
0.000995853
0.000986408
0.000976868
0.000970978
0.000971525
0.000981398
0.0010067
0.000999581
0.00101177
0.00102062
0.0010248
0.00102354
0.00101653
0.00100505
0.000990584
0.000973769
0.000955445
0.000935992
0.000915521
0.000893111
0.000868338
0.000841541
0.000814701
0.000795093
0.000800835
0.000849204
0.00091707
0.000966752
0.000987773
0.000990001
0.000984725
0.000976368
0.000968025
0.000963165
0.000964083
0.00097357
0.000996161
0.000989887
0.00100254
0.00101208
0.00101685
0.00101635
0.00101022
0.000999882
0.000986672
0.000971168
0.000954076
0.000935765
0.000916298
0.000895036
0.000871559
0.000846027
0.000820071
0.000800134
0.000802512
0.000843749
0.000905945
0.000953762
0.000974876
0.000977692
0.000973272
0.000966027
0.000958918
0.000955152
0.00095657
0.000965835
0.0009863
0.000980451
0.000993598
0.00100371
0.00100907
0.00100932
0.00100405
0.000994797
0.000982813
0.000968647
0.000952867
0.000935803
0.000917427
0.000897295
0.000875085
0.000850766
0.000825631
0.000805287
0.000804271
0.000838342
0.00089461
0.000940299
0.000961497
0.000964975
0.000961472
0.000955387
0.000949629
0.000946948
0.00094896
0.000958162
0.000976841
0.000971064
0.000984719
0.000995398
0.00100133
0.00100229
0.000997904
0.000989711
0.000978954
0.000966183
0.000951794
0.000936063
0.000918891
0.000899923
0.000878967
0.000855853
0.000831527
0.00081074
0.000806374
0.000833347
0.000883307
0.000926488
0.000947698
0.00095185
0.000949304
0.000944451
0.000940125
0.000938508
0.000941204
0.000950448
0.000967581
0.000961604
0.000975841
0.000987084
0.000993527
0.000995156
0.000991667
0.000984581
0.000975099
0.000963761
0.000950843
0.000936579
0.000920738
0.000903033
0.000883389
0.000861547
0.000838091
0.000816912
0.000809234
0.000829202
0.000872551
0.000912694
0.000933713
0.000938467
0.000936881
0.000933368
0.000930451
0.0009299
0.000933364
0.000942668
0.000958403
0.000952101
0.000966927
0.000978709
0.000985601
0.00098783
0.000985292
0.000979378
0.000971265
0.000961448
0.000950195
0.000937596
0.000923295
0.00090715
0.000889034
0.000868685
0.000846312
0.000824919
0.000814106
0.00082718
0.000863296
0.000899761
0.000920122
0.000925291
0.000924598
0.000922443
0.000920861
0.000921343
0.000925583
0.000934893
0.000949322
0.000942786
0.000957934
0.000970298
0.000977571
0.000980359
0.000978878
0.000974304
0.000967789
0.000959885
0.000950705
0.000940115
0.000928019
0.000914113
0.000898137
0.000879852
0.000859043
0.000837744
0.000823948
0.000830202
0.000858198
0.00088974
0.00090861
0.000913736
0.000913606
0.000912486
0.000911973
0.000913383
0.000918235
0.00092737
0.000940503
0.000934497
0.00094979
0.000962391
0.000970304
0.000973762
0.000973693
0.000971118
0.000967111
0.000961937
0.00095583
0.000948648
0.000940173
0.000929977
0.00091755
0.000902473
0.000884056
0.000863262
0.000846521
0.000845727
0.000864105
0.00088922
0.000904461
0.000908226
0.00090762
0.000906484
0.000906276
0.000908005
0.000912807
0.00092126
0.000932831
0.000932007
0.000947369
0.000960403
0.000969911
0.000975526
0.000978567
0.000980083
0.000980853
0.000980993
0.000980738
0.000979856
0.000977876
0.000973962
0.000967104
0.000956683
0.000941516
0.000921636
0.000902373
0.00089376
0.000901006
0.000916021
0.00092516
0.000924719
0.000920953
0.000917314
0.000914936
0.000914747
0.000917366
0.000923176
0.000931585
0.000977628
0.000993119
0.00100777
0.00102131
0.00103282
0.0010432
0.00105293
0.00106212
0.00107075
0.00107968
0.00108794
0.00109452
0.0010978
0.00109673
0.00109039
0.00107804
0.00105984
0.0010402
0.00102589
0.00102219
0.00102528
0.00102589
0.00101912
0.00101023
0.00100139
0.00099326
0.000986609
0.000981842
0.000979677
0.000980365
0.00128414
0.00129366
0.00130319
0.00131377
0.00132334
0.0013334
0.00134136
0.00134762
0.00135315
0.00136193
0.00136961
0.00137471
0.00137545
0.00137212
0.00136337
0.00135128
0.00133694
0.00132438
0.0013158
0.00131241
0.00131342
0.00131494
0.00131504
0.00131416
0.00131224
0.00130907
0.00130487
0.00129967
0.001294
0.00128831
0.000217982
0.000218762
0.000211991
0.000202495
0.00019163
0.000180228
0.000168698
0.000157332
0.000146252
0.00013576
0.000125984
0.000117484
0.000109864
0.000104008
9.97882e-05
0.000103022
0.000119211
0.000147307
0.000164795
0.00017586
0.000181631
0.000183554
0.00018257
0.000179761
0.000176468
0.000173494
0.000171511
0.000169173
0.000170978
0.000174234
0.000967481
0.000999863
0.000906934
0.000794936
0.000697109
0.000616942
0.000552906
0.000502792
0.000463365
0.000434269
0.000409922
0.000388916
0.000375606
0.000387623
0.00040889
0.000461615
0.00057346
0.000721998
0.000821479
0.000873564
0.000890084
0.000881643
0.000855853
0.00082182
0.000789788
0.000766143
0.000742263
0.00070416
0.000655093
0.000624746
0.00159337
0.00170042
0.00161453
0.00146793
0.00131665
0.00118085
0.00106634
0.000974075
0.000901158
0.000847988
0.000803277
0.000763953
0.000733194
0.000741431
0.000763539
0.000841426
0.00103692
0.001298
0.00148709
0.00159684
0.00163891
0.00162952
0.00158278
0.00151723
0.00145718
0.00140368
0.00135301
0.00128365
0.00119578
0.0011447
0.00209775
0.00224123
0.00218882
0.00205101
0.00188449
0.00171987
0.00157169
0.00144679
0.00134761
0.00127016
0.00120417
0.00114613
0.00109447
0.00108783
0.00110002
0.00118911
0.00144221
0.00179312
0.00205355
0.00221437
0.00228454
0.00228464
0.00222897
0.00214951
0.00206179
0.00198373
0.00191215
0.00182372
0.00171093
0.00164737
0.00251538
0.00266921
0.00265809
0.00254507
0.00238431
0.00220954
0.00204186
0.00189502
0.00177323
0.001676
0.00159212
0.00151523
0.00144196
0.00141508
0.00141124
0.00150172
0.00179104
0.002206
0.00252436
0.00272718
0.00282345
0.00283944
0.00278421
0.00270219
0.00260593
0.00250745
0.00241695
0.00231353
0.0021864
0.0021131
0.00286792
0.00302743
0.00304911
0.00296838
0.00282387
0.00265011
0.0024728
0.00231064
0.00217169
0.00205973
0.00195908
0.001864
0.00176948
0.00171973
0.00169533
0.00177819
0.00208335
0.00253735
0.00290869
0.00314629
0.00326532
0.00329871
0.00325098
0.00317115
0.00307767
0.00297838
0.00287808
0.00275879
0.00261527
0.00253809
0.00317856
0.00333733
0.00338532
0.00333699
0.00321297
0.00304637
0.0028658
0.00269409
0.00254187
0.0024178
0.00230184
0.00218919
0.0020741
0.00200046
0.00195213
0.00202201
0.00231972
0.00279058
0.00320802
0.00348283
0.00362129
0.00366968
0.00363497
0.00356237
0.00347726
0.00338495
0.00328797
0.00317123
0.00301498
0.0029332
0.00345101
0.00360879
0.00368026
0.00366197
0.00355921
0.00340276
0.00322292
0.00304546
0.00288321
0.00274803
0.00261843
0.002489
0.00235454
0.00225691
0.00218273
0.00223511
0.00251128
0.00300715
0.0034579
0.00374935
0.00390243
0.00396072
0.00394234
0.00388252
0.00380852
0.00373018
0.00364279
0.00353444
0.00337543
0.00329159
0.00369001
0.00384579
0.00394172
0.00395049
0.00386784
0.00372255
0.00354572
0.00336488
0.00319531
0.00304829
0.00290788
0.00276276
0.00261011
0.00248836
0.00238981
0.00242343
0.00268093
0.00317184
0.00365497
0.00397089
0.00413006
0.00418295
0.00416657
0.00412613
0.00407867
0.00401888
0.00394543
0.00385242
0.00369449
0.00361406
0.00391181
0.00406103
0.00417442
0.00420688
0.0041422
0.00400781
0.00383523
0.00365281
0.00347831
0.00331955
0.00316737
0.00300984
0.00284097
0.00269614
0.00257704
0.00259388
0.00283231
0.00330101
0.00377182
0.00411266
0.00428977
0.00434662
0.00433786
0.00430287
0.00425848
0.00422063
0.00418033
0.00411704
0.00397928
0.00390592
0.00411281
0.00425637
0.00438091
0.00443359
0.00438423
0.00425982
0.00409206
0.00390943
0.00373059
0.00356329
0.003398
0.00322796
0.00304656
0.00288248
0.00274997
0.00274756
0.00296494
0.00339719
0.00385497
0.00420785
0.0044005
0.00445997
0.00445959
0.00443679
0.00440321
0.00437221
0.00434398
0.00431118
0.00422464
0.00416532
0.00429493
0.00443361
0.00456483
0.00463196
0.00459493
0.00447926
0.00431659
0.00413488
0.00395271
0.00377887
0.00360446
0.00342428
0.0032301
0.00304993
0.00291104
0.0028851
0.00307814
0.0034669
0.00390592
0.00426127
0.00447074
0.00453135
0.00453831
0.00452731
0.00450939
0.00449409
0.0044773
0.00446236
0.00441236
0.00438684
0.00445599
0.00459518
0.00472771
0.00480151
0.00477451
0.0046664
0.00450912
0.00432956
0.00414567
0.00396685
0.00378591
0.00359736
0.00339298
0.00320346
0.00305401
0.00300637
0.00316976
0.003514
0.0039262
0.0042765
0.0044935
0.00456371
0.00457988
0.00457881
0.00457627
0.00458015
0.00458483
0.00458687
0.00456528
0.00456456
0.004591
0.00473533
0.00487035
0.00494386
0.0049223
0.00482098
0.0046698
0.00449424
0.00431082
0.00412962
0.00394421
0.00374908
0.00353971
0.00334986
0.0031807
0.0031116
0.00324027
0.00353993
0.00391868
0.00425683
0.00447495
0.00455178
0.00457916
0.00459097
0.00460334
0.00462959
0.00465938
0.00468743
0.00469471
0.00471707
0.004701
0.0048499
0.0049896
0.00506084
0.00504182
0.00494616
0.00480075
0.0046309
0.00445059
0.00426946
0.00408206
0.00388382
0.00367657
0.00348235
0.00329176
0.00320103
0.00329173
0.00354623
0.00388649
0.00420613
0.00442032
0.00450153
0.00454151
0.00456813
0.00459643
0.00463979
0.00469742
0.00475783
0.00479731
0.00484438
0.00477762
0.00493337
0.00507666
0.00515373
0.00513508
0.00504584
0.00490794
0.00474435
0.00456912
0.00439069
0.00420477
0.00400752
0.00380246
0.00359324
0.00338679
0.00327444
0.00332738
0.00353513
0.00383324
0.00412866
0.00433468
0.0044188
0.004472
0.0045147
0.0045599
0.00462069
0.00470068
0.00479556
0.00486866
0.00494105
0.00482755
0.00499316
0.00513923
0.00521681
0.00520417
0.00512317
0.00499486
0.00484015
0.0046718
0.00449782
0.00431365
0.00411935
0.00390931
0.00368371
0.00346553
0.00333231
0.00334882
0.00350991
0.00376358
0.00402913
0.00422321
0.00430899
0.00437539
0.00443486
0.00449735
0.0045756
0.00467583
0.00479582
0.00490687
0.00500435
0.00485333
0.00503198
0.00517836
0.00525681
0.00525267
0.00518189
0.00506544
0.00491904
0.0047597
0.00459163
0.00440938
0.00421035
0.0039896
0.003754
0.00352722
0.00337381
0.00335129
0.00346293
0.00367644
0.00391215
0.00409134
0.00417648
0.00425577
0.00433287
0.00441241
0.00450721
0.00462558
0.00476688
0.00490688
0.00503726
0.00484696
0.00504484
0.00519865
0.00528388
0.00528504
0.00522282
0.00511595
0.0049769
0.00482211
0.00465548
0.00447232
0.00427027
0.00404396
0.00380316
0.00357022
0.00339806
0.00333864
0.00339497
0.00356762
0.00377778
0.00394273
0.00402653
0.00411717
0.00420967
0.00430609
0.0044174
0.00455263
0.00471067
0.0048722
0.00505166
0.00481332
0.00501423
0.0051729
0.00526552
0.00527949
0.00522318
0.00512372
0.00499496
0.00484699
0.0046837
0.00450162
0.00429847
0.00407033
0.00382801
0.00359111
0.0034026
0.00331105
0.00332318
0.0034449
0.00362299
0.00378121
0.00387147
0.00397364
0.00407985
0.00418969
0.00431311
0.00445932
0.0046284
0.00480583
0.00501933
0.00474915
0.00494596
0.00510735
0.00520284
0.00523255
0.0051824
0.00509197
0.00497418
0.00483451
0.00467572
0.00449494
0.00429088
0.00406302
0.00382182
0.00358326
0.00338193
0.00326529
0.00324948
0.00332026
0.00346455
0.00361042
0.00371141
0.00383016
0.0039497
0.00407217
0.00420546
0.00435894
0.00453289
0.00471701
0.00494926
0.00465778
0.00484789
0.00499999
0.0051075
0.00514758
0.00510519
0.00502296
0.00491488
0.00478216
0.0046269
0.00444613
0.00424001
0.00401043
0.00377208
0.00353522
0.00332745
0.00319233
0.0031504
0.0031884
0.0033052
0.00343216
0.0035372
0.00367499
0.00381377
0.0039531
0.00409843
0.00425877
0.00443476
0.00462098
0.0048481
0.00453475
0.0047124
0.00486783
0.004983
0.00502617
0.00499149
0.00491477
0.00481263
0.00468286
0.0045262
0.00434087
0.00412928
0.00389633
0.00366018
0.00342978
0.00322478
0.00307892
0.00302441
0.00305403
0.00313586
0.00324548
0.00335606
0.00350486
0.00365592
0.00380968
0.00396455
0.0041274
0.00430659
0.00449849
0.00471323
0.00438559
0.00456254
0.00471655
0.00482728
0.00486505
0.00483167
0.00475825
0.00465303
0.00451708
0.00435131
0.00415654
0.00393684
0.00369988
0.00346665
0.00324874
0.00305504
0.00291169
0.00285951
0.0028803
0.00295945
0.00304657
0.00316747
0.00332502
0.00348544
0.00364655
0.00380989
0.00398131
0.00416503
0.00435678
0.0045486
0.00422328
0.00439107
0.00453083
0.00462717
0.00464775
0.00460583
0.00452338
0.00440643
0.00425665
0.00407619
0.00387141
0.00364721
0.00341224
0.00318955
0.00299204
0.00282015
0.00269089
0.0026458
0.00267319
0.002746
0.00282932
0.00296408
0.00312453
0.00329197
0.0034632
0.00363603
0.003813
0.00399898
0.00418642
0.00435817
0.0040171
0.00416778
0.00428357
0.00434563
0.00433672
0.00427384
0.00417257
0.00403874
0.00387697
0.00369314
0.00349453
0.00328568
0.00307468
0.00287964
0.002717
0.00257853
0.0024676
0.00242473
0.0024519
0.00252109
0.00260604
0.00273807
0.00288917
0.00305454
0.00322976
0.0034095
0.00359219
0.0037792
0.00396318
0.00412307
0.0037197
0.00383974
0.0039121
0.00393154
0.00388979
0.00380822
0.00369884
0.00356836
0.00342302
0.00326919
0.00311289
0.00295735
0.00280468
0.00265879
0.00254301
0.00244286
0.00235118
0.00230274
0.00231005
0.00235943
0.002428
0.00253116
0.00264489
0.00277998
0.00293396
0.00310137
0.00327754
0.0034578
0.00363571
0.00379172
0.00329089
0.00337032
0.00340824
0.00340779
0.00336464
0.00330237
0.00322758
0.00314557
0.0030579
0.00296807
0.00287997
0.00279355
0.00270455
0.00260936
0.00253115
0.00245776
0.00238644
0.00233923
0.00232749
0.00235017
0.00239003
0.00245181
0.00251317
0.00258972
0.00268368
0.00279466
0.00292193
0.00305996
0.00319842
0.00332758
0.00291665
0.00297207
0.00300684
0.00302341
0.0030142
0.00299718
0.00297404
0.00294557
0.00291028
0.0028649
0.00281607
0.00276598
0.00270762
0.00265433
0.0025985
0.00254377
0.00249369
0.00245983
0.00244468
0.00245442
0.00247429
0.00250507
0.00253746
0.00257865
0.00262853
0.00268675
0.00275328
0.00282281
0.00288275
0.00293629
0.00282341
0.00286525
0.00289199
0.0029067
0.00290469
0.00289646
0.00288243
0.00286524
0.00284432
0.00281937
0.00279298
0.00276241
0.00272526
0.00268558
0.00264778
0.00261523
0.00258981
0.00257868
0.00257779
0.00258755
0.00260044
0.00262005
0.002641
0.00266513
0.0026917
0.00271821
0.00274347
0.00277132
0.00279984
0.002821
0.000250937
0.000248949
0.000240169
0.000229018
0.000216463
0.000203288
0.000189923
0.000176701
0.000163718
0.00015128
0.000139285
0.000128244
0.000119822
0.00011953
0.000127955
0.000150677
0.000174441
0.00019942
0.000214012
0.000222958
0.000227408
0.000228872
0.000228235
0.000226258
0.000223509
0.000220278
0.000217159
0.000212961
0.000210721
0.000208081
0.00117757
0.00126086
0.00116711
0.00102942
0.000904533
0.000801926
0.000721802
0.000660481
0.000612472
0.000575699
0.000536518
0.000494077
0.00048715
0.000563758
0.000660453
0.000807375
0.000970426
0.00113752
0.00124419
0.00129213
0.00129498
0.00127004
0.00122875
0.00118145
0.00113047
0.00107529
0.00101329
0.000931378
0.000833903
0.00075529
0.00198987
0.00216334
0.00209778
0.001934
0.00174975
0.00157902
0.00143544
0.00132031
0.00122795
0.00115693
0.00108292
0.00100402
0.000977931
0.0010935
0.00124855
0.0014985
0.00178822
0.00207483
0.0022824
0.00239197
0.00241827
0.00238144
0.0023091
0.00222094
0.00212343
0.00201216
0.00189227
0.00174193
0.00156461
0.00141877
0.00264638
0.00287195
0.00285302
0.00271405
0.002521
0.00231892
0.00213457
0.00197803
0.00184829
0.00174688
0.00164073
0.001531
0.00148196
0.00161215
0.00179825
0.00211281
0.00249112
0.00286317
0.00314724
0.00331303
0.00337014
0.00333544
0.00324743
0.00313485
0.0030071
0.00286306
0.00270571
0.0025071
0.00226518
0.00207079
0.00321043
0.00344925
0.00348516
0.00338823
0.00320943
0.00299778
0.00278951
0.00260338
0.00244456
0.0023177
0.00218368
0.00204931
0.00197767
0.00210786
0.0023066
0.00265257
0.00308527
0.0035204
0.00386192
0.00407425
0.00416102
0.00413716
0.00404488
0.00392145
0.0037784
0.00362029
0.00344147
0.00321415
0.00292953
0.00269608
0.00371129
0.00395704
0.0040413
0.00398804
0.00383218
0.00362208
0.0034004
0.00319322
0.00301141
0.00286102
0.00270527
0.00254989
0.00245678
0.00257656
0.00277099
0.00312623
0.00358699
0.00406118
0.00445335
0.00470299
0.0048137
0.00480483
0.00471631
0.00459262
0.00444711
0.00428501
0.00409985
0.00385889
0.00354617
0.00328419
0.00416394
0.00441828
0.00454565
0.00453492
0.00440396
0.00420029
0.00397126
0.00374861
0.00354779
0.00337711
0.00320101
0.00302759
0.00291423
0.00301549
0.00319496
0.00354152
0.00400932
0.00450419
0.00493335
0.00522187
0.00534943
0.00535444
0.00527499
0.00515905
0.00502346
0.00486443
0.00468554
0.00444622
0.00411594
0.00383832
0.0045733
0.00484355
0.00501342
0.00504181
0.00493401
0.00473802
0.00450488
0.00427012
0.00405279
0.00386234
0.00366676
0.00347853
0.00334713
0.00343147
0.00358121
0.00390536
0.00436208
0.00489831
0.00535641
0.00566568
0.00579157
0.00579191
0.0057218
0.00562692
0.00551574
0.00537404
0.00520438
0.00498272
0.00464865
0.00435936
0.00496482
0.00524519
0.00545415
0.00551564
0.00542716
0.00523813
0.00500232
0.00475749
0.00452517
0.00431571
0.00410318
0.00390091
0.00375299
0.00381425
0.00393252
0.00422367
0.00468089
0.00519502
0.00566808
0.0060102
0.006147
0.00615054
0.00608546
0.00598056
0.00586493
0.00575443
0.00562687
0.00543603
0.00513195
0.00485521
0.00534107
0.00562912
0.0058721
0.00595917
0.00588512
0.00570125
0.00546333
0.00520981
0.00496378
0.00473657
0.0045078
0.004296
0.00413916
0.00416575
0.00425239
0.00450528
0.00493381
0.00543389
0.00591263
0.00628327
0.00642883
0.00643945
0.00638508
0.00629116
0.00617363
0.00606299
0.00594511
0.00580765
0.0055626
0.00531849
0.00569805
0.00599623
0.00626512
0.00637202
0.00630746
0.00612679
0.005887
0.00562606
0.00536778
0.00512441
0.00488168
0.00466212
0.00449479
0.00448973
0.00454484
0.00476025
0.00515166
0.00562807
0.00610049
0.00649273
0.00664682
0.00666708
0.0066258
0.00654676
0.00644621
0.0063387
0.00623405
0.00611707
0.00594256
0.00574754
0.00603773
0.00634685
0.00663187
0.00675226
0.00669266
0.00651341
0.00627236
0.00600554
0.00573684
0.00547972
0.00522688
0.00500092
0.00482294
0.00478906
0.00481446
0.00499131
0.00533542
0.00577894
0.00623406
0.00663935
0.00680787
0.00684091
0.00681428
0.00675287
0.00667288
0.0065871
0.00649608
0.00640429
0.00626973
0.00614008
0.00636531
0.00667932
0.00697169
0.00709749
0.00703877
0.00685979
0.00661879
0.00634816
0.00607188
0.00580455
0.00554512
0.00531396
0.00512627
0.00506755
0.00505998
0.00519312
0.0054845
0.0058866
0.00631492
0.00672433
0.00690815
0.00696019
0.00695556
0.00691407
0.00685741
0.0067979
0.00673336
0.00666865
0.00657585
0.00649657
0.00666922
0.00699224
0.00728178
0.00740511
0.00734394
0.00716598
0.00692656
0.00665478
0.00637426
0.00610086
0.00583834
0.00560259
0.00540625
0.00532124
0.0052791
0.00536273
0.0055975
0.00594962
0.0063448
0.00674853
0.00694744
0.00702418
0.00704821
0.00703354
0.00700201
0.0069726
0.00694239
0.00690772
0.00685813
0.00682323
0.00695103
0.00728134
0.0075594
0.00767274
0.00760744
0.00743283
0.00719672
0.00692697
0.00664614
0.00637059
0.00610814
0.00586698
0.00566383
0.00554681
0.0054684
0.00549964
0.00567257
0.00596748
0.00632404
0.00671219
0.00692551
0.00703129
0.00709066
0.00711031
0.00711022
0.00711059
0.00711758
0.00712298
0.00711425
0.00712373
0.00720377
0.00753636
0.00780076
0.00789987
0.00783043
0.00766156
0.00743094
0.0071668
0.0068897
0.00661435
0.00635326
0.00611126
0.00589534
0.00573962
0.00562325
0.00560031
0.00570759
0.00594011
0.00625269
0.00661607
0.0068423
0.00697966
0.00708045
0.00714166
0.00717993
0.00721491
0.00725634
0.007304
0.00734174
0.00739354
0.00741269
0.00774675
0.0080014
0.00808566
0.00801531
0.00785416
0.00763052
0.00737539
0.00710571
0.00683527
0.00656789
0.0063161
0.00608374
0.00589292
0.00573764
0.00566015
0.00570021
0.00586764
0.0061307
0.00646297
0.00669793
0.00686775
0.00701386
0.00712327
0.00720671
0.00728163
0.00736083
0.00744705
0.00753134
0.00762696
0.00758487
0.00791517
0.00815722
0.00823072
0.00816436
0.00801273
0.00779833
0.00754638
0.00727635
0.00700708
0.00673705
0.00647622
0.00622482
0.0059999
0.00580385
0.00567236
0.00564706
0.00575006
0.00595963
0.00625585
0.00649275
0.00669377
0.00688735
0.00705045
0.00718489
0.00730432
0.00742477
0.0075505
0.00767612
0.0078089
0.00771411
0.00803565
0.0082487
0.00832891
0.0082708
0.00811489
0.00790442
0.0076582
0.00739458
0.00712629
0.00685204
0.00658033
0.00630744
0.00604963
0.00581446
0.00563092
0.00554428
0.00557221
0.0057265
0.00599611
0.0062388
0.00647561
0.00671286
0.00692315
0.00710518
0.00727453
0.00743973
0.00760649
0.00777127
0.00793999
0.00779724
0.00807923
0.00827356
0.00836404
0.00830805
0.00815486
0.00794847
0.00770829
0.00744904
0.00717963
0.00689818
0.00661244
0.00631649
0.00602935
0.00575795
0.0055272
0.0053873
0.0053602
0.00546228
0.00569039
0.00592732
0.00621501
0.00651017
0.00676746
0.00699394
0.00720593
0.00740677
0.00760633
0.0078069
0.00800983
0.00780063
0.00803983
0.00824231
0.00832801
0.0082728
0.00812378
0.00791985
0.00768259
0.00742393
0.00714949
0.00685664
0.00655364
0.00623426
0.00592148
0.00561969
0.00535038
0.00516826
0.00509791
0.00515619
0.00534326
0.00556759
0.00587768
0.00622118
0.00655423
0.00685589
0.00711338
0.007348
0.00757311
0.00779543
0.00802252
0.00771015
0.00794442
0.00813378
0.00820975
0.00815216
0.00800375
0.00780005
0.00756181
0.00729845
0.0070142
0.0067053
0.00638244
0.00604105
0.00570657
0.00538444
0.00509011
0.00487754
0.00477951
0.00480675
0.00495494
0.00516663
0.00549148
0.00586361
0.00623696
0.00658699
0.00690343
0.0071877
0.00745119
0.00770182
0.00794872
0.00753682
0.00776486
0.00793271
0.00799291
0.00792703
0.00777359
0.00756474
0.0073194
0.00704549
0.00674727
0.0064225
0.00607961
0.00572105
0.00537177
0.00504174
0.00473684
0.00450988
0.00440115
0.00441408
0.0045303
0.00472596
0.00506291
0.00545
0.00584735
0.00622266
0.006571
0.00690014
0.00720976
0.00749133
0.00776446
0.00725558
0.0074723
0.0076162
0.00765246
0.00756984
0.00740418
0.00718397
0.00692638
0.00663948
0.00632862
0.00599449
0.00564018
0.00527583
0.00492516
0.00460222
0.00430187
0.00407833
0.00396769
0.00397885
0.00407692
0.00426259
0.00459158
0.00498005
0.00538466
0.00578123
0.00615915
0.00651888
0.00685738
0.00716577
0.00745462
0.00683828
0.00703865
0.00714775
0.00715257
0.00704569
0.00686331
0.00663084
0.00636431
0.00607288
0.00576294
0.00543684
0.00509519
0.0047459
0.00441593
0.00411942
0.00384249
0.00363299
0.00352564
0.00353241
0.00362036
0.0037894
0.00409453
0.00445648
0.00484535
0.00524214
0.00563252
0.00601005
0.00636848
0.00669642
0.00699523
0.00624758
0.00641902
0.00648584
0.00645809
0.00633026
0.00614013
0.00591089
0.0056572
0.00538822
0.00510927
0.00482221
0.00452728
0.00422494
0.00394193
0.00369321
0.00345374
0.00326754
0.00316938
0.00316943
0.00323824
0.00337158
0.00361677
0.00391969
0.00425789
0.00461843
0.00498871
0.00535816
0.00571658
0.00604952
0.00635099
0.00546225
0.00559497
0.00562975
0.00558866
0.00546722
0.00530284
0.00511481
0.0049142
0.00470691
0.00449489
0.00427823
0.00405681
0.00382794
0.00360651
0.00341209
0.00322798
0.00308516
0.00299975
0.00298641
0.00302836
0.0031188
0.00327447
0.00346779
0.00372058
0.00400191
0.00430162
0.00461458
0.00492922
0.00523203
0.00551068
0.00459971
0.00470106
0.0047341
0.00471731
0.0046441
0.00454588
0.00443418
0.0043147
0.00418897
0.00405535
0.00391318
0.00376274
0.00359639
0.00343326
0.00329445