/*--------------------------------*- C++ -*----------------------------------*\
  =========                 |
  \\      /  F ield         | OpenFOAM: The Open Source CFD Toolbox
   \\    /   O peration     | Website:  https://openfoam.org
    \\  /    A nd           | Version:  12
     \\/     M anipulation  |
\*---------------------------------------------------------------------------*/
FoamFile
{
    format      ascii;
    class       volScalarField;
    location    "450/air";
    object      p_rgh;
}
// * * * * * * * * * * * * * * * * * * * * * * * * * * * * * * * * * * * * * //

dimensions      [1 -1 -2 0 0 0 0];

internalField   nonuniform List<scalar> 
243000
(
29.673
29.7344
29.7789
29.6741
29.5507
29.4175
29.2781
29.137
28.9859
28.8341
28.6506
28.4559
28.137
27.7996
27.5527
27.4946
27.5827
27.7163
27.7279
27.7725
27.8579
27.9982
28.1628
28.337
28.4948
28.6423
28.8173
28.9927
29.2527
29.465
29.6657
29.7318
29.7861
29.6886
29.5698
29.4386
29.3
29.1583
29.0058
28.8525
28.6673
28.4718
28.1515
27.8136
27.5699
27.5111
27.5959
27.7278
27.7444
27.791
27.8782
28.0193
28.1823
28.3543
28.5098
28.6564
28.8327
29.009
29.2741
29.4808
29.6049
29.6678
29.7168
29.624
29.5195
29.4038
29.2775
29.1445
28.9983
28.8513
28.6674
28.4725
28.1526
27.8166
27.5726
27.5138
27.5974
27.7282
27.747
27.7923
27.879
28.0202
28.1818
28.3542
28.5121
28.6599
28.8392
29.0159
29.2833
29.4858
29.5035
29.5441
29.5887
29.5096
29.4264
29.3268
29.2141
29.0927
28.9556
28.8154
28.6343
28.4397
28.1247
27.8006
27.5641
27.5072
27.586
27.7107
27.7266
27.7594
27.8322
27.9645
28.1204
28.292
28.4577
28.6177
28.8113
28.9926
29.2601
29.4627
29.366
29.389
29.4313
29.3696
29.3091
29.2278
29.1308
29.023
28.8976
28.7664
28.5882
28.3938
28.0847
27.7753
27.5474
27.4941
27.5677
27.6848
27.6938
27.7128
27.769
27.8889
28.0382
28.2082
28.3799
28.5435
28.7454
28.9313
29.1979
29.4097
29.2018
29.2152
29.2578
29.2159
29.1783
29.1163
29.0368
28.944
28.8319
28.7106
28.5359
28.3419
28.0402
27.7464
27.5284
27.4794
27.5473
27.6556
27.6579
27.6629
27.7018
27.807
27.9466
28.113
28.2872
28.454
28.655
28.8457
29.1026
29.3218
29.0181
29.0288
29.0735
29.0523
29.0365
28.9943
28.9332
28.8567
28.7589
28.6477
28.4771
28.2841
27.9913
27.7133
27.5077
27.4639
27.5255
27.6239
27.6201
27.6118
27.6325
27.7211
27.8487
28.0086
28.1822
28.3509
28.5497
28.7359
28.9774
29.2051
28.8217
28.8364
28.8844
28.8836
28.8876
28.8651
28.8229
28.7632
28.6802
28.5792
28.4132
28.222
27.9395
27.6772
27.4861
27.448
27.5039
27.5925
27.5825
27.5625
27.5655
27.6353
27.7486
27.8996
28.0696
28.2382
28.4323
28.616
28.8384
29.0749
28.6204
28.6437
28.6965
28.7141
28.7351
28.7323
28.709
28.6662
28.5981
28.5067
28.3457
28.1575
27.8864
27.6402
27.4647
27.4326
27.483
27.5634
27.548
27.5176
27.5045
27.5544
27.652
27.7913
27.9543
28.1198
28.3071
28.4888
28.6908
28.9341
28.421
28.4552
28.5131
28.5475
28.5843
28.5989
28.5942
28.5682
28.5146
28.4322
28.2764
28.0925
27.8333
27.6043
27.4448
27.4188
27.4637
27.5374
27.5176
27.4794
27.4518
27.4823
27.5632
27.6885
27.8409
28.0004
28.1781
28.3574
28.5388
28.7867
28.2285
28.2743
28.3373
28.3876
28.4387
28.4694
28.4813
28.4716
28.4316
28.3573
28.2071
28.0286
27.782
27.5723
27.4273
27.4071
27.4469
27.5149
27.4929
27.4497
27.4105
27.423
27.4854
27.5958
27.7343
27.8847
28.05
28.2255
28.3865
28.6363
28.0469
28.1041
28.1724
28.2374
28.3016
28.3472
28.3736
28.3784
28.3512
28.284
28.1393
27.9672
27.7347
27.545
27.4134
27.3978
27.4332
27.4958
27.4754
27.4282
27.3809
27.3788
27.4231
27.5164
27.6385
27.7771
27.9272
28.0971
28.2385
28.4869
27.8798
27.9474
28.0209
28.0996
28.1755
28.235
28.2744
28.2909
28.2752
28.214
28.0753
27.9107
27.694
27.5231
27.4034
27.391
27.4232
27.4801
27.4632
27.4146
27.3613
27.3492
27.3778
27.4535
27.5576
27.6818
27.8145
27.9759
28.0989
28.3419
27.7299
27.8069
27.8853
27.9765
28.0631
28.1351
28.186
28.2123
28.2058
28.1497
28.018
27.8617
27.6613
27.5066
27.3974
27.3875
27.417
27.4695
27.456
27.4081
27.3517
27.332
27.3478
27.4076
27.4936
27.6024
27.7164
27.866
27.9718
28.2051
27.5997
27.6847
27.7683
27.871
27.9672
28.0506
28.1114
28.1459
28.146
28.094
27.9701
27.8228
27.6369
27.496
27.3957
27.3878
27.4145
27.4652
27.4549
27.4076
27.3492
27.3255
27.3318
27.3767
27.4461
27.5402
27.6361
27.7713
27.8611
28.0794
27.4916
27.5837
27.6731
27.7866
27.8913
27.9851
28.0544
28.0953
28.0992
28.0501
27.9335
27.7943
27.621
27.494
27.3983
27.3913
27.4161
27.4669
27.4626
27.4195
27.3594
27.3307
27.3326
27.3639
27.4151
27.4943
27.5744
27.6953
27.7701
27.9672
27.4081
27.5075
27.6032
27.7275
27.8399
27.9431
28.0189
28.0626
28.0671
28.0192
27.9087
27.7792
27.6201
27.4973
27.405
27.3973
27.4208
27.4729
27.4751
27.4384
27.3789
27.3478
27.3444
27.3698
27.4104
27.4697
27.5321
27.6379
27.6998
27.8736
27.3507
27.4568
27.5574
27.6889
27.8085
27.9202
28.0035
28.0495
28.0504
28.0046
27.905
27.7807
27.6251
27.5046
27.4151
27.4058
27.4282
27.4822
27.491
27.463
27.4071
27.3758
27.3683
27.3879
27.4207
27.473
27.5209
27.603
27.6577
27.8024
27.3155
27.4254
27.5314
27.6691
27.7954
27.9144
28.0048
28.0564
28.053
28.0096
27.9124
27.7891
27.6353
27.5166
27.4277
27.4162
27.4374
27.4933
27.5089
27.4914
27.4423
27.4131
27.4036
27.4187
27.4444
27.4883
27.5309
27.6037
27.6482
27.7613
27.3001
27.4138
27.5259
27.6716
27.8143
27.949
28.0403
28.0825
28.0719
28.0256
27.9287
27.8045
27.651
27.5324
27.4417
27.4275
27.4472
27.5046
27.5279
27.5217
27.4824
27.4579
27.4486
27.4612
27.482
27.5194
27.555
27.6192
27.6599
27.756
27.3098
27.4374
27.5671
27.7294
27.8805
28.0149
28.0971
28.1271
28.1087
28.0568
27.9563
27.8279
27.6726
27.5506
27.4564
27.4384
27.4561
27.5147
27.5466
27.5518
27.5248
27.5076
27.5013
27.5138
27.5325
27.567
27.5987
27.6538
27.6893
27.7734
27.3658
27.5091
27.651
27.8222
27.976
28.1047
28.1743
28.1906
28.1632
28.1029
27.9952
27.8595
27.6986
27.5703
27.4707
27.4475
27.4627
27.5224
27.5632
27.5798
27.5669
27.5597
27.5591
27.5742
27.5941
27.629
27.6607
27.7128
27.7466
27.8185
27.4563
27.6131
27.7664
27.9454
28.0979
28.2169
28.2711
28.2728
28.2342
28.1628
28.0442
27.8976
27.7281
27.5905
27.4832
27.4532
27.4655
27.5261
27.5752
27.6042
27.6064
27.6112
27.6186
27.639
27.6644
27.7034
27.7398
27.7933
27.8297
27.8977
27.5797
27.7502
27.9141
28.0985
28.2463
28.3513
28.3871
28.3743
28.3218
28.2361
28.1025
27.9413
27.7602
27.6101
27.4926
27.4543
27.4632
27.5255
27.5806
27.6239
27.641
27.6591
27.677
27.7049
27.7398
27.7873
27.8331
27.8933
27.9373
28.0071
27.7341
27.9196
28.0934
28.281
28.4213
28.5085
28.5241
28.4952
28.4262
28.3224
28.1698
27.9906
27.7942
27.6289
27.4987
27.4501
27.4543
27.5164
27.5813
27.6363
27.6697
27.7021
27.7315
27.77
27.8171
27.8776
27.9377
28.0101
28.0671
28.1452
27.9142
28.1174
28.3017
28.4906
28.621
28.6872
28.6824
28.6349
28.5462
28.4203
28.2451
28.0448
27.8301
27.6474
27.5022
27.4413
27.4391
27.5006
27.5739
27.6417
27.6914
27.7402
27.7808
27.8317
27.8934
27.9698
28.0477
28.1369
28.2121
28.3049
28.1318
28.3509
28.5449
28.7317
28.8499
28.8934
28.8691
28.7992
28.6866
28.5329
28.3315
28.1069
27.871
27.6688
27.5074
27.4326
27.4224
27.4813
27.561
27.6446
27.7078
27.7739
27.828
27.8929
27.9735
28.0703
28.1711
28.2837
28.3827
28.499
28.3254
28.5761
28.7916
28.9796
29.0822
29.1012
29.055
28.9587
28.8165
28.633
28.4039
28.154
27.8956
27.6731
27.4901
27.3997
27.3811
27.44
27.5284
27.6283
27.713
27.7929
27.8594
27.9338
28.0266
28.1367
28.2548
28.3873
28.512
28.6544
28.7772
29.0202
29.2167
29.3694
29.4452
29.4421
29.3685
29.2383
29.0592
28.8401
28.578
28.2976
28.0136
27.7733
27.5745
27.47
27.4386
27.4925
27.5878
27.701
27.7994
27.8948
27.9877
28.0993
28.2353
28.3878
28.55
28.7257
28.8946
29.0749
28.2083
28.5744
28.8912
29.1241
29.2039
29.176
29.0737
28.914
28.7057
28.4609
28.178
27.8787
27.5758
27.3178
27.1004
26.9773
26.9292
26.9746
27.0682
27.1822
27.2778
27.362
27.4369
27.5301
27.645
27.7766
27.9201
28.0807
28.2483
28.4451
29.0475
28.7899
28.7485
28.6438
28.5901
28.5544
28.5197
28.4825
28.4253
28.359
28.2395
28.0954
27.8038
27.5281
27.3637
27.3269
27.2635
27.2791
27.2511
27.2193
27.2464
27.3838
27.5922
27.8426
28.085
28.2787
28.4683
28.6098
28.8226
28.8803
28.9912
28.7268
28.7239
28.6478
28.6029
28.5737
28.5432
28.5079
28.4493
28.3802
28.2587
28.1146
27.8219
27.5462
27.384
27.3485
27.2887
27.3105
27.2826
27.2521
27.2764
27.4106
27.6182
27.8676
28.1104
28.3038
28.4931
28.6327
28.8486
28.9096
28.9007
28.6452
28.6633
28.6013
28.5731
28.5527
28.5273
28.4953
28.4414
28.3781
28.2571
28.1135
27.8224
27.5508
27.3904
27.3538
27.2953
27.3217
27.2921
27.2558
27.2758
27.4086
27.613
27.8584
28.1014
28.3002
28.4938
28.6325
28.8465
28.9125
28.7701
28.5429
28.5761
28.5331
28.5244
28.5157
28.4987
28.4734
28.4246
28.3665
28.2452
28.1009
27.8133
27.5509
27.3875
27.3447
27.2849
27.3128
27.2813
27.2382
27.2446
27.3625
27.556
27.7974
28.0402
28.2459
28.4485
28.5927
28.8055
28.8891
28.6192
28.4313
28.4726
28.4479
28.4565
28.4598
28.453
28.4363
28.3947
28.3408
28.2176
28.0703
27.7874
27.5376
27.3767
27.3278
27.266
27.2938
27.2594
27.2087
27.2017
27.303
27.4809
27.7109
27.9501
28.1589
28.3668
28.5206
28.7213
28.8287
28.4553
28.3134
28.3588
28.3519
28.3751
28.3897
28.3941
28.3873
28.3546
28.3059
28.1814
28.0315
27.755
27.5184
27.3601
27.307
27.2428
27.2703
27.2328
27.1742
27.1541
27.2373
27.3977
27.6142
27.8474
28.0575
28.2679
28.4269
28.6159
28.7503
28.2852
28.1926
28.2392
28.2484
28.2846
28.3104
28.326
28.3296
28.3069
28.2637
28.1387
27.9872
27.7185
27.4952
27.34
27.2827
27.2184
27.246
27.207
27.14
27.107
27.1715
27.3128
27.5137
27.7378
27.9468
28.1568
28.3213
28.4949
28.6568
28.1149
28.0702
28.1167
28.1406
28.1883
28.2254
28.2523
28.266
28.2534
28.216
28.0914
27.9394
27.6799
27.4702
27.3183
27.2573
27.197
27.2247
27.1859
27.1104
27.0649
27.1103
27.2312
27.4146
27.6268
27.8316
28.0378
28.208
28.364
28.5525
27.9492
27.9477
27.9935
28.0316
28.0897
28.1381
28.176
28.1993
28.1966
28.1646
28.0413
27.8903
27.6412
27.4452
27.2973
27.2352
27.1815
27.212
27.1716
27.0891
27.0313
27.0581
27.1577
27.3215
27.5184
27.7162
27.9154
28.0907
28.2281
28.4403
27.7928
27.8249
27.8716
27.9242
27.9919
28.0515
28.0998
28.1324
28.1383
28.1114
27.9905
27.842
27.6044
27.4222
27.2789
27.2182
27.1714
27.2091
27.1654
27.0782
27.0084
27.018
27.0962
27.2383
27.4167
27.6044
27.7934
27.9715
28.0918
28.3228
27.6464
27.7064
27.7546
27.8212
27.8977
27.9684
28.0265
28.0678
28.081
28.0587
27.9409
27.7964
27.5714
27.4031
27.2647
27.2068
27.1673
27.2132
27.1651
27.0748
26.9989
26.9929
27.0502
27.169
27.3261
27.5004
27.6752
27.8542
27.9604
28.2032
27.5125
27.5952
27.6455
27.7256
27.8102
27.8916
27.9588
28.0077
28.027
28.0083
27.8949
27.7556
27.5439
27.389
27.2556
27.2021
27.1712
27.2226
27.1765
27.0832
26.998
26.9843
27.0221
27.1162
27.2502
27.4086
27.5663
27.7444
27.8366
28.0843
27.3921
27.4938
27.5472
27.64
27.7321
27.824
27.8991
27.9547
27.9784
27.9624
27.8546
27.7216
27.5234
27.3807
27.2526
27.2053
27.1835
27.2371
27.1962
27.1053
27.0126
26.9905
27.0173
27.084
27.1914
27.3319
27.4712
27.6444
27.723
27.9689
27.2875
27.4051
27.4625
27.5674
27.6666
27.7684
27.8502
27.9112
27.9378
27.9233
27.8216
27.696
27.5143
27.382
27.2564
27.2168
27.2035
27.2577
27.2244
27.1378
27.0401
27.0096
27.0266
27.0832
27.1582
27.2729
27.3918
27.5558
27.6239
27.86
27.2023
27.332
27.3941
27.5105
27.6161
27.7279
27.815
27.8799
27.9077
27.8934
27.7982
27.6846
27.5165
27.3879
27.2684
27.2365
27.231
27.2856
27.2607
27.1807
27.0806
27.0435
27.0503
27.0951
27.1584
27.2434
27.3343
27.482
27.5404
27.7617
27.1371
27.2783
27.3434
27.4681
27.58
27.6998
27.7933
27.8636
27.8904
27.8752
27.791
27.6872
27.5241
27.4012
27.2895
27.2646
27.2654
27.3207
27.3044
27.2335
27.1343
27.0922
27.0893
27.1213
27.1719
27.2459
27.311
27.4289
27.48
27.6773
27.0949
27.238
27.3089
27.4396
27.5579
27.6846
27.7838
27.8587
27.888
27.8753
27.796
27.6963
27.5376
27.4243
27.3201
27.3011
27.306
27.3625
27.3547
27.2951
27.2002
27.1552
27.1432
27.164
27.2007
27.2619
27.3167
27.4082
27.4482
27.6104
27.0694
27.2126
27.2911
27.4267
27.5511
27.6838
27.7937
27.8758
27.8998
27.884
27.8086
27.7125
27.5624
27.4578
27.3598
27.3453
27.353
27.4109
27.411
27.3642
27.2769
27.2315
27.2118
27.2233
27.2477
27.2952
27.3384
27.4162
27.4495
27.5696
27.0618
27.2036
27.2894
27.4339
27.5732
27.7185
27.8327
27.9096
27.9258
27.9062
27.834
27.742
27.5996
27.5018
27.408
27.3968
27.4063
27.4651
27.4724
27.4394
27.3628
27.3197
27.2945
27.2991
27.3135
27.3491
27.3799
27.4404
27.4686
27.567
27.0898
27.2296
27.3317
27.4874
27.6373
27.7836
27.8931
27.9612
27.9699
27.9467
27.8761
27.7862
27.6489
27.5556
27.4642
27.455
27.465
27.5241
27.5379
27.5193
27.4559
27.4181
27.3903
27.3905
27.3978
27.4238
27.4443
27.4916
27.5101
27.5868
27.1588
27.3055
27.4169
27.5804
27.7324
27.875
27.9762
28.0335
28.0348
28.0068
27.9348
27.8455
27.7101
27.6188
27.5277
27.519
27.5283
27.5868
27.6066
27.602
27.5542
27.5246
27.4976
27.4958
27.4995
27.5193
27.5331
27.5706
27.5817
27.6422
27.2656
27.4183
27.5379
27.707
27.8575
27.9927
28.0828
28.1275
28.1203
28.0855
28.0098
27.9188
27.7831
27.6907
27.598
27.588
27.5953
27.6527
27.6778
27.6859
27.6556
27.6368
27.6143
27.6134
27.617
27.6345
27.6463
27.678
27.6854
27.7362
27.4095
27.5677
27.6954
27.8663
28.0129
28.1377
28.2131
28.2433
28.2263
28.1829
28.1011
28.0056
27.8688
27.7708
27.6748
27.6612
27.6652
27.7211
27.751
27.7703
27.7583
27.752
27.738
27.7412
27.7486
27.7684
27.7832
27.8136
27.8213
27.8683
27.5898
27.7533
27.8891
28.0592
28.1984
28.3097
28.368
28.3821
28.3545
28.3007
28.2108
28.1073
27.9672
27.8598
27.758
27.7381
27.7375
27.7916
27.8257
27.8554
27.8613
27.8678
27.866
27.8769
27.8923
27.9197
27.9421
27.9759
27.9889
28.037
27.8053
27.9755
28.1197
28.2856
28.4146
28.5092
28.5488
28.5463
28.5071
28.4407
28.3395
28.2252
28.0772
27.9598
27.8475
27.8193
27.8127
27.8646
27.9026
27.9424
27.9644
27.9844
27.9958
28.0185
28.0472
28.0866
28.121
28.1636
28.187
28.2408
28.0553
28.2337
28.3868
28.5458
28.6626
28.7377
28.7575
28.7398
28.6856
28.6033
28.4872
28.3588
28.1974
28.0696
27.943
27.9034
27.8893
27.9392
27.9817
28.0311
28.0679
28.1023
28.129
28.1679
28.213
28.2675
28.318
28.3742
28.413
28.4771
28.3533
28.5384
28.6978
28.8466
28.9479
29.0016
29.0003
28.9643
28.8909
28.7878
28.652
28.5041
28.327
28.1877
28.0489
27.9975
27.9752
28.0237
28.0705
28.1282
28.1781
28.2265
28.2694
28.3289
28.3941
28.4681
28.5403
28.6176
28.6794
28.7579
28.6713
28.8669
29.0328
29.1712
29.2537
29.2832
29.2613
29.2029
29.1076
28.9849
28.8325
28.6694
28.4794
28.3226
28.1735
28.11
28.0774
28.1236
28.1738
28.2394
28.301
28.3641
28.42
28.4932
28.5763
28.6718
28.7668
28.8656
28.9524
29.0487
29.1382
29.3282
29.4848
29.6036
29.663
29.6701
29.6299
29.5525
29.4394
29.3004
29.1331
28.9565
28.7625
28.6011
28.4482
28.3805
28.341
28.3825
28.4307
28.4992
28.5665
28.6374
28.7034
28.7879
28.8847
28.9967
29.1181
29.2483
29.3688
29.4845
29.8866
30.0444
30.1789
30.2732
30.3055
30.2911
30.2309
30.1327
29.9981
29.838
29.6565
29.474
29.2794
29.1258
28.9777
28.9127
28.8667
28.8996
28.9408
29.0105
29.0867
29.1724
29.261
29.3693
29.4903
29.6253
29.7676
29.9224
30.0738
30.2255
29.0249
28.5057
28.4004
28.2254
28.1482
28.1144
28.0976
28.0922
28.077
28.0641
27.9874
27.8924
27.6006
27.3419
27.1461
27.0266
26.8891
26.7832
26.6875
26.6702
26.6941
26.8225
27.0143
27.2609
27.5259
27.7774
28.04
28.2401
28.5343
28.5911
28.9246
28.419
28.3672
28.2287
28.1641
28.1429
28.1335
28.1309
28.1147
28.0989
28.0184
27.9206
27.6252
27.3693
27.178
27.0643
26.9285
26.8169
26.7148
26.6964
26.7207
26.8502
27.0445
27.2924
27.5579
27.8089
28.0722
28.2708
28.5706
28.6318
28.803
28.338
28.3096
28.1969
28.1528
28.141
28.1358
28.1363
28.122
28.108
28.0257
27.9275
27.6334
27.382
27.1941
27.0846
26.9491
26.8316
26.7239
26.7007
26.7233
26.8542
27.0488
27.2968
27.562
27.8124
28.0763
28.2729
28.5712
28.6349
28.63
28.2202
28.228
28.1433
28.1236
28.1248
28.1277
28.1336
28.1234
28.1128
28.0287
27.9294
27.6359
27.3871
27.1953
27.0845
26.9465
26.8259
26.7153
26.6858
26.6971
26.8184
27.0107
27.2583
27.5231
27.7749
28.0402
28.2402
28.5281
28.6152
28.4352
28.1043
28.1334
28.0742
28.0772
28.0905
28.1023
28.1146
28.1098
28.1029
28.0143
27.9107
27.6217
27.3812
27.1857
27.0748
26.9341
26.8126
26.6966
26.6599
26.6592
26.7662
26.9434
27.1833
27.4462
27.6997
27.9649
28.1684
28.4326
28.5629
28.2301
27.9887
28.0285
27.9952
28.0173
28.0419
28.0632
28.0827
28.0843
28.0814
27.9885
27.8785
27.5939
27.3647
27.1694
27.0584
26.9155
26.7952
26.6738
26.6295
26.6165
26.7077
26.868
27.0944
27.3486
27.6002
27.8599
28.0717
28.3085
28.4835
28.0228
27.8733
27.9176
27.9096
27.9469
27.9825
28.0139
28.0411
28.0492
28.0501
27.9538
27.8384
27.56
27.3428
27.1479
27.0379
26.8958
26.7788
26.6521
26.5999
26.5743
26.6485
26.7902
27.0013
27.2445
27.4903
27.7438
27.9591
28.1689
28.3955
27.8192
27.7578
27.8033
27.8178
27.8686
27.9154
27.9568
27.9919
28.0065
28.0107
27.9124
27.793
27.5224
27.3176
27.1233
27.0183
26.8787
26.7668
26.6357
26.5754
26.537
26.5937
26.715
26.9082
27.1381
27.3766
27.6216
27.8421
28.0224
28.2971
27.627
27.6416
27.6867
27.7224
27.7853
27.8434
27.8948
27.9377
27.9584
27.9654
27.8661
27.7444
27.4833
27.2916
27.1006
27.0041
26.8676
26.7588
26.6258
26.5594
26.5082
26.5477
26.6474
26.82
27.033
27.2623
27.4961
27.7232
27.8739
28.1889
27.4502
27.5233
27.5695
27.6264
27.6998
27.7694
27.8303
27.8808
27.9071
27.9163
27.817
27.6951
27.4451
27.2676
27.0836
26.9967
26.8624
26.7566
26.6232
26.5532
26.4904
26.5137
26.5917
26.7416
26.9347
27.1517
27.3712
27.6047
27.7286
28.0744
27.2901
27.4088
27.456
27.5328
27.6153
27.6962
27.7659
27.8237
27.8548
27.8658
27.7676
27.6472
27.4098
27.2471
27.0723
26.9943
26.8604
26.7663
26.6328
26.5562
26.4866
26.4949
26.5512
26.6767
26.8473
27.0496
27.2518
27.4893
27.5905
27.955
27.1497
27.3011
27.3497
27.4444
27.5348
27.6267
27.7044
27.7688
27.8039
27.8161
27.72
27.6031
27.3791
27.232
27.0657
26.997
26.8664
26.784
26.6527
26.5742
26.4963
26.4952
26.5294
26.6277
26.7734
26.959
27.1414
27.3797
27.4611
27.8339
27.0277
27.2027
27.2534
27.3642
27.4613
27.5637
27.6484
27.7186
27.7567
27.7696
27.6765
27.5649
27.3551
27.2238
27.0659
27.0071
26.88
26.8098
26.6813
26.6031
26.5173
26.5071
26.5324
26.6061
26.7178
26.882
27.0434
27.2782
27.3464
27.7147
26.9231
27.1169
27.1699
27.2948
27.3977
27.5101
27.6007
27.6759
27.7158
27.7285
27.6397
27.5346
27.3393
27.2256
27.073
27.0251
26.9015
26.8438
26.7187
26.6435
26.5517
26.5323
26.5453
26.6101
26.6942
26.827
26.965
27.1863
27.2475
27.601
26.8372
27.0469
27.1014
27.2395
27.3469
27.4689
27.5643
27.6435
27.6835
27.6953
27.6115
27.5143
27.3383
27.233
27.0886
27.0515
26.9321
26.886
26.7648
26.6949
26.6
26.572
26.5721
26.6247
26.6981
26.805
26.912
27.1086
27.1671
27.4963
26.7737
26.9881
27.0485
27.1942
27.308
27.4374
27.5391
27.6239
27.6627
27.6726
27.5937
27.5108
27.3437
27.2498
27.1129
27.0867
26.9718
26.9366
26.8199
26.7569
26.6616
26.6263
26.6131
26.6524
26.7136
26.8092
26.8915
27.0509
27.1091
27.4043
26.7326
26.9423
27.0097
27.161
27.2817
27.4171
27.5243
27.6137
27.6541
27.6612
27.592
27.5165
27.3562
27.2764
27.1464
27.1306
27.0199
26.995
26.8832
26.8289
26.7358
26.6942
26.6691
26.6959
26.742
26.8256
26.8979
27.0276
27.0778
27.3286
26.7079
26.9102
26.9861
27.1411
27.268
27.4079
27.5197
27.6131
27.6569
27.6642
27.5997
27.5304
27.3797
27.3133
27.1891
27.1834
27.0762
27.0609
26.9542
26.9095
26.821
26.7753
26.7392
26.7556
26.7887
26.8555
26.9189
27.033
27.0785
27.278
26.6993
26.8937
26.9769
27.1349
27.2679
27.417
27.5401
27.639
27.6773
27.6802
27.6191
27.5567
27.4152
27.3609
27.2409
27.2448
27.1404
27.1336
27.032
26.9969
26.9157
26.8682
26.8228
26.8304
26.8526
26.9053
26.9555
27.0535
27.095
27.2606
26.7151
26.8969
26.997
27.162
27.3103
27.4675
27.5893
27.6831
27.7134
27.7121
27.6534
27.5966
27.463
27.4191
27.3018
27.3145
27.2121
27.2121
27.1154
27.0897
27.0177
26.9706
26.9187
26.9196
26.9335
26.9749
27.0146
27.0929
27.1299
27.2701
26.7711
26.9491
27.0655
27.2353
27.3875
27.5425
27.6587
27.7439
27.7661
27.761
27.7034
27.6505
27.5239
27.4877
27.3719
27.3924
27.2908
27.2955
27.2034
27.1865
27.1249
27.0809
27.0256
27.0221
27.0305
27.0637
27.0954
27.1603
27.1901
27.3036
26.8609
27.0398
27.1641
27.3365
27.4899
27.6399
27.7476
27.8227
27.8364
27.8276
27.7702
27.7197
27.5983
27.5677
27.4515
27.4785
27.3763
27.3836
27.295
27.2858
27.2353
27.197
27.1413
27.1367
27.143
27.1715
27.1991
27.2548
27.2812
27.3738
26.9847
27.1624
27.2925
27.4666
27.6174
27.7593
27.8568
27.9206
27.9264
27.9138
27.8556
27.8058
27.6877
27.6598
27.5418
27.5734
27.4684
27.476
27.3896
27.3866
27.347
27.3162
27.2637
27.2613
27.2694
27.2972
27.3248
27.3752
27.4011
27.4815
27.1409
27.3163
27.4522
27.6243
27.77
27.9017
27.9878
28.0393
28.0382
28.0209
27.9609
27.9099
27.7932
27.7645
27.6437
27.6764
27.5672
27.5731
27.4872
27.4884
27.4585
27.4366
27.3916
27.3941
27.4076
27.4388
27.4707
27.5207
27.5498
27.6236
27.3286
27.5015
27.6429
27.8101
27.9485
28.0684
28.1419
28.1807
28.1727
28.1493
28.0859
28.0312
27.9137
27.8807
27.7553
27.7877
27.6728
27.6748
27.5878
27.5907
27.5702
27.5584
27.5242
27.5341
27.5566
27.5951
27.6355
27.69
27.7262
27.7988
27.5473
27.718
27.8646
28.0246
28.1537
28.2602
28.3194
28.3442
28.3281
28.2962
28.2268
28.1652
28.0437
28.0044
27.873
27.9013
27.7763
27.7728
27.6847
27.6892
27.677
27.6786
27.6629
27.6817
27.7144
27.7657
27.8185
27.8821
27.9289
28.0045
27.8019
27.9693
28.1175
28.2668
28.3836
28.4735
28.5158
28.5239
28.4969
28.4534
28.375
28.3041
28.1773
28.1299
27.9887
28.0128
27.8776
27.8696
27.78
27.7861
27.7806
27.7931
27.7984
27.8355
27.8841
27.9478
28.0187
28.097
28.1601
28.2429
28.0779
28.2396
28.3833
28.5193
28.6206
28.6912
28.7137
28.7048
28.6645
28.6083
28.5212
28.4428
28.3049
28.2531
28.1047
28.1352
27.996
27.9851
27.8911
27.8955
27.8919
27.9083
27.9261
27.9797
28.048
28.1333
28.2228
28.3204
28.4026
28.496
28.3621
28.5122
28.6446
28.7615
28.8445
28.8952
28.8978
28.8741
28.8208
28.7545
28.6602
28.5725
28.4304
28.3764
28.2288
28.2745
28.1379
28.133
28.0415
28.0468
28.045
28.066
28.0889
28.142
28.2151
28.3096
28.4105
28.5234
28.6369
28.7532
28.6415
28.7729
28.8914
28.9913
29.0602
29.0939
29.0834
29.0478
28.9842
28.9023
28.786
28.6855
28.5457
28.5033
28.3679
28.4431
28.3189
28.3279
28.2473
28.2552
28.2547
28.2788
28.3088
28.3671
28.4444
28.5424
28.6584
28.7869
28.9081
29.0263
28.9398
28.1626
28.0019
27.7363
27.6165
27.586
27.5873
27.6241
27.6549
27.7075
27.6789
27.6497
27.3445
27.0557
26.7913
26.5877
26.403
26.33
26.2677
26.2528
26.237
26.3323
26.4937
26.724
26.9888
27.2548
27.5487
27.7735
28.1535
28.2156
28.764
28.0077
27.9206
27.7118
27.6245
27.6105
27.6259
27.6682
27.7001
27.7503
27.7185
27.6829
27.3691
27.0848
26.8244
26.6158
26.4188
26.3246
26.2539
26.2384
26.2289
26.3404
26.5097
26.7461
27.015
27.2836
27.5807
27.8054
28.1932
28.2576
28.5754
27.9003
27.8397
27.6726
27.6152
27.6148
27.6396
27.685
27.7185
27.7676
27.7317
27.6928
27.3798
27.0976
26.8393
26.6261
26.4157
26.3042
26.2247
26.208
26.1984
26.3091
26.4937
26.7422
27.0165
27.2862
27.5844
27.8059
28.1858
28.2413
28.3346
27.7581
27.7387
27.6122
27.5912
27.609
27.6396
27.6926
27.7301
27.7781
27.738
27.6966
27.383
27.1002
26.8341
26.6149
26.395
26.2722
26.1842
26.1627
26.1509
26.2555
26.4324
26.6913
26.9727
27.2477
27.547
27.7701
28.1272
28.2038
28.076
27.6179
27.6336
27.546
27.5553
27.5888
27.6292
27.6857
27.7254
27.7753
27.731
27.6811
27.3693
27.0863
26.8164
26.5917
26.3646
26.2347
26.1382
26.1105
26.0943
26.1904
26.3565
26.6078
26.8923
27.1716
27.4706
27.6961
28.0082
28.1488
27.8118
27.4887
27.5239
27.4747
27.5085
27.5563
27.6077
27.6697
27.7124
27.761
27.712
27.6505
27.3396
27.0635
26.7906
26.5628
26.3302
26.1964
26.091
26.0564
26.0342
26.1199
26.273
26.5131
26.7911
27.074
27.3667
27.6017
27.8669
28.0813
27.559
27.3692
27.4133
27.3997
27.4532
27.5141
27.576
27.6437
27.6896
27.7371
27.6837
27.611
27.3031
27.0352
26.7603
26.5323
26.2964
26.1613
26.0469
26.0051
25.9754
26.0488
26.1866
26.4133
26.6815
26.9614
27.2458
27.4912
27.7141
27.9962
27.3229
27.2563
27.3029
27.3207
27.3908
27.4641
27.5361
27.6097
27.6588
27.7053
27.6479
27.5651
27.2621
27.0039
26.7285
26.504
26.2669
26.1331
26.0097
25.9607
25.9225
25.9822
26.1024
26.3126
26.568
26.8415
27.1176
27.3729
27.5552
27.9024
27.1061
27.1453
27.1921
27.239
27.3231
27.4088
27.4901
27.5695
27.6218
27.6672
27.6063
27.5152
27.2188
26.9721
26.6979
26.4811
26.2453
26.1155
25.9836
25.9271
25.8793
25.9248
26.026
26.217
26.4561
26.7207
26.9854
27.2538
27.3978
27.7972
26.9154
27.035
27.0823
27.1573
27.2527
27.3505
27.4403
27.5253
27.5805
27.6249
27.5611
27.4639
27.1758
26.9422
26.671
26.4663
26.2319
26.1071
25.9699
25.9084
25.8493
25.8799
25.9612
26.131
26.3508
26.6044
26.8541
27.136
27.2464
27.6848
26.7546
26.9308
26.9775
27.0778
27.182
27.2916
27.389
27.4794
27.537
27.5803
27.5145
27.4133
27.1351
26.9165
26.6507
26.4585
26.2238
26.1042
25.9627
25.9007
25.8328
25.8513
25.9113
26.0574
26.2552
26.4956
26.7275
27.0206
27.1078
27.5674
26.6179
26.8339
26.8802
27.0029
27.1138
27.2348
27.3387
27.4339
27.4934
27.5357
27.4685
27.366
27.0989
26.897
26.6369
26.4559
26.2204
26.1096
25.9613
25.8988
25.8276
25.838
25.8804
25.9996
26.1719
26.3967
26.6099
26.9082
26.9812
27.4471
26.499
26.7475
26.793
26.935
27.0509
27.1826
27.2918
27.3913
27.4519
27.493
27.4253
27.3239
27.0689
26.8851
26.629
26.4615
26.2259
26.128
25.9756
25.9134
25.8338
25.8402
25.8725
25.9673
26.1087
26.3111
26.5071
26.8004
26.8674
27.327
26.3983
26.6699
26.7168
26.8754
26.9955
27.1373
27.251
27.354
27.4148
27.4545
27.3869
27.2889
27.0464
26.8859
26.63
26.4758
26.2425
26.1558
26.001
25.941
25.8545
25.8542
25.8793
25.9634
26.0758
26.2494
26.4218
26.7004
26.7678
27.2101
26.3176
26.5999
26.6523
26.8225
26.9477
27.0976
27.2171
27.3244
27.3842
27.4222
27.3552
27.2625
27.036
26.8924
26.6379
26.4989
26.268
26.1931
26.0371
25.9819
25.8897
25.8826
25.8974
25.973
26.0727
26.2173
26.3596
26.6117
26.685
27.1007
26.2583
26.5395
26.6005
26.7775
26.9087
27.0654
27.1902
27.3023
27.3617
27.3975
27.3322
27.2498
27.038
26.9056
26.6548
26.5317
26.3027
26.2401
26.0839
26.035
25.9395
25.9265
25.9307
25.994
26.0837
26.215
26.3289
26.543
26.6212
27.0021
26.2193
26.4904
26.5606
26.7424
26.8797
27.0418
27.1709
27.287
27.3484
27.3827
27.3198
27.2522
27.0467
26.9291
26.6809
26.5742
26.3463
26.2965
26.1411
26.1
26.0035
25.9848
25.9786
26.0296
26.1071
26.2266
26.3309
26.5074
26.5812
26.9169
26.1953
26.4535
26.5346
26.7186
26.8612
27.0272
27.1604
27.28
27.3436
27.38
27.3229
27.2624
27.0624
26.9629
26.716
26.6267
26.3988
26.3622
26.208
26.1759
26.0802
26.0571
26.041
26.0812
26.144
26.2513
26.3468
26.5049
26.5727
26.8514
26.1858
26.431
26.522
26.7067
26.8541
27.0234
27.1608
27.2881
27.3557
27.3905
27.335
27.2814
27.0898
27.0076
26.7613
26.6895
26.4601
26.4366
26.2836
26.2611
26.1679
26.1425
26.1176
26.1489
26.1999
26.2901
26.3774
26.5183
26.5838
26.8142
26.1954
26.4243
26.5268
26.7126
26.8713
27.0471
27.193
27.3224
27.3841
27.4147
27.3607
27.3139
27.1297
27.0636
26.8174
26.7627
26.5302
26.5183
26.3665
26.3538
26.2653
26.2397
26.208
26.2317
26.2723
26.3494
26.4239
26.548
26.6109
26.809
26.2423
26.4522
26.5746
26.7606
26.9288
27.1066
27.2496
27.3737
27.4276
27.4544
27.4014
27.3604
27.1831
27.1315
26.8845
26.8453
26.6098
26.6065
26.4556
26.4519
26.3701
26.3461
26.312
26.3295
26.3622
26.4288
26.4943
26.5976
26.6568
26.8267
26.3206
26.5244
26.659
26.8447
27.0133
27.186
27.3242
27.4414
27.4875
27.5106
27.4583
27.4227
27.2513
27.2114
26.9617
26.937
26.6991
26.7005
26.5502
26.5536
26.4802
26.4602
26.4281
26.4414
26.4691
26.5279
26.5868
26.6762
26.7294
26.8703
26.4305
26.628
26.7696
26.9531
27.1197
27.2864
27.4177
27.5261
27.5651
27.5847
27.533
27.5021
27.3352
27.3047
27.0491
27.0428
26.7972
26.8002
26.6497
26.6579
26.5935
26.5802
26.5526
26.5661
26.5914
26.6453
26.7017
26.7821
26.833
26.9498
26.5715
26.7605
26.9068
27.0862
27.2487
27.4079
27.5305
27.6295
27.662
27.6779
27.6267
27.5996
27.4354
27.4115
27.1493
27.1592
26.9012
26.9048
26.7532
26.7645
26.7087
26.7037
26.6835
26.7027
26.7279
26.7798
26.8373
26.9131
26.9644
27.0654
26.7421
26.9221
27.0711
27.2447
27.4006
27.5499
27.6634
27.7526
27.7786
27.7901
27.739
27.7139
27.5508
27.5303
27.2621
27.2808
27.0086
27.0131
26.86
26.8735
26.8254
26.8288
26.82
26.8465
26.8802
26.9314
26.9916
27.0679
27.1228
27.2152
26.9419
27.1128
27.2621
27.4273
27.5746
27.7124
27.8157
27.8937
27.9125
27.9181
27.8657
27.8399
27.6764
27.6576
27.3783
27.408
27.1222
27.128
26.9725
26.9876
26.9468
26.9568
26.9592
26.9941
27.0407
27.1013
27.1638
27.245
27.3071
27.3961
27.1697
27.3309
27.477
27.6301
27.7663
27.8905
27.9815
28.0463
28.0559
28.0538
27.9984
27.97
27.8059
27.7828
27.4963
27.5418
27.2427
27.2519
27.0946
27.1115
27.0767
27.0933
27.1052
27.1464
27.2023
27.2782
27.3557
27.4385
27.5136
27.604
27.4157
27.5643
27.7026
27.8403
27.9632
28.0716
28.1485
28.1979
28.1968
28.1865
28.1263
28.0959
27.926
27.9035
27.6151
27.6828
27.3747
27.3918
27.2342
27.2534
27.2226
27.2439
27.2633
27.3119
27.3721
27.4526
27.546
27.6446
27.73
27.8279
27.6514
27.791
27.921
28.0407
28.1462
28.2385
28.2996
28.3325
28.3219
28.3034
28.24
28.2073
28.0288
28.0207
27.7336
27.8301
27.5219
27.5556
27.4012
27.4241
27.3979
27.4223
27.4456
27.4961
27.5594
27.6424
27.7328
27.8363
27.9329
28.0399
27.8877
27.9968
28.1076
28.2132
28.3044
28.3801
28.426
28.4443
28.4254
28.4002
28.3266
28.2844
28.1111
28.1266
27.8527
27.993
27.6945
27.7522
27.6111
27.6409
27.6198
27.6481
27.6747
27.7257
27.7882
27.8696
27.9601
28.0645
28.1726
28.2746
29.1195
28.1069
27.8931
27.5435
27.3622
27.3149
27.3112
27.3604
27.4115
27.5079
27.5101
27.5843
27.2394
26.9366
26.6338
26.5453
26.4865
26.566
26.5207
26.4718
26.3335
26.29
26.3366
26.49
26.7025
26.9406
27.2374
27.4779
27.9506
28.0352
28.8676
27.878
27.7712
27.4903
27.3636
27.3345
27.3496
27.4071
27.4617
27.5573
27.5592
27.6211
27.2644
26.9642
26.6542
26.5424
26.449
26.4842
26.4291
26.3894
26.2739
26.2497
26.3047
26.4907
26.713
26.9584
27.263
27.5067
27.9905
28.0778
28.6102
27.7374
27.6651
27.4385
27.3526
27.3406
27.3693
27.4321
27.4887
27.5814
27.5799
27.632
27.2768
26.979
26.6643
26.5348
26.4071
26.404
26.3349
26.3048
26.2065
26.1941
26.2526
26.4514
26.6948
26.9532
27.2647
27.5067
27.9746
28.0473
28.2912
27.564
27.5387
27.3624
27.3234
27.3364
27.3756
27.4471
27.5062
27.5956
27.591
27.6356
27.2799
26.9813
26.6536
26.5095
26.3527
26.325
26.2416
26.212
26.1239
26.1194
26.1791
26.3742
26.6292
26.9014
27.2183