/*--------------------------------*- C++ -*----------------------------------*\
  =========                 |
  \\      /  F ield         | OpenFOAM: The Open Source CFD Toolbox
   \\    /   O peration     | Website:  https://openfoam.org
    \\  /    A nd           | Version:  12
     \\/     M anipulation  |
\*---------------------------------------------------------------------------*/
FoamFile
{
    format      ascii;
    class       volScalarField;
    location    "600/air";
    object      alphat;
}
// * * * * * * * * * * * * * * * * * * * * * * * * * * * * * * * * * * * * * //

dimensions      [1 -1 -1 0 0 0 0];

internalField   nonuniform List<scalar> 
243000
(
0.000222798
0.000220998
0.00021336
0.000204561
0.000194494
0.000183994
0.000173617
0.000163752
0.000154665
0.000146554
0.000139623
0.000134106
0.000130218
0.000127697
0.000125763
0.000123879
0.000121749
0.000119266
0.000116407
0.000113147
0.000109388
0.000102671
9.0203e-05
9.52296e-05
0.000112101
0.000123912
0.00013712
0.000148869
0.000160832
0.000177353
0.000834116
0.000835194
0.000799817
0.000758867
0.000715491
0.000672137
0.000630405
0.000591266
0.000555283
0.000522824
0.000494306
0.000469971
0.000449587
0.00043191
0.000416465
0.00040365
0.000393096
0.000384296
0.000376284
0.000368169
0.00035854
0.000343495
0.000316304
0.000336734
0.000416727
0.000466502
0.000517304
0.00057225
0.00063071
0.000698391
0.00108159
0.00112904
0.00112517
0.0011091
0.00108455
0.00105484
0.00102216
0.000987997
0.000953321
0.000919123
0.000886528
0.000856319
0.000828007
0.00079938
0.000770674
0.000743809
0.000718934
0.000695702
0.000672503
0.000647521
0.000617568
0.000579777
0.000524941
0.000521011
0.000640459
0.000710172
0.000765804
0.000820837
0.000872704
0.000928058
0.00113988
0.0011889
0.00118784
0.00117371
0.0011505
0.00112164
0.00108928
0.00105491
0.00101955
0.000984303
0.000950465
0.000918948
0.000889089
0.000858281
0.000826838
0.00079693
0.000768997
0.000742983
0.000717321
0.00068991
0.000656861
0.000617509
0.00056242
0.000534996
0.000659402
0.000747888
0.000815335
0.000879101
0.000936676
0.000992283
0.00117801
0.00122543
0.00122702
0.00121546
0.00119468
0.00116793
0.00113717
0.00110386
0.00106904
0.00103391
0.000999977
0.000968332
0.000938195
0.000906643
0.000873846
0.000842021
0.000811843
0.000783569
0.000755792
0.00072622
0.000690707
0.000650033
0.000595108
0.000553705
0.000658188
0.000770663
0.00084785
0.000919963
0.000983103
0.00103805
0.00120194
0.0012471
0.00125095
0.00124211
0.00122426
0.00120024
0.00117174
0.00114019
0.0011066
0.00107228
0.00103891
0.00100784
0.000978154
0.000946703
0.000913343
0.000880344
0.000848598
0.000818578
0.000789118
0.000757789
0.000720576
0.000678978
0.000624718
0.000575192
0.000641892
0.000782929
0.000870066
0.000947794
0.00101585
0.00107026
0.001216
0.00125833
0.00126421
0.00125819
0.0012435
0.00122248
0.00119659
0.00116716
0.0011352
0.00110212
0.00106974
0.00103966
0.00101087
0.000980028
0.000946622
0.000912974
0.000880185
0.000848881
0.000818153
0.000785428
0.000747222
0.000705152
0.000651903
0.000597886
0.000628768
0.000787423
0.000883732
0.000966118
0.00103895
0.00109271
0.00122213
0.00126048
0.00126957
0.00126658
0.0012551
0.00123718
0.00121404
0.00118693
0.00115684
0.00112525
0.00109415
0.00106531
0.00103769
0.00100775
0.000974657
0.000940762
0.000907358
0.000875185
0.00084354
0.000809685
0.000771097
0.000729
0.000676968
0.000620663
0.000621036
0.00078688
0.000891007
0.000976271
0.00105342
0.00110728
0.00122117
0.0012569
0.00126887
0.00126925
0.00126082
0.00124598
0.00122567
0.00120096
0.00117286
0.00114295
0.00111332
0.00108589
0.00105959
0.0010307
0.00099819
0.000964379
0.000930714
0.000898059
0.000865793
0.000830988
0.000792533
0.000750797
0.000700115
0.000643086
0.000625178
0.000778365
0.0008936
0.000980266
0.00106089
0.00111529
0.00121534
0.00124918
0.00126407
0.00126765
0.00126252
0.0012504
0.0012326
0.00121025
0.00118424
0.00115614
0.00112813
0.00110221
0.0010773
0.00104953
0.0010178
0.000984364
0.000950749
0.000917945
0.000885309
0.000849717
0.000811815
0.000770766
0.000721499
0.000664859
0.000635169
0.000764398
0.000893457
0.000982558
0.00106274
0.00111788
0.00120541
0.00123823
0.00125602
0.00126264
0.00126082
0.00125162
0.00123611
0.00121582
0.0011917
0.0011655
0.0011392
0.00111487
0.00109135
0.00106475
0.00103397
0.00100116
0.000967881
0.000935177
0.000902411
0.000866249
0.000829245
0.000789104
0.000741269
0.000685527
0.000647908
0.000750296
0.000890394
0.000981651
0.00105947
0.00111591
0.0011919
0.00122463
0.00124537
0.00125492
0.00125621
0.00124999
0.00123695
0.00121851
0.00119611
0.00117157
0.00114706
0.00112433
0.00110218
0.00107678
0.00104709
0.00101514
0.000982453
0.000950092
0.000917359
0.000881067
0.00084518
0.000806009
0.000759547
0.000704968
0.00066117
0.000736499
0.000884657
0.000977236
0.00105143
0.0011097
0.00117515
0.00120882
0.00123243
0.00124501
0.0012492
0.00124577
0.00123527
0.00121889
0.00119803
0.00117504
0.00115211
0.00113099
0.00111015
0.001086
0.00105751
0.00102662
0.000994765
0.000962971
0.000930424
0.000894892
0.000859862
0.000821615
0.000776466
0.000723135
0.000674906
0.000723259
0.000876562
0.000969828
0.00103936
0.00109972
0.00115559
0.00119106
0.0012175
0.00123326
0.00124018
0.00123941
0.00123118
0.00121694
0.00119794
0.00117638
0.00115484
0.00113516
0.0011156
0.0010927
0.00106554
0.00103589
0.00100508
0.000974073
0.000941838
0.000907435
0.000873312
0.000835999
0.000792097
0.000740098
0.000688747
0.000711112
0.000866618
0.000960736
0.00102827
0.00108653
0.0011339
0.00117161
0.00120084
0.0012199
0.00122945
0.00123116
0.00122513
0.00121274
0.00119566
0.00117586
0.00115571
0.0011372
0.00111878
0.00109719
0.00107146
0.00104323
0.00101366
0.000983607
0.000951827
0.000918746
0.000885626
0.000849273
0.000806576
0.000755784
0.000702394
0.000701167
0.000855006
0.000950288
0.00101624
0.0010706
0.00111281
0.0011509
0.00118285
0.00120497
0.00121722
0.0012212
0.00121728
0.00120668
0.00119132
0.00117336
0.00115484
0.00113757
0.00112007
0.00109975
0.00107556
0.00104889
0.00102074
0.000991784
0.000960623
0.000929004
0.000896973
0.000861599
0.000820043
0.000770386
0.000715787
0.000698481
0.000839445
0.000938641
0.00100313
0.00105285
0.00109254
0.00113087
0.00116383
0.00118868
0.00120362
0.0012097
0.0012078
0.00119897
0.00118529
0.00116904
0.00115215
0.00113624
0.00111989
0.00110073
0.00107812
0.00105313
0.00102654
0.000998793
0.000968451
0.000938446
0.000907573
0.000873171
0.000832633
0.00078401
0.000729162
0.000699778
0.000821652
0.000925981
0.000989588
0.00103716
0.00107283
0.00111186
0.00114505
0.00117128
0.00118882
0.00119684
0.00119686
0.00118975
0.00117779
0.00116323
0.00114797
0.00113337
0.00111814
0.00110043
0.00107939
0.00105619
0.00103125
0.00100482
0.000975762
0.000947356
0.000917636
0.000884198
0.000844582
0.000796861
0.000741902
0.000703797
0.000802898
0.000912509
0.000975746
0.00102229
0.00105352
0.00109356
0.00112716
0.00115336
0.00117293
0.00118281
0.00118461
0.0011792
0.00116895
0.00115613
0.00114248
0.0011292
0.00111516
0.00109888
0.00107959
0.00105825
0.00103502
0.00100999
0.000982757
0.000955852
0.000927313
0.000894867
0.000856151
0.000809233
0.000754324
0.000709475
0.000784242
0.00089855
0.000961826
0.001008
0.00103452
0.00107584
0.00110999
0.00113628
0.00115623
0.00116775
0.00117116
0.00116741
0.00115889
0.00114785
0.00113577
0.00112386
0.00111109
0.00109632
0.00107883
0.0010594
0.00103793
0.0010144
0.000989267
0.000963971
0.000936716
0.000905351
0.000867577
0.000821447
0.000766705
0.000716377
0.000766559
0.000884403
0.000947987
0.000994141
0.00101582
0.00105861
0.00109336
0.0011199
0.00113993
0.00115185
0.00115659
0.00115444
0.00114766
0.00113838
0.00112791
0.00111739
0.00110597
0.0010928
0.00107716
0.00105964
0.00103996
0.00101807
0.000995339
0.000971811
0.000945973
0.00091583
0.000879113
0.00083384
0.00077939
0.000725112
0.00075119
0.000870398
0.0009344
0.000980713
0.000997462
0.00104185
0.00107724
0.00110411
0.00112423
0.00113639
0.00114144
0.00114044
0.00113533
0.00112779
0.00111893
0.00110982
0.0010998
0.00108827
0.00107451
0.00105894
0.00104115
0.00102169
0.00100131
0.000979592
0.000955277
0.000926513
0.00089104
0.000846686
0.000792647
0.000735604
0.00073971
0.000856979
0.000921328
0.00096784
0.000979657
0.00102567
0.00106162
0.00108881
0.001109
0.00112161
0.00112714
0.00112705
0.00112318
0.00111706
0.00110965
0.00110175
0.00109305
0.00108309
0.00107135
0.00105795
0.00104267
0.00102579
0.00100759
0.000987681
0.000964968
0.000937724
0.000903659
0.00086035
0.000806746
0.000747739
0.00073369
0.000844903
0.000909199
0.00095574
0.000962836
0.00101021
0.00104651
0.00107389
0.00109424
0.00110755
0.00111368
0.00111463
0.00111215
0.00110757
0.00110169
0.00109519
0.00108793
0.0010796
0.0010698
0.0010585
0.00104555
0.00103101
0.0010149
0.000996802
0.000975756
0.000950144
0.000917652
0.000875612
0.000822301
0.000761869
0.000735008
0.000834878
0.000898791
0.000944916
0.000947653
0.000995742
0.00103209
0.0010596
0.00108021
0.00109423
0.00110113
0.00110324
0.00110233
0.00109944
0.00109525
0.00109036
0.00108479
0.0010783
0.00107059
0.00106153
0.00105097
0.00103877
0.00102478
0.00100855
0.000989208
0.000965263
0.000934393
0.000893648
0.000840741
0.000778446
0.000741729
0.000828701
0.000890726
0.000935866
0.000935425
0.000983255
0.00101914
0.00104649
0.00106729
0.00108209
0.00108997
0.00109347
0.00109438
0.0010935
0.00109139
0.00108862
0.00108529
0.00108122
0.00107618
0.00106989
0.00106207
0.00105243
0.00104068
0.00102637
0.00100869
0.000986267
0.000956763
0.000917154
0.000864236
0.0007995
0.000754487
0.000828743
0.000886415
0.000929537
0.000928464
0.000974796
0.00100971
0.00103659
0.00105748
0.00107322
0.00108266
0.0010882
0.00109168
0.00109371
0.0010948
0.00109542
0.00109565
0.00109532
0.00109411
0.00109151
0.00108696
0.00108008
0.00107051
0.00105779
0.00104124
0.00101967
0.000990975
0.000951915
0.000898547
0.000830749
0.000779259
0.000837581
0.000889765
0.000929479
0.000936749
0.000979793
0.00101313
0.00103996
0.0010618
0.00107955
0.00109239
0.00110193
0.00111008
0.00111729
0.00112413
0.00113094
0.00113739
0.00114297
0.00114693
0.0011484
0.00114685
0.00114181
0.00113312
0.00112052
0.00110351
0.00108125
0.001052
0.00101283
0.000959487
0.000890071
0.000833515
0.000871168
0.00091319
0.000946085
0.00102536
0.00106266
0.0010938
0.00112078
0.00114437
0.00116453
0.00118314
0.00119955
0.00121473
0.00122885
0.00124397
0.00125971
0.00127372
0.00128515
0.00129276
0.00129594
0.0012945
0.00128843
0.00127808
0.00126352
0.0012441
0.00122001
0.00119049
0.00115347
0.00110624
0.00104776
0.000994944
0.00100558
0.00102864
0.00104707
0.00145907
0.00147776
0.00149449
0.00150966
0.00152163
0.0015273
0.0015363
0.00154697
0.00155554
0.00156234
0.00157593
0.00159184
0.00160279
0.00160963
0.00161128
0.00160952
0.00160388
0.00159578
0.00158595
0.00157519
0.00156003
0.00154475
0.00152993
0.00151426
0.00149631
0.00147604
0.0014643
0.00146494
0.00147194
0.00147596
0.000267779
0.000273259
0.000266699
0.000256655
0.000244508
0.00023136
0.000217964
0.000204864
0.000192404
0.000180801
0.000170275
0.00016106
0.000153313
0.000146391
0.000139311
0.000131916
0.000124127
0.000116246
0.000108047
9.94069e-05
8.88258e-05
0.00037953
0.000366078
9.81898e-05
0.000115123
0.000125266
0.000138292
0.0001481
0.000163637
0.000191483
0.00117773
0.00129586
0.00121786
0.00110652
0.00099079
0.000884225
0.000791441
0.000711346
0.000641424
0.000579634
0.000525387
0.000475427
0.000423502
0.000371532
0.000333677
0.00031717
0.000314725
0.000322237
0.000332213
0.000345058
0.000336837
0.00033552
0.000318981
0.000436468
0.000627475
0.000807054
0.000928074
0.000912587
0.000799754
0.000802822
0.00195839
0.00222791
0.00217087
0.00202033
0.00184028
0.00166217
0.00149928
0.00135407
0.00122426
0.00110817
0.00100543
0.000909706
0.000808541
0.000707868
0.000637418
0.000607396
0.00060184
0.000610941
0.000624371
0.000640269
0.00062996
0.000582636
0.000523015
0.000686002
0.000955344
0.00128083
0.00155543
0.00158882
0.00144894
0.00144973
0.00258864
0.00293119
0.00291306
0.00276242
0.00255977
0.0023457
0.00213958
0.00194836
0.00177256
0.00161398
0.00147072
0.00133192
0.00118716
0.00104863
0.000954081
0.000911921
0.000899905
0.000905537
0.000917048
0.000931335
0.00092004
0.000833488
0.000717159
0.000827646
0.00112893
0.00155668
0.00200029
0.00214259
0.00203292
0.00205656
0.00309888
0.00346328
0.00347805
0.00334275
0.00314047
0.00291378
0.00268499
0.00246457
0.00225699
0.00206476
0.00188723
0.00171721
0.00153953
0.00137361
0.00126222
0.00120941
0.00118911
0.00118925
0.001198
0.00121181
0.0012024
0.00108508
0.000917973
0.000981938
0.00126153
0.00176097
0.00230774
0.00259074
0.00255169
0.00259985
0.00350163
0.00387233
0.00390829
0.00379355
0.00360415
0.00337864
0.00314106
0.00290418
0.00267517
0.00245786
0.0022567
0.00206348
0.00186283
0.00168001
0.0015568
0.00149432
0.00146442
0.0014581
0.00146463
0.00148363
0.00147456
0.00133491
0.00113047
0.00115146
0.00139243
0.00191268
0.00255759
0.0029393
0.00299333
0.00307069
0.00381801
0.00418145
0.00423376
0.00414234
0.00397258
0.00375629
0.003519
0.00327498
0.00303345
0.00279928
0.0025811
0.00237422
0.00216002
0.00196869
0.00183703
0.00176518
0.00172495
0.00171148
0.00171684
0.00174688
0.00173363
0.00157809
0.00134948
0.00132648
0.00152467
0.00203173
0.0027411
0.00321268
0.00335383
0.00346201
0.00407276
0.00438206
0.00446906
0.00441037
0.00426321
0.00406115
0.0038295
0.0035851
0.00333786
0.00309607
0.00286609
0.00265185
0.00243467
0.00224029
0.0021025
0.00202122
0.00197084
0.00194991
0.00195562
0.00199762
0.00197646
0.00180911
0.00156542
0.00150034
0.0016532
0.00212754
0.00287154
0.00343413
0.00362611
0.00376912
0.00425463
0.00453878
0.00464307
0.00461683
0.00449064
0.00430427
0.00408119
0.00384166
0.00359441
0.0033517
0.00311922
0.00289883
0.00268639
0.00249528
0.00235272
0.00226226
0.00220223
0.00217412
0.00218335
0.00223382
0.00220056
0.00202311
0.00176926
0.00166569
0.00177373
0.00220504
0.0029598
0.00359389
0.00384706
0.00401772
0.00440837
0.00466047
0.00477517
0.00477191
0.00468001
0.00450534
0.004287
0.00404973
0.00380749
0.00356952
0.00334208
0.00312579
0.00291602
0.00273065
0.00258693
0.00248816
0.00241949
0.00238497
0.00240214
0.00245376
0.00240403
0.00221669
0.00195421
0.00181531
0.00188205
0.00226789
0.00302259
0.00371392
0.00403482
0.00423539
0.00452695
0.00475313
0.00486952
0.00488607
0.00481989
0.00467713
0.00446249
0.00422716
0.00398598
0.00375478
0.00353684
0.00333085
0.00313097
0.0029497
0.00280436
0.00269904
0.0026233
0.00258367
0.00260959
0.00265543
0.00258564
0.0023874
0.00211652
0.00194476
0.0019758
0.00232149
0.00306948
0.00380526
0.00419424
0.00442765
0.00460544
0.00480913
0.00492989
0.00496522
0.00492184
0.00480566
0.00461573
0.00438122
0.00414179
0.00391387
0.00370759
0.00351546
0.00332816
0.00315362
0.00300701
0.00289557
0.00281467
0.00277239
0.00280541
0.00283692
0.0027451
0.00253434
0.0022551
0.00205256
0.00205274
0.00236455
0.00308884
0.00385251
0.00433112
0.0045958
0.00463239
0.00482992
0.0049599
0.00501429
0.0049928
0.00490324
0.00473398
0.0045161
0.00428046
0.00405609
0.00385719
0.00368164
0.00350839
0.00334147
0.00319491
0.00308037
0.00299516
0.00295425
0.00299029
0.00299915
0.00288364
0.00265749
0.00237098
0.00214097
0.00211071
0.00239206
0.00307306
0.00384682
0.00440507
0.00471577
0.004616
0.0048193
0.00496319
0.00503745
0.00503794
0.00497193
0.00482365
0.00462115
0.00440178
0.00418536
0.00399334
0.00383162
0.00367286
0.00351414
0.00336917
0.00325292
0.00316612
0.00313246
0.00316479
0.00314536
0.00300353
0.00275903
0.00246423
0.00221199
0.00214812
0.0023908
0.00302778
0.00379743
0.00440556
0.00478339
0.00456306
0.00478147
0.00494339
0.00503837
0.00506066
0.00501586
0.00489129
0.00469983
0.00449983
0.00430131
0.0041186
0.00396829
0.00382341
0.00367326
0.00353148
0.00341568
0.00332982
0.00330528
0.00332854
0.00327768
0.00310717
0.00284337
0.00253805
0.00226788
0.00216584
0.00236918
0.00296008
0.00371706
0.00435494
0.00480298
0.00446719
0.00472092
0.00490417
0.00502059
0.00506423
0.00503901
0.00493946
0.00476298
0.00457769
0.00439995
0.00423522
0.00409679
0.00396265
0.00382106
0.00368407
0.00357172
0.00348935
0.00347181
0.00348056
0.00339766
0.00319825
0.00291386
0.00259731
0.00231273
0.00217043
0.00233563
0.00287736
0.0036163
0.00426789
0.00477889
0.00433358
0.00463149
0.00484997
0.00498812
0.00505242
0.0050459
0.00497123
0.00481333
0.00464408
0.0044856
0.00434132
0.00421855
0.00409315
0.00396014
0.00382956
0.00372183
0.00364849
0.00363
0.00361873
0.00350584
0.00327961
0.00297386
0.00264092
0.00234083
0.00216702
0.00228978
0.00278604
0.00350306
0.00415705
0.00470737
0.00417895
0.00451696
0.00478154
0.0049462
0.00503011
0.00504218
0.00499001
0.00485427
0.0047034
0.00456409
0.00444492
0.00433439
0.00421727
0.00409374
0.0039689
0.00386855
0.00380299
0.00377604
0.00373877
0.00360039
0.00335219
0.0030266
0.00267468
0.00235623
0.00216083
0.00223832
0.00269234
0.00338431
0.00403188
0.00460427
0.00401127
0.00438841
0.00469408
0.00490499
0.00500393
0.00503332
0.00500129
0.00489001
0.00475942
0.00464688
0.00454474
0.00444433
0.00433673
0.004219
0.00410406
0.00401181
0.003945
0.00390249
0.00383558
0.0036767
0.00341382
0.00307364
0.00270683
0.00236648
0.00214778
0.00219531
0.00260246
0.00326657
0.00389992
0.00448105
0.00384188
0.00425129
0.00459361
0.00484629
0.00498381
0.00502659
0.00501163
0.00492571
0.00482328
0.00473112
0.00464038
0.00455045
0.00445098
0.00434027
0.00423182
0.00413991
0.00406048
0.00399583
0.00389906
0.00372554
0.0034575
0.0031122
0.00273607
0.00237808
0.00213962
0.00217039
0.0025232
0.00315582
0.00376883
0.00434688
0.00367758
0.00411497
0.00448648
0.00477424
0.00495318
0.00502918
0.00502912
0.00497087
0.00488984
0.00481197
0.00473318
0.00464925
0.00455342
0.00444599
0.00433435
0.00422959
0.00412759
0.00403526
0.00391261
0.00373216
0.00347008
0.00313501
0.00275805
0.00239825
0.00214348
0.00215083
0.0024623
0.00305651
0.00364565
0.00421343
0.00352639
0.00398743
0.00438171
0.00469724
0.00491157
0.00501771
0.00505407
0.00501789
0.00495493
0.00488773
0.00481228
0.00472657
0.0046235
0.00450379
0.00437598
0.00424488
0.00411612
0.00399403
0.00385542
0.00367801
0.00343546
0.00312859
0.00276636
0.0024124
0.00215508
0.00214479
0.00242973
0.00297353
0.00353737
0.00409287
0.00339773
0.00387694
0.00428542
0.00461673
0.00483721
0.00496873
0.00504011
0.0050265
0.00497788
0.00491362
0.00483135
0.00473206
0.00460846
0.00446487
0.00430636
0.00414467
0.00399163
0.00385149
0.00370974
0.00354704
0.0033388
0.00307732
0.00275238
0.00241231
0.00216453
0.00216066
0.00243475
0.00291949
0.00344749
0.00397932
0.00330251
0.00378176
0.00417137
0.00448562
0.00472425
0.00489096
0.00496961
0.00495969
0.00490934
0.00483282
0.0047309
0.00460668
0.004453
0.00428006
0.0040907
0.0039088
0.00374781
0.00360712
0.00347692
0.00334062
0.00317962
0.00297642
0.00271064
0.0023971
0.00216485
0.00217747
0.00246167
0.00291055
0.00341146
0.00390372
0.00321123
0.00364518
0.00402036
0.00433568
0.00457733
0.00473555
0.0047905
0.00476444
0.00469626
0.00459573
0.00446626
0.00431475
0.00414085
0.00395186
0.00375357
0.00357574
0.00343013
0.00330944
0.00320393
0.00310214
0.00299065
0.00284771
0.00264765
0.00238247
0.00215594
0.00217863
0.00248335
0.0028914
0.0033585
0.00380603
0.00312313
0.00351203
0.00384366
0.00411108
0.00431351
0.00442523
0.00444115
0.00439088
0.00430259
0.00418606
0.00404706
0.00389227
0.00372752
0.00356144
0.003398
0.00325987
0.00315247
0.00306802
0.00299216
0.00292237
0.00284718
0.0027487
0.00260249
0.0023917
0.00216635
0.00216502
0.00245576
0.00281323
0.00322838
0.00362121
0.00295732
0.00327073
0.00352726
0.00372281
0.00386327
0.00393168
0.00392436
0.0038737
0.00379863
0.00370574
0.00360033
0.00348837
0.00337685
0.00327187
0.00317603
0.0030974
0.00303634
0.00298473
0.00293357
0.00288183
0.00282359
0.00274653
0.00263224
0.00246256
0.00225005
0.00216021
0.00233723
0.0026465
0.00298586
0.00331004
0.00271048
0.00293762
0.00311509
0.00325779
0.00336671
0.00343273
0.00344806
0.00343813
0.00341364
0.00337671
0.00333107
0.0032821
0.00323481
0.00319067
0.00314361
0.00309946
0.00306222
0.00302394
0.00298511
0.00294413
0.00289755
0.00283791
0.00275122
0.00262118
0.00244551
0.00230285
0.00232518
0.00252061
0.00274179
0.00296669
0.00272579
0.00286268
0.00298015
0.00308374
0.00317095
0.00323592
0.00327108
0.00328972
0.00329694
0.00329243
0.00328008
0.00326009
0.00323403
0.00320402
0.00317258
0.00313954
0.00310856
0.00307887
0.00304998
0.00302186
0.00299215
0.00295636
0.00290459
0.00282368
0.00271788
0.00262235
0.00261464
0.00270735
0.0028155
0.00292239
0.00302627
0.00308401
0.00313346
0.0031787
0.0032173
0.0032462
0.00326198
0.00326909
0.00326704
0.00325532
0.00324451
0.00323442
0.00321537
0.00318954
0.00315972
0.00313249
0.00311116
0.00309648
0.00308574
0.00307781
0.00307005
0.00306184
0.00304853
0.00302377
0.00298954
0.00296462
0.00297191
0.00301233
0.00305222
0.00308603
0.000300769
0.000309939
0.000302124
0.000291153
0.000277892
0.000263328
0.000248265
0.000233296
0.000218773
0.000204901
0.000191769
0.000179416
0.000167918
0.000156455
0.000144747
0.000134357
0.000125802
0.000121902
0.000120273
0.000120296
0.000111556
8.76893e-05
9.19035e-05
0.000108536
0.000128255
0.00014059
0.000156214
0.000172075
0.00018911
0.000209908
0.00146452
0.001656
0.001605
0.00147137
0.00131842
0.00117412
0.00104678
0.000936236
0.000838823
0.000750734
0.000668511
0.000588183
0.000499208
0.000421202
0.000393943
0.000426056
0.000482998
0.000551015
0.000600708
0.000627671
0.00059436
0.000504722
0.000473372
0.000679058
0.000909159
0.00106205
0.00111864
0.00105736
0.000952036
0.000915012
0.0024593
0.00285665
0.00286494
0.00270693
0.00248479
0.0022511
0.00202956
0.00182732
0.00164242
0.00147106
0.00130876
0.00114689
0.000966435
0.000813694
0.000768723
0.000830716
0.000925268
0.00102559
0.00110476
0.00115439
0.001116
0.00100468
0.000964544
0.00120836
0.00154935
0.00181676
0.00194427
0.00189521
0.00175564
0.00170768
0.00326851
0.00376482
0.00382782
0.00368562
0.00344803
0.0031741
0.00289725
0.00263179
0.00238017
0.00214175
0.00191427
0.00168181
0.00142044
0.00121408
0.00116334
0.00124517
0.00135952
0.00147526
0.00157414
0.00164595
0.00162271
0.00150875
0.00145871
0.00168541
0.00207052
0.00242714
0.00263628
0.00263224
0.00250218
0.00246637
0.00394685
0.00447148
0.00457202
0.00445444
0.00422321
0.00393535
0.00362815
0.00332111
0.00302107
0.00273256
0.00245165
0.00216043
0.00184327
0.00160614
0.00155814
0.00165104
0.00177332
0.00189586
0.00201374
0.00210866
0.0021123
0.00200325
0.00194714
0.00214256
0.00253513
0.00294613
0.00322639
0.00328225
0.00318593
0.00316785
0.0045203
0.00503684
0.00516084
0.00506735
0.00485048
0.00456201
0.00423965
0.00390615
0.00357209
0.00324669
0.00292281
0.00259242
0.00223897
0.00199061
0.00194955
0.00204529
0.00216566
0.00229198
0.00243315
0.00255158
0.00256988
0.00247508
0.00241979
0.00258261
0.0029581
0.00338643
0.00372484
0.00384838
0.00379938
0.00379835
0.00501065
0.00550808
0.00563365
0.00556184
0.00536177
0.00507929
0.00475093
0.00440174
0.00404525
0.00369435
0.00334068
0.00298484
0.00261634
0.00237115
0.00233659
0.00242746
0.00253839
0.00266662
0.00283216
0.00295973
0.00299155
0.00291309
0.00286353
0.00299657
0.00333633
0.0037438
0.00412098
0.00432564
0.00433552
0.00435061
0.00541861
0.00585064
0.0060083
0.00596264
0.00578054
0.00550726
0.00517788
0.00482087
0.00445173
0.00408549
0.00371783
0.00334414
0.00298021
0.00274908
0.00271756
0.00279708
0.00289315
0.00302333
0.00320636
0.00333328
0.00337312
0.00330864
0.00326604
0.00337402
0.00365859
0.00404742
0.00445341
0.00470747
0.00478639
0.00483601
0.00573988
0.00614306
0.00631119
0.0062943
0.0061251
0.00586064
0.00553268
0.00517392
0.00480076
0.00442922
0.00405983
0.00368463
0.00333353
0.00312422
0.00309052
0.00315356
0.00323176
0.00336647
0.00355118
0.00366944
0.00371079
0.00365569
0.00361724
0.00370551
0.0039204
0.00430149
0.00473872
0.00504234
0.00517115
0.00526606
0.00603864
0.00640164
0.00656648
0.00656594
0.00642817
0.00616603
0.00583582
0.0054706
0.00509927
0.0047336
0.00437175
0.00401156
0.00367938
0.00349258
0.0034531
0.00349634
0.00355635
0.00369481
0.00386345
0.00396644
0.00400179
0.00395104
0.0039093
0.00398404
0.00414061
0.00451751
0.00499206
0.00534303
0.00551722
0.00565161
0.00630269
0.00661891
0.00677511
0.00678669
0.00667278
0.00643954
0.00610638
0.00573532
0.00536229
0.00500698
0.00466032
0.00432476
0.00402244
0.00384902
0.00380356
0.00382533
0.00386913
0.00400431
0.00414448
0.00422368
0.00424452
0.00419293
0.0041403
0.00420294
0.00433104
0.0047161
0.00521592
0.00560745
0.0058302
0.00600168
0.00650607
0.00678653
0.00694037
0.00696475
0.00687065
0.00666579
0.00635431
0.00597635
0.0056038
0.00525651
0.00493227
0.00462724
0.00435863
0.00419699
0.00413875
0.00414179
0.0041722
0.0042928
0.00439448
0.00444124
0.00443818
0.00438022
0.00431504
0.00435828
0.00449541
0.00488985
0.00541146
0.00583938
0.00611934
0.00632394
0.00664484
0.00690975
0.00706707
0.00710581
0.00702994
0.00685393
0.00656365
0.00620233
0.00582983
0.00549472
0.00519339
0.00492077
0.00468489
0.00453386
0.00446283
0.00444739
0.00446772
0.00455742
0.00461379
0.00461977
0.00458317
0.00451114
0.00443906
0.00445907
0.00462397
0.00501895
0.00555063
0.00601728
0.00635914
0.0066088
0.00673287
0.00699443
0.00716025
0.00721518
0.00715895
0.00700801
0.00673713
0.00639695
0.00604616
0.00572531
0.00544741
0.00520662
0.00500011
0.00485691
0.00477388
0.00474116
0.00474982
0.00479493
0.00480181
0.00476075
0.00468125
0.00458509
0.00451375
0.00450596
0.00468974
0.00506751
0.00560872
0.00611565
0.00651666
0.00682663
0.0067784
0.00704579
0.00722479
0.0072979
0.00726243
0.00713422
0.00689024
0.00656673
0.00624424
0.00595071
0.00569705
0.00548569
0.00530396
0.0051665
0.0050723
0.00502341
0.00501169
0.00500387
0.00495724
0.00486502
0.0047346
0.00460882
0.00453084
0.00450553
0.00468017
0.00505281
0.00560367
0.00615107
0.00661153
0.00698531
0.00678308
0.00706848
0.00726571
0.00735926
0.00734551
0.00723876
0.00702604
0.00672365
0.00643053
0.00617305
0.0059443
0.00575861
0.00559656
0.00546297
0.00535702
0.0052914
0.00524498
0.00517866
0.00507659
0.00493209
0.00474831
0.00458492
0.00448914
0.00446605
0.00460622
0.00498786
0.00554971
0.00613672
0.00665414
0.00709257
0.00675069
0.00706197
0.00728907
0.00740551
0.00741417
0.00732843
0.00715008
0.00687592
0.0066154
0.00639273
0.00619006
0.00602513
0.00587678
0.00573797
0.00562288
0.00553281
0.00543682
0.00531031
0.00515351
0.00495916
0.00472565
0.00451583
0.00439466
0.00438229
0.00450204
0.00488684
0.00545892
0.006084
0.00665467
0.0071553
0.00668443
0.00703277
0.00729755
0.00744537
0.00747552
0.00741179
0.00726632
0.00702682
0.00681354
0.00660983
0.00643335
0.00628126
0.0061358
0.00599336
0.00586009
0.0057286
0.0055736
0.00538692
0.00517882
0.00494087
0.00466771
0.00441307
0.00425662
0.00425414
0.00437749
0.0047607
0.00534203
0.00600252
0.0066202
0.00717569
0.00658743
0.00698227
0.00728914
0.00747733
0.00753767
0.00749522
0.00737921
0.00718506
0.00700058
0.00682465
0.00666615
0.00651782
0.00636666
0.00620956
0.00604338
0.00585464
0.00563578
0.00539319
0.00514111
0.00486957
0.00457159
0.0042808
0.00408066
0.0040743
0.00423559
0.00461705
0.00520867
0.00590121
0.00655696
0.00715704
0.00646226
0.00690734
0.00725593
0.00748536
0.00758614
0.0075805
0.00749313
0.0073401
0.00718075
0.00702406
0.00687066
0.00671452
0.0065461
0.00635742
0.00613908
0.00588531
0.00560314
0.00531356
0.00502923
0.00473744
0.00443261
0.00412231
0.00388917
0.00386216
0.0040732
0.00445295
0.00506611
0.00578824
0.00647456
0.00710292
0.00631403
0.00680888
0.00720101
0.00747028
0.00760361
0.00763086
0.00760712
0.00747503
0.00732724
0.00717756
0.00702097
0.006841
0.00663285
0.00639302
0.00611286
0.00579435
0.00546015
0.00513825
0.0048363
0.00454101
0.00424633
0.00394157
0.00368321
0.00363683
0.0038838
0.00432091
0.00491947
0.00566343
0.00637244
0.00702284
0.00615872
0.00669853
0.00712959
0.00743545
0.00759108
0.00765988
0.00765187
0.00753589
0.00739185
0.00723444
0.00705848
0.00684375
0.00658289
0.00628343
0.00593645
0.00556725
0.00520499
0.00487052
0.00456925
0.00428895
0.00402098
0.00374351
0.00348075
0.003407
0.00367933
0.00422343
0.0047856
0.00551431
0.00624228
0.00691172
0.00600376
0.00657905
0.0070109
0.00729203
0.00748373
0.00759608
0.00759214
0.00747478
0.00731789
0.00713722
0.00692894
0.0066751
0.00636458
0.0060125
0.00561387
0.00522019
0.00486093
0.00453929
0.00425836
0.00401018
0.00378137
0.00355046
0.00330802
0.00318784
0.00344833
0.0040887
0.00469117
0.00540793
0.00611801
0.0067736
0.00580638
0.00633083
0.00673642
0.00705695
0.00727896
0.00739153
0.0073613
0.00722591
0.00704537
0.00683595
0.00659631
0.00631175
0.00597597
0.00560085
0.0051906
0.0048108
0.00448761
0.00420374
0.00395829
0.00375437
0.00358011
0.00339967
0.0031889
0.0030234
0.00321405
0.0038865
0.0045167
0.00523768
0.00593239
0.00655918
0.00546924
0.00597261
0.00638673
0.00668757
0.00688496
0.00696172
0.00689486
0.00674058
0.00654453
0.00632253
0.0060751
0.00579102
0.00546934
0.00512186
0.00475811
0.00443138
0.00416586
0.00393302
0.00374548
0.00359703
0.00346636
0.00332525
0.00314487
0.00295521
0.00301845
0.00357257
0.00424346
0.00488552
0.00554449
0.00613475
0.00503065
0.00548036
0.00582479
0.00608034
0.00623225
0.00627218
0.00619138
0.00604648
0.00587027
0.00567542
0.005463
0.00522499
0.00496431
0.00469218
0.00441525
0.00416179
0.00396624
0.00379596
0.00365983
0.00354815
0.00344664
0.00333435
0.00318382
0.00299567
0.00293008
0.00323793
0.00382966
0.00440302
0.00498236
0.00550047
0.0043957
0.00478435
0.00506218
0.00526683
0.00539486
0.00544099
0.00539528
0.00530519
0.00519259
0.00506506
0.00492358
0.00476325
0.00458796
0.00440504
0.00420765
0.00403409
0.00388612
0.00375708
0.00365172
0.0035646
0.00348628
0.00340165
0.00328672
0.00312852
0.00300434
0.00308251
0.00342725
0.00386486
0.00431181
0.00473866
0.00386466
0.00415128
0.00436996
0.00454829
0.00467991
0.00475881
0.0047728
0.00475255
0.00471163
0.00465362
0.00458053
0.00448856
0.00437844
0.00424763
0.00410796
0.00396967
0.00384407
0.00373525
0.00364912
0.00358357
0.0035302
0.00347958
0.00341097
0.00330817
0.00321058
0.00320875
0.003343
0.00359262
0.00386858
0.00415019
0.00378339