/*--------------------------------*- C++ -*----------------------------------*\
  =========                 |
  \\      /  F ield         | OpenFOAM: The Open Source CFD Toolbox
   \\    /   O peration     | Website:  https://openfoam.org
    \\  /    A nd           | Version:  12
     \\/     M anipulation  |
\*---------------------------------------------------------------------------*/
FoamFile
{
    format      ascii;
    class       volScalarField;
    location    "600/air";
    object      epsilon;
}
// * * * * * * * * * * * * * * * * * * * * * * * * * * * * * * * * * * * * * //

dimensions      [0 2 -3 0 0 0 0];

internalField   nonuniform List<scalar> 
243000
(
8.21721
9.33154
9.73217
9.89947
9.76554
9.42513
8.95421
8.41573
7.85884
7.32026
6.83964
6.45707
6.20409
6.04081
5.85971
5.59246
5.21378
4.73565
4.18621
3.59902
2.99184
2.23559
1.36228
1.49781
2.14024
2.53512
2.98111
3.29797
3.58743
4.13083
5.30459
6.1887
6.29373
6.19978
5.95994
5.62891
5.24775
4.84664
4.44557
4.06028
3.706
3.39185
3.11441
2.85087
2.59763
2.36579
2.15006
1.94436
1.73814
1.52538
1.29872
1.03365
0.72627
0.830487
1.3582
1.66135
1.97336
2.31256
2.66437
3.11204
5.95726
6.76337
6.68204
6.39312
5.97331
5.49235
4.99446
4.50761
4.04688
3.6245
3.25064
2.92798
2.64519
2.37846
2.13128
1.91732
1.73261
1.57066
1.41833
1.26371
1.09268
0.89697
0.663236
0.682233
1.2541
1.69377
2.12067
2.61104
3.12611
3.75605
6.97566
7.89843
7.86217
7.57702
7.13057
6.60286
6.04363
5.4859
4.94906
4.45021
4.00453
3.61727
3.27373
2.94305
2.6314
2.3577
2.12009
1.91306
1.7212
1.52828
1.31524
1.08555
0.815893
0.731969
1.37864
1.9863
2.56699
3.21791
3.8723
4.59582
7.70399
8.65053
8.66681
8.41537
7.98458
7.45488
6.87644
6.28543
5.70486
5.15708
4.66295
4.23186
3.84637
3.46904
3.10619
2.78083
2.49432
2.24367
2.01281
1.78186
1.52925
1.26769
0.967317
0.798736
1.38994
2.18217
2.89621
3.69982
4.4852
5.26695
8.18802
9.11795
9.18488
8.98249
8.59363
8.09162
7.52361
6.92702
6.32766
5.75278
5.22901
4.7712
4.35925
3.94988
3.54703
3.17809
2.8484
2.55759
2.29033
2.02364
1.73622
1.44589
1.12039
0.888182
1.30265
2.29984
3.1384
4.05534
4.95805
5.78014
8.48253
9.37002
9.48213
9.33775
9.0066
8.55107
8.01347
7.43115
6.83173
6.24677
5.70867
5.23785
4.81188
4.3825
3.94952
3.54484
3.17821
2.85176
2.5518
2.2522
1.93579
1.62066
1.27487
0.994312
1.22841
2.35113
3.29811
4.30403
5.31046
6.15843
8.61572
9.42278
9.60686
9.5279
9.26294
8.8648
8.37052
7.81618
7.23056
6.64892
6.10878
5.63564
5.20575
4.76575
4.31147
3.8786
3.48148
3.1246
2.79596
2.4662
2.12705
1.79167
1.42958
1.11105
1.18091
2.3569
3.38782
4.44841
5.54327
6.41477
8.59854
9.34686
9.59527
9.59104
9.39231
9.0571
8.6147
8.09787
7.53612
6.96835
6.43612
5.96911
5.54305
5.09964
4.63188
4.17821
3.75702
3.37546
3.02222
2.66486
2.30923
1.95823
1.58326
1.23444
1.18164
2.31077
3.42332
4.5065
5.66872
6.56069
8.47904
9.1803
9.49072
9.55879
9.43261
9.15567
8.76335
8.28831
7.7585
7.21315
6.69694
6.24286
5.82635
5.38492
4.91078
4.44347
4.00462
3.60405
3.23019
2.84831
2.48208
2.11981
1.73474
1.36328
1.22817
2.2062
3.42422
4.52622
5.70404
6.61152
8.27615
8.94597
9.31447
9.44958
9.39779
9.18438
8.84005
8.40467
7.9071
7.39056
6.89669
6.4611
6.05794
5.62324
5.14896
4.67487
4.22472
3.81019
3.41983
3.01819
2.64627
2.27607
1.88309
1.49404
1.29494
2.09331
3.39282
4.51065
5.65852
6.58235
8.00393
8.65962
9.0834
9.28064
9.29805
9.15118
8.85958
8.46183
7.99617
7.50758
7.04125
6.62775
6.24067
5.81667
5.34787
4.87344
4.41812
3.99478
3.59138
3.17895
2.8031
2.42677
2.02737
1.62456
1.37071
1.98343
3.3323
4.4525
5.53766
6.47867
7.67424
8.3321
8.80799
9.06584
9.14637
9.06106
8.82529
8.47103
8.03582
7.57534
7.1356
6.74694
6.37774
5.9678
5.50952
5.04074
4.58606
4.15886
3.74577
3.33149
2.95232
2.57137
2.16695
1.75324
1.45126
1.87888
3.24644
4.35545
5.35481
6.3109
7.30074
7.9738
8.49633
8.8147
8.95262
8.92556
8.73995
8.43177
8.03504
7.60218
7.18736
6.82268
6.47261
6.07957
5.63633
5.17872
4.7301
4.30374
3.88417
3.47326
3.09318
2.70935
2.30118
1.87888
1.53634
1.78278
3.14175
4.23554
5.17738
6.09125
6.90035
7.59312
8.15675
8.53452
8.72492
8.75104
8.61339
8.34637
7.99058
7.59311
7.20437
6.86017
6.52882
6.15542
5.73131
5.28981
4.85218
4.43077
4.00827
3.60456
3.226
2.84087
2.43012
2.0004
1.62365
1.70095
3.02244
4.10072
4.99579
5.83189
6.52204
7.20067
7.79893
8.229
8.46959
8.54276
8.45065
8.22336
7.90546
7.54614
7.18908
6.86767
6.55212
6.19944
5.79791
5.37679
4.95454
4.54165
4.12049
3.72706
3.35199
2.96674
2.5541
2.1177
1.71242
1.65762
2.8764
3.95486
4.8057
5.54748
6.17291
6.83101
7.43173
7.90337
8.1913
8.30587
8.25651
8.06813
7.78739
7.46439
7.14042
6.8448
6.54995
6.21672
5.84006
5.44277
5.03959
4.63818
4.22405
3.8431
3.47287
3.08821
2.67355
2.23097
1.80426
1.64727
2.70954
3.80091
4.61497
5.30028
5.84646
6.49259
7.07795
7.56444
7.89501
8.04571
8.03587
7.88497
7.64182
7.35517
7.06438
6.79417
6.52038
6.21284
5.86172
5.49091
5.10946
4.72222
4.32349
3.95483
3.59026
3.20691
2.79011
2.34124
1.89603
1.66014
2.53613
3.64166
4.42539
5.07336
5.53854
6.17841
6.75204
7.22343
7.58526
7.76775
7.79335
7.67847
7.47253
7.22292
6.96488
6.72081
6.46959
6.18771
5.86591
5.52368
5.16576
4.79527
4.41807
4.06293
3.70553
3.32457
2.90598
2.45062
1.9887
1.68801
2.3684
3.48111
4.23993
4.86221
5.24701
5.88432
6.44902
6.90827
7.26808
7.47645
7.53245
7.4519
7.28294
7.07032
6.84436
6.62715
6.40018
6.14567
5.8545
5.54232
5.2094
4.85852
4.50721
4.1681
3.81997
3.44304
3.02361
2.56193
2.08443
1.72826
2.21433
3.32301
4.06067
4.66376
4.97052
5.60773
6.16481
6.61494
6.96652
7.17658
7.25644
7.2078
7.07469
6.89826
6.70458
6.51451
6.31323
6.08777
5.82812
5.54645
5.24031
4.914
4.59245
4.27186
3.93525
3.56447
3.14562
2.67843
2.18626
1.7818
2.08271
3.17097
3.88959
4.47701
4.70906
5.34748
5.89748
6.3402
6.68399
6.89297
6.97715
6.95023
6.85077
6.7092
6.54734
6.38453
6.20953
6.0136
5.78618
5.53624
5.25991
4.97057
4.67792
4.37696
4.05378
3.69148
3.27559
2.80328
2.29699
1.8516
1.98307
3.02929
3.72946
4.30285
4.46452
5.10389
5.64602
6.08144
6.41745
6.62918
6.72051
6.71146
6.63694
6.5238
6.39008
6.25075
6.10063
5.93284
5.73996
5.52524
5.28784
5.03425
4.76905
4.48826
4.18004
3.82833
3.4173
2.94061
2.41954
1.93811
1.92465
2.90488
3.58462
4.14334
4.24142
4.87827
5.40961
5.836
6.1663
6.38469
6.48483
6.49527
6.44693
6.36283
6.25782
6.14406
6.01981
5.88005
5.71938
5.53813
5.33594
5.1149
4.87629
4.61604
4.32379
3.98418
3.57959
3.09991
2.56045
2.04367
1.9178
2.80615
3.46298
4.00389
4.04629
4.67297
5.19031
5.60734
5.93348
6.15928
6.2702
6.30125
6.28112
6.22757
6.15265
6.06732
5.97207
5.86307
5.73623
5.59009
5.42328
5.23467
5.02303
4.78377
4.50756
4.17966
3.78084
3.29609
2.73529
2.17561
1.95854
2.74339
3.36994
3.88936
3.89272
4.50016
4.99805
5.40273
5.72427
5.95851
6.08346
6.13798
6.14935
6.13056
6.09163
6.04234
5.98436
5.91523
5.83098
5.72764
5.60121
5.44765
5.26408
5.04518
4.78227
4.46138
4.06156
3.56473
2.97051
2.35283
2.05308
2.73748
3.31969
3.81005
3.80571
4.3848
4.86077
5.25129
5.56854
5.81462
5.96333
6.05176
6.10633
6.13702
6.15227
6.16006
6.1618
6.15437
6.13244
6.087
6.00924
5.89309
5.73405
5.52685
5.26428
4.9342
4.51703
3.98896
3.33971
2.63698
2.25122
2.81974
3.35439
3.80692
3.90343
4.44922
4.90798
5.30074
5.63553
5.91795
6.12536
6.28423
6.42167
6.5448
6.66348
6.78351
6.89874
6.99921
7.07047
7.09578
7.06435
6.96825
6.80581
6.57505
6.27206
5.88965
5.41123
4.81304
4.07499
3.2469
2.74356
3.16001
3.61909
4.00884
5.09882
5.66059
6.16322
6.62386
7.04504
7.42098
7.77745
8.10417
8.4127
8.70883
9.03375
9.38036
9.69558
9.95711
10.1325
10.2041
10.1659
10.0188
9.77399
9.43521
8.9981
8.47542
7.86207
7.13646
6.28321
5.33396
4.64158
4.8254
5.1486
5.41473
14.597
15.1529
15.6658
16.1419
16.5198
16.7029
17.0063
17.3685
17.6507
17.8909
18.3652
18.9276
19.3152
19.5579
19.6115
19.5401
19.3284
19.0311
18.6774
18.2835
17.7566
17.239
16.7444
16.2305
15.6587
15.0555
14.7481
14.7981
14.992
15.1006
14.2858
17.6425
19.0079
19.545
19.3872
18.7136
17.6825
16.4359
15.0802
13.6916
12.3504
11.1297
10.0679
9.0408
7.90655
6.70335
5.48687
4.36131
3.33808
2.44125
1.60548
1.42703
0.298163
1.64826
2.33373
2.64502
3.13176
3.2909
3.82137
5.22258
8.9558
10.1964
10.9264
11.2466
11.205
10.8615
10.2849
9.55473
8.73982
7.89284
7.04829
6.2511
5.52743
4.82564
4.15499
3.57406
3.07656
2.66479
2.26354
1.85163
1.32532
0.899775
0.620239
0.893426
1.27153
1.77101
2.43448
2.89839
3.40386
4.1912
8.061
8.91743
9.39619
9.60144
9.57333
9.3312
8.90907
8.35162
7.70667
7.0156
6.31383
5.63836
5.00556
4.36896
3.759
3.25323
2.84861
2.53481
2.23405
1.9186
1.47564
1.00677
0.684834
0.773663
1.22927
1.83835
2.60587
3.22745
3.76079
4.38573
7.72346
8.38342
8.73973
8.89153
8.87923
8.70449
8.38109
7.93338
7.39489
6.79554
6.18058
5.59513
5.02321
4.41052
3.80767
3.30562
2.91174
2.61431
2.34443
2.06569
1.67479
1.1866
0.788484
0.788688
1.27157
1.94303
2.79958
3.54557
4.12084
4.69699
7.51236
8.01112
8.28942
8.41835
8.42965
8.31377
8.06904
7.70642
7.24824
6.72856
6.19137
5.66577
5.13899
4.54663
3.94314
3.43131
3.03075
2.73263
2.47841
2.22578
1.87397
1.37995
0.921176
0.850554
1.3005
2.02239
2.94579
3.79631
4.40116
4.96617
7.31728
7.67741
7.89962
8.02308
8.06206
8.00035
7.82245
7.5305
7.14133
6.69143
6.21451
5.74408
5.25662
4.68128
4.07785
3.55684
3.14877
2.8495
2.61081
2.3871
2.06357
1.57321
1.07377
0.946842
1.31531
2.08019
3.04355
3.97071
4.60381
5.16255
7.10702
7.3482
7.53158
7.66036
7.72895
7.71677
7.59662
7.36481
7.03445
6.64451
6.22431
5.79987
5.3472
4.78863
4.18883
3.66328
3.25161
2.95522
2.73577
2.54419
2.24111
1.76149
1.23908
1.06121
1.34295
2.12743
3.10456
4.07134
4.72589
5.28521
6.85189
7.01206
7.17568
7.31718
7.41561
7.44619
7.37602
7.19535
6.91638
6.5744
6.20893
5.82772
5.40222
4.86158
4.27033
3.74631
3.33653
3.04831
2.85131
2.69006
2.40602
1.94303
1.41143
1.18407
1.38613
2.16118
3.13853
4.11406
4.77788
5.33608
6.55956
6.6743
6.8325
6.99054
7.11698
7.18271
7.15477
7.01879
6.78302
6.48265
6.16048
5.82828
5.42578
4.89968
4.32261
3.80655
3.4045
3.12976
2.95784
2.82305
2.55937
2.11761
1.58675
1.31115
1.44182
2.17977
3.15169
4.11316
4.77547
5.3246
6.24462
6.34191
6.50464
6.67973
6.8313
6.9255
6.93348
6.83339
6.63405
6.37113
6.08524
5.78872
5.4195
4.91099
4.34881
3.84661
3.45776
3.20084
3.05652
2.94363
2.70271
2.28648
1.76341
1.44083
1.50593
2.18423
3.14362
4.06054
4.70484
5.24038
5.92085
6.02015
6.19345
6.38454
6.55735
6.67542
6.71063
6.64036
6.47133
6.24086
5.98782
5.71993
5.37509
4.89289
4.35329
3.86983
3.4991
3.26303
3.14587
3.05323
2.83766
2.44951
1.94077
1.57243
1.57356
2.17558
3.11539
3.98592
4.58725
5.09757
5.5976
5.71176
5.89916
6.10478
6.2949
6.43208
6.48808
6.4418
6.29766
6.09472
5.87102
5.62746
5.30488
4.84853
4.33736
3.87963
3.53149
3.31867
3.22717
3.15437
2.9662
2.60768
2.11773
1.70753
1.64189
2.1558
3.07043
3.8951
4.44004
4.92194
5.28197
5.41885
5.62186
5.84026
6.04385
6.19555
6.26702
6.24001
6.11618
5.93659
5.73815
5.51623
5.21424
4.78568
4.30673
3.87793
3.55791
3.37093
3.30339
3.25057
3.09054
2.7619
2.29216
1.84973
1.71139
2.12813
3.01363
3.79342
4.27612
4.72444
4.98184
5.14386
5.36174
5.59072
5.80414
5.96614
6.04868
6.03699
5.93013
5.77063
5.59391
5.39138
5.10918
4.71028
4.26673
3.87172
3.58213
3.42419
3.37843
3.34583
3.21338
2.91336
2.4618
1.99779
1.78727
2.09613
2.94936
3.68764
4.11917
4.51358
4.70939
4.89098
5.11958
5.35601
5.57582
5.7445
5.83471
5.83506
5.74292
5.60146
5.44379
5.25884
4.99643
4.62895
4.22336
3.86547
3.60851
3.48109
3.45695
3.44479
3.33856
3.06504
2.62931
2.1504
1.86861
2.06856
2.88139
3.58403
3.97202
4.29872
4.48372
4.66756
4.8973
5.13643
5.35913
5.53142
5.62713
5.63722
5.55866
5.43419
5.29412
5.12564
4.88378
4.54928
4.18368
3.86446
3.64328
3.54688
3.54506
3.55319
3.47153
3.22191
2.79823
2.30685
1.95523
2.06001
2.81204
3.48426
3.83255
4.09252
4.29473
4.4831
4.69932
4.93372
5.15544
5.32881
5.42881
5.44748
5.38261
5.27489
5.15223
5.00019
4.78052
4.48052
4.15639
3.87925
3.69647
3.63032
3.65106
3.67885
3.62014
3.39156
2.97412
2.46604
2.04951
2.06131
2.74151
3.38807
3.70129
3.914
4.1357
4.33073
4.53371
4.75195
4.96847
5.14092
5.2447
5.27186
5.22186
5.13167
5.02734
4.89306
4.69835
4.43383
4.15477
3.92177
3.77768
3.74356
3.78669
3.83336
3.79584
3.5855
3.16797
2.63546
2.15643
2.07689
2.67247
3.29604
3.5795
3.76037
4.00256
4.20424
4.40057
4.59964
4.805
4.97491
5.08275
5.1192
5.08636
5.01588
4.93168
4.81883
4.65288
4.42988
4.19449
4.00901
3.9036
3.90331
3.96855
4.03348
4.01559
3.82003
3.39773
2.82925
2.28449
2.10864
2.60796
3.20912
3.4688
3.62999
3.89522
4.10473
4.29625
4.48617
4.67723
4.84206
4.95503
5.00246
4.99046
4.94319
4.88402
4.79889
4.66709
4.48735
4.30485
4.1673
4.10533
4.13594
4.22337
4.30586
4.30572
4.12101
3.6885
3.0688
2.44512
2.16045
2.55203
3.12806
3.37018
3.51961
3.79947
4.0237
4.21891
4.4114
4.59877
4.76065
4.88201
4.94264
4.95608
4.94191
4.91499
4.8653
4.77744
4.65222
4.53029
4.44527
4.42926
4.48975
4.5982
4.69634
4.70983
4.52995
4.07865
3.3877
2.65871
2.24657
2.51407
3.05382
3.28539
3.42999
3.71629
3.96159
4.16888
4.37263
4.56747
4.73923
4.87894
4.9722
5.0225
5.05307
5.07511
5.07747
5.0502
4.99247
4.94183
4.92248
4.95831
5.0529
5.18129
5.29009
5.30722
5.11815
4.62883
3.8404
2.95807
2.37976
2.5152
2.99313
3.22113
3.36727
3.65059
3.92474
4.15049
4.37707
4.60999
4.82199
4.99921
5.13518
5.24284
5.34179
5.43955
5.52602
5.58994
5.62912
5.68158
5.75607
5.86235
6.00107
6.14889
6.25686
6.25333
6.0201
5.45157
4.51568
3.40159
2.58036
2.56
2.97324
3.20082
3.34963
3.61701
3.92446
4.20332
4.48763
4.77964
5.05612
5.30104
5.51739
5.7264
5.94079
6.16276
6.39114
6.61042
6.81498
7.04546
7.27915
7.50329
7.71109
7.87636
7.95281
7.86342
7.50362
6.76275
5.58049
4.10378
2.90441
2.67227
3.01809
3.24344
3.39233
3.66563
4.04905
4.41212
4.78709
5.1784
5.57771
5.95671
6.33184
6.73838
7.16772
7.60969
8.0832
8.59789
9.1215
9.70119
10.2474
10.6957
11.0192
11.1799
11.1315
10.7956
10.1101
8.99446
7.37175
5.32051
3.47083
2.95376
3.20345
3.42154
3.57139
3.96391
4.47655
4.98658
5.52709
6.11974
6.7678
7.44408
8.14941
8.92392
9.76593
10.6636
11.6317
12.709
13.8826
15.1732
16.3373
17.1879
17.6573
17.7041
17.2768
16.3382
14.9057
12.9899
10.5769
7.61773
4.65079
3.67224
3.77817
3.9607
4.09979
5.04756
5.80068
6.61975
7.53502
8.59014
9.74767
11.0008
12.3517
13.8735
15.5457
17.3498
19.3329
21.537
23.8954
26.4216
28.5335
29.8517
30.2815
29.7972
28.4415
26.2753
23.4699
20.1643
16.4548
12.1677
7.58807
5.74508
5.51473
5.58359
5.64845
8.87616
10.1664
11.7076
13.4342
15.3803
17.5073
19.887
22.4471
25.2946
28.3747
31.6376
35.1615
38.9312
42.7308
46.2048
48.501
49.2236
48.4685
46.4519
43.4775
39.8585
35.7406
31.2187
26.3606
20.9478
15.2169
12.0584
11.0958
10.7934
10.5169
21.506
23.8271
26.5577
29.5101
32.6809
35.9509
39.5617
43.3264
47.3098
51.4271
55.5589
59.5502
63.0129
65.5838
66.0641
64.3289
61.4102
57.7922
53.8915
50.0259
46.3995
43.0664
39.8214
36.4174
32.7877
29.6672
27.3413
26.3664
25.7723
24.8247
42.7125
46.2615
49.7587
53.1108
56.2219
58.9579
61.562
64.1307
66.2898
68.0388
69.4841
69.8941
68.654
66.1221
62.1185
57.3868
52.7297
48.322
44.4717
41.3062
38.8654
37.2
36.1407
35.4461
35.1238
35.9254
38.18
40.2469
41.9061
43.6509
20.2663
25.7581
27.6409
28.5359
28.4588
27.5838
26.1178
24.2571
22.1508
19.9086
17.6186
15.3547
13.1891
10.9945
8.84288
7.09088
5.76055
5.15081
4.79979
4.58888
3.46173
1.5347
1.57335
2.30273
3.27777
3.83906
4.71122
5.33534
6.00606
6.95971
11.5639
12.9839
13.6834
14.0976
14.1644
13.8799
13.2894
12.4672
11.4878
10.41
9.2733
8.10096
6.92858
5.77219
4.84369
4.27254
3.92672
3.83705
3.66522
3.58721
3.02194
1.4455
1.17275
1.52023
2.025
2.74446
3.59804
4.24136
4.95425
5.82962
10.4895
11.2244
11.5736
11.7189
11.6801
11.4535
11.0393
10.4592
9.74895
8.94297
8.06898
7.14667
6.17776
5.20601
4.46104
4.04278
3.80296
3.71873
3.52516
3.42348
3.0091
1.8109
1.41112
1.63303
2.16612
2.91465
3.81807
4.53153
5.28267
6.11449
10.0918
10.5368
10.7381
10.7819
10.7085
10.5226
10.2068
9.75884
9.19466
8.5328
7.78869
6.99407
6.13771
5.23231
4.52938
4.1201
3.86753
3.72622
3.49397
3.34873
3.0105
2.16604
1.72587
1.88693
2.40757
3.14014
4.08493
4.85477
5.6047
6.39095
9.79434
10.0407
10.1597
10.1709
10.1067
9.97058
9.73437
9.38349
8.92328
8.36095
7.71972
7.02707
6.23136
5.36725
4.67647
4.24237
3.95164
3.75291
3.49002
3.31551
3.06324
2.45931
2.03099
2.13669
2.61873
3.34051
4.30596
5.10987
5.83518
6.58695
9.47096
9.56642
9.63773
9.65294
9.62387
9.54408
9.37858
9.10656
8.728
8.24597
7.69641
7.07529
6.33263
5.50318
4.81739
4.35283
4.02328
3.77985
3.50708
3.34161
3.14451
2.69123
2.29958
2.35651
2.79091
3.50531
4.4603
5.2818
5.97692
6.6927
9.06547
9.07243
9.12717
9.16868
9.18722
9.16527
9.06372
8.85828
8.54662
8.13304
7.66109
7.10471
6.40632
5.61384
4.93287
4.44044
4.07858
3.80725
3.56189
3.39477
3.22548
2.87061
2.52139
2.54068
2.92463
3.62916
4.54886
5.37639
6.04012
6.71718
8.60383
8.56225
8.62546
8.7055
8.77374
8.80598
8.76201
8.61327
8.35754
8.00406
7.59288
7.10779
6.44973
5.69368
5.0198
4.50519
4.12016
3.83857
3.62777
3.45891
3.30038
3.00686
2.69527
2.68399
3.01997
3.70935
4.58227
5.40601
6.03807
6.65049
8.10558
8.05378
8.14017
8.26176
8.37706
8.45608
8.46253
8.36211
8.15367
7.85299
7.49452
7.06877
6.46428
5.74249
5.07961
4.54997
4.15195
3.87845
3.69603
3.52915
3.37053
3.11074
2.82785
2.78612
3.07872
3.74698
4.57547
5.36478
5.95189
6.49357
7.59508
7.56159
7.67768
7.83828
7.99552
8.11466
8.16109
8.10205
7.93367
7.67861
7.37032
6.9916
6.45025
5.76568
5.1154
4.57851
4.1777
3.92606
3.76298
3.60396
3.43968
3.19302
2.92724
2.85293
3.10589
3.74308
4.51959
5.25772
5.80525
6.2849
7.09499
7.09476
7.24109
7.43604
7.62909
7.78145
7.85873
7.83398
7.69912
7.48381
7.22261
6.88864
6.4039
5.76875
5.13014
4.59486
4.20128
3.97697
3.83028
3.68335
3.51207
3.26415
3.00131
2.89222
3.1016
3.68951
4.42575
5.10395
5.61333
6.0395
6.61894
6.65751
6.8325
7.05645
7.27843
7.45695
7.55747
7.56
7.45319
7.27298
7.0556
6.76583
6.33482
5.74546
5.13039
4.60347
4.22795
4.0315
3.90036
3.76796
3.59098
3.33373
3.06097
2.91253
3.06678
3.60319
4.30447
4.93957
5.39089
5.77288
6.17506
6.25268
6.45345
6.70079
6.94442
7.14199
7.25976
7.28264
7.20008
7.05174
6.87503
6.62958
6.24944
5.70204
5.11552
4.60926
4.26612
4.09263
3.97718
3.85831
3.67787
3.40981
3.11482
2.92407
3.01565
3.49554
4.16585
4.7639
5.15889
5.49808
5.76893
5.88305
6.10496
6.36955
6.62771
6.83771
6.96737
7.00551
6.94495
6.82651
6.6881
6.4862
6.153
5.64763
5.09601
4.62176
4.3194
4.16472
4.06699
3.96035
3.77918
3.49691
3.17309
2.93637
2.95814
3.37592
4.01548
4.58071
4.92931
5.22442
5.40803
5.55153
5.78799
6.06305
6.329
6.54565
6.68308
6.733
6.6937
6.60462
6.5029
6.34304
6.05294
5.59099
5.08235
4.65151
4.39371
4.25747
4.17848
4.0848
3.90516
3.60566
3.24377
2.95572
2.90386
3.2544
3.86222
4.39779
4.71073
4.96028
5.09715
5.26309
5.50436
5.78235
6.04981
6.2685
6.4111
6.47125
6.45371
6.39476
6.3291
6.20958
5.96015
5.54473
5.08985
4.71643
4.50002
4.38399
4.32439
4.24455
4.06741
3.74948
3.3413
2.99052
2.86216
3.14117
3.71361
4.22185
4.50535
4.71367
4.83206
5.01659
5.2581
5.53042
5.79396
6.01147
6.15843
6.22926
6.23495
6.20797
6.17896
6.09868
5.89081
5.5336
5.14067
4.83465
4.65431
4.56289
4.5234
4.45781
4.28266
3.9446
3.48123
3.05207
2.84297
3.04285
3.57508
4.05739
4.31616
4.49447
4.6094
4.8085
5.04902
5.31351
5.5685
5.78339
5.93581
6.02012
6.05096
6.05941
6.06904
6.02939
5.87184
5.57682
5.26729
5.02855
4.88472
4.82213
4.80397
4.75205
4.57662
4.21341
3.68149
3.15413
2.85138
2.96617
3.45076
3.90735
4.14558
4.30319
4.42563
4.6364
4.87663
5.13643
5.38541
5.59742
5.75861
5.86088
5.92219
5.97137
6.0245
6.03312
5.93368
5.71918
5.50543
5.33259
5.23508
5.20629
5.2108
5.17089
4.9901
4.59157
3.97588
3.32279
2.89698
2.91808
3.34447
3.77407
3.99579
4.14131
4.27537
4.49978
4.74427
5.00593
5.25721
5.47432
5.65008
5.77618
5.87637
5.97503
6.08643
6.15589
6.13367
6.01862
5.90412
5.80945
5.77469
5.78852
5.81769
5.78646
5.59016
5.14036
4.41696
3.58782
2.99904
2.91551
3.26308
3.66243
3.86938
4.01054
4.1574
4.39929
4.6523
4.92256
5.18786
5.42091
5.62589
5.80319
5.9624
6.12832
6.31483
6.46896
6.54955
6.54586
6.55289
6.56808
6.62103
6.69356
6.75276
6.72287
6.49097
5.96267
5.09425
4.01588
3.18652
2.95216
3.22404
3.57895
3.77209
3.91178
4.06964
4.3352
4.6044
4.8895
5.18218
5.47603
5.74735
5.9899
6.23039
6.49413
6.78852
7.06133
7.28024
7.43247
7.61958
7.79897
7.98427
8.14541
8.24447
8.19989
7.89311
7.23627
6.13233
4.71281
3.51148
3.06707
3.24842
3.55313
3.72832
3.86152
4.02372
4.31881
4.62829
4.97568
5.34438
5.71845
6.07474
6.4198
6.78563
7.19649
7.65313
8.10573
8.5337
8.92692
9.40186
9.8493
10.251
10.5514
10.7061
10.6094
10.1536
9.21822
7.74894
5.84052
4.07194
3.30016
3.35505
3.60325
3.76568
3.89088
4.07309
4.44408
4.83666
5.27827
5.75232
6.25306
6.75344
7.26608
7.83286
8.47665
9.19234
9.93606
10.7043
11.4978
12.4581
13.3597
14.1188
14.6345
14.8614
14.6153
13.7515
12.3009
10.2705
7.69231
5.08543
3.78734
3.63768
3.80598
3.94488
4.05958
4.35319
4.84416
5.37543
5.97108
6.62674
7.34085
8.09224
8.88984
9.79438
10.8253
11.9742
13.2093
14.5531
16.0278
17.8004
19.4342
20.7385
21.5221
21.483
20.6637
19.1208
16.9281
14.1339
10.7145
6.97712
4.84051
4.31499
4.35403
4.43637
4.52673
5.19213
5.87167
6.64714
7.5217
8.50143
9.58879
10.7869
12.0829
13.5686
15.2559
17.1333
19.1885
21.4766
24.0369
27.0119
29.5923
31.1012
31.3487
30.5224
28.8282
26.4158
23.3827
19.7722
15.4969
10.5932
7.25419
6.0009
5.73875
5.67536
5.68882
7.54835
8.54982
9.77313
11.1564
12.7152
14.4498
16.4184
18.5546
20.9925
23.7168
26.7057
29.9647
33.5589
37.4684
41.5598
43.7489
44.0865
42.9704
40.9
38.1717
34.9805
31.3673
27.2807
22.5369
17.1169
12.8472
10.2959
9.35957
8.91193
8.65798
14.2596
15.7798
17.7424
19.9371
22.3765
25.0405
28.0926
31.365
35.014
38.9635
43.1523
47.5569
52.1238
56.3896
58.7656
58.3153
56.2146
53.076
49.5822
46.004
42.5364
39.1144
35.5068
31.4066
26.9292
23.1958
20.4454
18.5876
17.4277
16.5357
30.8711
33.0831
35.765
38.6447
41.7272
44.9555
48.6131
52.478
56.6158
60.8778
65.1113
69.0388
71.9238
72.1824
70.2574
65.789
60.6904
55.5503
51.0037
47.2144
44.2737
42.0453
40.1762
38.2965
36.5548
35.7311
35.6188
35.7157
35.254
34.3418
49.3486
53.3156
56.8687
59.8644
62.5106
65.0029
67.6019
70.2889
72.8356
75.1079
76.8807
77.1677
75.0147
70.7664
64.8743
57.6844
51.0855
45.4078
40.9704
37.7804
35.7874
34.8636
34.7339
35.1478
36.1128
38.2863
41.4891
44.54
47.3455
50.3083
26.4951
33.7937
36.0075
37.0027
36.9751
35.949
34.1191
31.7084
28.8875
25.7843
22.4953
19.0702
15.633
12.1905
9.48243
8.5122
9.17948
12.1918
14.0977
14.6462
13.5634
11.1032
6.75012
5.75191
6.88074
8.47572
9.71611
9.7805
9.8091
9.92705
14.5846
16.1893
16.7577
17.0626
17.1301
16.8501
16.217
15.2909
14.1427
12.8256
11.3838
9.8138
8.14323
6.5739
5.72685
5.81486
6.50705
8.02694
9.08817
9.53111
9.24152
8.34151
6.09025
5.24151
5.56722
6.29035
6.82598
7.08769
7.55737
8.18493
13.2056
13.8289
13.9753
13.9789
13.8597
13.5964
13.1565
12.5354
11.7508
10.8184
9.76118
8.56429
7.22288
5.98727
5.4158
5.55517
6.04194
7.02402
7.88631
8.35502
8.2995
7.74885
6.28654
5.63369
5.85225
6.42636
6.88847
7.18683
7.72928
8.41695
12.7196
12.9388
12.9247
12.807
12.63
12.3922
12.0536
11.5868
10.9843
10.2385
9.35738
8.32082
7.12956
6.02186
5.51488
5.57379
5.86047
6.48756
7.19336
7.65751
7.72716
7.33467
6.35548
5.9317
6.14955
6.68018
7.13852
7.44788
7.96201
8.60855
12.3313
12.315
12.2184
12.0698
11.9024
11.7133
11.4568
11.0967
10.6149
9.98918
9.22711
8.32076
7.20308
6.16785
5.6761
5.63258
5.74729
6.11397
6.66516
7.08802
7.20925
6.95029
6.33697
6.09703
6.31671
6.84644
7.31778
7.63404
8.11015
8.7474
11.8716
11.7132
11.5874
11.4597
11.3397
11.214
11.0327
10.7562
10.3638
9.82746
9.16903
8.34556
7.28617
6.31699
5.83074
5.68865
5.66267
5.84161
6.24619
6.6048
6.77
6.62634
6.2594
6.13576
6.39628
6.91915
7.40807
7.73067
8.16764
8.77009
11.3183
11.0851
10.9734
10.8978
10.8428
10.7853
10.6733
10.466
10.1437
9.6798
9.10489
8.35619
7.35325
6.45733
5.96907
5.73654
5.59967
5.6518
5.93945
6.22862
6.393
6.32231
6.10913
6.06946
6.36839
6.87655
7.40971
7.75141
8.13855
8.65101
10.7013
10.4429
10.3734
10.3654
10.379
10.3864
10.3366
10.1874
9.92172
9.51943
9.00826
8.3361
7.40343
6.58541
6.09209
5.77863
5.55808
5.54223
5.7075
5.92226
6.06148
6.02867
5.90653
5.92888
6.23765
6.73901
7.28904
7.65903
8.00451
8.42633
10.0446
9.80769
9.79818
9.85842
9.93585
9.99984
10.0047
9.90457
9.68578
9.33745
8.88446
8.2832
7.44318
6.70555
6.20249
5.8185
5.53982
5.46939
5.5312
5.66981
5.77268
5.7468
5.6734
5.72945
6.0427
6.53747
7.07472
7.47982
7.79241
8.13707
9.37228
9.19868
9.25311
9.37503
9.50914
9.62196
9.6698
9.6119
9.43277
9.13283
8.73941
8.20753
7.48082
6.81984
6.30219
5.8596
5.55001
5.423
5.40303
5.46697
5.52324
5.48491
5.42761
5.49398
5.80184
6.29343
6.81938
7.24317
7.53121
7.80775
8.72598
8.62601
8.73831
8.91464
9.09797
9.25076
9.33195
9.30928
9.16449
8.91019
8.5793
8.12261
7.52123
6.92755
6.39256
5.90553
5.58539
5.40428
5.32076
5.31432
5.31507
5.25197
5.18473
5.23997
5.53121
6.01652
6.53532
6.9621
7.23215
7.45504
8.11706
8.09405
8.25619
8.47856
8.70242
8.88691
8.99324
8.99924
8.88579
8.677
8.41276
8.04105
7.56508
7.02665
6.47576
5.96144
5.63878
5.4132
5.28234
5.2144
5.15554
5.0543
4.95968
4.98296
5.2451
5.71866
6.23214
6.65274
6.90894
7.09335
7.55757
7.60478
7.8092
8.06875
8.3236
8.53162
8.65741
8.68569
8.60336
8.44227
8.2495
7.96979
7.61076
7.11653
6.55645
6.03592
5.71073
5.46104
5.28945
5.17107
5.05258
4.90022
4.76383
4.73974
4.95891
5.41301
5.92051
6.33487
6.57476
6.73469
7.05169
7.15835
7.39847
7.68638
7.96296
8.18712
8.32784
8.37531
8.32553
8.21611
8.09912
7.91562
7.65878
7.20025
6.64386
6.14508
5.81296
5.55243
5.35795
5.18967
5.01547
4.80063
4.60554
4.52564
4.68746
5.11262
5.61123
6.01792
6.24156
6.38812
6.60008
6.75704
7.0249
7.3324
7.62248
7.85693
8.00971
8.07619
8.06219
8.00953
7.97078
7.88387
7.71214
7.28676
6.75349
6.29345
5.96113
5.70029
5.49476
5.29476
5.0511
4.76609
4.49562
4.35007
4.44254
4.82872
5.31446
5.71214
5.92342
6.06121
6.20636
6.40271
6.68944
7.00839
7.30544
7.54646
7.71102
7.79996
7.82471
7.83474
7.87462
7.88515
7.77995
7.39299
6.91022
6.49319
6.17558
5.92569
5.71981
5.49686
5.2018
4.80553
4.44794
4.22011
4.23385
4.57074
5.03853
5.42547
5.6264
5.76014
5.86777
6.09492
6.39447
6.71761
7.01738
7.26402
7.44312
7.56097
7.62923
7.70463
7.82487
7.92612
7.87974
7.54702
7.14684
6.77305
6.48637
6.2617
6.06392
5.82652
5.4776
4.9838
4.45842
4.14204
4.07131
4.34646
4.78901
5.1632
5.3553
5.49153
5.58115
5.83129
6.13978
6.46663
6.76693
7.02131
7.22027
7.37097
7.48697
7.63416
7.83914
8.0314
8.04532
7.79181
7.48769
7.17796
6.94171
6.75636
6.57613
6.32564
5.91502
5.31066
4.61574
4.12107
3.96046
4.16359
4.56925
4.92906
5.11398
5.258
5.34287
5.61047
5.92726
6.26054
6.56829
6.835
7.0599
7.24766
7.42234
7.64681
7.9557
8.23578
8.33245
8.18465
7.98858
7.77305
7.61519
7.48487
7.33605
7.06222
6.575
5.83494
4.93348
4.19244
3.90864
4.02856
4.38591
4.72605
4.90675
5.06158
5.1485
5.4356
5.76532
6.10996
6.43374
6.72512
6.98688
7.219
7.48179
7.80498
8.21809
8.60001
8.81633
8.78861
8.74031
8.66188
8.61648
8.5674
8.45618
8.14048
7.55018
6.63814
5.47813
4.43724
3.92578
3.954
4.24826
4.55948
4.73971
4.90496
5.00042
5.30972
5.65245
6.0138
6.36313
6.68811
7.01828
7.35035
7.71479
8.15713
8.69852
9.20908
9.5758
9.72102
9.89055
10.0074
10.1197
10.2012
10.0995
9.71125
8.97404
7.83854
6.35106
4.8934
4.07652
3.97627
4.19018
4.44595
4.62283
4.78899
4.89907
5.23666
5.59733
5.98552
6.39931
6.82657
7.25612
7.69487
8.19418
8.79236
9.50269
10.1913
10.7697
11.1689
11.6642
12.0624
12.4073
12.6145
12.4904
11.9738
11.023
9.59546
7.69689
5.67949
4.42825
4.10879
4.23568
4.44477
4.59995
4.75706
4.86274
5.23796
5.67184
6.15787
6.67499
7.20882
7.77231
8.36813
9.05641
9.87097
10.8191
11.7672
12.6581
13.438
14.4198
15.2236
15.8747
16.1165
15.8811
15.1437
13.8921
12.0912
9.70987
6.98131
5.13084
4.44635
4.43299
4.56665
4.69273
4.82971
5.01446
5.47933
6.02041
6.62972
7.28776
7.98459
8.7497
9.58104
10.5447
11.6738
12.9722
14.3108
15.6707
17.0239
18.7149
20.0849
20.8455
20.9645
20.4537
19.3643
17.718
15.4868
12.6022
9.08747
6.45574
5.20775
4.92215
4.94574
5.01332
5.12114
5.52046
6.12194
6.8321
7.63245
8.51278
9.46425
10.5405
11.7297
13.1062
14.7039
16.5252
18.4499
20.5012
22.6845
25.3177
26.9857
27.5189
27.1616
26.1289
24.5452
22.4629
19.8337
16.5379
12.3633
8.89339
6.85878
6.05995
5.84685
5.78981
5.83872
6.82846
7.62101
8.60039
9.70784
10.9378
12.2844
13.8394
15.5679
17.5567
19.8399
22.4134
25.1663
28.1529
31.3763
34.9249
35.9005
35.5176
34.1569
32.3369
30.1913
27.7623
24.9327
21.5096
17.1281
13.1202
10.2802
8.63719
7.93935
7.59387
7.47538
10.0579
11.1149
12.5037
14.072
15.8156
17.7316
19.9663
22.4402
25.2559
28.4322
31.9443
35.6734
39.6369
43.6677
46.6405
45.6683
43.4591
40.6219
37.8577
35.2205
32.7041
30.092
27.0822
23.3077
19.5965
16.5857
14.3647
12.7697
11.828
11.2673
17.8835
19.2083
21.0727
23.161
25.467
27.9865
30.9362
34.1747
37.8069
41.799
46.0661
50.4193
54.6251
57.509
57.8544
53.493
48.8631
44.3812
40.7456
37.8517
35.6244
33.771
31.9036
29.7199
27.5426
25.7951
24.3388
22.949
21.3284
19.9691
33.6614
35.2664
37.3251
39.5277
41.9209
44.5234
47.601
50.9942
54.7421
58.7126
62.6991
66.2719
68.3563
67.3303
63.5696
55.3999
48.6055
42.8363
38.6958
35.8801
34.2187
33.4398
33.2128
33.1974
33.4751
34.3458
35.4903
36.3821
36.7084
36.2796
47.2994
51.0238
53.9926
56.1933
58.1789
60.1985
62.5063
65.0491
67.6935
70.2249
72.3172
73.0884
70.8652
65.831
58.6256
48.3704
40.5978
34.7037
30.7578
28.2774
27.1443
27.0865
27.9417
29.3392
31.3425
34.3754
37.9105
41.4037
44.7739
48.2181
33.3998
42.2489
44.9643
45.8248
45.7494
44.5389
42.3214
39.3217
35.7193
31.654
27.2322
22.4699
17.5857
12.9344
10.8651
13.9426
20.4341
27.8151
30.9377
31.5917
30.2014
27.4163
24.2017
21.9357
20.5439
19.313
18.0136
16.1512
14.7694
13.6257
17.8334
19.5893
20.1457
20.2917
20.3183
20.0219
19.3302
18.2836
16.9438
15.3518
13.5625
11.538
9.31969
7.45532
7.31148
9.29158
12.4763
15.9885
17.4874
17.9484
17.4714
16.3983
15.107
13.9449
12.9608
12.1321
11.5103
10.9027
10.8013
10.9632
15.9466
16.5019
16.5244
16.3955
16.2074
15.912
15.4468
14.7796
13.9089
12.8256
11.5537
10.0437
8.30625
6.95629
7.03152
8.4923
10.6782
13.1945
14.4724
14.9935
14.8033
14.1425
13.2903
12.4918
11.7985
11.214
10.8204
10.4598
10.6227
11.0461
15.2794
15.3108
15.1373
14.9056
14.6596
14.3917
14.0449
13.564
12.9175
12.0665
11.0191
9.71594
8.16887
7.02912
7.11472
8.19191
9.75401
11.6228
12.7726
13.3594