/*--------------------------------*- C++ -*----------------------------------*\
  =========                 |
  \\      /  F ield         | OpenFOAM: The Open Source CFD Toolbox
   \\    /   O peration     | Website:  https://openfoam.org
    \\  /    A nd           | Version:  12
     \\/     M anipulation  |
\*---------------------------------------------------------------------------*/
FoamFile
{
    format      ascii;
    class       volScalarField;
    location    "600/air";
    object      k;
}
// * * * * * * * * * * * * * * * * * * * * * * * * * * * * * * * * * * * * * //

dimensions      [0 2 -2 0 0 0 0];

internalField   nonuniform List<scalar> 
243000
(
0.132351
0.140477
0.140968
0.139216
0.134829
0.128835
0.121983
0.11485
0.107862
0.101335
0.0956085
0.0910434
0.0879397
0.0859343
0.0839985
0.0814503
0.0779721
0.0735563
0.0683315
0.0624727
0.0560228
0.0469257
0.0344153
0.0369246
0.0479131
0.0548288
0.0625473
0.0685546
0.0743145
0.0837412
0.205742
0.222392
0.21949
0.212208
0.202038
0.190311
0.177965
0.165638
0.153739
0.142571
0.132446
0.123554
0.115801
0.108598
0.101795
0.0956384
0.0899726
0.0845974
0.0791499
0.0733505
0.0668049
0.0583605
0.0469543
0.0516428
0.0735585
0.0861064
0.0988238
0.112519
0.126808
0.144204
0.248273
0.270308
0.268245
0.260517
0.249028
0.235507
0.221081
0.206498
0.192204
0.178612
0.166129
0.154964
0.144842
0.134957
0.125438
0.11688
0.109229
0.102303
0.0955817
0.0885379
0.0804162
0.0706232
0.0577972
0.0582488
0.0875898
0.107248
0.124626
0.143167
0.161562
0.182635
0.275798
0.299753
0.298964
0.29176
0.280236
0.266274
0.251056
0.235398
0.219815
0.204816
0.190928
0.178433
0.166976
0.155558
0.144373
0.13416
0.124965
0.116678
0.108746
0.100503
0.0909882
0.0801753
0.0663553
0.0611732
0.093143
0.119156
0.141452
0.164449
0.186267
0.208882
0.294638
0.318481
0.319026
0.312898
0.302183
0.288712
0.27362
0.25775
0.241664
0.225973
0.211327
0.198117
0.185924
0.173582
0.161255
0.149768
0.139272
0.129766
0.120711
0.111342
0.100608
0.0888887
0.0743196
0.0650659
0.0933626
0.126747
0.153184
0.18035
0.205352
0.2287
0.306814
0.32985
0.331608
0.326793
0.317353
0.304921
0.290525
0.275001
0.258947
0.243056
0.228102
0.214612
0.202103
0.189268
0.17617
0.163712
0.152162
0.141609
0.131575
0.121211
0.109494
0.0970175
0.0819456
0.0699635
0.0892164
0.131105
0.161509
0.191625
0.219449
0.243255
0.314099
0.335873
0.33871
0.335341
0.327429
0.316347
0.302995
0.288182
0.272518
0.256777
0.241846
0.228385
0.215857
0.202842
0.189252
0.176075
0.163695
0.152276
0.141416
0.130187
0.117735
0.104672
0.0892883
0.0754854
0.0857384
0.1329
0.166837
0.19929
0.229666
0.253693
0.317346
0.337097
0.341647
0.339862
0.333599
0.324027
0.31192
0.298044
0.283018
0.267678
0.253015
0.239803
0.227475
0.214494
0.200639
0.186959
0.173953
0.161846
0.150309
0.138323
0.125372
0.111899
0.0963453
0.0813036
0.0835758
0.132981
0.169765
0.203653
0.236258
0.260626
0.316898
0.335253
0.341338
0.341342
0.336683
0.328684
0.317947
0.305154
0.29093
0.27618
0.261971
0.249168
0.237192
0.224392
0.210455
0.196466
0.183017
0.170403
0.158322
0.145669
0.132435
0.118719
0.103104
0.0872415
0.0840017
0.130827
0.170889
0.205422
0.239746
0.264513
0.313931
0.331222
0.338825
0.340546
0.337627
0.33105
0.321582
0.309911
0.296618
0.282605
0.268996
0.256723
0.245201
0.232678
0.218816
0.204695
0.190975
0.178019
0.165516
0.152291
0.138963
0.125149
0.109554
0.0932208
0.0863562
0.126652
0.170891
0.206119
0.240687
0.265834
0.308877
0.325524
0.334588
0.33792
0.336772
0.331728
0.323443
0.312795
0.300386
0.287213
0.274313
0.262667
0.251651
0.239488
0.225832
0.211741
0.197913
0.184751
0.171946
0.158287
0.145017
0.13121
0.115689
0.0990934
0.0895791
0.122215
0.169801
0.205671
0.239338
0.264999
0.302042
0.318499
0.329001
0.333854
0.334361
0.330908
0.323908
0.314201
0.302629
0.29023
0.278127
0.267158
0.256681
0.244943
0.231608
0.217695
0.203911
0.190677
0.177662
0.163821
0.150675
0.136923
0.121505
0.104785
0.0931131
0.117858
0.167721
0.20387
0.235851
0.262159
0.293664
0.310389
0.322278
0.328657
0.330692
0.328714
0.323058
0.31442
0.303621
0.291966
0.280598
0.270346
0.260421
0.249163
0.236248
0.222648
0.209049
0.195869
0.182731
0.169013
0.155968
0.142298
0.127005
0.110248
0.0968256
0.113681
0.164772
0.200861
0.230601
0.257564
0.284028
0.301396
0.314592
0.322534
0.325982
0.32541
0.320956
0.313436
0.303593
0.292649
0.281947
0.272358
0.262992
0.25226
0.239856
0.226692
0.213405
0.200398
0.187217
0.173777
0.160889
0.147338
0.132187
0.115461
0.100658
0.109824
0.161157
0.197141
0.225537
0.251508
0.273519
0.291696
0.306117
0.315637
0.32041
0.321134
0.317837
0.311303
0.302462
0.292408
0.282385
0.273349
0.264506
0.254348
0.242538
0.22992
0.217062
0.204328
0.191194
0.178132
0.165461
0.152063
0.137074
0.120391
0.104517
0.106569
0.156984
0.192915
0.22025
0.244274
0.263432
0.28153
0.29707
0.308026
0.314108
0.315999
0.313807
0.308227
0.300297
0.291189
0.281977
0.273542
0.26513
0.255552
0.244408
0.23243
0.220103
0.207728
0.194747
0.182142
0.169738
0.156518
0.141694
0.125063
0.108376
0.105103
0.151684
0.188279
0.214621
0.236275
0.253939
0.271812
0.287646
0.299815
0.307169
0.310113
0.308969
0.304324
0.297289
0.289072
0.280691
0.272924
0.265063
0.25602
0.245585
0.234322
0.222613
0.210666
0.197982
0.185892
0.173787
0.160758
0.146078
0.129495
0.112287
0.104953
0.145611
0.183318
0.20889
0.229223
0.244891
0.262757
0.278442
0.291155
0.299698
0.303586
0.303426
0.299689
0.293562
0.286233
0.278683
0.271567
0.264255
0.255904
0.246183
0.235696
0.224665
0.213207
0.201041
0.189463
0.177675
0.164848
0.150295
0.133741
0.116121
0.105705
0.139241
0.178115
0.203116
0.222652
0.236194
0.254201
0.269822
0.282331
0.291786
0.29654
0.297276
0.294421
0.289197
0.282778
0.276048
0.269598
0.26287
0.255203
0.246292
0.236627
0.226312
0.215402
0.203951
0.192891
0.181452
0.168853
0.154431
0.13789
0.119926
0.107057
0.132975
0.172796
0.197389
0.216444
0.227805
0.246056
0.26168
0.274049
0.283574
0.289066
0.29059
0.288589
0.284272
0.278768
0.272843
0.267077
0.260976
0.254036
0.245964
0.237154
0.227584
0.217291
0.206677
0.196197
0.185162
0.172838
0.158573
0.142049
0.123791
0.108877
0.127118
0.167481
0.191775
0.210521
0.219701
0.238268
0.253923
0.266227
0.275664
0.281272
0.283435
0.282239
0.278813
0.274214
0.269103
0.264031
0.258597
0.252428
0.245216
0.237268
0.228482
0.218924
0.209259
0.199428
0.188859
0.176872
0.162812
0.146337
0.127831
0.111257
0.122055
0.162295
0.186339
0.204867
0.211895
0.23082
0.246516
0.258793
0.268146
0.2738
0.276095
0.275461
0.272885
0.269166
0.264865
0.260494
0.255744
0.250361
0.244029
0.236969
0.229039
0.22056
0.211823
0.202668
0.192619
0.18104
0.167263
0.150858
0.132143
0.114257
0.11822
0.157392
0.181181
0.199521
0.204461
0.223739
0.239446
0.251692
0.260957
0.266754
0.269263
0.269088
0.267143
0.264146
0.260567
0.256801
0.252702
0.248072
0.242685
0.236613
0.229801
0.222403
0.21454
0.20607
0.196582
0.185474
0.172046
0.155751
0.136828
0.117874
0.116083
0.153003
0.176454
0.194561
0.197561
0.21708
0.232702
0.244864
0.254088
0.260139
0.262911
0.263249
0.261988
0.259747
0.256921
0.253831
0.250425
0.246557
0.242064
0.23694
0.231152
0.224738
0.217717
0.209939
0.201042
0.190456
0.177439
0.161325
0.142109
0.122194
0.116048
0.149478
0.172438
0.190175
0.191428
0.210932
0.226358
0.238414
0.24764
0.25396
0.257059
0.257952
0.257445
0.256019
0.253998
0.251674
0.24906
0.246042
0.242499
0.23838
0.233629
0.228199
0.222034
0.214968
0.206674
0.196612
0.184009
0.168053
0.148521
0.127453
0.11785
0.147248
0.169344
0.186537
0.186542
0.205691
0.220726
0.232569
0.241774
0.248393
0.25191
0.253453
0.253803
0.253323
0.252281
0.250947
0.249363
0.247459
0.245121
0.242233
0.238672
0.234311
0.229048
0.222698
0.214957
0.20532
0.19298
0.177045
0.156922
0.134332
0.121698
0.147137
0.167675
0.184003
0.18376
0.202163
0.216664
0.228199
0.237362
0.244363
0.24857
0.251055
0.252596
0.253473
0.253921
0.254159
0.254228
0.25404
0.253452
0.252215
0.25008
0.246872
0.242444
0.236616
0.229129
0.219541
0.207109
0.190791
0.169655
0.144969
0.129534
0.150154
0.168877
0.183928
0.186948
0.204173
0.218088
0.229647
0.239277
0.247251
0.253053
0.257437
0.261206
0.264558
0.267768
0.270989
0.274063
0.276731
0.278621
0.279303
0.2785
0.275999
0.271732
0.265609
0.257457
0.246978
0.233541
0.216154
0.19363
0.166495
0.147914
0.162155
0.177728
0.190437
0.223593
0.239873
0.25396
0.266523
0.277757
0.287577
0.296758
0.305022
0.31274
0.320041
0.327955
0.336295
0.343797
0.349965
0.354082
0.355773
0.354916
0.351519
0.345812
0.33784
0.327394
0.314672
0.299409
0.280819
0.25808
0.23143
0.210225
0.21537
0.22504
0.232881
0.451408
0.462881
0.473319
0.482898
0.490465
0.494102
0.500021
0.507059
0.512586
0.517173
0.52625
0.536933
0.544272
0.548853
0.549895
0.548601
0.544674
0.53911
0.532436
0.525028
0.514918
0.50487
0.495189
0.485036
0.47359
0.4612
0.454567
0.455367
0.459471
0.461789
0.191304
0.214783
0.220261
0.219117
0.213014
0.203585
0.192089
0.17955
0.16668
0.153964
0.141914
0.131028
0.121593
0.112603
0.102736
0.0920587
0.080797
0.0697118
0.0587982
0.048231
0.0369893
0.0338995
0.0327818
0.0393021
0.0506819
0.0562807
0.0642962
0.0682615
0.0773207
0.0978169
0.317602
0.355565
0.356903
0.345208
0.326108
0.303352
0.279306
0.25525
0.231839
0.209457
0.188454
0.168842
0.149871
0.131157
0.115277
0.104153
0.0961905
0.090535
0.0846886
0.0780606
0.0653631
0.0521136
0.0445382
0.0608549
0.0870012
0.116605
0.14656
0.159199
0.161569
0.179661
0.388579
0.436036
0.44192
0.431019
0.41082
0.385514
0.357804
0.329262
0.300786
0.273065
0.246762
0.221829
0.197077
0.172263
0.151537
0.137501
0.127991
0.121591
0.115355
0.108262
0.0942603
0.0748556
0.0586084
0.0708326
0.105462
0.149493
0.196346
0.221603
0.228549
0.246901
0.43735
0.484969
0.493744
0.485022
0.466622
0.442319
0.414565
0.384938
0.354522
0.324322
0.295275
0.26738
0.239208
0.210634
0.186569
0.169826
0.158244
0.150359
0.14325
0.135515
0.12136
0.0973235
0.0734253
0.0785115
0.116449
0.169274
0.230683
0.269646
0.283326
0.304233
0.471908
0.51534
0.525443
0.519154
0.503588
0.481776
0.455667
0.426687
0.39604
0.365002
0.334759
0.30549
0.275498
0.244726
0.218347
0.199251
0.185594
0.176188
0.168376
0.160477
0.146758
0.119726
0.0897382
0.0888174
0.124335
0.183492
0.25413
0.306639
0.327937
0.351661
0.495052
0.533493
0.54375
0.539908
0.527582
0.508899
0.485245
0.457848
0.427965
0.397117
0.366728
0.337158
0.306458
0.274582
0.246568
0.225489
0.209943
0.199235
0.191106
0.18388
0.170543
0.141749
0.107503
0.101447
0.131303
0.19375
0.271872
0.333855
0.363154
0.389577
0.509435
0.542294
0.552595
0.551269
0.542317
0.526978
0.506124
0.480802
0.45228
0.422294
0.392487
0.363376
0.332787
0.30058
0.271434
0.248708
0.231556
0.219837
0.21182
0.205997
0.192711
0.163044
0.126164
0.115273
0.138842
0.201838
0.284145
0.353423
0.389327
0.418435
0.516599
0.542235
0.554067
0.555918
0.550283
0.538241
0.520243
0.49721
0.47041
0.441743
0.41305
0.384921
0.355077
0.323031
0.293171
0.269131
0.250732
0.238335
0.230803
0.22653
0.213209
0.183317
0.14503
0.129541
0.146921
0.208119
0.292329
0.367233
0.406972
0.438621
0.516581
0.538367
0.551042
0.555894
0.553255
0.544213
0.528937
0.508321
0.483402
0.456372
0.429189
0.402429
0.373748
0.342211
0.311999
0.287005
0.26774
0.255019
0.24837
0.245422
0.232046
0.202364
0.163499
0.143694
0.155268
0.212773
0.297346
0.375476
0.41902
0.45234
0.513037
0.531739
0.545224
0.552412
0.553319
0.546702
0.533644
0.514948
0.492007
0.466871
0.441502
0.416424
0.389122
0.358364
0.328133
0.302574
0.282834
0.27013
0.264832
0.262695
0.249261
0.220114
0.181181
0.15733
0.163516
0.216028
0.299996
0.379061
0.425896
0.460713
0.506212
0.523172
0.537224
0.54646
0.550118
0.54686
0.535622
0.518606
0.497173
0.473881
0.450499
0.427264
0.401511
0.371743
0.341808
0.316087
0.296271
0.283885
0.280052
0.278374
0.264919
0.236455
0.197865
0.170205
0.171317
0.218158
0.300875
0.380022
0.428729
0.464563
0.496437
0.512573
0.527519
0.538637
0.544635
0.544096
0.53562
0.520004
0.499928
0.47809
0.456688
0.435341
0.411212
0.382607
0.353285
0.32781
0.308313
0.296568
0.294119
0.29254
0.279129
0.251401
0.213417
0.182319
0.178426
0.219189
0.299607
0.37791
0.428586
0.465083
0.483636
0.500314
0.516509
0.529409
0.537474
0.539351
0.533084
0.519586
0.500832
0.480316
0.460471
0.441047
0.418543
0.391254
0.362861
0.338038
0.31924
0.308525
0.307247
0.305402
0.292075
0.264983
0.227744
0.193913
0.18477
0.219104
0.296049
0.372605
0.424119
0.461555
0.468834
0.486891
0.504559
0.519144
0.529059
0.532931
0.528635
0.516941
0.500066
0.481019
0.462569
0.444781
0.423875
0.398045
0.370884
0.347098
0.329342
0.320186
0.319688
0.317363
0.304012
0.27736
0.240693
0.204971
0.190562
0.217458
0.290701
0.364953
0.416199
0.454332
0.453176
0.472874
0.492022
0.508151
0.519691
0.525212
0.522804
0.512512
0.497528
0.4804
0.463392
0.447015
0.427651
0.403412
0.377772
0.355382
0.338986
0.33163
0.331686
0.328784
0.315245
0.288872
0.252536
0.215462
0.195749
0.215118
0.2841
0.355924
0.406264
0.444253
0.437418
0.458981
0.479283
0.496722
0.509648
0.516539
0.515913
0.5071
0.493656
0.478532
0.463378
0.448377
0.430409
0.407877
0.384022
0.363364
0.348665
0.343095
0.343524
0.340035
0.326208
0.299898
0.26364
0.225492
0.200566
0.213224
0.276718
0.34611
0.394987
0.432302
0.421568
0.445465
0.466869
0.48522
0.499262
0.507316
0.508329
0.501097
0.489256
0.475997
0.462771
0.449362
0.432769
0.41207
0.390245
0.371621
0.359099
0.354949
0.355543
0.351522
0.337395
0.310927
0.274169
0.234658
0.205326
0.211213
0.268869
0.335882
0.383025
0.419525
0.406136
0.432326
0.455275
0.474167
0.489019
0.498086
0.500543
0.495019
0.484934
0.47354
0.462504
0.450562
0.43547
0.416758
0.397189
0.380931
0.370628
0.367651
0.368123
0.363691
0.34935
0.3226
0.284877
0.243506
0.210403
0.209758
0.260986
0.325601
0.370906
0.406616
0.391346
0.419782
0.44437
0.464527
0.47963
0.489523
0.493274
0.489561
0.481416
0.472335
0.463177
0.452735
0.439435
0.422885
0.405807
0.392195
0.38374
0.381685
0.381763
0.377041
0.362659
0.335643
0.296925
0.252989
0.216057
0.209467
0.253518
0.315625
0.35907
0.394075
0.377746
0.408187
0.43429
0.455972
0.472232
0.482592
0.487504
0.485682
0.479981
0.473111
0.465727
0.457141
0.445839
0.431675
0.417444
0.406202
0.399279
0.397622
0.397121
0.392174
0.377959
0.350867
0.311133
0.264274
0.223256
0.210919
0.246992
0.306282
0.347908
0.382158
0.36494
0.397554
0.425273
0.448744
0.466775
0.478612
0.484709
0.484898
0.481568
0.477031
0.471819
0.46524
0.45622
0.444841
0.433401
0.424083
0.418198
0.416393
0.415129
0.409951
0.396033
0.369261
0.328578
0.278997
0.23316
0.214101
0.242229
0.297836
0.337828
0.371412
0.353369
0.388272
0.417743
0.443111
0.463193
0.476973
0.485721
0.48861
0.48797
0.48612
0.483408
0.479196
0.472664
0.463828
0.454869
0.447132
0.441922
0.439551
0.437462
0.431927
0.418289
0.392118
0.35064
0.298034
0.246743
0.220192
0.240788
0.290855
0.329494
0.362681
0.343742
0.381036
0.412185
0.439506
0.461804
0.478715
0.490973
0.496967
0.499713
0.501148
0.501474
0.500236
0.496518
0.490442
0.48391
0.477854
0.473283
0.470446
0.467485
0.461284
0.447573
0.421739
0.379613
0.323269
0.265298
0.230248
0.243266
0.287283
0.32426
0.356671
0.337309
0.376308
0.409245
0.43864
0.464643
0.486316
0.502016
0.511682
0.518642
0.524148
0.528214
0.530829
0.5308
0.528403
0.525266
0.521917
0.518883
0.516109
0.512211
0.50465
0.489714
0.462994
0.419579
0.358317
0.291522
0.245157
0.250062
0.289041
0.324715
0.355509
0.33487
0.375273
0.41158
0.445341
0.476024
0.502578
0.522459
0.537229
0.550253
0.561437
0.570318
0.577779
0.583793
0.587453
0.59046
0.592319
0.592697
0.590956
0.585766
0.575255
0.556378
0.525562
0.478143
0.410619
0.331384
0.268185
0.264174
0.29686
0.330954
0.360199
0.343424
0.387284
0.42781
0.465939
0.50231
0.53513
0.562316
0.585067
0.606093
0.625446
0.642668
0.658298
0.673434
0.688014
0.702607
0.714094
0.720282
0.720238
0.71229
0.695487
0.667704
0.6268
0.569537
0.492753
0.397652
0.309741
0.292974
0.318082
0.349123
0.376417
0.377181
0.425458
0.472171
0.517666
0.563163
0.605313
0.642535
0.676509
0.710059
0.742455
0.773185
0.803447
0.834393
0.86515
0.896327
0.91986
0.931549
0.930264
0.914913
0.886036
0.843088
0.786015
0.713423
0.623476
0.512356
0.395666
0.357637
0.372888
0.398687
0.422378
0.479005
0.533905
0.590172
0.646646
0.703497
0.758025
0.809812
0.859211
0.908915
0.957524
1.00429
1.05099
1.09793
1.14241
1.17918
1.19963
1.20126
1.18457
1.15224
1.10713
1.05172
0.985745
0.907262
0.813874
0.700794
0.578975
0.51722
0.51653
0.53136
0.545716
0.748263
0.807312
0.869771
0.932748
0.995467
1.05483
1.11262
1.16775
1.22167
1.27291
1.32062
1.36311
1.39659
1.41821
1.41637
1.39036
1.35176
1.30507
1.25436
1.203
1.15293
1.10416
1.05252
0.99251
0.92394
0.86284
0.826476
0.825779
0.832554
0.832683
1.11175
1.16806
1.22113
1.27071
1.31536
1.35307
1.38605
1.41626
1.43951
1.45579
1.46874
1.4708
1.45341
1.42064
1.3705
1.31159
1.25296
1.19661
1.14597
1.10304
1.06862
1.04411
1.02694
1.01293
1.0026
1.00954
1.04171
1.07674
1.10598
1.13505
0.241469
0.276384
0.282697
0.281992
0.275139
0.263696
0.249159
0.232779
0.21542
0.197656
0.179895
0.162453
0.145672
0.128399
0.110767
0.095551
0.08331
0.0774868
0.0742286
0.0725119
0.0605859
0.0357314
0.0371589
0.0487937
0.0633335
0.0717291
0.0836063
0.093502
0.104096
0.11815
0.402462
0.453604
0.458551
0.445728
0.422994
0.395199
0.365171
0.33453
0.303983
0.273779
0.243856
0.213823
0.182223
0.152725
0.135109
0.131766
0.134403
0.141868
0.144728
0.146301
0.130515
0.0831243
0.0723765
0.0987796
0.132122
0.166781
0.196401
0.207477
0.212618
0.226022
0.496712
0.55395
0.563475
0.551233
0.527332
0.497096
0.463445
0.428083
0.391864
0.355229
0.318292
0.28046
0.239421
0.201583
0.181094
0.178971
0.183102
0.190587
0.192511
0.193842
0.178553
0.1314
0.113315
0.136522
0.178445
0.224693
0.266462
0.286856
0.298053
0.316207
0.56169
0.616165
0.627395
0.616962
0.594781
0.565762
0.532415
0.496229
0.458112
0.418666
0.378185
0.335963
0.28929
0.246793
0.224442
0.22122
0.223873
0.228868
0.228817
0.228986
0.215531
0.17618
0.154247
0.173353
0.217424
0.269392
0.320701
0.349713
0.366408
0.388452
0.608126
0.655539
0.666974
0.65876
0.639476
0.613197
0.581826
0.546593
0.508422
0.468089
0.426069
0.38164
0.331986
0.287412
0.263897
0.258509
0.258496
0.260434
0.258743
0.257995
0.24813
0.216377
0.193464
0.208061
0.250825
0.305951
0.364066
0.40047
0.421769
0.446874
0.639879
0.67912
0.690175
0.684485
0.668734
0.645921
0.617325
0.583948
0.546739
0.506682
0.464477
0.41944
0.368765
0.323902
0.299568
0.291472
0.288286
0.287413
0.285136
0.285004
0.277349
0.251659
0.229615
0.239978
0.279683
0.335848
0.397954
0.440719
0.466057
0.493183
0.659093
0.691599
0.701704
0.698862
0.686945
0.667876
0.642403
0.611352
0.575717
0.536738
0.495387
0.450941
0.400846
0.356955
0.33184
0.320747
0.314293
0.311159
0.310084
0.309477
0.303156
0.282031
0.261667
0.268504
0.304092
0.359251
0.422542
0.471272
0.50039
0.528718
0.667697
0.692312
0.704385
0.705059
0.697012
0.68166
0.659368
0.630857
0.597197
0.559902
0.520218
0.477342
0.429155
0.38699
0.360997
0.346833
0.337286
0.332706
0.33305
0.331584
0.3257
0.307678
0.289029
0.292928
0.323686
0.377633
0.440944
0.492854
0.525544
0.554525
0.667016
0.687981
0.701238
0.705635
0.701046
0.68906
0.669814
0.643921
0.612517
0.577403
0.540025
0.499594
0.454287
0.414247
0.387259
0.370132
0.35789
0.352919
0.353872
0.351483
0.345292
0.329011
0.31164
0.312877
0.338389
0.391306
0.454408
0.508134
0.542243
0.57174
0.662268
0.680454
0.694621
0.701932
0.7016
0.692345
0.675534
0.651715
0.622654
0.590194
0.555657
0.518346
0.476657
0.43882
0.410796
0.390983
0.376632
0.372041
0.372512
0.369353
0.362302
0.346601
0.329704
0.32839
0.349385
0.400717
0.463466
0.51777
0.553168
0.582719
0.653921
0.670202
0.685185
0.695053
0.698196
0.692837
0.678071
0.656132
0.628956
0.599185
0.567852
0.534137
0.496509
0.460759
0.431778
0.40973
0.393983
0.38988
0.389334
0.385392
0.377104
0.36107
0.343673
0.339709
0.357025
0.406431
0.468732
0.522595
0.559114
0.588658
0.641728
0.657401
0.673616
0.685875
0.691949
0.689978
0.678285
0.657931
0.632566
0.605165
0.577319
0.547473
0.513981
0.480145
0.450429
0.426768
0.410442
0.406517
0.404635
0.399788
0.389993
0.373012
0.354381
0.347234
0.361644
0.408926
0.470782
0.52457
0.561321
0.590764
0.6264
0.64285
0.660588
0.675069
0.683639
0.684664
0.675597
0.657806
0.6341
0.60918
0.584703
0.558786
0.529219
0.497146
0.467077
0.44254
0.426662
0.422113
0.418755
0.412691
0.40116
0.382906
0.362666
0.351889
0.363647
0.408121
0.469099
0.522965
0.559842
0.589405
0.609411
0.627347
0.646699
0.663186
0.673934
0.677356
0.670506
0.655166
0.63417
0.611757
0.590567
0.568477
0.542463
0.512093
0.48218
0.45757
0.442711
0.436856
0.432078
0.424531
0.411064
0.391007
0.369186
0.354546
0.362808
0.403053
0.462963
0.51698
0.554
0.583965
0.591984
0.611617
0.632489
0.6507
0.663279
0.668621
0.664057
0.6507
0.632642
0.613399
0.595465
0.576987
0.554117
0.525511
0.496379
0.472533
0.458707
0.45129
0.44507
0.435932
0.42033
0.39815
0.37408
0.355837
0.359126
0.39517
0.453814
0.507993
0.545494
0.575594
0.574851
0.596434
0.618511
0.638094
0.652147
0.659037
0.65673
0.645458
0.630324
0.614688
0.600009
0.584873
0.564799
0.538143
0.510515
0.488373
0.474978
0.46595
0.458267
0.447514
0.429699
0.405052
0.377953
0.356335
0.353776
0.385725
0.442809
0.497112
0.535151
0.565379
0.55829
0.581987
0.605458
0.625968
0.641147
0.649322
0.649257
0.640351
0.62831
0.616273
0.604931
0.592858
0.575377
0.550986
0.525661
0.50566
0.49189
0.481436
0.472302
0.45996
0.439981
0.412463
0.381774
0.356537
0.348575
0.37575
0.430853
0.485192
0.523765
0.554465
0.542516
0.568575
0.593623
0.615199
0.631108
0.640461
0.642505
0.636329
0.628113
0.619042
0.611155
0.601863
0.586986
0.565326
0.543235
0.524816
0.510292
0.498545
0.487989
0.474101
0.452146
0.421532
0.386457
0.357071
0.344241
0.366134
0.418692
0.472888
0.511923
0.543257
0.527609
0.556217
0.583005
0.606114
0.623187
0.633571
0.637677
0.634772
0.62981
0.624379
0.619798
0.613261
0.601073
0.582755
0.564059
0.546447
0.531288
0.518385
0.50644
0.491045
0.467354
0.433545
0.393345
0.358695
0.341269
0.357594
0.406973
0.460759
0.500139
0.532196
0.513528
0.544924
0.573654
0.598622
0.617644
0.630066
0.636424
0.636868
0.63535
0.633617
0.632443
0.628756
0.619692
0.604946
0.588817
0.571933
0.556451
0.54261
0.529322
0.512422
0.487181
0.450316
0.404965
0.362994
0.340475
0.350986
0.396414
0.449464
0.489036
0.521705
0.500478
0.534894
0.565867
0.592974
0.614225
0.629023
0.63982
0.644186
0.646454
0.648642
0.651208
0.650611
0.644641
0.632729
0.61909
0.603498
0.588247
0.573839
0.559282
0.540818
0.513902
0.474425
0.423436
0.37282
0.342671
0.348115
0.388272
0.439447
0.478999
0.512327
0.488972
0.526613
0.560106
0.589558
0.61336
0.63335
0.648561
0.657095
0.663718
0.670371
0.677025
0.679939
0.677153
0.668499
0.657965
0.644683
0.630767
0.616364
0.60072
0.580519
0.551531
0.509494
0.451895
0.391097
0.350066
0.350754
0.3845
0.432015
0.471249
0.504935
0.479997
0.520871
0.55686
0.588957
0.618377
0.64447
0.664149
0.677488
0.689192
0.700958
0.712265
0.719519
0.720951
0.716747
0.710825
0.701614
0.690755
0.677291
0.660893
0.638552
0.606681
0.560138
0.495485
0.42146
0.365043
0.357982
0.38688
0.43085
0.468836
0.501722
0.474928
0.518297
0.557928
0.596633
0.632654
0.664757
0.689523
0.708653
0.72656
0.744555
0.761694
0.774705
0.782488
0.785175
0.786863
0.784503
0.778968
0.767642
0.750745
0.725147
0.686964
0.633214
0.560288
0.471465
0.394108
0.373863
0.39533
0.435796
0.472524
0.504294
0.47645
0.525496
0.572616
0.617695
0.660349
0.698988
0.730458
0.75706
0.78306
0.809223
0.834339
0.855663
0.872915
0.886569
0.90058
0.908158
0.909648
0.900461
0.877978
0.843914
0.79702
0.734625
0.652834
0.550547
0.447868
0.405298
0.417454
0.450168
0.484407
0.514953
0.499044
0.554151
0.608048
0.660985
0.711566
0.758254
0.799151
0.835931
0.872919
0.910206
0.946459
0.979651
1.01032
1.03921
1.06869
1.08603
1.08691
1.06759
1.0344
0.989902
0.934034
0.864475
0.776885
0.666937
0.544396
0.472749
0.46776
0.490697
0.519292
0.546481
0.562481
0.624764
0.687307
0.749189
0.809632
0.866945
0.920369
0.970335
1.02122
1.07217
1.12183
1.1689
1.21413
1.25712
1.29404
1.29999
1.28087
1.2434
1.19598
1.1416
1.08086
1.01114
0.92702
0.821977
0.701314
0.614651
0.579914
0.587273
0.605398
0.625683
0.72514
0.790825
0.86057
0.930836
1.00047
1.06742
1.13243
1.19416
1.25641
1.31731
1.37548
1.42949
1.47815
1.51436
1.52033
1.48878
1.43841
1.37776
1.31621
1.25642
1.19918
1.14175
1.07715
0.997641
0.909604
0.843346
0.807752
0.798389
0.802262
0.809462
1.05633
1.11813
1.18385
1.25026
1.316
1.3786
1.4399
1.49812
1.55467
1.60732
1.65457
1.6912
1.70635
1.6888
1.64125
1.56237
1.47864
1.39736
1.32691
1.26916
1.22485
1.19114
1.16091
1.12674
1.09476
1.08482
1.09588
1.11805
1.13443
1.14368
1.34442
1.41518
1.4777
1.53097
1.57737
1.61877
1.65638
1.69083
1.71898
1.74014
1.75369
1.74465
1.70268
1.6338
1.54251
1.43335
1.33263
1.24554
1.17706
1.128
1.09824
1.0859
1.08588
1.0933
1.10892
1.14652
1.20303
1.26177
1.31744
1.37439
0.288665
0.331195
0.337174
0.335295
0.327579
0.314609
0.297743
0.278294
0.257146
0.234864
0.211752
0.187754
0.163233
0.13762
0.115972
0.107559
0.112953
0.136819
0.151893
0.157325
0.151161
0.133703
0.0961599
0.0880257
0.101547
0.119951
0.135544
0.140077
0.14434
0.149604
0.483932
0.542823
0.545423
0.531465
0.505885
0.474159
0.439511
0.403622
0.367066
0.329829
0.291268
0.250256
0.204887
0.16773
0.16057
0.184495
0.218032
0.264005
0.296081
0.310376
0.304737
0.279352
0.226474
0.218351
0.238466
0.261984
0.275081
0.275817
0.275688
0.28096
0.601818
0.6627
0.669647
0.655015
0.627513
0.593025
0.554644
0.513881
0.471215
0.42656
0.37917
0.327373
0.268304
0.222601
0.219467
0.251655
0.28908
0.335008
0.372656
0.393338
0.393762
0.370151
0.320679
0.312323
0.334296
0.3621
0.378942
0.381765
0.383857
0.393228
0.682769
0.737049
0.745613
0.732287
0.706119
0.672706
0.63467
0.593154
0.548502
0.500522
0.448526
0.390356
0.322937
0.273603
0.273396
0.306744
0.341588
0.382208
0.420191
0.444498
0.450273
0.430945
0.390937
0.38577
0.408804
0.439905
0.460249
0.465524
0.469197
0.481094
0.740444
0.785293
0.79391
0.78247
0.75906
0.728362
0.692313
0.65176
0.606977
0.557759
0.503514
0.441664
0.369611
0.320308
0.322349
0.353273
0.382941
0.416706
0.452008
0.477406
0.48634
0.473321
0.445225
0.444064
0.467124
0.500597
0.524471
0.532582
0.537755
0.552731
0.780237
0.815557
0.823509
0.814478
0.794683
0.767559
0.734326
0.695587
0.651662
0.602448
0.547503
0.484062
0.410444
0.363787
0.367173
0.393503
0.416947
0.443943
0.474838
0.499365
0.511386
0.505067
0.486918
0.489129
0.512444
0.546684
0.574234
0.585655
0.592349
0.608469
0.805236
0.832511
0.839851
0.833682
0.817887
0.794688
0.764647
0.728182
0.685742
0.637414
0.583052
0.51981
0.447458
0.405367
0.408656
0.428953
0.445946
0.467061
0.493214
0.515866
0.529012
0.527637
0.517332
0.52236
0.546032
0.580027
0.611285
0.626502
0.634914
0.650867
0.817351
0.838209
0.846479
0.843629
0.831892
0.812606
0.785835
0.751877
0.711381
0.664677
0.612047
0.550694
0.48227
0.445536
0.447274
0.460673
0.471503
0.488234
0.508117
0.527811
0.540854
0.5425
0.537881
0.54507
0.568907
0.603025
0.636929
0.65636
0.666761
0.681853
0.81823
0.835355
0.845535
0.846829
0.838907
0.823296
0.799677
0.768339
0.730187
0.685798
0.635965
0.578124
0.51598
0.484494
0.483297
0.489427
0.49472
0.506556
0.520212
0.53608
0.54818
0.551112
0.550068
0.558415
0.58178
0.616619
0.651778
0.676161
0.688875
0.703141
0.813714
0.828846
0.840534
0.84545
0.841393
0.828824
0.807789
0.778799
0.743428
0.702057
0.656031
0.603263
0.5491
0.522003
0.516902
0.515819
0.516587
0.522452
0.530268
0.541638
0.551806
0.554846
0.555262
0.564062
0.588237
0.624192
0.660389
0.687218
0.702322
0.716168
0.804823
0.818614
0.831946
0.839985
0.84053
0.830959
0.812222
0.785354
0.752396
0.714678
0.673363
0.627038
0.581636
0.55771
0.548146
0.540374
0.537096
0.536653
0.538943
0.545466
0.552876
0.554829
0.555296
0.56527
0.590006
0.626831
0.664032
0.692436
0.708823
0.722852
0.790864
0.80525
0.820642
0.831658
0.83571
0.83044
0.81384
0.788968
0.758706
0.724815
0.688992
0.649994
0.613302
0.591262
0.577108
0.563541
0.556198
0.549661
0.54676
0.548336
0.551791
0.551863
0.551076
0.559289
0.584582
0.623162
0.662682
0.693197
0.710972
0.72544
0.774088
0.789967
0.80754
0.821314
0.828292
0.826256
0.813079
0.790377
0.763122
0.733442
0.703734
0.672419
0.64367
0.622459
0.603966
0.585772
0.573887
0.56213
0.554311
0.550849
0.549794
0.547025
0.544399
0.550197
0.573467
0.613289
0.65495
0.687964
0.708025
0.724237
0.755753
0.773688
0.793417
0.809661
0.819098
0.820097
0.809647
0.790308
0.766367
0.74142
0.718148
0.694467
0.672401
0.651322
0.629099
0.607758
0.590873
0.57461
0.56226
0.553665
0.547763
0.541356
0.536223
0.53917
0.559948
0.599624
0.643037
0.678427
0.700276
0.718763
0.736887
0.757159
0.778927
0.797327
0.808923
0.812355
0.804495
0.788767
0.769127
0.749481
0.732681
0.716209
0.699411
0.678108
0.653197
0.629394
0.607809
0.587716
0.57116
0.557585
0.546688
0.535785
0.527455
0.527074
0.545115
0.583841
0.62858
0.66619
0.690176
0.710655
0.718517
0.741063
0.764675
0.78492
0.798383
0.803866
0.799032
0.787075
0.772081
0.758197
0.747791
0.737793
0.724943
0.703434
0.67725
0.650826
0.625469
0.602065
0.581717
0.563405
0.546695
0.531221
0.518873
0.514877
0.529776
0.567139
0.612744
0.652301
0.678661
0.701004
0.700986
0.725844
0.751345
0.773125
0.788217
0.795595
0.794179
0.786762
0.77625
0.768108
0.763954
0.759568
0.749614
0.728318
0.702314
0.672968
0.644797
0.618533
0.59476
0.572019
0.549129
0.528643
0.511243
0.503438
0.514767
0.550358
0.596325
0.637546
0.666294
0.690637
0.684429
0.711832
0.739365
0.762852
0.779312
0.788715
0.790862
0.787801
0.782318
0.779762
0.78183
0.78222
0.774497
0.7542
0.728512
0.697205
0.667011
0.638265
0.611397
0.584555
0.556131
0.528113
0.505567
0.493436
0.500861
0.534116
0.579961
0.622544
0.653512
0.679986
0.668772
0.698884
0.728472
0.754055
0.77278
0.784466
0.790251
0.791451
0.791193
0.794411
0.802273
0.80691
0.801169
0.782707
0.757249
0.725195
0.693696
0.662782
0.633213
0.602488
0.568546
0.532193
0.502817
0.485481
0.488829
0.519041
0.564266
0.607872
0.64081
0.669421
0.65401
0.687115
0.718898
0.746735
0.768077
0.782751
0.793526
0.79944
0.8046
0.813397
0.826523
0.835172
0.83179
0.814634
0.790667
0.759065
0.726976
0.694298
0.662288
0.627815
0.588769
0.544968
0.503842
0.480699
0.479638
0.506155
0.550047
0.594099
0.628769
0.659435
0.640476
0.676826
0.711027
0.741323