/*--------------------------------*- C++ -*----------------------------------*\
  =========                 |
  \\      /  F ield         | OpenFOAM: The Open Source CFD Toolbox
   \\    /   O peration     | Website:  https://openfoam.org
    \\  /    A nd           | Version:  12
     \\/     M anipulation  |
\*---------------------------------------------------------------------------*/
FoamFile
{
    format      ascii;
    class       volScalarField;
    location    "600/air";
    object      nut;
}
// * * * * * * * * * * * * * * * * * * * * * * * * * * * * * * * * * * * * * //

dimensions      [0 2 -1 0 0 0 0];

internalField   nonuniform List<scalar> 
243000
(
0.000191855
0.000190326
0.00018377
0.000176202
0.000167539
0.000158497
0.00014956
0.000141063
0.000133236
0.00012625
0.000120282
0.000115532
0.000112185
0.000110022
0.00010837
0.000106764
0.000104946
0.000102826
0.000100384
9.75978e-05
9.44134e-05
8.86485e-05
7.8249e-05
8.1925e-05
9.65358e-05
0.000106724
0.000118109
0.000128254
0.00013855
0.000152786
0.000718182
0.00071925
0.00068891
0.000653715
0.000616404
0.000579093
0.000543171
0.000509477
0.0004785
0.000450558
0.000426007
0.000405059
0.000387519
0.000372315
0.000359016
0.000347961
0.000338854
0.000331269
0.000324382
0.000317446
0.000309274
0.000296557
0.000273209
0.000289021
0.000358546
0.000401654
0.00044541
0.000492722
0.000543181
0.000601384
0.000931225
0.000972293
0.000969163
0.000955434
0.00093438
0.000908853
0.000880761
0.000851389
0.000821574
0.000792166
0.000764127
0.000738139
0.000713797
0.000689183
0.000664448
0.000641249
0.000619756
0.0005997
0.000579714
0.000558281
0.000532643
0.000500448
0.000453302
0.000447593
0.000550577
0.00061118
0.000659158
0.000706507
0.000751479
0.000799244
0.000981387
0.00102383
0.00102314
0.0010111
0.000991208
0.000966424
0.000938614
0.000909077
0.000878683
0.000848377
0.000819272
0.000792161
0.000766488
0.000739996
0.000712896
0.000687065
0.000662926
0.000640465
0.000618352
0.000594838
0.000566512
0.000532935
0.000485691
0.000460121
0.00056636
0.00064332
0.000701512
0.000756361
0.000806388
0.000854439
0.00101416
0.00105528
0.0010569
0.00104707
0.00102927
0.00100631
0.000979887
0.000951271
0.000921345
0.000891151
0.000861967
0.000834747
0.000808835
0.0007817
0.000753431
0.000725948
0.000699874
0.000675464
0.000651532
0.000626168
0.000595702
0.000560945
0.000513902
0.000477031
0.000564406
0.000662566
0.000729183
0.000791211
0.000846174
0.000893752
0.0010347
0.00107394
0.00107751
0.00107002
0.00105475
0.00103414
0.00100968
0.000982577
0.000953717
0.000924228
0.000895536
0.000868809
0.000843286
0.000816234
0.000787481
0.000758989
0.000731568
0.000705658
0.000680281
0.000653416
0.000621469
0.00058588
0.000539415
0.000496002
0.000549924
0.000672641
0.00074804
0.000814926
0.000874172
0.000921352
0.00104677
0.00108356
0.00108891
0.00108386
0.00107131
0.0010533
0.00103108
0.00100582
0.000978371
0.000949945
0.000922114
0.000896243
0.000871485
0.000844957
0.000816165
0.00078712
0.000758808
0.000731796
0.000705334
0.000677282
0.000644461
0.000608432
0.000562816
0.000515758
0.000538581
0.000676104
0.00075956
0.000830497
0.000893931
0.000940565
0.001052
0.00108536
0.00109349
0.00109106
0.00108129
0.00106595
0.00104611
0.00102284
0.000997011
0.000969881
0.000943151
0.000918353
0.000894599
0.000868845
0.000840327
0.000811077
0.000782241
0.000754486
0.000727244
0.000698234
0.000665066
0.000628981
0.000584382
0.000535462
0.000532335
0.000675279
0.00076563
0.000839109
0.000906252
0.000953007
0.00105113
0.00108223
0.00109283
0.00109334
0.0010862
0.00107352
0.00105612
0.00103493
0.00101081
0.000985135
0.000959675
0.000936086
0.000913472
0.000888624
0.000860608
0.000831436
0.000802383
0.000774219
0.000746451
0.000716643
0.000683568
0.000647763
0.00060429
0.000554906
0.000537443
0.000666625
0.000767751
0.000842749
0.000912554
0.000959816
0.00104608
0.00107554
0.00108866
0.00109192
0.00108764
0.00107731
0.00106208
0.00104292
0.00102061
0.000996496
0.00097243
0.000950145
0.000928731
0.000904844
0.00087751
0.000848665
0.000819662
0.000791378
0.000763302
0.00073283
0.000700206
0.000664964
0.000622675
0.000573697
0.000546476
0.000654361
0.000767573
0.000844779
0.000914043
0.000961972
0.00103749
0.00106606
0.00108169
0.00108757
0.00108615
0.00107834
0.00106508
0.00104771
0.00102703
0.00100455
0.000981962
0.00096105
0.000940836
0.000917956
0.000891442
0.000863144
0.000834438
0.000806248
0.000778074
0.000747111
0.000715235
0.000680752
0.000639672
0.000591519
0.000557705
0.000642179
0.000764828
0.000844011
0.000911096
0.000960175
0.00102582
0.00105429
0.00107248
0.00108088
0.00108214
0.00107691
0.00106579
0.00105001
0.00103082
0.00100978
0.00098873
0.0009692
0.000950163
0.000928324
0.000902749
0.000875192
0.000847006
0.00081912
0.000790989
0.000759795
0.000728933
0.000695294
0.000655387
0.00060828
0.000569269
0.0006303
0.000759758
0.000840132
0.000904047
0.00095474
0.00101137
0.00104064
0.00106127
0.00107231
0.00107607
0.00107325
0.00106432
0.00105033
0.00103247
0.00101276
0.000993077
0.000974931
0.000957031
0.000936258
0.000911728
0.000885088
0.000857626
0.000830236
0.000802282
0.000771689
0.00074157
0.000708725
0.000669942
0.000623936
0.000581402
0.000619042
0.000752664
0.000833685
0.000893757
0.00094607
0.000994486
0.0010253
0.00104835
0.00106215
0.00106827
0.00106775
0.00106078
0.00104863
0.00103238
0.00101391
0.000995424
0.000978519
0.000961715
0.00094203
0.000918643
0.000893081
0.000866525
0.000839818
0.000812152
0.000782506
0.000753162
0.000721114
0.000683396
0.000638575
0.000593545
0.000608893
0.000743991
0.000825822
0.000884238
0.000934631
0.000975771
0.00100851
0.00103395
0.0010506
0.001059
0.00106061
0.00105555
0.00104499
0.0010304
0.00101344
0.000996163
0.000980264
0.00096445
0.000945891
0.00092374
0.000899403
0.000873921
0.000848049
0.000820789
0.00079227
0.000763781
0.000732552
0.000695867
0.000652104
0.000605511
0.000600912
0.00073383
0.000816799
0.000873915
0.00092085
0.000957629
0.000990646
0.00101841
0.0010377
0.00104843
0.001052
0.00104877
0.00103976
0.00102664
0.00101127
0.000995396
0.000980576
0.000965557
0.000948092
0.000927262
0.000904278
0.000880018
0.000855107
0.000828391
0.00080112
0.000773563
0.000743174
0.000707472
0.000664711
0.000617308
0.000599769
0.000719901
0.000806709
0.000862638
0.000905693
0.00094018
0.00097341
0.001002
0.00102362
0.00103668
0.00104207
0.00104058
0.0010331
0.00102143
0.00100753
0.00099306
0.000979414
0.000965391
0.000948923
0.000929453
0.000907924
0.000885014
0.000861159
0.000835151
0.000809249
0.00078269
0.000753145
0.000718325
0.000676478
0.000628936
0.000601825
0.000704262
0.000795726
0.000850963
0.000892193
0.000923196
0.000957046
0.000985833
0.00100859
0.0010239
0.00103096
0.00103114
0.00102514
0.00101495
0.00100251
0.000989441
0.000976924
0.000963862
0.000948649
0.000930536
0.000910548
0.000889076
0.000866359
0.000841352
0.00081689
0.000791348
0.000762644
0.000728631
0.000687586
0.000640053
0.000605746
0.000688028
0.000784047
0.000839037
0.000879426
0.000906533
0.000941283
0.000970428
0.000993154
0.00101018
0.00101886
0.00102056
0.00101603
0.00100731
0.000996371
0.000984689
0.000973318
0.000961279
0.000947295
0.000930695
0.000912311
0.000892323
0.000870824
0.000847343
0.000824189
0.000799677
0.000771837
0.000738612
0.000698285
0.00065088
0.000611082
0.000671932
0.000771953
0.000827047
0.000867159
0.000890138
0.000926005
0.000955628
0.000978433
0.000995765
0.00100587
0.00100895
0.00100585
0.000998625
0.000989211
0.000978891
0.000968697
0.000957752
0.000945068
0.000930023
0.000913299
0.000894825
0.000874624
0.00085294
0.000831171
0.00080777
0.000780869
0.00074847
0.000708848
0.000661656
0.000617314
0.000656772
0.000759703
0.00081513
0.000855261
0.000873985
0.000911142
0.000941299
0.000964316
0.000981716
0.000992154
0.00099638
0.000994661
0.000988922
0.000981028
0.000972095
0.000963097
0.000953316
0.000942016
0.000928566
0.000913495
0.000896577
0.000877798
0.000858154
0.000837908
0.000815732
0.000789893
0.000758421
0.000719563
0.000672682
0.000625226
0.000643757
0.000747585
0.00080343
0.000843722
0.000858121
0.00089669
0.000927401
0.000950704
0.000968168
0.000978819
0.000983289
0.000982574
0.000978276
0.000971878
0.000964332
0.000956553
0.00094797
0.000938083
0.000926258
0.000912875
0.000897596
0.000880821
0.000863251
0.000844582
0.000823725
0.000799084
0.000768697
0.000730657
0.000684184
0.000634542
0.000634284
0.000735982
0.000792176
0.000832656
0.000842732
0.000882725
0.000913933
0.000937512
0.00095503
0.000966064
0.00097094
0.000970986
0.00096775
0.000962567
0.000956256
0.000949519
0.000942076
0.000933541
0.000923461
0.000911942
0.00089881
0.000884278
0.000868611
0.000851514
0.000832046
0.000808722
0.000779562
0.000742454
0.000696399
0.000645205
0.000630127
0.000725298
0.000781737
0.000822253
0.000828193
0.000869391
0.000900902
0.000924647
0.000942294
0.000953924
0.000959318
0.000960236
0.000958189
0.00095432
0.000949334
0.000943789
0.000937592
0.000930455
0.000922047
0.000912337
0.000901212
0.000888708
0.000874856
0.000859331
0.000841303
0.000819393
0.000791602
0.00075561
0.000709857
0.000657555
0.000631995
0.000716611
0.000772789
0.000812952
0.000815076
0.000856912
0.000888468
0.000912323
0.0009302
0.000942417
0.000948474
0.000950375
0.000949674
0.000947256
0.000943715
0.000939559
0.000934813
0.000929258
0.000922649
0.000914876
0.000905807
0.000895326
0.000883312
0.0008694
0.000852849
0.000832379
0.000805996
0.000771147
0.000725794
0.000671992
0.000638221
0.000711304
0.000765875
0.000805183
0.000804531
0.000846148
0.000877299
0.000901016
0.000919052
0.000931929
0.000938824
0.000941917
0.000942773
0.000942085
0.000940328
0.000937995
0.000935166
0.000931703
0.000927391
0.000922005
0.0009153
0.000907023
0.000896957
0.000884702
0.000869582
0.000850427
0.00082523
0.00079138
0.000746073
0.000690258
0.000649242
0.000711759
0.000762223
0.000799765
0.000798566
0.000838876
0.00086918
0.000892489
0.000910595
0.000924259
0.000932503
0.000937345
0.000940402
0.000942213
0.000943202
0.000943779
0.000944018
0.000943766
0.000942759
0.000940544
0.00093666
0.000930773
0.000922582
0.000911705
0.000897563
0.000879142
0.000854649
0.000821289
0.000775649
0.000717279
0.000670801
0.000719623
0.000765188
0.000799772
0.000805818
0.000843249
0.000872177
0.000895419
0.000914341
0.000929713
0.000940881
0.000949148
0.000956224
0.000962475
0.000968405
0.000974301
0.000979885
0.000984711
0.000988146
0.000989447
0.000988145
0.000983858
0.000976434
0.000965668
0.000951131
0.000932113
0.000907138
0.000873673
0.00082806
0.000768383
0.000717701
0.00074889
0.000785516
0.000814192
0.000882446
0.000914835
0.000941815
0.00096516
0.000985572
0.00100298
0.00101908
0.00103323
0.00104634
0.00105851
0.00107153
0.00108508
0.00109716
0.00110703
0.00111361
0.00111638
0.00111518
0.00111001
0.00110116
0.00108871
0.0010721
0.00105147
0.00102621
0.000994521
0.000954049
0.000903718
0.00085693
0.000865128
0.000885265
0.000901433
0.00125637
0.00127258
0.00128706
0.00130017
0.00131056
0.00131548
0.00132315
0.00133229
0.00133972
0.0013455
0.00135715
0.00137084
0.00138031
0.00138623
0.00138769
0.00138621
0.0013814
0.00137447
0.00136603
0.0013569
0.00134387
0.00133073
0.001318
0.00130455
0.00128912
0.00127153
0.00126096
0.00126113
0.00126736
0.00127097
0.000230561
0.000235332
0.000229712
0.000221085
0.000210641
0.000199331
0.000187804
0.00017653
0.000165806
0.000155821
0.000146762
0.000138831
0.000132166
0.000126221
0.000120143
0.000113784
0.00010708
0.000100286
9.32122e-05
8.57598e-05
7.66989e-05
7.24766e-05
0.000324381
8.43429e-05
9.90598e-05
0.000107779
0.000118802
0.000127432
0.000140804
0.000164886
0.00101369
0.00111592
0.00104922
0.000953637
0.000854186
0.000762512
0.000682658
0.000613701
0.000553495
0.000500266
0.000453492
0.00041044
0.000365725
0.000320829
0.000287845
0.000273166
0.000270671
0.00027683
0.000285171
0.000296177
0.000290127
0.000271651
0.000287838
0.000373057
0.000535754
0.000690964
0.000794083
0.000786986
0.000690221
0.000693129
0.00168582
0.00191888
0.00187059
0.0017414
0.00158665
0.00143346
0.0012933
0.0011683
0.00105655
0.000956554
0.00086797
0.000785466
0.000698335
0.000611292
0.000549806
0.000523047
0.000517568
0.000524932
0.000536068
0.000549803
0.000541901
0.000500913
0.000451415
0.000583656
0.000814306
0.0010941
0.00133147
0.00136942
0.00125003
0.00125097
0.0022289
0.00252493
0.00251043
0.00238116
0.00220698
0.00202288
0.00184556
0.00168099
0.00152967
0.00139307
0.00126959
0.00114998
0.00102521
0.000905335
0.000822742
0.00078523
0.000774003
0.000778292
0.00078776
0.000800121
0.000791469
0.000718411
0.000615376
0.000703403
0.00095978
0.00132722
0.00171073
0.00184563
0.0017532
0.00177352
0.00266797
0.00298358
0.00299757
0.00288143
0.00270759
0.00251267
0.00231588
0.00212623
0.00194755
0.00178201
0.00162899
0.00148244
0.00132924
0.00118553
0.00108817
0.00104132
0.00102287
0.00102238
0.0010295
0.00104132
0.00103439
0.000934878
0.000786782
0.000834713
0.00106985
0.00149834
0.00197311
0.00222913
0.00219916
0.00224114
0.00301436
0.00333645
0.00336849
0.00326994
0.00310726
0.00291338
0.00270908
0.0025053
0.00230824
0.0021211
0.00194771
0.0017811
0.00160797
0.00144951
0.00134179
0.00128656
0.0012598
0.00125373
0.00125897
0.00127479
0.0012685
0.00114947
0.000968664
0.00097824
0.00117969
0.00162413
0.0021857
0.00252633
0.00257814
0.00264585
0.0032865
0.00360189
0.00364897
0.00357043
0.00342475
0.00323886
0.00303485
0.00282496
0.00261714
0.00241551
0.00222742
0.00204898
0.00186401
0.00169805
0.00158299
0.00151967
0.00148408
0.00147182
0.00147604
0.00150111
0.00149139
0.00135823
0.00115615
0.00112693
0.00129187
0.00172343
0.00234057
0.00276118
0.00288661
0.00298151
0.00350541
0.00377375
0.00385038
0.00380119
0.00367509
0.00350157
0.00330242
0.00309222
0.0028795
0.00267133
0.00247304
0.00228816
0.00210047
0.00193176
0.00181144
0.00174006
0.00169578
0.00167709
0.00168144
0.00171684
0.00170041
0.00155658
0.00134122
0.0012755
0.00140154
0.00180375
0.00245052
0.00295022
0.00311987
0.00324489
0.00366137
0.00390835
0.00399974
0.00397847
0.00387078
0.00371101
0.00351928
0.00331327
0.00310054
0.00289154
0.00269108
0.0025008
0.00231707
0.00215112
0.00202676
0.00194756
0.00189503
0.00187016
0.00187701
0.00192022
0.00189346
0.00174046
0.00151623
0.00141732
0.00150486
0.00186925
0.00252478
0.00308483
0.003309
0.00345848
0.00379344
0.00401253
0.0041131
0.00411158
0.00403358
0.00388412
0.00369654
0.00349248
0.00328403
0.00307907
0.00288291
0.00269608
0.00251452
0.00235355
0.0022283
0.00214205
0.00208214
0.00205174
0.00206516
0.0021099
0.00206896
0.00190709
0.00167539
0.00154615
0.00159792
0.00192293
0.00257658
0.00318475
0.00346981
0.00364536
0.00389515
0.0040919
0.00419392
0.00420949
0.00415361
0.00403195
0.00384766
0.00364524
0.00343766
0.00323845
0.00305043
0.00287239
0.00269931
0.00254193
0.00241541
0.00232361
0.00225769
0.00222283
0.00224378
0.00228423
0.00222591
0.00205429
0.00181553
0.00165811
0.00167864
0.00196883
0.00261518
0.00326086
0.00360625
0.00381038
0.0039625
0.00413985
0.00424549
0.00427725
0.00424096
0.0041423
0.0039796
0.00377788
0.00357173
0.00337526
0.00319718
0.00303103
0.00286878
0.0027173
0.00258981
0.00249286
0.00242253
0.00238521
0.0024125
0.00244174
0.00236403
0.00218133
0.00193567
0.00175201
0.00174508
0.00200573
0.00263116
0.00329989
0.00372333
0.00395519
0.00398552
0.00415738
0.0042709
0.00431909
0.00430174
0.00422577
0.00408106
0.00389379
0.00369102
0.00349752
0.00332564
0.00317373
0.00302365
0.00287884
0.00275153
0.002652
0.00257799
0.0025414
0.00257191
0.00258241
0.00248427
0.00228809
0.00203654
0.00182956
0.00179538
0.00203023
0.00261745
0.00329388
0.00378589
0.00405825
0.00397091
0.00414779
0.00427328
0.00433861
0.00434023
0.00428441
0.0041581
0.00398386
0.00379519
0.00360864
0.00344255
0.00330244
0.00316495
0.00302733
0.00290151
0.00280054
0.00272519
0.00269458
0.00272257
0.00270926
0.00258859
0.00237649
0.00211796
0.00189269
0.00182863
0.00203037
0.00257874
0.00325062
0.00378473
0.00411593
0.00392474
0.0041147
0.00425576
0.00433896
0.00435938
0.00432176
0.00421601
0.0040514
0.00387922
0.00370807
0.00355008
0.00341977
0.00329429
0.00316416
0.00304118
0.00294056
0.00286602
0.00284337
0.00286421
0.00282424
0.00267904
0.00245028
0.00218296
0.00194295
0.00184553
0.0020134
0.00252106
0.00318116
0.0037398
0.00413204
0.00384059
0.00406201
0.00422152
0.00432322
0.00436204
0.00434122
0.00425704
0.00410549
0.00394567
0.00379254
0.00365022
0.00353006
0.0034139
0.00329124
0.00317247
0.00307494
0.00300309
0.00298692
0.00299595
0.00292867
0.00275873
0.00251233
0.00223553
0.00198375
0.00185165
0.0019863
0.00245074
0.00309429
0.0036637
0.00410986
0.00372427
0.00398374
0.00417443
0.00429483
0.00435145
0.00434681
0.00428379
0.0041485
0.00400242
0.00386579
0.00374092
0.00363453
0.00352598
0.0034108
0.00329763
0.00320401
0.00313966
0.00312342
0.00311607
0.00302298
0.00283005
0.00256543
0.00227469
0.00200961
0.00185133
0.00194779
0.00237321
0.00299683
0.00356734
0.00404704
0.00358953
0.00388423
0.00411468
0.00425828
0.00433183
0.00434321
0.00429936
0.00418333
0.00405305
0.00393275
0.00382944
0.00373397
0.00363257
0.00352559
0.00341735
0.00333008
0.0032726
0.00324959
0.00322083
0.00310547
0.00289371
0.00261228
0.00230557
0.0020249
0.00184761
0.00190662
0.00229385
0.00289481
0.00345897
0.00395714
0.00344371
0.00377228
0.00403853
0.00422223
0.00430886
0.00433515
0.00430844
0.00421361
0.00410088
0.00400309
0.00391508
0.00382815
0.00373516
0.00363325
0.00353348
0.00345311
0.00339509
0.00335908
0.0033052
0.00317205
0.00294775
0.00265419
0.00233533
0.00203598
0.00183904
0.00187271
0.00221799
0.00279383
0.0033452
0.00385031
0.00329694
0.00365323
0.00395106
0.00417102
0.00429106
0.00432885
0.0043167
0.00424388
0.0041548
0.00407532
0.00399694
0.00391925
0.00383312
0.00373738
0.00364318
0.00356346
0.00349501
0.0034404
0.00336069
0.00321471
0.00298597
0.00268859
0.00236202
0.00204826
0.00183464
0.00185322
0.00215141
0.00269904
0.00323235
0.00373452
0.00315472
0.00353515
0.00385814
0.00410831
0.00426399
0.00433055
0.00433117
0.00428138
0.00421133
0.00414421
0.00407633
0.00400393
0.00392099
0.00382819
0.00373162
0.00364121
0.00355366
0.00347558
0.00337303
0.00322067
0.00299709
0.00270904
0.00238234
0.00206794
0.00184026
0.00183637
0.00210048
0.0026143
0.00312642
0.0036196
0.00302405
0.00342487
0.0037674
0.00404134
0.00422757
0.00432038
0.00435201
0.00432133
0.00426687
0.00420896
0.00414404
0.00407027
0.00398143
0.0038783
0.00376815
0.00365536
0.00354487
0.00344128
0.00332419
0.00317395
0.00296708
0.00270373
0.00239054
0.0020816
0.00185236
0.00183362
0.00207463
0.00254371
0.00303339
0.00351571
0.00291304
0.00332937
0.00368407
0.00397181
0.0041635
0.0042773
0.00433967
0.00432854
0.00428664
0.00423143
0.00416079
0.00407548
0.00396922
0.00384572
0.00370939
0.00357032
0.00343885
0.0033192
0.00319875
0.00306072
0.00288309
0.00265905
0.00237905
0.00208279
0.0018622
0.00184907
0.00208048
0.00249824
0.00295643
0.00341808
0.00283105
0.00324751
0.00358606
0.0038587
0.00406524
0.0042098
0.00427874
0.0042708
0.00422763
0.00416204
0.00407462
0.00396802
0.00383597
0.0036873
0.00352446
0.00336794
0.00322946
0.00310892
0.00299788
0.00288205
0.00274484
0.00257112
0.00234286
0.00207064
0.00186381
0.0018624
0.002106
0.00249132
0.00292578
0.0033531
0.00275325
0.00313029
0.00345544
0.00372869
0.00393827
0.00407562
0.00412422
0.00410235
0.004044
0.00395789
0.00384689
0.00371692
0.00356753
0.00340504
0.00323444
0.00308133
0.00295595
0.00285234
0.00276219
0.00267553
0.0025807
0.00245887
0.00228761
0.0020585
0.0018576
0.001865
0.00212642
0.00247587
0.00288109
0.00326957
0.00267781
0.00301549
0.00330325
0.00353511
0.00371068
0.00380814
0.0038229
0.00378031
0.00370481
0.00360502
0.00348587
0.00335309
0.0032116
0.00306878
0.00292812
0.00280914
0.00271659
0.00264406
0.00257918
0.00251975
0.00245587
0.00237218
0.0022474
0.00206606
0.0018682
0.00185658
0.00210362
0.00241012
0.00276967
0.00311043
0.00253666
0.00280852
0.00303109
0.0032008
0.00332285
0.003383
0.00337763
0.00333474
0.00327073
0.00319134
0.00310109
0.00300511
0.00290937
0.00281911
0.00273663
0.00266889
0.00261628
0.00257204
0.00252829
0.00248423
0.00243467
0.00236916
0.00227172
0.00212613
0.00194169
0.00185681
0.00200369
0.00226922
0.00256209
0.0028426
0.00232648
0.00252349
0.00267752
0.00280133
0.00289603
0.00295387
0.00296785
0.00295994
0.00293942
0.00290811
0.00286919
0.00282729
0.00278672
0.00274883
0.00270843
0.00267045
0.00263842
0.00260558
0.00257232
0.00253732
0.00249761
0.00244686
0.00237298
0.00226153
0.00211001
0.00198261
0.00199665
0.00216409
0.00235431
0.00254852
0.0023431
0.00246181
0.00256367
0.00265338
0.002729
0.00278545
0.0028162
0.00283262
0.0028392
0.0028356
0.00282516
0.00280816
0.0027858
0.0027601
0.00273292
0.00270454
0.00267793
0.00265243
0.00262766
0.00260363
0.00257829
0.00254783
0.00250374
0.00243446
0.00234325
0.00225853
0.00224845
0.00232766
0.00242055
0.00251373
0.00260439
0.00265434
0.00269712
0.00273624
0.00276967
0.00279475
0.00280857
0.00281489
0.00281337
0.00280337
0.00279413
0.00278552
0.00276921
0.00274702
0.00272134
0.00269789
0.00267953
0.00266689
0.00265769
0.00265098
0.00264441
0.00263749
0.00262626
0.00260514
0.00257568
0.00255319
0.00255799
0.00259257
0.002627
0.00265632
0.000258936
0.000266904
0.000260215
0.000250798
0.000239403
0.00022688
0.000213924
0.000201045
0.000188549
0.000176612
0.000165314
0.000154688
0.000144804
0.000134956
0.000124874
0.000115881
0.000108436
0.000104911
0.000103315
0.000103123
9.54316e-05
7.48718e-05
7.89844e-05
9.30523e-05
0.000110136
0.000120617
0.000133532
0.000147476
0.000162374
0.000180518
0.00126063
0.00142624
0.00138301
0.00126834
0.00113687
0.00101272
0.00090309
0.000807873
0.000723946
0.000648024
0.000577134
0.000507944
0.000431323
0.000363684
0.000339182
0.000365731
0.000414027
0.000472075
0.000514338
0.000537005
0.000507315
0.00043021
0.000402007
0.000577654
0.000775826
0.000912174
0.000964856
0.000913435
0.000821227
0.000788688
0.00211688
0.00246049
0.00246902
0.0023336
0.00214271
0.00194171
0.00175104
0.00157689
0.0014176
0.00126992
0.00112999
0.000990561
0.000835097
0.000702497
0.000661627
0.000713067
0.000793423
0.000879094
0.000946178
0.000987806
0.000953547
0.000858101
0.000818946
0.0010272
0.00132303
0.00155896
0.00167366
0.00163428
0.00151347
0.00147172
0.00281362
0.00324287
0.00329911
0.00317735
0.00297323
0.00273771
0.0024995
0.00227096
0.00205424
0.00184878
0.00165267
0.00145243
0.00122717
0.00104764
0.00100095
0.00106902
0.00116631
0.00126516
0.00134865
0.00140923
0.00138875
0.00128971
0.0012407
0.00143335
0.00176717
0.00208
0.00226599
0.00226724
0.00215586
0.00212496
0.00339825
0.00385191
0.00394075
0.00384007
0.0036415
0.00339408
0.00312983
0.00286554
0.00260715
0.00235854
0.00211641
0.00186542
0.00159183
0.00138516
0.00134027
0.00141771
0.00152185
0.00162656
0.00172645
0.00180682
0.00180892
0.00171337
0.00165857
0.00182341
0.00216219
0.00252193
0.00277034
0.00282471
0.00274371
0.00272853
0.00389085
0.00433897
0.00444823
0.00436828
0.00418215
0.0039343
0.00365707
0.00337005
0.00308239
0.00280203
0.0025228
0.00223789
0.00193267
0.00171576
0.00167657
0.00175657
0.00185913
0.00196689
0.00208641
0.00218771
0.00220162
0.00211795
0.00206345
0.00219947
0.00252249
0.00289602
0.00319553
0.00330967
0.00327072
0.00327083
0.00431267
0.00474491
0.00485528
0.00479422
0.00462278
0.00438015
0.0040978
0.0037973
0.00349033
0.00318797
0.00288298
0.00257594
0.00225729
0.00204272
0.00200909
0.00208517
0.00217973
0.00228874
0.00242952
0.00253915
0.00256436
0.00249381
0.00244398
0.00255383
0.00284566
0.00320061
0.00353247
0.00371788
0.00373091
0.00374545
0.00466347
0.005038
0.00517703
0.00513925
0.00498355
0.00474898
0.00446575
0.0041585
0.00384061
0.00352497
0.00320779
0.00288515
0.00256997
0.00236727
0.00233649
0.0024031
0.00248499
0.00259534
0.00275183
0.00286083
0.00289276
0.00283349
0.00278948
0.00287729
0.0031224
0.00346007
0.00381882
0.00404391
0.00411683
0.00416133
0.00494005
0.00528926
0.00543676
0.00542413
0.00528012
0.00505344
0.00477146
0.00446263
0.00414119
0.0038209
0.00350209
0.00317785
0.00287331
0.00268943
0.00265715
0.00270986
0.00277646
0.00289024
0.00304929
0.00315052
0.0031836
0.00313184
0.00309096
0.00316221
0.00334738
0.00367785
0.00406161
0.0043316
0.00444606
0.00453061
0.0051973
0.00551096
0.00565598
0.00565733
0.00554083
0.00531639
0.00503255
0.00471806
0.00439807
0.00408272
0.00377024
0.00345863
0.00317014
0.00300583
0.00296903
0.00300493
0.00305591
0.00317298
0.00331888
0.00340681
0.00343451
0.0033861
0.00334221
0.00340198
0.00353725
0.0038609
0.00427739
0.00458901
0.00474391
0.00486254
0.00542428
0.00569792
0.00583517
0.00584706
0.00575075
0.00555194
0.00526551
0.00494587
0.00462426
0.0043176
0.00401808
0.00372747
0.00346459
0.00331214
0.00327065
0.00328826
0.00332518
0.00343995
0.0035617
0.00362915
0.00364419
0.00359464
0.00354179
0.00359109
0.00369874
0.00402946
0.00446791
0.00481578
0.00501214
0.00516378
0.00559959
0.00584241
0.00597706
0.00599993
0.00592042
0.00574581
0.00547886
0.00515325
0.00483183
0.00453188
0.00425148
0.003987
0.00375321
0.00361129
0.00355914
0.00356075
0.00358604
0.0036892
0.00377803
0.00381764
0.00381192
0.00375627
0.00369253
0.00372577
0.00383816
0.0041768
0.00463407
0.00501373
0.00526024
0.005441
0.0057188
0.00594833
0.00608572
0.00612087
0.00605703
0.00590715
0.00565843
0.00534748
0.00502599
0.00473628
0.00447547
0.00423884
0.00403341
0.00390105
0.00383822
0.00382399
0.00384041
0.00391831
0.00396813
0.00397278
0.00393805
0.00386986
0.00380033
0.00381122
0.00394659
0.0042885
0.0047541
0.00516685
0.00546785
0.00568669
0.00579385
0.00602081
0.00616544
0.00621447
0.00616756
0.00603901
0.00580736
0.00551448
0.00521176
0.00493402
0.00469331
0.00448413
0.00430424
0.00417902
0.00410611
0.00407709
0.00408375
0.00412414
0.00413137
0.0040957
0.00402406
0.00393483
0.00386589
0.0038528
0.00400477
0.00433085
0.00480393
0.00525118
0.00560371
0.00587461
0.00583207
0.00606441
0.00622043
0.00628511
0.00625604
0.0061468
0.0059385
0.00565973
0.00538135
0.00512722
0.00490736
0.00472365
0.00456541
0.00444546
0.00436319
0.00432029
0.00431005
0.00430529
0.00426658
0.00418706
0.00407178
0.00395687
0.00388259
0.00385551
0.00399724
0.00431857
0.00479912
0.00528109
0.00568505
0.0060113
0.0058348
0.00608313
0.00625504
0.00633734
0.0063269
0.00623589
0.00605457
0.00579416
0.00554066
0.00531774
0.00511937
0.00495797
0.00481697
0.00470064
0.00460844
0.00455126
0.00451207
0.00445709
0.00437073
0.00424643
0.00408557
0.00393815
0.00384773
0.00382131
0.00393555
0.00426291
0.00475202
0.00526803
0.00572094
0.00610327
0.00580536
0.00607659
0.00627454
0.0063766
0.0063853
0.00631221
0.00616037
0.00592437
0.00569847
0.00550604
0.00533015
0.0051869
0.00505794
0.00493761
0.00483765
0.00475987
0.00467867
0.00457171
0.0044383
0.00427131
0.00406814
0.0038816
0.00376809
0.00374849
0.00384648
0.00417599
0.00467322
0.00522183
0.00572029
0.0061562
0.00574675
0.00605074
0.0062814
0.00641051
0.00643743
0.0063833
0.00625916
0.00605342
0.00586805
0.00569185
0.00553892
0.0054071
0.00528108
0.00515767
0.00504233
0.00492962
0.00479779
0.00463888
0.00446131
0.00425698
0.00402027
0.00379551
0.00365108
0.00363807
0.00374035
0.0040675
0.0045721
0.00515083
0.0056894
0.00617252
0.00566098
0.00600551
0.00627288
0.00643709
0.00649023
0.00645424
0.00635516
0.00618751
0.00602809
0.00587577
0.00573882
0.00561038
0.0054799
0.00534417
0.00520116
0.00503966
0.00485266
0.00464536
0.0044299
0.00419682
0.00393935
0.00368425
0.00350232
0.00348491
0.0036182
0.00394391
0.00445703
0.00506266
0.00563405
0.00615529
0.00555133
0.00593912
0.0062427
0.00644262
0.00653076
0.00652656
0.00645181
0.00631976
0.00618244
0.00604723
0.00591457
0.00577983
0.00563474
0.00547241
0.00528503
0.00506755
0.00482578
0.00457773
0.00433442
0.004084
0.00382119
0.00355044
0.0033416
0.00330531
0.0034788
0.00380284
0.00433425
0.00496435
0.00556266
0.00610786
0.00542239
0.00585323
0.00619445
0.0064287
0.006545
0.00656906
0.00654888
0.00643574
0.00630806
0.00617891
0.00604395
0.00588913
0.0057104
0.00550443
0.00526402
0.00499063
0.00470367
0.00442757
0.00416892
0.00391552
0.00366179
0.00339733
0.00316765
0.00311501
0.0033165
0.00369442
0.00420838
0.00485624
0.0054743
0.00603896
0.00528755
0.00575727
0.00613211
0.00639781
0.00653371
0.00659271
0.00658683
0.00648753
0.00636348
0.00622805
0.00607683
0.00589246
0.00566853
0.00541142
0.00511348
0.0047962
0.00448481
0.00419763
0.00393934
0.00369886
0.00346844
0.00322854
0.00299703
0.002921
0.00314088
0.00361015
0.00409603
0.00472747
0.00536081
0.0059423
0.00515336
0.00565378
0.00602996
0.00627418
0.00643948
0.00653687
0.006535
0.00643463
0.00629989
0.00614477
0.00596604
0.00574825
0.00548172
0.00517932
0.00483675
0.00449815
0.00418914
0.00391278
0.00367175
0.00345894
0.00326243
0.00306327
0.00285142
0.00273718
0.0029453
0.00349487
0.0040151
0.00463661
0.00525341
0.00582264
0.00498394
0.00544024
0.00579233
0.00606968
0.00626227
0.00636027
0.00633601
0.00622028
0.00606549
0.00588589
0.00568038
0.00543626
0.00514801
0.00482569
0.0044729
0.00414607
0.00386799
0.00362394
0.00341326
0.00323808
0.0030886
0.00293364
0.00275089
0.00260067
0.00274881
0.0033215
0.00386667
0.00449099
0.00509396
0.00563806
0.0046932
0.00513054
0.0054898
0.00575093
0.00592229
0.00599012
0.00593422
0.00580242
0.00563451
0.00544427
0.00523217
0.00498848
0.0047123
0.00441362
0.00410069
0.00381944
0.00359096
0.00339069
0.00322934
0.00310192
0.00299003
0.00286923
0.00271385
0.00254602
0.00258742
0.00305422
0.00363479
0.00418889
0.00476031
0.00527221
0.00431693
0.00470692
0.00500592
0.00522769
0.00536019
0.00539645
0.00532847
0.0052049
0.00505423
0.00488745
0.00470549
0.00450137
0.00427755
0.00404359
0.00380532
0.00358713
0.00341861
0.00327212
0.00315504
0.00305922
0.00297237
0.00287642
0.00274727
0.00258325
0.00251793
0.00277278
0.0032815
0.00377617
0.00427634
0.00472466
0.0037723
0.00410883
0.00435021
0.00452796
0.00463976
0.00468127
0.00464339
0.00456704
0.00447113
0.00436225
0.00424123
0.00410381
0.00395332
0.00379604
0.00362628
0.00347663
0.00334924
0.00323813
0.00314752
0.00307275
0.00300575
0.0029335
0.00283508
0.00269816
0.00258608
0.00264661
0.00293972
0.0033164
0.00370129
0.00406944
0.00331878
0.00356698
0.00375667