/*--------------------------------*- C++ -*----------------------------------*\
  =========                 |
  \\      /  F ield         | OpenFOAM: The Open Source CFD Toolbox
   \\    /   O peration     | Website:  https://openfoam.org
    \\  /    A nd           | Version:  12
     \\/     M anipulation  |
\*---------------------------------------------------------------------------*/
FoamFile
{
    format      ascii;
    class       volScalarField;
    location    "600/air";
    object      p_rgh;
}
// * * * * * * * * * * * * * * * * * * * * * * * * * * * * * * * * * * * * * //

dimensions      [1 -1 -2 0 0 0 0];

internalField   nonuniform List<scalar> 
243000
(
28.5879
28.839
29.0707
29.1386
29.19
29.2039
29.2038
29.1978
29.1839
29.1581
29.1125
29.0158
28.8531
28.5817
28.1774
27.7608
27.4326
27.2497
27.1802
27.2065
27.3225
27.5336
27.925
28.0595
27.9214
27.7061
27.5878
27.6465
27.9731
28.6125
28.5925
28.831
29.0856
29.1718
29.227
29.2411
29.2405
29.2323
29.215
29.1854
29.1353
29.0347
28.8703
28.5979
28.1963
27.7851
27.4585
27.2723
27.1965
27.2151
27.3303
27.5406
27.9263
28.0507
27.9418
27.7151
27.5856
27.6353
27.9124
28.4427
28.5266
28.7581
29.0173
29.114
29.1835
29.2109
29.2235
29.2253
29.2164
29.1905
29.1425
29.0428
28.8784
28.6056
28.2029
27.7968
27.4727
27.2854
27.2053
27.2189
27.332
27.532
27.8876
28.048
27.9831
27.7399
27.5992
27.6487
27.9164
28.3683
28.4123
28.6404
28.8885
28.9955
29.0853
29.1328
29.1648
29.1818
29.1849
29.1682
29.1255
29.0276
28.864
28.5904
28.1918
27.793
27.471
27.2862
27.2081
27.2207
27.3322
27.5226
27.834
28.048
28.0197
27.7799
27.6141
27.6595
27.9062
28.3162
28.2802
28.4986
28.7306
28.8499
28.9602
29.0293
29.0822
29.1161
29.1323
29.1268
29.0919
28.9959
28.8309
28.5573
28.1659
27.7786
27.4632
27.2821
27.206
27.2211
27.3303
27.5147
27.7882
28.0418
28.0422
27.8408
27.6416
27.6757
27.8983
28.2771
28.138
28.3433
28.5605
28.6933
28.8231
28.9141
28.988
29.0394
29.0693
29.0751
29.0489
28.956
28.789
28.5154
28.1327
27.7586
27.453
27.2762
27.2035
27.2215
27.3304
27.5103
27.7585
28.0155
28.0659
27.9168
27.6802
27.6952
27.8894
28.2414
27.991
28.1816
28.3854
28.5314
28.6788
28.7905
28.8845
28.9529
28.9963
29.013
28.9959
28.9064
28.737
28.4641
28.0914
27.7323
27.4394
27.268
27.2001
27.2213
27.3311
27.5078
27.7388
27.9848
28.0878
27.9869
27.7284
27.7161
27.8784
28.2051
27.8436
28.0204
28.2133
28.3712
28.5333
28.6634
28.7756
28.8597
28.9158
28.9426
28.9342
28.8478
28.6761
28.4046
28.0436
27.7008
27.4213
27.2581
27.1951
27.2203
27.3323
27.5077
27.7268
27.9568
28.1018
28.0492
27.7848
27.7363
27.8664
28.1678
27.7022
27.8673
28.0507
28.2182
28.3916
28.5374
28.6651
28.7632
28.8306
28.8664
28.8655
28.7818
28.6078
28.339
27.991
27.6654
27.3999
27.2463
27.1885
27.219
27.3341
27.5089
27.7222
27.938
28.1126
28.1017
27.8456
27.7584
27.8571
28.1303
27.5733
27.7277
27.9022
28.0765
28.2578
28.4162
28.5564
28.6662
28.7433
28.7868
28.7918
28.71
28.5342
28.2693
27.9354
27.6273
27.3761
27.233
27.1809
27.2178
27.3364
27.5113
27.7228
27.9327
28.1207
28.1413
27.9098
27.7878
27.8558
28.0934
27.4633
27.6054
27.7712
27.949
28.1348
28.3028
28.4525
28.5717
28.6566
28.7062
28.7152
28.6343
28.4573
28.1977
27.8784
27.5873
27.3507
27.2185
27.1724
27.2171
27.3391
27.5146
27.7248
27.9338
28.1268
28.1746
27.9711
27.8225
27.8603
28.0587
27.3755
27.5034
27.6603
27.8383
28.0251
28.1997
28.3559
28.4821
28.5727
28.6266
28.6378
28.5567
28.3793
28.1261
27.8216
27.5467
27.3243
27.2029
27.1635
27.2168
27.3419
27.5185
27.7277
27.9368
28.1305
28.2065
28.0291
27.8617
27.8692
28.0289
27.308
27.4245
27.5718
27.746
27.9309
28.1092
28.269
28.3999
28.4941
28.5505
28.562
28.4795
28.3024
28.0565
27.7663
27.5067
27.2974
27.1863
27.1541
27.2166
27.3447
27.5229
27.7313
27.941
28.133
28.2343
28.0862
27.9065
27.8809
28.0045
27.26
27.3652
27.5025
27.6707
27.8544
28.0331
28.194
28.3272
28.4231
28.4799
28.4898
28.405
28.2288
27.9906
27.7131
27.4678
27.2709
27.1687
27.1436
27.2157
27.3473
27.5275
27.7354
27.9462
28.1355
28.2577
28.1429
27.9523
27.8955
27.9885
27.2329
27.3242
27.4509
27.6114
27.7907
27.9713
28.1331
28.2662
28.3615
28.4169
28.4234
28.3355
28.1605
27.9297
27.6633
27.4307
27.2448
27.1503
27.1319
27.2137
27.3495
27.5319
27.74
27.9521
28.1391
28.2753
28.2002
28.0003
27.9186
27.9841
27.224
27.3011
27.4163
27.5689
27.7411
27.9212
28.0852
28.2187
28.3115
28.3633
28.3645
28.2731
28.0992
27.8746
27.6178
27.3954
27.2188
27.1305
27.1182
27.2093
27.3508
27.5358
27.7448
27.9584
28.1454
28.2879
28.2565
28.0525
27.9507
27.989
27.2307
27.2935
27.3981
27.5423
27.7068
27.8841
28.0485
28.1845
28.2743
28.3207
28.3144
28.2198
28.0461
27.8262
27.5768
27.3627
27.1923
27.1087
27.102
27.2011
27.3509
27.5389
27.7495
27.9646
28.1538
28.301
28.3079
28.108
27.9882
28.0012
27.2574
27.3026
27.3946
27.5303
27.6882
27.8612
28.0245
28.1616
28.2506
28.2895
28.2742
28.1761
28.0018
27.785
27.5411
27.3323
27.1645
27.0848
27.0822
27.1868
27.3467
27.5406
27.7537
27.9705
28.1636
28.3157
28.351
28.1638
28.0327
28.022
27.2967
27.3324
27.4117
27.5341
27.6841
27.8532
28.0145
28.1514
28.2399
28.2718
28.2463
28.1438
27.9676
27.7523
27.5116
27.3026
27.1352
27.0578
27.0572
27.164
27.3357
27.5399
27.7567
27.9759
28.1738
28.33
28.3902
28.2201
28.0842
28.0516
27.3464
27.3749
27.4509
27.5668
27.708
27.8692
28.0274
28.1628
28.2463
28.2695
28.235
28.1271
27.9457
27.7292
27.4869
27.2742
27.105
27.0266
27.0257
27.133
27.315
27.5319
27.7576
27.9802
28.1833
28.3436
28.4263
28.2778
28.1398
28.0907
27.4048
27.4296
27.5066
27.6245
27.7641
27.9211
28.0765
28.2039
28.2751
28.2841
28.2429
28.1318
27.9457
27.7157
27.467
27.2483
27.0732
26.9902
26.9864
27.0929
27.2809
27.5131
27.7527
27.9824
28.1911
28.3568
28.4568
28.3357
28.1973
28.1387
27.4693
27.4958
27.5746
27.697
27.8379
27.9934
28.1449
28.264
28.3198
28.3159
28.2655
28.1471
27.9542
27.7161
27.453
27.2242
27.0395
26.9479
26.9382
27.0419
27.2313
27.4795
27.7367
27.9807
28.1966
28.3686
28.4798
28.3911
28.2543
28.1934
27.5356
27.5715
27.6548
27.784
27.9285
28.0843
28.233
28.3415
28.3814
28.3662
28.305
28.1753
27.9716
27.7229
27.444
27.2013
27.0029
26.8984
26.8804
26.9784
27.1683
27.426
27.7055
27.969
28.1985
28.3776
28.4938
28.4391
28.308
28.252
27.6018
27.6543
27.747
27.8855
28.036
28.1941
28.3395
28.4365
28.4612
28.4348
28.3618
28.2184
27.9995
27.7361
27.4406
27.1796
26.963
26.8415
26.8124
26.9012
27.0897
27.3519
27.6519
27.9412
28.1917
28.383
28.5015
28.4769
28.3553
28.3105
27.6682
27.7431
27.8506
28.0024
28.1612
28.3226
28.4639
28.5499
28.56
28.5223
28.4361
28.2764
28.0396
27.7571
27.4431
27.1602
26.922
26.7795
26.7362
26.8117
26.9958
27.2608
27.5706
27.891
28.1688
28.3829
28.504
28.5027
28.3947
28.3667
27.7292
27.8347
27.9649
28.1351
28.3056
28.4702
28.606
28.6813
28.6788
28.6291
28.5279
28.3499
28.0928
27.7884
27.4515
27.1448
26.8812
26.7139
26.6513
26.708
26.883
27.1469
27.4642
27.8025
28.1127
28.3583
28.4826
28.501
28.4167
28.4117
27.8065
27.945
28.1022
28.292
28.4753
28.6426
28.772
28.8371
28.8234
28.7603
28.641
28.442
28.1629
27.8357
27.4754
27.1438
26.8575
26.6656
26.5816
26.6153
26.7751
27.0314
27.3498
27.699
28.031
28.3177
28.4515
28.4931
28.4417
28.4607
27.8299
28.0193
28.2226
28.4472
28.6544
28.8277
28.9489
29.002
28.9757
28.8951
28.7537
28.5299
28.2251
27.8718
27.4842
27.1229
26.8058
26.5818
26.4667
26.4736
26.6093
26.8501
27.1632
27.5201
27.8728
28.2014
28.3579
28.4134
28.3957
28.4325
28.1237
28.3372
28.5522
28.7745
28.9706
29.1206
29.2219
29.2639
29.2263
29.1281
28.9619
28.7121
28.3824
28.0067
27.6019
27.2301
26.9026
26.6669
26.5413
26.5291
26.6434
26.8753
27.1819
27.533
27.8815
28.2162
28.4127
28.5242
28.5738
28.6623
27.3389
27.6817
28.0348
28.3767
28.6716
28.8885
29.0107
29.0369
28.9791
28.8575
28.6619
28.3864
28.0272
27.6167
27.1702
26.7558
26.3821
26.0926
25.9088
25.8604
25.9338
26.1207
26.3925
26.7217
27.0637
27.3885
27.6089
27.7319
27.7673
27.8226
27.6091
27.6865
27.8515
27.9158
28.0053
28.1045
28.214
28.3191
28.4094
28.4744
28.5034
28.4662
28.336
28.0727
27.6764
27.3181
27.0761
26.9865
26.9942
27.0664
27.1416
27.2519
27.5267
27.6957
27.5787
27.3671
27.2369
27.2719
27.4667
27.704
27.586
27.6624
27.8373
27.9165
28.0317
28.144
28.2561
28.3593
28.4452
28.5045
28.5277
28.4841
28.3503
28.0867
27.6943
27.3405
27.098
27.0018
27.0019
27.0736
27.1508
27.2602
27.5257
27.6885
27.5759
27.3706
27.2475
27.2818
27.4797
27.703
27.5488
27.6188
27.7932
27.8856
28.009
28.1268
28.2439
28.351
28.4396
28.501
28.5255
28.4822
28.3443
28.0741
27.6821
27.3358
27.0956
27.0012
27.003
27.0779
27.1556
27.2622
27.5129
27.6903
27.6018
27.3857
27.2607
27.2949
27.489
27.7039
27.4911
27.5593
27.7298
27.8348
27.9691
28.0959
28.2205
28.3334
28.4266
28.4911
28.5169
28.4709
28.33
28.0555
27.6686
27.3308
27.0932
27.0006
27.0037
27.0815
27.1604
27.2669
27.4982
27.6926
27.6441
27.4191
27.2803
27.3129
27.4954
27.706
27.4205
27.4893
27.652
27.7674
27.9144
28.0509
28.1843
28.3041
28.4007
28.4675
28.4952
28.4477
28.3016
28.0251
27.6454
27.3187
27.0874
26.9981
27.0038
27.0844
27.1649
27.2723
27.4852
27.6931
27.6906
27.4673
27.3071
27.3356
27.5006
27.7082
27.3408
27.4122
27.5666
27.6917
27.8488
27.9952
28.1374
28.2634
28.3641
28.4338
28.4637
28.4154
28.2644
27.9866
27.6159
27.302
27.0797
26.995
27.0043
27.0872
27.1691
27.2785
27.4795
27.6917
27.7345
27.5274
27.3428
27.362
27.5057
27.7099
27.2525
27.3331
27.4796
27.6137
27.7785
27.9334
28.0833
28.2152
28.3202
28.3927
28.4248
28.3756
28.2201
27.9421
27.5822
27.2825
27.0709
26.992
27.0058
27.0901
27.173
27.2855
27.4804
27.6896
27.7742
27.5936
27.3861
27.3906
27.5115
27.7109
27.165
27.2573
27.396
27.5385
27.7083
27.8698
28.026
28.163
28.2715
28.3468
28.3803
28.33
28.1704
27.8936
27.5463
27.2618
27.0615
26.9894
27.0084
27.093
27.1769
27.2933
27.484
27.6884
27.807
27.6629
27.4367
27.4198
27.5184
27.7102
27.0838
27.1894
27.3198
27.4686
27.6411
27.8084
27.9688
28.1093
28.2208
28.2981
28.3323
28.2801
28.1171
27.8432
27.5098
27.2409
27.0524
26.9878
27.0122
27.096
27.181
27.3021
27.4902
27.6905
27.8321
27.7337
27.4944
27.4521
27.5271
27.7085
27.0136
27.13
27.2525
27.4046
27.5783
27.7503
27.9142
28.057
28.1703
28.2486
28.2824
28.2278
28.0619
27.7927
27.4742
27.2211
27.0443
26.9876
27.0169
27.0989
27.1857
27.312
27.4988
27.6963
27.851
27.8026
27.558
27.4876
27.539
27.7081
26.9575
27.0801
27.1944
27.348
27.5217
27.6973
27.8647
28.0089
28.1222
28.2002
28.2325
28.1749
28.0068
27.7441
27.4408
27.2032
27.0378
26.9896
27.0221
27.1018
27.1913
27.3232
27.5096
27.7059
27.8681
27.8655
27.6234
27.5273
27.5553
27.7095
26.9159
27.0406
27.1474
27.3009
27.473
27.6504
27.8201
27.9667
28.0787
28.1549
28.1842
28.1231
27.9538
27.6992
27.4109
27.188
27.0329
26.9933
27.0272
27.105
27.1981
27.3357
27.5225
27.7188
27.8863
27.9217
27.6896
27.5728
27.5752
27.7124
26.8874
27.0116
27.1122
27.2637
27.433
27.6109
27.7817
27.9308
28.0415
28.1146
28.1394
28.0744
27.9047
27.6594
27.3854
27.1763
27.0298
26.9986
27.0322
27.1087
27.2063
27.3497
27.5369
27.7345
27.9039
27.9726
27.7572
27.625
27.5965
27.7175
26.872
26.993
27.089
27.2368
27.4025
27.5795
27.7504
27.901
28.0117
28.0808
28.0999
28.0308
27.8615
27.626
27.3654
27.1684
27.0289
27.0051
27.0366
27.113
27.2158
27.3647
27.5526
27.7521
27.9208
28.0197
27.8272
27.6827
27.6213
27.7252
26.8688
26.9845
27.077
27.2205
27.3818
27.5572
27.7274
27.8787
27.9901
28.0548
28.0671
27.9945
27.826
27.6001
27.3513
27.1648
27.0321
27.0128
27.0405
27.1179
27.2264
27.3807
27.5699
27.771
27.9393
28.0602
27.8992
27.745
27.6568
27.7375
26.889
26.9856
27.0751
27.2147
27.3714
27.5446
27.7135
27.8648
27.9763
28.0379
28.0427
27.9669
27.7994
27.5824
27.3437
27.1641
27.039
27.0216
27.0439
27.1232
27.2377
27.3974
27.5884
27.7905
27.9599
28.0927
27.9723
27.8115
27.7027
27.757
26.9279
27.0081
27.0914
27.2233
27.3716
27.5419
27.7094
27.8604
27.9713
28.0317
28.028
27.9492
27.7848
27.5776
27.3443
27.1703
27.0504
27.0279
27.0464
27.1286
27.2494
27.4144
27.6074
27.8104
27.9815
28.1208
28.044
27.881
27.7579
27.7898
26.9857
27.0543
27.1266
27.2548
27.3975
27.5627
27.7269
27.8768
27.9847
28.0381
28.0286
27.9501
27.7864
27.5818
27.3501
27.1839
27.0624
27.0298
27.048
27.134
27.261
27.4314
27.6268
27.8309
28.0036
28.1453
28.1124
27.9526
27.822
27.8341
27.0568
27.1173
27.1806
27.3066
27.4492
27.6114
27.7736
27.9184
28.0158
28.057
28.0385
27.9592
27.7956
27.5923
27.3641
27.1999
27.0692
27.0292
27.0487
27.1385
27.2717
27.4479
27.6464
27.8517
28.0266
28.1677
28.1748
28.0256
27.8931
27.8894
27.1377
27.1931
27.2511
27.3764
27.5194
27.6808
27.8383
27.9753
28.0605
28.0886
28.0614
27.9779
27.8127
27.6112
27.3843
27.2119
27.0716
27.0281
27.0479
27.1415
27.2808
27.4632
27.666
27.8732
28.0507
28.1924
28.2285
28.0988
27.9708
27.9534
27.2293
27.2808
27.3391
27.4637
27.6043
27.765
27.9187
28.047
28.1188
28.134
28.0983
28.0101
27.8416
27.6387
27.4056
27.2236
27.0753
27.0249
27.0421
27.1425
27.2877
27.4765
27.6848
27.8951
28.076
28.2175
28.2759
28.1718
28.0526
28.0282
27.3288
27.3812
27.4448
27.5693
27.7072
27.8652
28.0134
28.1315
28.1898
28.1927
28.1484
28.0542
27.8804
27.6726
27.4306
27.2394
27.0793
27.0195
27.0319
27.1394
27.2912
27.487
27.7022
27.9174
28.1027
28.2428
28.3187
28.2445
28.1381
28.1137
27.4335
27.4973
27.5658
27.6932
27.8317
27.9849
28.1252
28.231
28.2749
28.2666
28.2122
28.1096
27.9286
27.7135
27.4619
27.2589
27.0858
27.0136
27.0184
27.1278
27.2908
27.4937
27.7172
27.9395
28.1312
28.2696
28.3574
28.317
28.2273
28.2098
27.5456
27.6283
27.7028
27.8366
27.9776
28.1258
28.2583
28.3509
28.3794
28.3602
28.2954
28.1825
27.9916
27.7666
27.5032
27.2859
27.0971
27.0094
27.0027
27.1056
27.2795
27.4962
27.7285
27.9602
28.1612
28.299
28.3957
28.3886
28.3202
28.3129
27.6689
27.7709
27.8571
28.0011
28.1459
28.2892
28.413
28.4927
28.5065
28.4767
28.4014
28.2779
28.0754
27.8373
27.5591
27.3248
27.116
27.0073
26.9886
27.0823
27.2567
27.4886
27.7364
27.9803
28.1937
28.3342
28.4393
28.4588
28.4175
28.4227
27.8032
27.9237
28.0319
28.1883
28.3385
28.4781
28.5931
28.6601
28.6604
28.6199
28.5324
28.3961
28.1805
27.9261
27.6296
27.3757
27.1457
27.016
26.9813
27.0651
27.2344
27.4726
27.7377
27.9984
28.2298
28.3793
28.4897
28.5299
28.5187
28.5401
27.9664
28.1046
28.2398
28.4078
28.5641
28.6987
28.804
28.8578
28.8461
28.7926
28.6892
28.5351
28.303
28.0317
27.7172
27.4475
27.2014
27.0525
27.0016
27.0755
27.2403
27.4775
27.7474
28.0208
28.2707
28.4424
28.5636
28.6213
28.6372
28.6783
28.1351
28.2989
28.4619
28.6437
28.8075
28.9378
29.0334
29.0742
29.0496
28.9816
28.8623
28.6943
28.4511
28.1683
27.8422
27.5542
27.2869
27.1149
27.0457
27.1067
27.2612
27.496
27.7687
28.0527
28.3157
28.5122
28.6433
28.7123
28.7522
28.811
28.4466
28.6267
28.8063
28.9941
29.159
29.2826
29.3664
29.3954
29.3612
29.2824
29.1529
28.9737
28.7239
28.4418
28.1111
27.8188
27.5441
27.3605
27.2841
27.34
27.4846
27.7078
27.9716
28.253
28.519
28.7376
28.8741
28.9426
29.002
29.0755
29.1106
29.2765
29.4506
29.6264
29.7798
29.883
29.9438
29.9521
29.9033
29.8109
29.6663
29.4728
29.221
28.9516
28.644
28.3881
28.1412
27.9794
27.9116
27.9686
28.1043
28.3098
28.5528
28.8165
29.0704
29.2872
29.4314
29.534
29.6417
29.7536
27.8499
27.6217
27.6665
27.617
27.6228
27.6773
27.7669
27.8723
27.9762
28.0642
28.1245
28.1197
28.023
27.7651
27.3719
27.0845
26.9349
26.948
26.971
27.0412
27.122
27.2423
27.4111
27.4687
27.3804
27.2531
27.2146
27.2646
27.4669
27.5825
27.7982
27.549
27.6313
27.6086
27.6435
27.7147
27.8121
27.919
28.0201
28.1032
28.1575
28.1471
28.0449
27.787
27.3968
27.1108
26.9549
26.9625
26.9814
27.0505
27.1318
27.2467
27.4154
27.4768
27.3878
27.2687
27.2296
27.2822
27.4906
27.6131
27.7422
27.4866
27.5877
27.5853
27.6357
27.7129
27.8172
27.9292
28.0328
28.1164
28.1666
28.1531
28.048
27.7865
27.3967
27.1178
26.9639
26.9707
26.9885
27.0567
27.1375
27.2497
27.4161
27.4869
27.415
27.293
27.2516
27.3035
27.5051
27.6294
27.6571
27.4167
27.5269
27.5436
27.614
27.7003
27.8107
27.9265
28.0323
28.118
28.1711
28.157
28.0499
27.7849
27.396
27.1235
26.9693
26.9728
26.9912
27.0573
27.1382
27.2515
27.4103
27.4965
27.4555
27.3264
27.2765
27.3257
27.5125
27.6416
27.5482
27.3471
27.4585
27.4912
27.5801
27.6765
27.7935
27.9137
28.0222
28.1098
28.1635
28.148
28.0345
27.765
27.3845
27.122
26.969
26.9718
26.9921
27.0543
27.1374
27.2541
27.4045
27.5025
27.4936
27.3671
27.3048
27.348
27.5141
27.6507
27.4244
27.2771
27.3852
27.4331
27.5373
27.6444
27.7685
27.8934
28.0049
28.0946
28.1468
28.1301
28.0096
27.7375
27.3676
27.1181
26.9674
26.9698
26.9924
27.0508
27.1376
27.2577
27.4052
27.508
27.5244
27.4135
27.336
27.3701
27.5086
27.6579
27.2959
27.2085
27.3111
27.3735
27.49
27.6071
27.738
27.8676
27.9821
28.072
28.1231
28.1048
27.9776
27.7045
27.3472
27.1121
26.9654
26.9684
26.991
27.0483
27.1393
27.2623
27.4079
27.5141
27.5498
27.4606
27.3682
27.3917
27.4993
27.6632
27.1716
27.1437
27.2393
27.3159
27.4413
27.5668
27.7041
27.838
27.9548
28.044
28.094
28.0734
27.9399
27.668
27.3252
27.1056
26.9636
26.9688
26.9883
27.0486
27.1432
27.2681
27.4126
27.5199
27.5716
27.5061
27.4006
27.4127
27.4896
27.6667
27.0574
27.0835
27.1719
27.2628
27.3933
27.5261
27.6687
27.8063
27.9239
28.0127
28.0609
28.0373
27.8977
27.6298
27.3028
27.0995
26.9628
26.9703
26.9859
27.0508
27.1494
27.2759
27.4188
27.5268
27.5911
27.5491
27.4342
27.4346
27.4826
27.6685
26.9599
27.0309
27.1117
27.2147
27.3479
27.4871
27.6337
27.7741
27.8916
27.9796
28.0251
27.9981
27.8528
27.5918
27.2816
27.095
26.9641
26.9727
26.9854
27.0557
27.1583
27.2867
27.4262
27.5364
27.608
27.5893
27.4709
27.4594
27.4824
27.6691
26.8828
26.9888
27.0616
27.1721
27.3072
27.4516
27.6008
27.7431
27.8598
27.9463
27.9882
27.9574
27.8071
27.5558
27.2627
27.0925
26.9683
26.9758
26.9866
27.0636
27.17
27.3006
27.4366
27.5479
27.6239
27.6261
27.51
27.4855
27.4863
27.6668
26.8263
26.9555
27.021
27.1372
27.2724
27.4203
27.5712
27.7145
27.8304
27.9146
27.9516
27.9167
27.7623
27.5234
27.2472
27.0924
26.9751
26.9798
26.9901
27.0741
27.1842
27.3175
27.4516
27.562
27.64
27.6595
27.5501
27.5153
27.4934
27.6632
26.7895
26.9311
26.9904
27.11
27.2444
27.3942
27.5458
27.6896
27.8051
27.8858
27.917
27.878
27.7205
27.496
27.2361
27.0971
26.9838
26.9848
26.996
27.0866
27.1999
27.3364
27.4703
27.5808
27.6576
27.6908
27.5915
27.5489
27.505
27.6613
26.7698
26.9148
26.9698
27.0909
27.2235
27.374
27.5254
27.6692
27.7839
27.8615
27.8861
27.8429
27.6839
27.4747
27.2299
27.1057
26.9933
26.9916
27.0051
27.1008
27.2171
27.3563
27.4908
27.6027
27.6773
27.7208
27.6337
27.5861
27.5207
27.6622
26.7641
26.9069
26.9585
27.0798
27.2102
27.3605
27.511
27.6542
27.7677
27.843
27.8603
27.8135
27.6541
27.4605
27.2305
27.1186
27.0037
27.001
27.017
27.1168
27.2358
27.3775
27.5126
27.626
27.6989
27.7492
27.6767
27.6261
27.5418
27.6661
26.7746
26.9065
26.956
27.0766
27.2046
27.3542
27.5034
27.6457
27.7576
27.8318
27.841
27.7915
27.6327
27.4592
27.236
27.1351
27.0146
27.0135
27.0315
27.1344
27.256
27.4
27.5359
27.6511
27.7233
27.7768
27.7212
27.6695
27.5728
27.6747
26.8018
26.9246
26.9703
27.0875
27.2101
27.3567
27.5032
27.6447
27.7549
27.8277
27.83
27.7793
27.624
27.4641
27.2478
27.1536
27.0277
27.0291
27.0479
27.1531
27.2775
27.4241
27.5608
27.6774
27.7496
27.805
27.7666
27.716
27.6134
27.6938
26.8456
26.9652
27.0034
27.1162
27.2368
27.3805
27.5241
27.6646
27.7694
27.8359
27.8307
27.7814
27.6272
27.4751
27.265
27.1741
27.045
27.0471
27.0656
27.1724
27.2996
27.4495
27.5878
27.7052
27.7761
27.8333
27.8123
27.7651
27.6619
27.7241
26.9012
27.0168
27.0516
27.1643
27.2838
27.4268
27.5682
27.7036
27.7984
27.854
27.8402
27.7906
27.6373
27.4948
27.2857
27.1991
27.0667
27.0673
27.0843
27.1918
27.3219
27.4755
27.6165
27.7355
27.8056
27.8624
27.8573
27.8162
27.7164
27.7663
26.9674
27.0781
27.1124
27.2272
27.3458
27.4874
27.6252
27.7542
27.8388
27.8826
27.861
27.8094
27.6562
27.5216
27.312
27.2303
27.0926
27.0899
27.1038
27.211
27.3437
27.5014
27.6464
27.7683
27.8387
27.8936
27.9012
27.8698
27.7778
27.8186
27.0419
27.1499
27.1857
27.3033
27.4209
27.5605
27.6946
27.8172
27.8898
27.9217
27.8932
27.8392
27.685
27.5565
27.3471
27.2686
27.1244
27.1153
27.1242
27.2296
27.3645
27.5269
27.6767
27.803
27.8752
27.9267
27.9448
27.9261
27.8463
27.881
27.122
27.2304
27.272
27.393
27.5109
27.6488
27.7783
27.8924
27.953
27.9736
27.9387
27.8817
27.7267
27.6039
27.3934
27.3165
27.1633
27.1451
27.1461
27.2477
27.3836
27.5514
27.7074
27.8389
27.9142
27.9631
27.9896
27.9848
27.9215
27.9525
27.2086
27.3209
27.3713
27.4969
27.6174
27.753
27.8778
27.9831
28.032
28.0422
28.0016
27.941
27.7853
27.6664
27.4533
27.3758
27.2108
27.1811
27.171
27.2664
27.4014
27.5738
27.7378
27.8779
27.9565
28.006
28.0386
28.046
28.0019
28.0329
27.3029
27.4226
27.4845
27.6163
27.7407
27.8749
27.9949
28.0912
28.1291
28.13
28.0844
28.02
27.8629
27.7451
27.5275
27.4464
27.2699
27.2267
27.1993
27.2848
27.4178
27.5928
27.7656
27.9191
28.0033
28.0531
28.0901
28.1086
28.0867
28.1234
27.4064
27.5346
27.6137
27.7532
27.884
28.017
28.1317
28.2192
28.2469
28.2401
28.1889
28.1193
27.9596
27.839
27.6148
27.5307
27.3396
27.2772
27.2301
27.3027
27.4329
27.6103
27.7909
27.9578
28.0533
28.105
28.1453
28.1758
28.1785
28.2244
27.5233
27.6606
27.7641
27.9122
28.0504
28.1821
28.2911
28.3691
28.3864
28.3717
28.3131
28.2355
28.0714
27.9452
27.7143
27.6249
27.4147
27.3322
27.2666
27.3274
27.4509
27.6291
27.8166
27.9958
28.1065
28.1647
28.2108
28.2548
28.2792
28.3382
27.6645
27.8131
27.9401
28.0963
28.2406
28.3683
28.4691
28.5364
28.5417
28.5175
28.4499
28.3631
28.1934
28.0637
27.8248
27.7294
27.5053
27.4113
27.3284
27.3777
27.4863
27.6596
27.8509
28.0391
28.1668
28.2354
28.2905
28.3489
28.3951
28.4701
27.8234
27.9839
28.1308
28.2925
28.4388
28.5613
28.6518
28.7069
28.7012
28.6674
28.591
28.4974
28.3271
28.1923
27.9497
27.8676
27.6435
27.5459
27.448
27.485
27.5738
27.7281
27.9097
28.0972
28.2335
28.3094
28.3752
28.4491
28.5225
28.616
28.0054
28.1718
28.3306
28.4922
28.6351
28.75
28.8299
28.8735
28.8592
28.8172
28.7337
28.6383
28.4655
28.3392
28.1065
28.0452
27.8193
27.7189
27.6054
27.6277
27.6987
27.8337
28.0027
28.1836
28.3239
28.4167
28.4869
28.5688
28.6602
28.7658
28.2604
28.4137
28.5683
28.719
28.8508
28.9521
29.0209
29.0522
29.031
28.9838
28.8959
28.7895
28.6118
28.5001
28.2833
28.2546
28.0376
27.9444
27.8226
27.8302
27.8823
27.9964
28.1464
28.3146
28.4569
28.5687
28.6614
28.7607
28.8757
29.0027
28.0031
27.4888
27.4549
27.2638
27.1672
27.1615
27.2277
27.3355
27.4594
27.58
27.6791
27.7188
27.6689
27.4135
27.0095
26.7781
26.673
26.6911
26.7429
26.8892
27.0387
27.2879
27.4946
27.4724
27.3029
27.191
27.2056
27.2495
27.4802
27.5096
27.8981
27.3302
27.3636
27.2049
27.157
27.18
27.2631
27.3782
27.503
27.6219
27.7174
27.7512
27.6951
27.437
27.0304
26.7996
26.6897
26.6996
26.7496
26.8982
27.0496
27.3015
27.5108
27.5087
27.3482
27.2274
27.2341
27.2746
27.5136
27.5442
27.7755
27.224
27.2821
27.1527
27.1421
27.1797
27.2776
27.4001
27.5281
27.6451
27.7343
27.7623
27.6999
27.4378
27.0313
26.8063
26.6965
26.7029
26.7547
26.9042
27.055
27.303
27.5105
27.5152
27.3864
27.2645
27.2608
27.2904
27.5251
27.5481
27.6205
27.1138
27.1887
27.094
27.117
27.1723
27.2794
27.4128
27.5456
27.6639
27.7487
27.7724
27.7049
27.4385
27.0278
26.8051
26.6934
26.6986
26.7559
26.9042
27.0476
27.2758
27.4763
27.5061
27.4083
27.2956
27.2782
27.3006
27.5223
27.5517
27.4487
27.0143
27.0976
27.037
27.0867
27.158
27.2737
27.4115
27.5464
27.6657
27.7497
27.7738
27.7
27.4224
27.016
26.7992
26.6858
26.6929
26.7556
26.8979
27.0344
27.2411
27.4315
27.488
27.4162
27.3189
27.2879
27.3048
27.494
27.5524
27.2646
26.924
27.0091
26.9815
27.0535
27.139
27.2632
27.4057
27.5424
27.6621
27.7454
27.7674
27.6827
27.3984
26.9999
26.7905
26.677
26.6901
26.7556
26.8903
27.0223
27.2063
27.3844
27.4625
27.4144
27.3325
27.2935
27.3061
27.4542
27.5463
27.0814
26.8445
26.9264
26.9296
27.0194
27.1172
27.2497
27.3967
27.5352
27.6552
27.7373
27.7554
27.6597
27.3709
26.9816
26.7812
26.6694
26.6917
26.7562
26.8872
27.0108
27.1743
27.3413
27.433
27.4098
27.3408
27.2943
27.3034
27.409
27.5373
26.906
26.777
26.8523
26.8818
26.9848
27.0946
27.2345
27.3856
27.5256
27.6458
27.7253
27.739
27.632
27.341
26.963
26.7728
26.6645
26.694
26.7572
26.8876
27.0006
27.1499
27.3022
27.4026
27.4049
27.3465
27.2946
27.3008
27.3639
27.5319
26.7457
26.7207
26.7868
26.8407
26.9519
27.0726
27.2187
27.3734
27.5146
27.6349
27.7104
27.7193
27.6009
27.3103
26.9456
26.7668
26.6625
26.6948
26.7593
26.8893
26.9993
27.1336
27.2701
27.374
27.3997
27.3519
27.295
27.3001
27.3215
27.5286
26.6167
26.6729
26.7299
26.8056
26.9226
27.0527
27.2036
27.3612
27.503
27.6232
27.6936
27.6976
27.5679
27.2808
26.9307
26.7642
26.6622
26.6962
26.7628
26.8931
27.0032
27.1269
27.2493
27.3489
27.393
27.3586
27.2958
27.3002
27.2878
27.5227
26.5211
26.637
26.6842
26.7764
26.8979
27.0359
27.1902
27.3499
27.4919
27.6118
27.6761
27.6751
27.5342
27.2541
26.9193
26.7651
26.6642
26.6997
26.768
26.8994
27.0095
27.1312
27.2407
27.3333
27.3866
27.3672
27.2998
27.3044
27.2654
27.5085
26.4515
26.61
26.6505
26.7545
26.8785
27.0227
27.1795
27.3407
27.4821
27.6015
27.6592
27.653
27.5016
27.2317
26.9122
26.7711
26.6673
26.7057
26.7748
26.9079
27.0185
27.1413
27.2439
27.3307
27.3856
27.379
27.31
27.3153
27.2533
27.4897
26.4075
26.5914
26.6265
26.7395
26.8649
27.0135
27.1719
27.3341
27.4746
27.5931
27.6443
27.6324
27.4721
27.2154
26.9123
26.7825
26.6726
26.7151
26.7833
26.9185
27.031
27.154
27.2539
27.336
27.3893
27.3946
27.3263
27.3309
27.2545
27.4759
26.3858
26.5808
26.6124
26.7313
26.857
27.0087
27.1678
27.3307
27.4701
27.5875
27.6325
27.6149
27.4474
27.211
26.9164
26.7981
26.6809
26.7274
26.7934
26.9309
27.0462
27.17
27.2684
27.3472
27.3975
27.4121
27.3471
27.3507
27.2625
27.4671
26.3844
26.5773
26.6071
26.7294
26.855
27.0085
27.1678
27.331
27.4691
27.5855
27.6252
27.6021
27.4297
27.2141
26.9264
26.816
26.6922
26.742
26.8051
26.945
27.0634
27.1903
27.2868
27.3631
27.41
27.4327
27.3734
27.3763
27.2779
27.4633
26.3985
26.585
26.6134
26.74
26.8651
27.0211
27.1797
27.3422
27.4772
27.5913
27.6241
27.6011
27.4251
27.2229
26.942
26.8369
26.7067
26.7588
26.8181
26.9608
27.0823
27.2129
27.3098
27.3832
27.4282
27.456
27.4053
27.4083
27.3004
27.4657
26.4313
26.613
26.6377
26.7664
26.8917
27.0486
27.2056
27.3673
27.4992
27.609
27.6298
27.6058
27.4286
27.238
26.9618
26.8624
26.7242
26.7774
26.8321
26.9778
27.1029
27.2372
27.3365
27.4086
27.4518
27.4837
27.4423
27.446
27.3343
27.4769
26.4812
26.6599
26.6807
26.8093
26.9355
27.0927
27.2478
27.4087
27.5336
27.6338
27.6426
27.6159
27.4378
27.261
26.9861
26.8935
26.745
26.7979
26.848
26.9954
27.1247
27.2637
27.3664
27.4388
27.4804
27.5154
27.4835
27.4886
27.3783
27.4987
26.5455
26.7192
26.7369
26.8694
26.9957
27.1516
27.3033
27.4587
27.5749
27.6653
27.6628
27.6326
27.4529
27.2917
27.0169
26.9303
26.7694
26.8208
26.8653
27.0136
27.1468
27.2915
27.3998
27.4729
27.513
27.5484
27.5281
27.5355
27.4316
27.5321
26.6214
26.7864
26.8055
26.9404
27.066
27.2192
27.3667
27.5159
27.623
27.7032
27.6912
27.658
27.4764
27.3319
27.056
26.9735
26.7984
26.8479
26.8838
27.032
27.1687
27.3194
27.4352
27.5096
27.5472
27.5834
27.5756
27.5861
27.4935
27.5771
26.7059
26.862
26.8859
27.0223
27.1472
27.2978
27.4402
27.5837
27.6809
27.75
27.7298
27.6942
27.5128
27.3845
27.1047
27.0254
26.834
26.8787
26.9042
27.0503
27.1897
27.3468
27.4719
27.5491
27.5861
27.6234
27.6262
27.6408
27.5643
27.6346
26.7963
26.9463
26.9782
27.1156
27.2401
27.3886
27.5263
27.6641
27.7506
27.8091
27.7824
27.7452
27.564
27.4505
27.1644
27.0879
26.8784
26.9134
26.9267
27.0688
27.2097
27.3726
27.508
27.592
27.6301
27.6669
27.6788
27.6982
27.6421
27.7041
26.8934
27.0393
27.0825
27.2212
27.3466
27.4927
27.6262
27.7569
27.8339
27.8827
27.8511
27.8128
27.6319
27.531
27.2367
27.1647
26.9296
26.9543
26.9516
27.0873
27.2289
27.3969
27.5417
27.6358
27.6758
27.7125
27.7327
27.7582
27.7258
27.7838
26.9976
27.142
27.1995
27.34
27.4681
27.6116
27.741
27.8646
27.933
27.9731
27.9378
27.8986
27.7174
27.6264
27.322
27.2522
26.988
27.0031
26.9808
27.1078
27.2483
27.4204
27.5742
27.6802
27.7251
27.7641
27.7911
27.8248
27.8167
27.8748
27.1113
27.2552
27.3313
27.4744
27.6068
27.7479
27.8728
27.9891
28.0495
28.0813
28.043
28.0026
27.8202
27.736
27.4212
27.349
27.0584
27.0642
27.0197
27.1343
27.2704
27.445
27.607
27.7256
27.7785
27.8234
27.8576
27.9017
27.9154
27.9782
27.2389
27.3838
27.4821
27.6279
27.7645
27.9024
28.0216
28.1298
28.1822
28.2057
28.1639
28.1212
27.9374
27.8588
27.5282
27.4628
27.1461
27.1409
27.0732
27.1735
27.2982
27.4729
27.6411
27.7725
27.8357
27.8889
27.9352
27.991
28.0259
28.0964
27.3859
27.534
27.6515
27.7992
27.9379
28.0705
28.1829
28.2823
28.326
28.3405
28.2946
28.2489
28.0647
27.9868
27.6447
27.5969
27.2535
27.2388
27.1473
27.2313
27.3398
27.5074
27.6772
27.8204
27.8976
27.9641
28.021
28.0913
28.1485
28.2299
27.5495
27.6991
27.8306
27.9789
28.1162
28.2422
28.347
28.437
28.4718
28.4775
28.4269
28.379
28.1961
28.1203
27.7724
27.7524
27.3871
27.3641
27.2485
27.3156
27.4042
27.5583
27.7215
27.87
27.9625
28.0439
28.1135
28.1955
28.2739
28.3747
27.7145
27.8667
28.0067
28.153
28.2866
28.4034
28.5005
28.5812
28.6074
28.6059
28.5512
28.5045
28.3238
28.2565
27.911
27.9246
27.5407
27.5184
27.3807
27.431
27.4991
27.6348
27.7849
27.9306
28.0354
28.1305
28.2156
28.3123
28.4102
28.5147
27.9073
28.0426
28.1783
28.3158
28.441
28.5476
28.6338
28.7044
28.7231
28.7168
28.6585
28.6123
28.4264
28.3816
28.0489
28.1115
27.72
27.7033
27.5481
27.5828
27.632
27.7476
27.8806
28.0181
28.1297
28.2345
28.3325
28.4399
28.5536
28.6729
28.3633
27.6066
27.5124
27.1925
26.9878
26.9028
26.9198
27.0065
27.1298
27.2707
27.406
27.4989
27.5147
27.298
26.879
26.7299
26.6323
26.703
26.7528
26.8536
26.9147
27.0214
27.2126
27.3067
27.2428
27.1708
27.2065
27.2554
27.5629
27.5632
28.2066
27.3737
27.3798
27.098
26.9555
26.9056
26.9477
27.047
27.1758
27.3185
27.4519
27.5401
27.5501
27.3253
26.9037
26.7567
26.6459
26.704
26.7486
26.8543
26.9206
27.0311
27.2237
27.3245
27.2803
27.2084
27.2422
27.287
27.606
27.606
28.0329
27.2252
27.2654
27.0172
26.9221
26.9047
26.9677
27.0778
27.2098
27.3502
27.4767
27.5578
27.5579
27.3313
26.9131
26.772
26.6536
26.7039
26.7409
26.8476
26.919
27.0319
27.2179
27.3196
27.2899
27.2247
27.2561
27.2967
27.6147
27.5935
27.8159
27.0807
27.1384
26.9303
26.884
26.897
26.9761
27.1
27.2375
27.379
27.499
27.5747
27.5657
27.336
26.9156
26.7754
26.6517
26.7001
26.7302
26.8324
26.901
27.0112
27.1787
27.2865
27.2745
27.2195
27.2569
27.2974