/*--------------------------------*- C++ -*----------------------------------*\
  =========                 |
  \\      /  F ield         | OpenFOAM: The Open Source CFD Toolbox
   \\    /   O peration     | Website:  https://openfoam.org
    \\  /    A nd           | Version:  12
     \\/     M anipulation  |
\*---------------------------------------------------------------------------*/
FoamFile
{
    format      ascii;
    class       volScalarField;
    location    "1500/air";
    object      alphat;
}
// * * * * * * * * * * * * * * * * * * * * * * * * * * * * * * * * * * * * * //

dimensions      [1 -1 -1 0 0 0 0];

internalField   nonuniform List<scalar> 
243000
(
0.000148159
0.000150804
0.000149932
0.000147402
0.000143605
0.000138929
0.000133736
0.000128317
0.000122883
0.000117602
0.000112579
0.000107952
0.000103804
0.000100186
9.70614e-05
9.4415e-05
9.22277e-05
9.06014e-05
8.96965e-05
8.9657e-05
9.04164e-05
9.16195e-05
9.26881e-05
9.2936e-05
9.18111e-05
8.88055e-05
8.32062e-05
0.000368405
0.000339168
0.000301444
0.000549563
0.000555086
0.000543854
0.00052472
0.000502301
0.000478656
0.000454966
0.000432
0.00041023
0.000389965
0.000371409
0.000354788
0.000340152
0.00032759
0.000317101
0.000308727
0.000302552
0.000299144
0.000299081
0.000302904
0.000310251
0.000319797
0.000329446
0.000336858
0.000339893
0.000336677
0.000328087
0.000309343
0.000289476
0.000259485
0.000679437
0.000725608
0.000742148
0.000745053
0.000739761
0.000729237
0.000715251
0.000699042
0.000681432
0.000663059
0.000644394
0.00062597
0.000608016
0.00059098
0.000575173
0.000561
0.000548965
0.000540357
0.000536103
0.00053675
0.000541228
0.000547202
0.000551443
0.000550802
0.000542497
0.000524523
0.000497092
0.000458524
0.000414591
0.000358598
0.000667418
0.000725771
0.000753347
0.0007632
0.000762162
0.000754505
0.000742448
0.000727549
0.000710826
0.000693034
0.000674738
0.000656518
0.000638697
0.000621815
0.000606293
0.000592662
0.000581576
0.000574389
0.000571857
0.000574122
0.000579875
0.000586815
0.000591974
0.000592547
0.000585808
0.000569703
0.000544073
0.000507261
0.000463716
0.000408478
0.000634589
0.00070227
0.00074034
0.000758772
0.000764484
0.000761774
0.00075346
0.000741531
0.000727132
0.000711107
0.000694207
0.000677068
0.000660136
0.000644067
0.000629379
0.000616756
0.000606976
0.000601376
0.000600494
0.000604059
0.000610589
0.000617886
0.0006233
0.000624405
0.000618713
0.000604237
0.000580567
0.000546353
0.000504804
0.000452642
0.000594888
0.000660726
0.000708395
0.000736703
0.00075086
0.00075497
0.000752198
0.000744331
0.000733156
0.000719738
0.000705096
0.000689735
0.000674282
0.000659524
0.000646053
0.000634765
0.0006265
0.000622546
0.000623189
0.000627829
0.000634871
0.000642236
0.00064759
0.000648872
0.000643888
0.00063081
0.000609076
0.000577664
0.000538781
0.000490344
0.000574805
0.000618818
0.000665406
0.000701443
0.000724545
0.00073642
0.000740116
0.000737646
0.000730821
0.000720997
0.000709049
0.000695943
0.000682461
0.000669395
0.000657454
0.000647731
0.000641096
0.000638774
0.000640803
0.000646355
0.000653764
0.000661075
0.000666237
0.000667513
0.000663024
0.000651132
0.000631233
0.000602558
0.00056662
0.000521977
0.00057839
0.000594652
0.000629645
0.00066513
0.00069227
0.000709686
0.000719797
0.000723122
0.000721295
0.000715647
0.000707151
0.000696898
0.00068569
0.000674597
0.000664428
0.000656421
0.000651469
0.000650722
0.000654005
0.000660347
0.000668048
0.000675277
0.000680219
0.00068142
0.000677292
0.000666414
0.000648213
0.000622111
0.000589242
0.000548206
0.000599585
0.00059031
0.000605667
0.000633499
0.000660963
0.000681947
0.000695956
0.000703301
0.000706233
0.000704972
0.000700308
0.000693257
0.0006847
0.000675843
0.000667627
0.000661429
0.000658172
0.000658902
0.000663325
0.000670368
0.000678332
0.0006855
0.000690262
0.000691391
0.000687556
0.000677562
0.000660924
0.000637268
0.000607333
0.000569699
0.00063152
0.000606862
0.00059962
0.000611685
0.000633285
0.00065466
0.000671441
0.000682392
0.000688502
0.000690555
0.00068954
0.000685827
0.000680166
0.000673719
0.000667585
0.000663238
0.000661651
0.000663736
0.000669184
0.000676861
0.000685088
0.000692254
0.000696922
0.000698029
0.000694477
0.000685289
0.000670158
0.000648636
0.000621387
0.000587013
0.000666617
0.000637
0.000613833
0.00060632
0.000614584
0.000630805
0.000647523
0.000660804
0.000669826
0.000674751
0.000676255
0.000675511
0.000672703
0.000668765
0.000664761
0.000662267
0.000662268
0.000665628
0.000671957
0.000680208
0.000688711
0.000695956
0.000700645
0.000701808
0.000698583
0.000690192
0.000676294
0.000656685
0.000631918
0.000600805
0.000701586
0.000673586
0.000643548
0.00062065
0.000611484
0.000615819
0.000627394
0.000640143
0.000650819
0.000658191
0.000662197
0.000663512
0.00066308
0.000661506
0.000659602
0.000658892
0.000660378
0.000664874
0.000672105
0.000680902
0.000689691
0.000697061
0.00070183
0.000703106
0.000700202
0.000692503
0.000679765
0.000661892
0.000639385
0.000611259
0.000736056
0.000710541
0.000680027
0.00065019
0.000627064
0.000615877
0.000616363
0.000623803
0.000633295
0.000641712
0.000647667
0.000650999
0.000652248
0.000652569
0.000652573
0.000653502
0.000656329
0.000661812
0.000669725
0.000679001
0.000688126
0.000695739
0.000700722
0.000702219
0.000699613
0.0006925
0.000680875
0.000664637
0.000644174
0.000618766
0.00076968
0.000745841
0.000717701
0.000687221
0.000657419
0.000633562
0.000620022
0.000616905
0.000620715
0.000627299
0.000633671
0.000638381
0.000641179
0.0006427
0.000644193
0.00064652
0.000650494
0.000656787
0.000665236
0.000674901
0.000684332
0.000692231
0.000697532
0.000699396
0.000697261
0.000690798
0.000680105
0.000665243
0.000646665
0.000623741
0.000802346
0.000780066
0.000755367
0.000726446
0.00069546
0.000665148
0.000640106
0.000624149
0.00061776
0.000618328
0.000622261
0.000626754
0.000630368
0.000632897
0.000635138
0.000638444
0.000643278
0.000650174
0.00065899
0.000668916
0.000678599
0.000686798
0.000692483
0.000694831
0.000693281
0.000687606
0.000677851
0.000664217
0.00064723
0.00062656
0.000833981
0.000813109
0.000790407
0.000764189
0.000734998
0.000703591
0.00067266
0.000646346
0.000628153
0.000618894
0.000616589
0.00061813
0.000620942
0.000623704
0.000626334
0.000629908
0.00063517
0.000642379
0.000651355
0.000661382
0.000671227
0.000679699
0.000685799
0.000688712
0.000687847
0.000683037
0.000674331
0.000661938
0.000646561
0.000628056
0.000864444
0.000844836
0.000823766
0.000800028
0.000773316
0.000743435
0.000711312
0.000679551
0.000651948
0.000631801
0.000620105
0.000615341
0.000614787
0.000616228
0.000618479
0.00062176
0.000626791
0.000633897
0.000642755
0.000652683
0.000662549
0.000671228
0.000677741
0.000681277
0.000681188
0.000677442
0.000670186
0.000659388
0.000645624
0.000629027
0.000893529
0.000875006
0.00085532
0.000833751
0.000809456
0.00078191
0.000751085
0.000718051
0.000685355
0.000656585
0.00063484
0.000621193
0.000614417
0.000612199
0.000612618
0.000614875
0.000619054
0.000625387
0.000633727
0.000643293
0.000653003
0.000661808
0.000668827
0.000673175
0.000674173
0.000671659
0.000665782
0.000656509
0.000644309
0.00062944
0.000920994
0.000903418
0.00088497
0.000865304
0.00084318
0.000818008
0.00078937
0.000757413
0.000723349
0.000689752
0.000660046
0.000637139
0.000622041
0.000613733
0.000610292
0.000610219
0.00061282
0.000617906
0.000625241
0.000634144
0.00064359
0.000652493
0.000659903
0.000664952
0.000666953
0.000665604
0.000661025
0.000653214
0.000642525
0.00062925
0.000946659
0.000929967
0.000912754
0.000894769
0.000874572
0.000851566
0.000825222
0.000795271
0.000762052
0.000726964
0.000692633
0.000662342
0.000638732
0.000622668
0.000613298
0.000609162
0.000609007
0.000612097
0.000617928
0.000625776
0.00063463
0.000643381
0.000651008
0.000656613
0.000659507
0.000659239
0.000655887
0.000649479
0.000640229
0.000628463
0.000970442
0.000954713
0.000939299
0.000922545
0.000903869
0.000882682
0.00085843
0.000830676
0.000799297
0.00076484
0.000728901
0.000694154
0.000663707
0.000639799
0.000623172
0.000613264
0.000608864
0.000608866
0.000612414
0.000618627
0.000626437
0.000634687
0.000642275
0.000648242
0.000651862
0.000652589
0.00065038
0.000645274
0.000637407
0.000627081
0.000992452
0.000978306
0.000963748
0.000948086
0.000930764
0.000911209
0.000888885
0.000863304
0.000834132
0.000801419
0.000765951
0.000729511
0.000694811
0.000664512
0.000640632
0.000623896
0.000613838
0.000609427
0.000609645
0.000613401
0.000619539
0.000626793
0.000633972
0.000640024
0.000644152
0.000645735
0.000644562
0.00064065
0.000634113
0.00062516
0.00101271
0.000999413
0.000985729
0.000971132
0.000955101
0.000937103
0.000916628
0.000893189
0.000866368
0.000835949
0.000802188
0.000766116
0.000729689
0.000695298
0.000665462
0.00064195
0.000625369
0.000615303
0.000610943
0.00061119
0.000614761
0.000620339
0.000626579
0.00063232
0.000636646
0.000638864
0.000638574
0.000635742
0.000630459
0.000622815
0.00103028
0.00101794
0.00100524
0.000991765
0.000977052
0.000960633
0.000942036
0.000920793
0.000896454
0.000868675
0.000837384
0.00080307
0.000766975
0.000730883
0.000697162
0.000668015
0.000644928
0.000628403
0.000618252
0.000613696
0.000613574
0.00061645
0.000620957
0.000625781
0.000629847
0.000632348
0.00063272
0.000630801
0.000626636
0.000620249
0.00104602
0.00103472
0.00102309
0.0010108
0.000997499
0.000982791
0.000966242
0.000947406
0.00092583
0.00090109
0.000872917
0.000841401
0.000807275
0.000771636
0.000736342
0.000703456
0.000674814
0.000651701
0.000634832
0.000624088
0.000618716
0.000617512
0.000619028
0.000621874
0.000624869
0.000627057
0.000627676
0.000626385
0.000623114
0.00061788
0.00106082
0.00105087
0.00104061
0.00102986
0.00101837
0.00100581
0.000991822
0.000975987
0.00095784
0.00093689
0.000912718
0.000885119
0.000854376
0.000821194
0.000786703
0.000752427
0.000719984
0.000691026
0.000667111
0.000648927
0.000636459
0.000629038
0.000625521
0.0006246
0.000624999
0.000625585
0.000625507
0.000624144
0.000621242
0.00061677
0.0010781
0.00107034
0.00106231
0.00105395
0.00104516
0.00103573
0.00102538
0.00101373
0.0010003
0.000984479
0.000965706
0.000943528
0.000917871
0.000889136
0.000858035
0.000825138
0.000791333
0.000758413
0.000728251
0.000702205
0.000681057
0.000664957
0.00065343
0.000645627
0.00064049
0.000636897
0.000633878
0.000630657
0.000626739
0.000622077
0.00110956
0.00110545
0.00110099
0.00109648
0.00109212
0.00108786
0.00108346
0.00107846
0.00107215
0.00106378
0.00105261
0.00103807
0.00101986
0.000998137
0.000973439
0.000945295
0.000913486
0.00088001
0.000846482
0.000814525
0.000785331
0.000759675
0.000737834
0.00071978
0.00070509
0.000692925
0.000682551
0.000673339
0.000664758
0.00065722
0.0012013
0.00120181
0.00120219
0.00120415
0.0012081
0.00121327
0.0012188
0.00122376
0.00122732
0.00122836
0.00122639
0.00122111
0.00121226
0.00120019
0.00118492
0.00116549
0.00114045
0.00111227
0.00108238
0.00105208
0.00102235
0.000993822
0.000967061
0.000942597
0.000920456
0.000899115
0.000878921
0.000860186
0.000843178
0.000829264
0.00153262
0.00153047
0.00153299
0.00154193
0.00155315
0.00156202
0.00156909
0.00157444
0.00157825
0.00157849
0.00157692
0.00157397
0.00156974
0.001565
0.0015589
0.00155114
0.00153838
0.00152572
0.00151345
0.0015025
0.00149264
0.00148402
0.00147656
0.00147063
0.00146563
0.00145524
0.00144401
0.00143292
0.00142401
0.00141633
0.000185945
0.000190377
0.000188234
0.000183465
0.0001771
0.000169801
0.000162059
0.000154273
0.000146706
0.000139565
0.00013301
0.000127186
0.000122122
0.000117904
0.000114519
0.000112032
0.000110489
0.000110169
0.000111459
0.00011448
0.000118545
0.000122481
0.000125207
0.000125897
0.00012399
0.000118873
0.000110354
9.70578e-05
0.000407459
0.000382184
0.000776125
0.000868906
0.000844245
0.000778521
0.000703523
0.000632404
0.000569571
0.000515345
0.000468771
0.000429375
0.000396283
0.000368312
0.000344531
0.000324951
0.000308745
0.000296023
0.000286478
0.00028191
0.000282311
0.000288209
0.000299544
0.000315239
0.000332267
0.000346393
0.00035167
0.00034549
0.000328619
0.000300646
0.000293789
0.000312965
0.00120047
0.00137196
0.00138335
0.00131988
0.00122776
0.00112886
0.00103379
0.000947365
0.000870523
0.000803896
0.000746919
0.000698401
0.000657021
0.000623106
0.000595536
0.000574037
0.000558189
0.000549625
0.000545257
0.000545396
0.000552499
0.000567942
0.000588494
0.000607378
0.000615474
0.00060479
0.000575541
0.000525001
0.000480507
0.000459236
0.00145875
0.00167341
0.00171767
0.00167749
0.00159619
0.00149724
0.00139388
0.00129559
0.00120515
0.00112408
0.00105336
0.00099274
0.000941194
0.000899639
0.000867261
0.000843566
0.000828486
0.000821093
0.000815398
0.000810417
0.000810176
0.000818987
0.000835438
0.000853719
0.000860309
0.000845527
0.000807465
0.000742006
0.000673887
0.000627406
0.00158869
0.00180159
0.0018869
0.0018849
0.00182503
0.00173997
0.00164129
0.00154662
0.00145591
0.00137033
0.00129486
0.00122969
0.00117447
0.00113108
0.00109914
0.00107863
0.00106958
0.00106764
0.00106199
0.00105358
0.00104745
0.00104906
0.00105964
0.00107454
0.00107937
0.00106219
0.00101952
0.000946298
0.000863406
0.000800337
0.00165679
0.00185353
0.00194997
0.00197318
0.00194349
0.00188154
0.0018077
0.00171858
0.00163034
0.00154547
0.00147378
0.00141061
0.00135691
0.00131624
0.0012889
0.00127576
0.00127569
0.00128066
0.0012791
0.00126939
0.00125797
0.00125337
0.00125806
0.00127061
0.00127314
0.0012549
0.00121041
0.00113451
0.00104432
0.0009705
0.00168081
0.00182455
0.00191994
0.00196246
0.00196276
0.00193102
0.00187938
0.00181201
0.00173885
0.00166895
0.00160031
0.00154132
0.0014927
0.00145862
0.00143914
0.00143652
0.0014473
0.0014601
0.00146334
0.00145394
0.00144028
0.00143152
0.00143115
0.00144003
0.00144293
0.00142482
0.00138073
0.00130598
0.00121306
0.00113128
0.00165634
0.00173642
0.00180866
0.00186316
0.00189527
0.00190168
0.00187936
0.00183868
0.00178663
0.00173186
0.00167705
0.00162798
0.00158864
0.00156292
0.00155339
0.00156327
0.00158615
0.00160861
0.00161636
0.00160917
0.00159585
0.00158503
0.00158015
0.00158541
0.00158773
0.00157274
0.00153135
0.0014606
0.00136918
0.00128194
0.0016398
0.00165828
0.00169562
0.0017384
0.00177872
0.00180672
0.0018153
0.00180746
0.00178166
0.0017477
0.00171021
0.00167533
0.00164781
0.00163339
0.00163539
0.00165852
0.00169387
0.00172627
0.00174191
0.00173879
0.00172727
0.00171454
0.00170671
0.00170867
0.00170935
0.00169774
0.00166332
0.00159918
0.00151275
0.0014211
0.00167431
0.00162379
0.00160687
0.00162088
0.00165076
0.00168502
0.00171226
0.00172821
0.00173056
0.00172185
0.00170515
0.00168757
0.0016748
0.00167403
0.00168864
0.0017252
0.00177289
0.00181369
0.00183808
0.00184199
0.00183375
0.00182176
0.00181277
0.0018119
0.00181099
0.00180316
0.00177536
0.00172054
0.00163996
0.00154756
0.00173167
0.00164101
0.00156743
0.00153636
0.00153917
0.00156292
0.00159423
0.001624
0.00164645
0.00166088
0.00166745
0.00166937
0.00167367
0.00168795
0.0017161
0.00176612
0.00182578
0.00188068
0.00191391
0.0019243
0.00191985
0.0019099
0.00190095
0.00189708
0.00189477
0.0018876
0.00186469
0.00181998
0.00174934
0.00166228
0.00182428
0.00169925
0.0015875
0.00150767
0.00146766
0.00146672
0.00148606
0.0015164
0.00154876
0.00157838
0.00160378
0.00162597
0.00164842
0.00167848
0.00172081
0.00178399
0.00185517
0.00191964
0.00196301
0.00198412
0.00198744
0.0019812
0.00197256
0.00196611
0.00195938
0.00194918
0.00193221
0.00189773
0.00183977
0.00176199
0.00194507
0.00180149
0.00165977
0.0015438
0.00146487
0.00142329
0.00141282
0.00142932
0.00145802
0.00149259
0.00152874
0.00156547
0.00160414
0.00164993
0.00170639
0.00178192
0.00186364
0.00193743
0.00199059
0.00202096
0.00203308
0.00203297
0.00202742
0.00202075
0.00201283
0.00200022
0.00198283
0.00195636
0.0019106
0.00184552
0.00210214
0.00194876
0.00179117
0.00164785
0.00153139
0.00144883
0.00140286
0.00138787
0.00139696
0.00142352
0.00145938
0.00150198
0.00155049
0.00160828
0.00167745
0.00176369
0.00185452
0.00193688
0.00199917
0.00203968
0.00206069
0.00206758
0.00206653
0.00206173
0.00205427
0.00204277
0.00202514
0.00200135
0.0019678
0.00191771
0.00228791
0.00213634
0.00197516
0.00181649
0.00167244
0.00155257
0.00146499
0.00141143
0.00138907
0.00139254
0.00141444
0.00145197
0.00150101
0.00156251
0.0016401
0.00173405
0.00183174
0.00192121
0.00199176
0.00204188
0.00207178
0.0020863
0.00209098
0.00208993
0.00208465
0.00207546
0.00206071
0.00204203
0.00201658
0.00197875
0.00250011
0.00236008
0.00220432
0.00203997
0.00187888
0.00173087
0.00160637
0.00151199
0.00144996
0.00141905
0.00141459
0.00143314
0.00147091
0.00152702
0.00160228
0.00169906
0.00180021
0.00189437
0.00197154
0.00202994
0.0020684
0.00209085
0.00210229
0.00210675
0.00210562
0.00210123
0.00209234
0.00207695
0.00205506
0.00202677
0.00273232
0.0026099
0.00246553
0.00230342
0.00213525
0.00197022
0.00181825
0.00168816
0.00158603
0.00151483
0.00147429
0.00146236
0.00147666
0.00151523
0.00157836
0.00166645
0.00176607
0.00186137
0.00194254
0.00200744
0.00205366
0.00208403
0.00210318
0.0021149
0.00212057
0.0021208
0.0021152
0.00210289
0.00208381
0.0020597
0.00297706
0.00287266
0.00274296
0.00259038
0.00242428
0.00225259
0.00208382
0.00192712
0.00179056
0.00168015
0.00159939
0.00154958
0.00153002
0.00154006
0.00157926
0.00164902
0.00173686
0.00182836
0.00191017
0.00197935
0.00203245
0.00207058
0.00209655
0.00211412
0.00212508
0.0021299
0.00212819
0.00212041
0.00210425
0.00208329
0.00322378
0.00313711
0.00302485
0.00288656
0.0027289
0.0025587
0.00238278
0.00220941
0.00204708
0.00190338
0.0017843
0.00169418
0.00163477
0.00160723
0.00161349
0.00165463
0.00172096
0.00180058
0.00187875
0.00194807
0.00200438
0.00204746
0.00207924
0.00210248
0.00211893
0.00212923
0.00213208
0.0021285
0.00211686
0.0020999
0.00346295
0.00339377
0.00329944
0.00317755
0.00303235
0.00286922
0.00269365
0.00251242
0.00233325
0.00216402
0.00201196
0.00188359
0.00178309
0.00171453
0.00168028
0.00168445
0.00172193
0.00178061
0.00184844
0.00191422
0.00197034
0.00201679
0.00205343
0.00208168
0.00210351
0.00211945
0.00212811
0.00212951
0.00212384
0.00211122
0.00368712
0.0036326
0.00355433
0.00344844
0.0033172
0.00316426
0.00299391
0.00281122
0.00262243
0.00243475
0.00225581
0.00209366
0.00195465
0.00184596
0.00176876
0.00173192
0.00173208
0.00176477
0.00181646
0.00187236
0.00192746
0.00197779
0.00201919
0.00205202
0.00207937
0.0021012
0.0021167
0.00212397
0.00212431
0.00211812
0.00388603
0.00384106
0.00377453
0.0036819
0.00356362
0.00342146
0.00325819
0.00307708
0.0028827
0.00268127
0.0024806
0.00228993
0.00211747
0.00197252
0.00185644
0.00177778
0.00173904
0.0017382
0.00176811
0.00181653
0.0018709
0.00192154
0.00196891
0.0020083
0.00204381
0.00207286
0.00209618
0.00211095
0.0021185
0.00212116
0.00404179
0.00399948
0.00393891
0.00385502
0.00374649
0.00361302
0.00345539
0.00327515
0.00307558
0.00286266
0.00264481
0.00243245
0.00223491
0.00206171
0.00191667
0.00180304
0.00172538
0.00168754
0.0016884
0.00172032
0.00177238
0.00183098
0.00188747
0.00193927
0.00198387
0.00202372
0.00205782
0.0020849
0.00210532
0.00211925
0.00412451
0.00407792
0.00401696
0.00393632
0.00383282
0.00370391
0.0035482
0.00336608
0.00316111
0.00294065
0.00271444
0.00249349
0.00228626
0.00210026
0.00194196
0.00180696
0.00169654
0.00162173
0.00158477
0.00158561
0.0016195
0.00167599
0.00174244
0.00181068
0.00187442
0.00193262
0.00198439
0.00202977
0.00206753
0.00209965
0.00408996
0.00403342
0.00396749
0.00388664
0.00378552
0.00365926
0.00350514
0.00332439
0.00312324
0.00291112
0.00269782
0.00249332
0.00230165
0.00212756
0.00197663
0.00184042
0.00171327
0.00160789
0.00152941
0.00148288
0.00147138
0.00149362
0.00154208
0.00160866
0.00168471
0.00176347
0.00183991
0.00191121
0.00197499
0.00203345
0.00388249
0.0038226
0.00375868
0.0036842
0.00359293
0.00347982
0.0033436
0.00318796
0.00302068
0.00284917
0.00268037
0.00251956
0.00236742
0.0022277
0.00210368
0.00198527
0.00186251
0.00174525
0.0016381
0.00154733
0.00147866
0.00143693
0.00142405
0.00143985
0.00148138
0.00154342
0.00161927
0.0017024
0.00178688
0.00187226
0.00350727
0.00346956
0.00343473
0.00339502
0.0033431
0.00327401
0.00318779
0.00308907
0.00298362
0.00287563
0.00276764
0.00265982
0.00255181
0.00244967
0.00235758
0.00226533
0.0021612
0.00205271
0.00194285
0.00183636
0.00173711
0.0016495
0.0015775
0.00152523
0.00149523
0.00148842
0.00150406
0.00153966
0.00159158
0.0016643
0.00318544
0.00320333
0.0032262
0.00323976
0.0032385
0.00322002
0.0031857
0.00314022
0.0030847
0.00302311
0.00295663
0.00288526
0.00280906
0.00273376
0.00266504
0.0025952
0.00251594
0.00243225
0.00234463
0.00225644
0.00216961
0.00208594
0.00200613
0.0019336
0.0018701
0.00181731
0.0017775
0.00175179
0.00174135
0.00176537
0.00312102
0.003152
0.00319295
0.00323135
0.00325431
0.00326139
0.00325193
0.00322798
0.00319275
0.00315026
0.00310215
0.00304781
0.00298916
0.00293288
0.00287969
0.0028251
0.00276967
0.00271404
0.00265959
0.00260846
0.0025619
0.00252043
0.00248197
0.00244934
0.00241877
0.00238928
0.00236298
0.00234133
0.00232599
0.00233832
0.00316645
0.00319516
0.00322509
0.00325196
0.00326242
0.00326137
0.00325013
0.00323027
0.00320334
0.0031709
0.00313438
0.00309403
0.00305041
0.00300983
0.00296942
0.00293298
0.00290151
0.00287351
0.00285163
0.00283763
0.00283233
0.00283565
0.00284713
0.0028605
0.00287613
0.00288966
0.00290404
0.00292027
0.00293466
0.00294174
0.000220088
0.000223827
0.000218507
0.000211199
0.000202835
0.00019369
0.000184178
0.000174725
0.000165623
0.00015713
0.000149396
0.000142558
0.000136642
0.000131788
0.000128007
0.000125466
0.000124332
0.000125338
0.000129504
0.000136695
0.000144776
0.00015149
0.000155619
0.000156638
0.000154317
0.000148179
0.000137941
0.000122253
0.000103654
8.97458e-05
0.00100508
0.00112634
0.00111845
0.00105481
0.000964605
0.000873826
0.000791678
0.00072022
0.000658514
0.000605936
0.000560878
0.000522639
0.000489501
0.00046197
0.000438027
0.000418092
0.000401622
0.000394292
0.000397885
0.000414366
0.000441785
0.000474619
0.000505468
0.000526999
0.000531628
0.000513604
0.000477485
0.00042609
0.000381472
0.000335919
0.00159183
0.00182934
0.00187527
0.0018149
0.00170756
0.0015842
0.00146178
0.00134849
0.00124667
0.00115774
0.00108031
0.00101393
0.000956568
0.000909558
0.000870372
0.000838603
0.000813446
0.000798734
0.000791969
0.000799592
0.000825451
0.000865236
0.000908034
0.000941196
0.000945329
0.000917312
0.000857029
0.000765586
0.000673278
0.000596596
0.00201125
0.00228665
0.00236852
0.00233197
0.00223446
0.00210929
0.00197591
0.00184547
0.00172364
0.00161458
0.00151819
0.00143495
0.0013638
0.00130703
0.0012626
0.00122994
0.00120756
0.00119182
0.00117705
0.00117438
0.00118894
0.00122253
0.00126569
0.00130347
0.0013105
0.00127708
0.00120205
0.00108594
0.000958933
0.000853678
0.00229765
0.00257919
0.00267835
0.00266645
0.00258363
0.00247077
0.00234294
0.00221068
0.0020823
0.00196588
0.00186145
0.00177045
0.00169396
0.00163483
0.00159251
0.00156658
0.00155271
0.00153797
0.00151396
0.00150095
0.00150733
0.00153147
0.00156963
0.00160854
0.00162039
0.0015876
0.0015081
0.00138015
0.00123254
0.00110349
0.00250322
0.00274166
0.0028547
0.0028668
0.00281821
0.00271802
0.00259514
0.00246327
0.00233689
0.00222484
0.00212112
0.00202931
0.00195418
0.00189909
0.00186453
0.00185085
0.00184758
0.00183472
0.00180493
0.00178021
0.00177639
0.00179207
0.00182374
0.00186196
0.00187882
0.0018541
0.00177693
0.00164787
0.00149032
0.00134355
0.00263674
0.00283793
0.00293668
0.00295657
0.00292286
0.00284648
0.00274595
0.00263917
0.00252548
0.00241262
0.00230908
0.00222097
0.00215344
0.0021077
0.00208547
0.0020879
0.00209606
0.00208461
0.00205081
0.00201652
0.0020019
0.00200937
0.00203442
0.00207044
0.00209138
0.00207615
0.00201286
0.00189018
0.00173213
0.00157222
0.00275283
0.00287246
0.00293649
0.00295563
0.00293676
0.00288434
0.00280942
0.0027228
0.00262719
0.00253027
0.00243956
0.00236292
0.00230155
0.00226769
0.0022613
0.00228202
0.00230114
0.00229265
0.00225479
0.00221182
0.00218995
0.00218966
0.00220834
0.00224086
0.00226358
0.00225901
0.00221344
0.00210883
0.00195781
0.00178757
0.00281842
0.00284719
0.00286985
0.00288218
0.00287608
0.00284728
0.00280084
0.00274022
0.00266662
0.00258978
0.00251537
0.0024522
0.00240476
0.00238615
0.00239743
0.00243666
0.00246653
0.00245971
0.00241919
0.00237303
0.00234736
0.00233945
0.002352
0.00237926
0.00240366
0.00240987
0.00237769
0.00229384
0.00215495
0.00198586
0.00285144
0.00281366
0.00279563
0.00278795
0.00278177
0.00276724
0.00274172
0.00270377
0.00265423
0.00260123
0.0025466
0.00250062
0.00247049
0.00246937
0.00249872
0.00255584
0.00259566
0.00258829
0.00254906
0.00250621
0.00247659
0.00246347
0.00247109
0.00249123
0.00250988
0.00251959
0.00250221
0.00244036
0.00232599
0.00216992
0.00290019
0.00281413
0.00274421
0.00270451
0.00268345
0.00266889
0.00265538
0.00263576
0.00260758
0.00257513
0.00254206
0.00251564
0.00250486
0.00252214
0.00257067
0.0026446
0.00269176
0.00269033
0.00265602
0.00261438
0.00258167
0.00256856
0.00257069
0.00258287
0.0025948
0.00260123
0.00259253
0.00255278
0.00246441
0.00233201
0.00299318
0.00288326
0.00276314
0.0026624
0.00261209
0.00258081
0.00256622
0.00255515
0.00254278
0.00252803
0.00251332
0.00250581
0.00251509
0.00254978
0.00261718
0.00270518
0.00276353
0.00277017
0.00274306
0.00270713
0.00267605
0.00265742
0.00265382
0.00266025
0.00266869
0.00267194
0.00266586
0.00264055
0.00258026
0.00247475
0.00309369
0.00296373
0.00281954
0.00269671
0.00259684
0.00252978
0.00250176
0.00248559
0.00247921
0.00247599
0.00247554
0.00248345
0.00250842
0.00255935
0.00264335
0.00274277
0.00280755
0.00282248
0.00280531
0.002776
0.00274954
0.0027307
0.00272324
0.00272549
0.00273134
0.00273388
0.00273034
0.00271487
0.00267781
0.00259835
0.00323388
0.00308954
0.00292296
0.00276852
0.00263974
0.00254936
0.00249067
0.00245168
0.00243992
0.00243817
0.00244439
0.00246157
0.00249577
0.00255871
0.00265506
0.00276267
0.00283333
0.00285744
0.00285043
0.00283028
0.00280836
0.00279061
0.00278114
0.00278093
0.0027855
0.00279
0.00279116
0.00278239
0.00275863
0.0026983
0.00341057
0.00325665
0.00308898
0.00291692
0.0027607
0.00263488
0.00254204
0.00248255
0.00244843
0.00243487
0.00243595
0.00245409
0.00249077
0.0025558
0.00265898
0.00277041
0.00284555
0.00287841
0.00288175
0.00287099
0.00285439
0.002839
0.00282952
0.00282882
0.00283397
0.0028421
0.00284721
0.00284263
0.00282297
0.002779
0.00362773
0.00348576
0.00331766
0.00313615
0.00295925
0.0028021
0.00267397
0.00257924
0.00251536
0.00247772
0.00246435
0.00247301
0.00250282
0.00256304
0.00266122
0.0027714
0.00284879
0.00288897
0.00290188
0.00289992
0.00288928
0.00287769
0.00287033
0.00287161
0.00287946
0.00288967
0.00289759
0.00289591
0.00288003
0.00284621
0.00389154
0.00375768
0.00359565
0.00341261
0.0032236
0.00304281
0.00288234
0.0027505
0.00265012
0.00258047
0.0025399
0.00252638
0.00253814
0.00258435
0.00266631
0.00276866
0.00284557
0.00289124
0.00291238
0.00291855
0.00291434
0.00290804
0.00290478
0.00290833
0.00291792
0.00293044
0.00294146
0.00294329
0.00293101
0.00290265
0.00417569
0.0040554
0.00390441
0.00372606
0.00353268
0.00333684
0.00315096
0.00298545
0.00284699
0.00273873
0.00266141
0.00261476
0.00259836
0.00261711
0.00267554
0.00275923
0.00283325
0.00288301
0.00291167
0.00292547
0.00292801
0.002927
0.00292819
0.00293578
0.00294827
0.0029637
0.00297771
0.00298437
0.00297576
0.0029519
0.00446847
0.00436218
0.00422348
0.00405302
0.00386064
0.00365695
0.00345334
0.0032605
0.0030869
0.00293828
0.00281824
0.00272921
0.00267315
0.00265543
0.00267856
0.00273648
0.00279975
0.00285282
0.00288945
0.00291264
0.00292382
0.00293049
0.00293787
0.00295068
0.00296812
0.00298746
0.00300552
0.0030173
0.00301321
0.00299493
0.00475474
0.00465908
0.0045309
0.00436871
0.00417998
0.0039732
0.00375803
0.00354415
0.00334015
0.00315295
0.00298836
0.00285164
0.00274772
0.0026836
0.00266377
0.00268655
0.00273229
0.00278315
0.00282777
0.00286344
0.00288884
0.00290866
0.00292546
0.00294563
0.00297109
0.00299661
0.00302061
0.00303842
0.00304083
0.00302993
0.00501372
0.004924
0.0048027
0.00464709
0.00446237
0.00425469
0.0040316
0.00380109
0.00357093
0.00334846
0.00314134
0.00295725
0.00280399
0.00268983
0.00262226
0.00259944
0.00261595
0.00265575
0.00270548
0.00275535
0.00279953
0.00283735
0.00287046
0.00290448
0.00294224
0.00297936
0.00301341
0.00304085
0.00305397
0.00305343
0.00522073
0.00513091
0.0050118
0.0048598
0.00467773
0.00446926
0.0042396
0.00399495
0.00374222
0.00348953
0.00324672
0.00302366
0.00283008
0.00267393
0.00256374
0.00249544
0.00246954
0.00248006
0.00251736
0.00257052
0.00262977
0.00268904
0.00274624
0.00280291
0.0028603
0.00291559
0.00296647
0.00301426
0.00304611
0.00306162
0.00534276
0.00524733
0.00512629
0.00497502
0.00479388
0.00458406
0.00434887
0.00409343
0.0038245
0.00355231
0.00328952
0.00304751
0.00283589
0.00265996
0.0025261
0.00242729
0.00236097
0.00232773
0.00232561
0.00235102
0.00239844
0.00246127
0.00253409
0.00261357
0.00269651
0.00277886
0.00285663
0.00292743
0.00298107
0.00302444
0.00533795
0.00523522
0.00511104
0.00496019
0.00478094
0.0045726
0.00433803
0.00408264
0.0038134
0.00354428
0.00328981
0.00306043
0.00286239
0.00269677
0.00256522
0.00246126
0.00237139
0.00229856
0.0022452
0.00221494
0.00221169
0.0022358
0.00228597
0.00235946
0.00245085
0.00255291
0.00265772
0.00275893
0.00284739
0.00292149
0.00516828
0.00506234
0.00494042
0.00479736
0.00463027
0.00443714
0.00422046
0.00398737
0.00374904
0.00351835
0.00330772
0.00312243
0.00296491
0.0028321
0.00272171
0.00263114
0.00253657
0.00244213
0.00235036
0.00226767
0.00220183
0.00215891
0.00214424
0.00216201
0.00221278
0.00229259
0.0023932
0.00250511
0.00261696
0.00272111
0.00483081
0.00473263
0.00462871
0.00451597
0.0043868
0.00423804
0.00407205
0.00389638
0.00372154
0.00355697
0.003409
0.00327862
0.00316679
0.0030698
0.0029847
0.00290888
0.00281893
0.00272028
0.00261443
0.0025066
0.00240306
0.00230887
0.00223034
0.00217513
0.00215002
0.00215866
0.00219935
0.00226675
0.00235281
0.00245441
0.00440766
0.00434637
0.00429994
0.00425354
0.00419136
0.00411094
0.00401423
0.00390774
0.00379969
0.00369631
0.00360032
0.00351107
0.00343021
0.00335449
0.00328346
0.00321266
0.00312683
0.00303376
0.00293483
0.00283282
0.00273054