/*--------------------------------*- C++ -*----------------------------------*\
  =========                 |
  \\      /  F ield         | OpenFOAM: The Open Source CFD Toolbox
   \\    /   O peration     | Website:  https://openfoam.org
    \\  /    A nd           | Version:  12
     \\/     M anipulation  |
\*---------------------------------------------------------------------------*/
FoamFile
{
    format      ascii;
    class       volScalarField;
    location    "1500/air";
    object      epsilon;
}
// * * * * * * * * * * * * * * * * * * * * * * * * * * * * * * * * * * * * * //

dimensions      [0 2 -3 0 0 0 0];

internalField   nonuniform List<scalar> 
243000
(
2.42484
2.97595
3.39152
3.72025
3.94838
4.07495
4.10921
4.06468
3.95539
3.79541
3.59741
3.37927
3.15337
2.92871
2.7073
2.49182
2.2848
2.09705
1.93952
1.81915
1.72803
1.64336
1.5363
1.38316
1.17965
0.936398
0.179941
0.155894
0.125653
0.0958837
1.51962
1.82154
1.98619
2.05877
2.07245
2.04369
1.98366
1.90135
1.80346
1.69567
1.58259
1.46944
1.35885
1.25392
1.15606
1.06691
0.987995
0.924716
0.881207
0.860101
0.856252
0.857338
0.846551
0.808401
0.734718
0.626417
0.500409
0.369067
0.258912
0.160239
1.4792
1.79967
1.92448
1.94652
1.90486
1.82435
1.72106
1.60639
1.48775
1.37039
1.25767
1.15268
1.05617
0.969761
0.893977
0.829565
0.777506
0.741882
0.725102
0.728492
0.747689
0.773427
0.792024
0.789526
0.754439
0.681843
0.580226
0.455527
0.336555
0.217786
1.40336
1.80136
2.013
2.09208
2.08291
2.02029
1.92458
1.81067
1.68836
1.56446
1.44355
1.32953
1.22401
1.1294
1.0469
0.977961
0.924382
0.891047
0.880096
0.891557
0.91963
0.953912
0.979892
0.983058
0.950006
0.873735
0.760978
0.616656
0.470981
0.321908
1.20744
1.63298
1.91101
2.05597
2.10187
2.07897
2.01118
1.91669
1.80688
1.68972
1.57182
1.45802
1.35118
1.25479
1.17089
1.10199
1.05076
1.02259
1.01904
1.03843
1.07363
1.11359
1.14384
1.15032
1.11929
1.04251
0.924633
0.77049
0.607627
0.438025
0.995725
1.36114
1.67497
1.88211
1.99153
2.02358
2.00074
1.93819
1.85183
1.7516
1.64658
1.54105
1.4396
1.34704
1.2662
1.20118
1.15532
1.13436
1.13896
1.16587
1.20684
1.25046
1.28281
1.29089
1.26156
1.18622
1.06767
0.910708
0.738779
0.556841
0.899425
1.1197
1.38953
1.62534
1.7897
1.87805
1.90568
1.88611
1.83375
1.76047
1.67406
1.58266
1.49228
1.40812
1.33415
1.27607
1.23779
1.22529
1.23821
1.27207
1.31774
1.36367
1.39677
1.40533
1.3774
1.30461
1.1885
1.03361
0.859328
0.671702
0.917285
0.994738
1.17857
1.38692
1.56185
1.68114
1.75298
1.77668
1.76268
1.72119
1.66027
1.58884
1.51321
1.44087
1.37675
1.32787
1.29865
1.29519
1.3162
1.35637
1.40589
1.45334
1.48646
1.49494
1.46822
1.39865
1.28703
1.13755
0.966435
0.778126
1.02291
0.974364
1.05026
1.19954
1.36035
1.49232
1.58491
1.63471
1.65441
1.64501
1.61218
1.56369
1.5063
1.44852
1.39641
1.3582
1.33891
1.34444
1.3731
1.4189
1.47166
1.52019
1.55315
1.56144
1.53595
1.47001
1.36425
1.22276
1.05823
0.873292
1.19644
1.06017
1.02066
1.08126
1.1977
1.32117
1.42385
1.49351
1.53306
1.54601
1.53869
1.51362
1.47622
1.43455
1.3958
1.36906
1.35998
1.37399
1.40957
1.46031
1.51586
1.56538
1.59838
1.60674
1.58274
1.52086
1.42225
1.2894
1.13343
0.955368
1.40836
1.22777
1.09691
1.05491
1.09629
1.1832
1.27793
1.35674
1.41196
1.44243
1.45147
1.44614
1.42787
1.4028
1.37782
1.36271
1.36346
1.38547
1.42686
1.48178
1.53975
1.59039
1.62395
1.63284
1.61089
1.5537
1.46167
1.33801
1.19206
1.02433
1.64292
1.45345
1.26625
1.13391
1.08199
1.10268
1.16377
1.23433
1.2957
1.33913
1.36294
1.37046
1.36729
1.35734
1.34567
1.34164
1.35146
1.38042
1.42751
1.48606
1.54611
1.59776
1.632
1.64177
1.62201
1.56929
1.48428
1.37011
1.23484
1.07875
1.89828
1.7073
1.49594
1.30622
1.16966
1.10558
1.10554
1.14372
1.19484
1.24166
1.2755
1.29452
1.3014
1.30291
1.30283
1.30865
1.32639
1.36105
1.412
1.47326
1.53526
1.58838
1.62404
1.6354
1.61781
1.56921
1.49153
1.38723
1.26282
1.11902
2.17173
1.97594
1.76053
1.54479
1.35092
1.20685
1.12832
1.10856
1.12674
1.16099
1.19526
1.22106
1.23644
1.24473
1.25312
1.26687
1.29096
1.32986
1.38335
1.44629
1.50958
1.56411
1.60167
1.61555
1.6014
1.55758
1.48644
1.39102
1.27754
1.14625
2.46152
2.26202
2.05383
1.82651
1.60183
1.3998
1.24515
1.15137
1.11336
1.11379
1.1331
1.1563
1.17535
1.18883
1.20099
1.21979
1.24814
1.28967
1.34426
1.40765
1.47148
1.52715
1.56679
1.58386
1.57395
1.53598
1.47165
1.38458
1.2809
1.16189
2.76583
2.56331
2.35456
2.12784
1.89287
1.65957
1.44847
1.28246
1.17404
1.1197
1.10445
1.11058
1.12424
1.13823
1.15198
1.17147
1.20129
1.24344
1.29758
1.36008
1.4235
1.47978
1.52144
1.54206
1.537
1.50541
1.44875
1.37033
1.27691
1.17024
3.08176
2.87676
2.66685
2.44287
2.20618
1.95983
1.71564
1.49408
1.31655
1.19491
1.12644
1.09778
1.09261
1.09867
1.10968
1.12683
1.15429
1.19452
1.24638
1.30654
1.36841
1.42458
1.46794
1.49224
1.49251
1.46847
1.42203
1.35447
1.27134
1.17568
3.40514
3.19765
2.9866
2.76633
2.53149
2.28166
2.02188
1.76555
1.53315
1.34513
1.2124
1.13244
1.09279
1.07874
1.07935
1.09032
1.11227
1.14691
1.19422
1.25042
1.30949
1.36483
1.41021
1.43913
1.44647
1.4309
1.39399
1.33669
1.26355
1.178
3.73064
3.52094
3.3095
3.09374
2.86247
2.61368
2.34854
2.07415
1.80541
1.56309
1.36658
1.2256
1.13701
1.08909
1.06859
1.06666
1.07949
1.10638
1.14673
1.19745
1.25316
1.30743
1.35395
1.38652
1.40008
1.39225
1.3641
1.31654
1.25303
1.17693
4.05305
3.84214
3.63236
3.42185
3.19532
2.94975
2.68435
2.40234
2.11299
1.83283
1.58274
1.38073
1.23462
1.14028
1.08663
1.06259
1.06035
1.0759
1.10702
1.15043
1.20111
1.25288
1.29938
1.3345
1.35326
1.35236
1.33231
1.29394
1.23957
1.17251
4.36799
4.15862
3.96009
3.75172
3.52833
3.28592
3.02245
2.73861
2.43949
2.13648
1.84744
1.59291
1.38892
1.24047
1.14279
1.08629
1.06101
1.05978
1.07798
1.11142
1.1549
1.20232
1.24727
1.28359
1.30628
1.31149
1.29878
1.26879
1.22315
1.16476
4.6735
4.47594
4.27876
4.07323
3.85378
3.61578
3.3564
3.07482
2.77338
2.45919
2.14575
1.85176
1.59694
1.39346
1.24488
1.14648
1.08923
1.06403
1.06417
1.08375
1.11707
1.15769
1.19906
1.2349
1.26001
1.27022
1.26394
1.24151
1.20418
1.15405
4.96722
4.77354
4.57963
4.37871
4.16503
3.93368
3.68122
3.40587
3.10806
2.79177
2.46628
2.14683
1.85259
1.59966
1.39884
1.25213
1.15438
1.09703
1.07222
1.07274
1.09162
1.12215
1.15727
1.19041
1.21603
1.2297
1.22873
1.21296
1.18334
1.14104
5.23134
5.045
4.85798
4.66464
4.45961
4.23812
3.99643
3.73193
3.44365
3.13318
2.80623
2.47421
2.15361
1.86105
1.61187
1.41441
1.26926
1.17114
1.11301
1.08716
1.08591
1.10134
1.12624
1.15354
1.17709
1.19205
1.19492
1.18465
1.16176
1.12691
5.47549
5.29935
5.12193
4.93898
4.74601
4.53868
4.31287
4.06531
3.79372
3.49758
3.17945
2.84674
2.51294
2.19253
1.90237
1.65527
1.45758
1.30947
1.20753
1.14516
1.1146
1.10763
1.11594
1.13194
1.1491
1.16202
1.16625
1.15966
1.14209
1.11394
5.71161
5.55163
5.38991
5.22396
5.05041
4.86534
4.66473
4.44458
4.20111
3.93139
3.63477
3.31454
2.98011
2.64455
2.32268
2.02897
1.77408
1.56484
1.40458
1.29009
1.21519
1.17204
1.15205
1.14709
1.14975
1.15362
1.15386
1.14698
1.1316
1.10781
5.99483
5.86561
5.73374
5.5988
5.45906
5.31198
5.15378
4.97983
4.78415
4.56065
4.30456
4.01444
3.69501
3.35732
3.01498
2.67832
2.35884
2.07261
1.83119
1.63825
1.49191
1.38664
1.31461
1.26761
1.23762
1.21727
1.20057
1.18297
1.16163
1.13643
6.53222
6.45891
6.37993
6.30084
6.22492
6.1515
6.07618
5.99166
5.88647
5.74899
5.56935
5.34101
5.06383
4.74538
4.39934
4.02545
3.62865
3.23969
2.87871
2.56043
2.29105
2.07073
1.89503
1.75796
1.65186
1.56772
1.49862
1.43923
1.38549
1.3395
8.27151
8.27993
8.2861
8.32508
8.40528
8.51174
8.62645
8.73011
8.80442
8.8245
8.78016
8.66525
8.47585
8.22237
7.90897
7.52196
7.04243
6.52742
6.00894
5.51208
5.05193
4.6357
4.26718
3.94848
3.67464
3.42375
3.19772
2.99764
2.82376
2.68681
17.0076
16.9342
17.0195
17.3196
17.6991
18.0014
18.2442
18.4282
18.5591
18.5641
18.5054
18.3985
18.2473
18.0789
17.8641
17.5942
17.1586
16.7322
16.325
15.966
15.6471
15.3715
15.1356
14.9498
14.7931
14.4781
14.1438
13.8194
13.5633
13.344
4.78956
5.98366
6.70821
7.17078
7.40383
7.43877
7.31142
7.06397
6.73125
6.34475
5.93438
5.52821
5.13651
4.77565
4.44899
4.1659
3.93176
3.77435
3.72612
3.79188
3.89853
3.92857
3.78765
3.43799
2.90447
2.24513
1.56348
0.922247
0.604749
0.116851
3.09965
3.50022
3.72562
3.85376
3.88434
3.82627
3.69524
3.51346
3.30111
3.0734
2.84365
2.62546
2.42593
2.25107
2.10609
1.99641
1.93007
1.92504
2.00617
2.17547
2.3785
2.52776
2.55198
2.42645
2.16783
1.804
1.38855
0.952558
0.598951
0.318377
2.79267
3.05755
3.17603
3.22002
3.19915
3.12268
2.99963
2.84267
2.66513
2.47846
2.2929
2.11765
1.95854
1.82116
1.71044
1.63427
1.60127
1.62883
1.73796
1.92941
2.15477
2.33663
2.40961
2.34971
2.1614
1.87184
1.52197
1.1347
0.794908
0.501994
2.6167
2.80216
2.87755
2.89516
2.86368
2.79144
2.68444
2.55094
2.40043
2.2422
2.08479
1.93555
1.79971
1.68303
1.59086
1.53266
1.5178
1.56343
1.68456
1.87973
2.10668
2.29766
2.39293
2.36486
2.21848
1.97131
1.66043
1.30101
0.970674
0.668034
2.44895
2.55641
2.60481
2.61617
2.59116
2.53431
2.44869
2.34036
2.21621
2.08395
1.95116
1.82445
1.70873
1.6099
1.53401
1.49148
1.49259
1.553
1.68597
1.88231
2.1033
2.29193
2.39444
2.38545
2.26649
2.05161
1.77183
1.43844
1.12166
0.819995
2.25216
2.28902
2.31607
2.32916
2.32034
2.28597
2.22631
2.14498
2.04757
1.94062
1.83165
1.72672
1.63053
1.5492
1.48919
1.46202
1.4787
1.5539
1.69407
1.88922
2.10315
2.28411
2.38663
2.38585
2.28829
2.10132
1.85017
1.54491
1.24541
0.953771
2.0162
1.98963
2.00454
2.02513
2.03685
2.02967
1.99926
1.94666
1.8766
1.79492
1.70959
1.62634
1.54958
1.48578
1.4416
1.42976
1.46144
1.55041
1.6973
1.8902
2.09389
2.26405
2.36279
2.36823
2.28339
2.12051
1.8965
1.6206
1.34263
1.06763
1.79604
1.69146
1.68576
1.71494
1.74891
1.76919
1.7677
1.74362
1.70015
1.64391
1.58232
1.51988
1.46192
1.41523
1.38683
1.38985
1.43563
1.53554
1.68874
1.87797
2.07022
2.2284
2.32248
2.33195
2.25877
2.11397
1.91495
1.66838
1.41382
1.15849
1.64247
1.48823
1.44481
1.46175
1.49869
1.5319
1.54789
1.54456
1.5248
1.49162
1.45092
1.40791
1.36779
1.33738
1.32413
1.34105
1.3995
1.50864
1.66418
1.84824
2.02965
2.17817
2.26699
2.27948
2.21773
2.08945
1.91052
1.69223
1.46171
1.22704
1.60096
1.38887
1.29294
1.2753
1.29807
1.33258
1.35922
1.3699
1.36405
1.34502
1.32043
1.29391
1.26959
1.25396
1.25447
1.28377
1.35286
1.46911
1.62542
1.80313
1.97485
2.11386
2.19795
2.21324
2.16175
2.04942
1.89048
1.69538
1.48898
1.27512
1.62975
1.39684
1.24117
1.16753
1.15697
1.1757
1.20139
1.21963
1.22483
1.21657
1.19954
1.18344
1.1712
1.16787
1.17967
1.21931
1.29657
1.4172
1.57234
1.74353
1.90625
2.03678
2.11709
2.13554
2.09385
1.99767
1.85743
1.68418
1.49896
1.30535
1.71172
1.46914
1.28008
1.15456
1.09124
1.07444
1.08259
1.09711
1.10671
1.10644
1.09692
1.08397
1.07776
1.08257
1.10255
1.14972
1.23224
1.35422
1.50619
1.67066
1.82486
1.94833
2.02606
2.04835
2.01629
1.93524
1.81325
1.66129
1.49498
1.32057
1.84757
1.59368
1.38207
1.22339
1.11186
1.04671
1.01936
1.01378
1.01633
1.01691
1.01167
1.00204
0.99548
1.00266
1.02668
1.07774
1.16207
1.28225
1.42897
1.58597
1.73219
1.84992
1.92636
1.95339
1.93107
1.86458
1.7607
1.62882
1.48112
1.32363
2.02644
1.76997
1.55204
1.37036
1.221
1.10701
1.03174
0.989294
0.96761
0.956767
0.948184
0.938418
0.930896
0.933795
0.956585
1.00696
1.08907
1.20406
1.34333
1.49178
1.63033
1.74334
1.81959
1.85217
1.83984
1.78774
1.70157
1.58878
1.46038
1.32042
2.24912
1.9959
1.77952
1.58589
1.41034
1.25493
1.12985
1.0391
0.979086
0.941109
0.916749
0.898856
0.886424
0.88317
0.897998
0.942082
1.01725
1.1234
1.25268
1.39122
1.52193
1.63077
1.70761
1.74638
1.74437
1.70666
1.638
1.54485
1.43505
1.31197
2.51092
2.27216
2.06295
1.86136
1.66666
1.47988
1.31193
1.17182
1.06379
0.985848
0.931253
0.893798
0.868731
0.855062
0.858009
0.889089
0.951902
1.04505
1.16137
1.28829
1.41049
1.51513
1.59296
1.63815
1.6471
1.62453
1.57374
1.49882
1.40576
1.29856
2.81012
2.59069
2.3896
2.18229
1.97284
1.76409
1.56374
1.38145
1.22568
1.10066
1.00567
0.935663
0.887345
0.856331
0.843049
0.855309
0.89988
0.975321
1.07516
1.18831
1.30085
1.40085
1.48007
1.53238
1.55339
1.54449
1.50929
1.45033
1.37302
1.28078
3.1324
2.9269
2.7307
2.52452
2.31002
2.08901
1.86701
1.65294
1.45669
1.28624
1.14609
1.03593
0.953865
0.896017
0.859561
0.84979
0.870591
0.92292
1.00233
1.09952
1.20159
1.29674
1.37616
1.43339
1.46416
1.46725
1.4456
1.40099
1.3381
1.25965
3.45195
3.26077
3.0763
2.87791
2.66546
2.44022
2.20613
1.97084
1.74423
1.53581
1.35336
1.20068
1.07874
0.984828
0.918099
0.880518
0.873845
0.8996
0.954808
1.03195
1.11989
1.20683
1.28355
1.34319
1.38097
1.39437
1.38413
1.35221
1.30239
1.23645
3.75793
3.58855
3.42172
3.23688
3.03262
2.80984
2.57205
2.32578
2.08001
1.8442
1.62737
1.43554
1.27254
1.13839
1.0329
0.961195
0.920801
0.915325
0.94123
0.992756
1.06136
1.13603
1.20677
1.26542
1.30701
1.32811
1.32707
1.30587
1.26717
1.21271
4.05902
3.91522
3.77047
3.60402
3.41368
3.20011
2.96712
2.72076
2.46874
2.21888
1.97938
1.75677
1.55647
1.38155
1.23133
1.11668
1.03402
0.987843
0.976944
0.996549
1.03829
1.09411
1.15332
1.20647
1.2476
1.27251
1.27813
1.26505
1.23535
1.19074
4.36695
4.25385
4.13571
3.9934
3.82432
3.62943
3.41333
3.18201
2.94155
2.69652
2.45191
2.21237
1.98317
1.76773
1.57277
1.40217
1.26378
1.16106
1.0968
1.0699
1.07485
1.10242
1.14021
1.17927
1.21297
1.23595
1.24384
1.23534
1.21185
1.17456
4.71069
4.6345
4.55064
4.44236
4.30768
4.14883
3.97171
3.78256
3.58469
3.37721
3.15836
2.92702
2.68615
2.43892
2.19717
1.96001
1.7375
1.54479
1.39285
1.28772
1.22787
1.20464
1.20407
1.21429
1.22754
1.23747
1.2389
1.2285
1.20474
1.17037
5.1557
5.12843
5.09422
5.0405
4.96779
4.88155
4.78999
4.69934
4.60782
4.50494
4.37677
4.20901
3.99813
3.74431
3.46057
3.14066
2.78349
2.43174
2.11438
1.85485
1.66165
1.52962
1.44288
1.38636
1.3492
1.32237
1.2983
1.27155
1.23794
1.20013
5.84906
5.90151
5.95538
6.00547
6.05941
6.12971
6.22884
6.36317
6.52072
6.67208
6.78225
6.80797
6.73381
6.54922
6.2657
5.85798
5.28675
4.63474
3.97918
3.38113
2.87525
2.47264
2.1608
1.92639
1.75242
1.62279
1.5232
1.4424
1.37105
1.31252
7.17727
7.38294
7.62211
7.9025
8.24435
8.67045
9.20078
9.83991
10.5513
11.2686
11.9252
12.4217
12.7186
12.7836
12.624
12.1686
11.3187
10.1783
8.88472
7.57414
6.34115
5.25151
4.33698
3.6014
3.02801
2.59067
2.2601
2.00954
1.81511
1.68068
10.2885
10.8453
11.5099
12.3155
13.2968
14.4904
15.9197
17.5753
19.3484
21.1195
22.7469
24.0769
25.0502
25.6289
25.7788
25.3727
24.2274
22.4586
20.2593
17.8287
15.3233
12.8967
10.6734
8.73765
7.12516
5.82775
4.81276
4.03236
3.43516
3.0373
18.6278
19.8993
21.322
23.0609
25.1276
27.5732
30.3887
33.4982
36.5922
39.5428
42.1667
44.3082
45.898
46.9231
47.3215
46.8997
45.5644
43.4095
40.5622
37.1891
33.4523
29.5451
25.641
21.9396
18.5976
15.6856
13.2286
11.195
9.53828
8.40111
36.3837
37.6155
39.5513
42.0503
44.9966
48.4651
52.1875
55.7663
58.9689
61.7436
64.0212
65.6855
66.6706
67.0442
66.708
65.4367
63.7291
61.6147
59.0311
56.0458
52.7527
49.2882
45.7557
42.2306
38.8308
35.5512
32.4257
29.4793
26.768
24.8263
47.584
47.0063
48.0563
50.1758
52.6816
55.147
57.3064
59.0793
60.4341
61.3532
61.9085
62.1922
62.1207
61.6826
60.4742
58.2191
56.1445
53.973
51.9393
49.9943
48.2341
46.7516
45.6648
45.0272
44.6904
44.4371
44.2268
43.9597
43.5232
42.8205
7.94006
9.72218
10.4919
10.939
11.1237
11.0417
10.7336
10.2638
9.68708
9.05637
8.41083
7.78648
7.19696
6.67105
6.21518
5.85334
5.60475
5.56084
5.84813
6.45828
7.10216
7.43175
7.26893
6.61766
5.59621
4.34606
3.05465
1.84258
0.96807
0.539989
4.70156
5.19906
5.39264
5.48679
5.48812
5.38035
5.1735
4.8945
4.57175
4.23033
3.8915
3.57013
3.27788
3.02291
2.81843
2.67566
2.62091
2.71162
3.03282
3.57479
4.14461
4.51067
4.55718
4.30186
3.82066
3.19912
2.49487
1.74526
1.11403
0.655367
4.2959
4.55067
4.63424
4.64386
4.57948
4.44849
4.25597
4.01538
3.7443
3.46098
3.18134
2.91659
2.67611
2.46796
2.30339
2.19766
2.17369
2.28274
2.59392
3.09639
3.63348
4.01136
4.12404
3.97926
3.64549
3.16068
2.58712
1.95105
1.37717
0.882962
4.14406
4.26298
4.28786
4.26147
4.18119
4.05356
3.88062
3.66985
3.43347
3.18618
2.94105
2.70779
2.49512
2.31167
2.16958
2.08577
2.08304
2.20752
2.50879
2.96898
3.46801
3.83652
3.97435
3.88237
3.61456
3.20903
2.71276
2.1444
1.60707
1.10632
4.01914
4.01791
3.99045
3.94439
3.86617
3.75437
3.6068
3.42694
3.22351
3.0087
2.7939
2.58807
2.39979
2.23907
2.11846
2.05696
2.07803
2.22262
2.52459
2.95103
3.39926
3.74136
3.88308
3.81882
3.5909
3.24061
2.80375
2.29326
1.7933
1.30685
3.86226
3.74353
3.67214
3.61527
3.54881
3.45974
3.34155
3.19462
3.02513
2.84311
2.65868
2.48046
2.31735
2.18005
2.08247
2.04576
2.09301
2.25887
2.55943
2.95841
3.36166
3.66681
3.79892
3.74815
3.54817
3.2353
2.84999
2.39349
1.93528
1.47513
3.66929
3.44539
3.32753
3.26082
3.20849
3.14563
3.06008
2.94876
2.81476
2.66613
2.51274
2.3631
2.22665
2.11423
2.0415
2.03183
2.10697
2.29468
2.59347
2.9653
3.32704
3.59312
3.70785
3.66219
3.48299
3.20219
2.85331
2.44922
2.03422
1.60765
3.44858
3.12893
2.96169
2.88456
2.84617
2.81016
2.7586
2.68426
2.58657
2.47236
2.35084
2.23065
2.12163
2.03559
1.98911
2.0078
2.11229
2.31929
2.61716
2.96448
3.28394
3.51185
3.60571
3.5602
3.39855
3.14446
2.82923
2.46772
2.0954
1.70548
3.2077
2.79269
2.58007
2.49428
2.46942
2.45936
2.44278
2.40624
2.34392
2.26404
2.17437
2.08368
2.00235
1.94317
1.92381
1.971
2.10425
2.33057
2.62659
2.94692
3.22516
3.41844
3.49152
3.44384
3.2958
3.06585
2.78254
2.45742
2.12471
1.77198
2.98091
2.51842
2.2686
2.15809
2.12955
2.13252
2.13695
2.12685
2.09486
2.04807
1.98849
1.92605
1.87157
1.8389
1.84585
1.92069
2.08014
2.32512
2.61662
2.90731
3.15079
3.31168
3.36567
3.31544
3.17887
2.972
2.71773
2.42742
2.12697
1.81141
2.83182
2.34269
2.0505
1.90058
1.84872
1.8473
1.86014
1.86739
1.85904
1.83532
1.80099
1.76372
1.73388
1.72599
1.75678
1.85724
2.03904
2.29334
2.57625
2.84364
3.05802
3.19108
3.22896
3.17724
3.05157
2.86651
2.63878
2.38177
2.11314
1.83148
2.76086
2.27764
1.94094
1.74194
1.65103
1.62454
1.6293
1.64082
1.64591
1.6396
1.62348
1.60442
1.59534
1.60818
1.65948
1.78169
1.98062
2.23938
2.51175
2.75759
2.94594
3.05657
3.08232
3.03126
2.91722
2.75267
2.55051
2.32514
2.09014
1.83843
2.77191
2.30536
1.95474
1.70797
1.55709
1.48705
1.46405
1.46376
1.46891
1.47043
1.46619
1.45935
1.46309
1.49087
1.55789
1.69617
1.90565
2.16318
2.42218
2.64863
2.81501
2.90876
2.92688
2.87932
2.77827
2.63399
2.45809
2.26453
2.05943
1.83408
2.8457
2.40071
2.04542
1.77064
1.57752
1.45347
1.38507
1.35475
1.3444
1.34084
1.33899
1.33798
1.34662
1.38122
1.45737
1.60422
1.81601
2.06591
2.31
2.51804
2.66689
2.74907
2.76424
2.72329
2.63691
2.51367
2.36654
2.20095
2.02113
1.81938
2.98976
2.56585
2.20985
1.91783
1.68941
1.52011
1.40451
1.33204
1.29023
1.26615
1.25476
1.25013
1.25722
1.28784
1.365
1.51148
1.71657
1.95232
2.17929
2.36974
2.50485
2.58016
2.59688
2.5659
2.49663
2.39848
2.27678
2.13413
1.97655
1.7967
3.20483
2.80103
2.4547
2.15282
1.89721
1.6876
1.52403
1.40332
1.31927
1.2636
1.22861
1.20849
1.20513
1.22515
1.2908
1.42659
1.6155
1.83033
2.037
2.21024
2.33445
2.4071
2.42963
2.41387
2.36549
2.28833
2.18776
2.06645
1.92864
1.76854
3.48798
3.10894
2.77348
2.46606
2.18983
1.94665
1.7398
1.57103
1.43967
1.34195
1.27292
1.227
1.2034
1.2054
1.24905
1.3625
1.5254
1.71232
1.89438
2.05007
2.16519
2.24088
2.27484
2.27243
2.24065
2.18236
2.10116
1.99925
1.87946
1.7371
3.83641
3.47923
3.15457
2.8448
2.55368
2.28411
2.04112
1.82943
1.65219
1.5097
1.40034
1.3203
1.26801
1.24441
1.26069
1.33814
1.46519
1.61753
1.76961
1.90802
2.01674
2.09193
2.13307
2.14258
2.12514
2.08333
2.01923
1.93444
1.83088
1.70449
4.23208
3.89701
3.58483
3.27644
2.97616
2.68775
2.41734
2.17141
1.95552
1.77251
1.62351
1.50661
1.42086
1.3663
1.34987
1.38678
1.46932
1.5791
1.69735
1.80986
1.90351
1.97199
2.01471
2.0319
2.02493
1.99589
1.94563
1.87532
1.78552
1.67301
4.66013
4.35053
4.05458
3.75296
3.45069
3.1525
2.86567
2.59786
2.35602
2.14411
1.96448
1.81611
1.69887
1.61222
1.56143
1.55531
1.58831
1.64709
1.71833
1.79046
1.85385
1.90404
1.93841
1.9546
1.95098
1.92846
1.88691
1.82728
1.74733
1.64584
5.11974
4.83974
4.56539
4.27838
3.9844
3.68931
3.40167
3.1303
2.88283
2.66315
2.47299
2.31025
2.17478
2.06454
1.98402
1.93483
1.91033
1.9018
1.90432
1.91282
1.92373
1.93401
1.94025
1.93856
1.92503
1.89749
1.85566
1.79878
1.72213
1.62754
5.62946
5.38503
5.14051
4.8804
4.61106
4.33982
4.07669
3.8318
3.61316
3.42339
3.26154
3.12184
3.00187
2.89585
2.80609
2.72334
2.63115
2.5259
2.41555
2.31219
2.22386
2.15126
2.09119
2.03872
1.98811
1.93474
1.87426
1.80194
1.71786
1.62357
6.24528
6.04534
5.84548
5.63369
5.41761
5.20672
5.01298
4.84841
4.72182
4.63328
4.57576
4.53586
4.50615
4.47268
4.43078
4.34801
4.18049
3.92647
3.61872
3.30228
3.01166
2.75958
2.54906
2.37506
2.22978
2.10511
1.9928
1.88546
1.77654
1.66894
7.09456
6.95816
6.83234
6.71008
6.60132
6.5198
6.48066
6.49891
6.5867
6.73786
6.93347
7.14463
7.35448
7.53465
7.66863
7.66552
7.4296
6.95537
6.30863
5.58551
4.87978
4.23873
3.68784
3.23083
2.86054
2.5636
2.32356
2.12496
1.9524
1.80915
8.46015
8.43333
8.44546
8.49728
8.60431
8.78899
9.07371
9.47784
10.0083
10.6472
11.3531
12.0671
12.7584
13.3798
13.8985
14.1
13.8249
13.0576
11.8878
10.4905
9.03402
7.6287
6.36207
5.28035
4.39695
3.69955
3.15916
2.74204
2.4148
2.18125
11.016
11.2169
11.5141
11.9122
12.4467
13.152
14.0558
15.1764
16.502
17.9843
19.533
21.0432
22.4726
23.7618
24.8512
25.3291
25.0127
23.8947
22.0826
19.806
17.2862
14.6781
12.1879
9.94511
8.03771
6.49468
5.29326
4.37672
3.68237
3.22459
16.4177
17.1437
17.9621
18.9517
20.2249
21.7994
23.6871
25.8809
28.3168
30.8869
33.4375
35.8217
37.9955
39.9056
41.4132
41.9158
41.3543
39.8193
37.4347
34.4131
30.9185
27.0673
23.1998
19.4608
16.0504
13.1211
10.7432
8.85334
7.38008
6.41305
27.8947
29.1762
30.7335
32.623
34.8169
37.3869
40.3041
43.4803
46.7591
49.9872
52.9923
55.6362
57.8281
59.2517
59.9414
59.1585
57.5993
55.4229
52.8598
49.9428
46.7046
43.2172
39.1863
34.9598
30.7549
26.7575
23.2432
20.1862
17.5998
15.7872
45.8629
46.5343
48.1828
50.6099
53.5314
56.7173
59.9332
62.9597
65.6683
68.0027
69.9153
71.3274
72.0912
72.0587
71.0797
68.4218
65.6049
62.6502
59.8699
57.2046
54.676
52.3094
50.1824
48.3051
46.6215
44.8457
42.6303
40.269
37.8651
35.8216
52.9655
52.9278
54.2688
56.5941
59.3419
62.0684
64.4805
66.43
67.8609
68.7753
69.2087
69.1966
68.5609
67.1244
64.5133
60.5185
56.9077
53.512
50.7058
48.4268
46.7371
45.6099
45.1354
45.3102
46.0046
46.9406
47.9712
48.8437
49.3349
49.284
11.5625
13.9719
14.7636
15.0451
15.1043
14.8672
14.3537
13.6398
12.8001
11.9036
10.9916
10.1129
9.28409
8.55189
7.92611
7.45609
7.20147
7.44232
8.57277
10.432
12.1124
12.8624
12.5332
11.3342
9.58393
7.53998
5.45483
3.49481
2.04795
1.11523
6.50246
7.09206
7.26191
7.27523
7.21899
7.05065
6.76543
6.38547
5.94896
5.48782
5.02783
4.58625
4.18238
3.82698
3.54533
3.35099
3.3089
3.58074
4.39422
5.64045
6.76892
7.33881
7.28355
6.7681
5.97752
5.03935
4.0318
2.95601
1.99951
1.275
5.92992
6.162
6.19801
6.14793
6.031
5.84472
5.58657
5.2664
4.90573
4.52683
4.14833
3.78376
3.44842
3.15388
2.92134
2.77339
2.76014
3.01709
3.72418
4.7801
5.76115
6.31221
6.35894
6.02697
5.46387
4.77152
3.97498
3.08864
2.26547
1.55239
5.78263
5.81015
5.77025
5.68653
5.55707
5.37815
5.14577
4.86479
4.5493
4.21615
3.8808
3.55506
3.25356
2.98987
2.7856
2.66623
2.68221
2.95424
3.61052
4.52852
5.40398
5.922
6.00619
5.75695
5.29932
4.7074
4.02501
3.25195
2.50372
1.81573
5.68227
5.53955
5.43335
5.3285
5.20382
5.04559
4.84498
4.60263
4.32786
4.03409
3.73523
3.44167
3.17021
2.93456
2.75841
2.67128
2.72438
3.02926
3.66582
4.49094
5.24168
5.70625
5.79234
5.58339
5.1821
4.65614
4.05101
3.3673
2.68433
2.0288
5.5394
5.25141
5.07988
4.95725
4.84497
4.71543
4.55253
4.35212
4.11953
3.86574
3.60397
3.34418
3.10401
2.89878
2.7548
2.70628
2.80555
3.15154
3.76888
4.51693
5.15992
5.55276
5.61838
5.42639
5.06009
4.58291
4.03337
3.42535
2.80484
2.18956
5.34063
4.93079
4.69288
4.55026
4.45155
4.35428
4.23348
4.07726
3.88862
3.67664
3.45459
3.23198
3.02619
2.85514
2.7486
2.7455
2.89872
3.2894
3.89108
4.55921
5.10774
5.42204
5.45362
5.26476
4.92303
4.4833
3.98118
3.42762
2.87032
2.30125
5.11165
4.58792
4.28049
4.11318
4.02463
3.9588
3.88013
3.76924
3.62626
3.45856
3.27827
3.09525
2.92788
2.79458
2.7307
2.77924
2.99224
3.42645
4.01064
4.59964
5.05894
5.29447
5.28639
5.09302
4.77006
4.36014
3.89996
3.3971
2.89007
2.37022
4.8641
4.23098
3.8588
3.6623
3.57874
3.54075
3.50067
3.43286
3.33555
3.21264
3.0754
2.93376
2.80706
2.71553
2.69851
2.80333
3.07905
3.55111
4.11212
4.62448
4.9946
5.15809
5.11211
4.91137
4.60241
4.21922
3.79707
3.34192
2.87998
2.40685
4.60752
3.87606
3.45785
3.23695
3.14923
3.12481
3.11255
3.08111
3.02627
2.94624
2.85133
2.75124
2.66634
2.61953
2.65157
2.81556
3.15333
3.65321
4.18152
4.62953
4.91324
5.00841
4.92883
4.72221
4.42615
4.06843
3.68134
3.27161
2.85744
2.42443
4.34533
3.59288
3.13235
2.877
2.77012
2.74414
2.74599
2.74044
2.7163
2.67146
2.61527
2.55447
2.51109
2.5093
2.59115
2.81615
3.20877
3.72203
4.21554
4.59483
4.80558
4.84203
4.73604
4.52754
4.24594
3.91495
3.56189
3.19814
2.8238
2.42156
4.15279
3.40412
2.89742
2.60556
2.46615
2.42098
2.4208
2.42721
2.42476
2.40699
2.37967
2.35299
2.34879
2.38845
2.51941
2.80102
3.23761
3.75301
4.21198
4.5188
4.66626
4.65749
4.5341
4.32926
4.06557
3.76305
3.44906
3.12288
2.77886
2.40481
4.04042
3.31434
2.78751
2.44236
2.26067
2.17839
2.158
2.16086
2.16705
2.16673
2.16186
2.15944
2.18704
2.26362
2.43952
2.77061
3.24243
3.74571
4.14796
4.39973
4.49505
4.4559
4.32493
4.13045
3.88969
3.62249
3.34373
3.04481
2.72699
2.37824
4.02437
3.33275
2.80454
2.42323
2.17294
2.0361
1.97948
1.96103
1.96153
1.9664
1.97481
1.98993
2.0364
2.14337
2.35652
2.7253
3.20681
3.67986
4.03601
4.23903
4.29609
4.24094
4.11323
3.93673
3.72876
3.49605
3.24261
2.96684
2.67164
2.34533
4.08177
3.42584
2.90229
2.49907
2.20826
2.01728
1.90436
1.84689
1.8263
1.82272
1.83304
1.85654
1.9141
2.03928
2.27837
2.66935
3.14057
3.57266
3.88351
4.04594
4.07914
4.02227
3.90933
3.7641
3.58667
3.378
3.14647
2.89087
2.61503
2.30873
4.2232
3.60137
3.08424
2.6617
2.33529
2.09723
1.93573
1.83483
1.77915
1.75238
1.75256
1.77392
1.8348
1.96463
2.21754
2.6133
3.05584
3.43969
3.70673
3.83848
3.86326
3.82192
3.73641
3.61308
3.45626
3.26895
3.05652
2.81833
2.55887
2.27044
4.45425
3.86089
3.35473
2.92338
2.56803
2.28677
2.07565
1.92632
1.82885
1.77138
1.75005
1.75906
1.81679
1.94315
2.19405
2.57806
2.97785
3.30942
3.53609
3.64845
3.68781
3.66068
3.58894
3.48166
3.34174
3.17202
2.97496
2.75097
2.50492
2.23235
4.77129
4.2091
3.71595
3.27819
2.89914
2.5806
2.32412
2.12749
1.98625
1.89288
1.84476
1.83553
1.88345
2.00501
2.24044
2.60034
2.94936
3.23135
3.4275
3.53923
3.57482
3.54825
3.48059
3.38124
3.25176
3.09341
2.90531
2.69125
2.45538
2.19661
5.17552
4.64095
4.15931
3.71741
3.32063
2.97295
2.67943
2.44248
2.2624
2.13561
2.06183
2.03557
2.0746
2.19206
2.41921
2.74348
3.04246
3.29135
3.46386
3.5502
3.56222
3.51376
3.43963
3.33291
3.20051
3.03881
2.85211
2.64268
2.41315
2.16588
5.6623
5.14919
4.67834
4.23655
3.83043
3.46515
3.14807
2.88487
2.67969
2.53228
2.44492
2.41317
2.4567
2.58299
2.82307
3.13119
3.40226
3.61357
3.73717
3.76206
3.70888
3.61821
3.51174
3.36837
3.1975
3.01648
2.82206
2.61052
2.38225
2.14358
6.22861
5.73541
5.27832
4.84521
4.44296
4.07762
3.75817
3.49284
3.28893
3.1489
3.07734
3.07087
3.15419
3.32616
3.61821
3.95345
4.21777
4.38007
4.40589
4.31509
4.15466
3.98465
3.78155
3.55421
3.31774
3.0776
2.83675
2.60326
2.36815
2.13353
6.89481
6.42627
5.99239
5.58338
5.20679
4.8695
4.58198
4.35522
4.19922
4.11963
4.12221
4.20938
4.40462
4.69732
5.12089
5.5493
5.83796
5.92315
5.78984
5.51017
5.17916
4.81496
4.40489
3.99983
3.62358
3.28065
2.96467
2.67151
2.39875
2.15363
7.73231
7.29943
6.90765
6.55042
6.23666
5.97493
5.77706
5.6589
5.63212
5.71022
5.90252
6.20475
6.64459
7.19156
7.88498
8.49794
8.85898
8.85666
8.49185
7.93123
7.26255
6.47252
5.66758
4.92043
4.27192
3.72622
3.26733
2.87664
2.53934
2.26174
8.90537
8.53108
8.21722
7.96247
7.77731
7.67438
7.66444
7.77714
8.02994
8.43428
8.99946
9.7118
10.6
11.5962
12.7624
13.6358
14.1189
14.0816
13.475
12.4186
11.0673
9.56494
8.07607
6.72238
5.57471
4.64818
3.91464
3.33432
2.8703
2.52479
10.7608
10.5003
10.333
10.2724
10.3311
10.5325
10.892
11.4361
12.1912
13.1622
14.3468
15.7084
17.2756
18.9242
20.7396
21.856
22.4659
22.2902
21.2632
19.5747
17.3755
14.912
12.4258
10.1189
8.14544
6.54992
5.31062
4.36419
3.64676
3.16475
14.0311
14.0083
14.1128
14.4155
14.9157
15.6376
16.6004
17.8281
19.3403
21.1176
23.1217
25.2904
27.6508
29.9992
32.3804
33.1582
33.2435
32.4179
30.9174
28.8326
26.2415
23.1098
19.6128
16.1532
13.0741
10.4743
8.39904
6.79283
5.58574
4.82206
20.1413
20.5595
21.2065
22.0473
23.1689
24.6092
26.354
28.4101
30.7644
33.3502
36.091
38.9047
41.7942
44.1927
46.1222
45.4071
44.2375
42.4353
40.3926
38.043
35.394
32.4293
29.1692
25.5849
21.7372
18.1534
15.0819
12.5255
10.5255
9.24988
31.0424
31.8092
32.9883
34.5583
36.4193
38.5268
40.8979
43.5086
46.2915
49.1561
51.9
54.3987
56.7516
58.059
58.5344
55.5446
52.6432
49.6908
47.166
44.8141
42.5731
40.3899
38.1459
35.8403
33.4246
30.6062
27.4608
24.3815
21.7297
19.8609
44.9792
45.4721
46.8331
48.8315
51.2075
53.7493
56.292
58.7209
60.963
62.9776
64.6918
66.027
66.7667
66.2911
64.5015
58.9819
54.5156
50.6066
47.6692
45.4242
43.7785
42.6675
42.0431
41.8106
41.824
41.8045
41.4387
40.64
39.1842
37.6924
48.581
49.2687
50.8938
53.2253
55.8631
58.4497
60.7739
62.7026
64.1863
65.2176
65.7767
65.8449
65.0806
62.8778
58.9734
51.9652
46.7972
42.5595
39.5407
37.3769
36.1324
35.7127
36.1069
37.2603
38.9833
40.9928
43.032
44.808
46.0959
46.682
15.7908
18.8857
19.6222
19.7393
19.5491
19.0936
18.3308
17.3326
16.1878
14.9756
13.7382
12.5369
11.3866
10.3585
9.4716
8.82663
8.57659
9.45466
12.4338
16.7066
19.9509
21.0126
20.1268
17.962
15.1549
12.0927
9.04377
6.15087
3.91126
2.29857
8.53654
9.22345
9.3453
9.27756
9.10557
8.85307
8.47916
7.9929
7.43791
6.84796
6.25422
5.67302
5.13285
4.64018
4.24384
3.96359
3.93035
4.51896
6.28649
8.70841
10.5327
11.1668
10.8051
9.8577
8.65307
7.35897
6.03818
4.65174
3.38847
2.33626
7.75345
7.95958
7.91758
7.78788
7.58714
7.32779
6.99596
6.59459
6.14521
5.66814
5.18509
4.71002
4.26575
3.86422
3.54284
3.33075
3.32977
3.86526
5.32647
7.29162
8.80507
9.40412
9.21341
8.55346
7.67631
6.72802
5.731
4.61431
3.57192
2.65595
7.59524
7.52296
7.38664
7.22653