/*--------------------------------*- C++ -*----------------------------------*\
  =========                 |
  \\      /  F ield         | OpenFOAM: The Open Source CFD Toolbox
   \\    /   O peration     | Website:  https://openfoam.org
    \\  /    A nd           | Version:  12
     \\/     M anipulation  |
\*---------------------------------------------------------------------------*/
FoamFile
{
    format      ascii;
    class       volScalarField;
    location    "1500/air";
    object      k;
}
// * * * * * * * * * * * * * * * * * * * * * * * * * * * * * * * * * * * * * //

dimensions      [0 2 -2 0 0 0 0];

internalField   nonuniform List<scalar> 
243000
(
0.0586941
0.0655992
0.069826
0.0725115
0.0737326
0.0736747
0.0725875
0.0707149
0.0682643
0.0654164
0.0623118
0.0591385
0.0560187
0.0530364
0.0501901
0.0474894
0.044943
0.042674
0.0408323
0.0395333
0.0386899
0.037977
0.0369295
0.0350848
0.0322022
0.0282172
0.0259195
0.023665
0.0202568
0.0166652
0.0894961
0.0984723
0.101777
0.101779
0.0999091
0.0968484
0.0930231
0.0887433
0.0842219
0.0796228
0.075069
0.070698
0.0665675
0.062753
0.0592811
0.0561914
0.0535282
0.0514908
0.0502563
0.0499629
0.0504472
0.0512451
0.05168
0.0510635
0.0488968
0.0449332
0.0397026
0.0331024
0.0267903
0.0199587
0.0981925
0.111917
0.117038
0.117931
0.116244
0.112946
0.108643
0.103764
0.0985918
0.0933375
0.0881483
0.0831724
0.0784634
0.0741235
0.0702089
0.0667922
0.0639629
0.0619854
0.0610344
0.0612084
0.0622618
0.0636671
0.064672
0.0645282
0.0625973
0.0585126
0.052553
0.0447185
0.0365461
0.0273407
0.0948118
0.111995
0.120607
0.123747
0.123387
0.120902
0.117054
0.11239
0.107272
0.101958
0.0966367
0.0914799
0.086574
0.0820531
0.0780054
0.0745391
0.0717847
0.0700378
0.0694472
0.0700301
0.0714728
0.0732205
0.0745306
0.0746823
0.0729935
0.0690302
0.0629552
0.0547196
0.0457208
0.0354753
0.085779
0.104909
0.116505
0.122326
0.124142
0.123239
0.120546
0.116742
0.11224
0.107336
0.102284
0.0972872
0.0924751
0.0880228
0.084052
0.0807172
0.0781881
0.0767716
0.0765763
0.0775235
0.0792441
0.0811791
0.0826274
0.0829293
0.0814252
0.077655
0.071684
0.0634775
0.0541834
0.0435617
0.0754464
0.0929256
0.10671
0.115337
0.119766
0.121048
0.120137
0.11762
0.1141
0.109947
0.105509
0.100952
0.0964715
0.09229
0.0885569
0.0854936
0.0832943
0.0822693
0.0824721
0.0837432
0.0856706
0.0877019
0.0891917
0.0895553
0.0881868
0.0846368
0.0788981
0.0709622
0.0617237
0.0511206
0.0705062
0.0815888
0.0942168
0.104599
0.111538
0.11518
0.116308
0.115511
0.113365
0.110325
0.106686
0.102767
0.0988161
0.0950638
0.0917017
0.0890149
0.0872151
0.0866106
0.087197
0.0887556
0.0908424
0.0929197
0.0943998
0.0947737
0.0935065
0.0901787
0.0847441
0.0772112
0.0682678
0.057929
0.0714422
0.0754084
0.0844288
0.0941061
0.101862
0.106988
0.110016
0.111006
0.110424
0.108685
0.106106
0.103041
0.099744
0.0965378
0.0936486
0.0914117
0.090054
0.0898763
0.0908229
0.0926361
0.0948518
0.0969513
0.0984007
0.0987621
0.0975737
0.0944619
0.0893654
0.0823046
0.0738289
0.0638971
0.0768253
0.0743794
0.0781912
0.0854326
0.0929061
0.0988231
0.102871
0.105016
0.105861
0.105461
0.104054
0.101957
0.0994464
0.0968848
0.0945433
0.0928032
0.0919098
0.0921436
0.0934247
0.095464
0.0977896
0.0999043
0.101324
0.101671
0.100553
0.0976491
0.0929056
0.0863651
0.0784331
0.0690064
0.0852781
0.0786809
0.0767175
0.0797254
0.0853502
0.0911198
0.0957827
0.0988826
0.100623
0.101192
0.100874
0.0997755
0.0981247
0.0962674
0.0945219
0.0933026
0.0928757
0.0934932
0.0950754
0.0973159
0.0997411
0.101877
0.103285
0.10363
0.102586
0.0998889
0.0955206
0.0894754
0.0821062
0.0732653
0.095063
0.0867587
0.0804861
0.078424
0.080464
0.0846639
0.089126
0.0927546
0.0952561
0.0966241
0.0970287
0.0967933
0.0959763
0.0948481
0.0937145
0.0930199
0.0930398
0.0940182
0.0958563
0.0982721
0.100791
0.102963
0.104386
0.104751
0.1038
0.101323
0.0972784
0.0917109
0.0849144
0.0767499
0.105336
0.0970744
0.088556
0.082281
0.0797576
0.0807768
0.0837376
0.0870916
0.0899567
0.0919579
0.093046
0.0933898
0.0932474
0.0927936
0.0922569
0.0920647
0.0924992
0.0937954
0.0958902
0.0984655
0.101072
0.103285
0.104734
0.105136
0.10428
0.102001
0.09828
0.0931723
0.0869345
0.0794455
0.115978
0.108062
0.0989505
0.0904019
0.0839941
0.0809078
0.0809151
0.082774
0.0852269
0.0874427
0.0890263
0.0899105
0.0902305
0.090301
0.0902946
0.0905558
0.0913583
0.0929223
0.0952009
0.0979055
0.100604
0.102885
0.104397
0.104867
0.104102
0.101999
0.0986009
0.0939475
0.0882429
0.0814106
0.126855
0.119109
0.110282
0.10108
0.0924406
0.0857551
0.0820065
0.0810585
0.0819523
0.0836116
0.0852535
0.0864784
0.0872047
0.087595
0.0879877
0.088624
0.0897309
0.0915049
0.0939162
0.0967141
0.0994857
0.10184
0.103441
0.10402
0.103399
0.101497
0.0983778
0.0941196
0.088928
0.0827265
0.137893
0.130334
0.122205
0.11301
0.103541
0.0946449
0.0875491
0.0831108
0.0812871
0.0813211
0.0822675
0.0833927
0.0843095
0.0849548
0.085534
0.0864198
0.0877428
0.0896596
0.0921471
0.0949921
0.0978124
0.100236
0.101939
0.102659
0.102218
0.100558
0.0977258
0.0938299
0.0890845
0.0834777
0.149025
0.141654
0.133849
0.125108
0.115716
0.105999
0.0968124
0.0892777
0.0841891
0.0815892
0.0808628
0.0811732
0.0818449
0.0825269
0.0831919
0.0841264
0.0855392
0.087512
0.0900103
0.0928491
0.0956834
0.0981607
0.0999695
0.100851
0.100616
0.099223
0.0967115
0.0931867
0.0889009
0.0838777
0.160156
0.152967
0.145427
0.13716
0.128145
0.118414
0.108359
0.0988206
0.0908411
0.0851747
0.08191
0.0805331
0.0802929
0.0805993
0.0811415
0.0819761
0.0832979
0.0852084
0.087636
0.0904065
0.0932085
0.0957133
0.0976204
0.0986737
0.0986698
0.0975976
0.0955223
0.0924683
0.0886434
0.0841386
0.17116
0.164129
0.15682
0.149006
0.140442
0.131036
0.120885
0.110437
0.100524
0.0921402
0.0859953
0.0821944
0.0802858
0.0796111
0.0796509
0.080194
0.0812649
0.0829344
0.0851815
0.0878089
0.0905246
0.0930286
0.0950533
0.0963267
0.096637
0.095931
0.0942661
0.0916602
0.0882823
0.0842499
0.181887
0.175001
0.167918
0.160532
0.152422
0.14345
0.133569
0.122945
0.112079
0.101817
0.0931087
0.0866117
0.082411
0.0801006
0.079109
0.0790235
0.0796587
0.0809711
0.0829137
0.0853191
0.087919
0.0904117
0.0925179
0.0939735
0.0945668
0.0942011
0.0929183
0.0907394
0.0877935
0.0841999
0.192207
0.185476
0.178659
0.171682
0.164012
0.15549
0.14601
0.135587
0.124462
0.1132
0.10266
0.0937438
0.0870313
0.0825655
0.0799776
0.07881
0.0787082
0.0794759
0.0809914
0.0830777
0.0854768
0.0878895
0.0900251
0.0916171
0.0924548
0.0923992
0.0914735
0.0897013
0.087166
0.08399
0.202023
0.195512
0.189236
0.182534
0.175209
0.167083
0.15802
0.147957
0.136969
0.125372
0.113792
0.103092
0.0941096
0.0873032
0.082684
0.0799584
0.0787285
0.0786745
0.0795693
0.0811936
0.0832777
0.0855183
0.0876117
0.0892816
0.0903109
0.0905348
0.0899372
0.088539
0.0863972
0.0836212
0.211321
0.205322
0.199243
0.192807
0.185814
0.178078
0.169449
0.159827
0.149194
0.137694
0.125724
0.113962
0.103262
0.0943118
0.0875082
0.0828602
0.0800997
0.0788734
0.0788836
0.0798416
0.0814548
0.0833969
0.0853492
0.0870189
0.0881745
0.0886327
0.0883277
0.0872696
0.0855043
0.0831094
0.220064
0.214305
0.20846
0.202316
0.195677
0.188359
0.180206
0.171098
0.160965
0.149841
0.137948
0.125759
0.113991
0.103376
0.094553
0.0878461
0.083238
0.0804776
0.0792706
0.0792965
0.0802154
0.0816878
0.0833628
0.0849256
0.0861195
0.0867457
0.0866859
0.0859317
0.0845184
0.0824861
0.227778
0.222336
0.216807
0.211016
0.204785
0.197946
0.190344
0.181845
0.172349
0.161819
0.150347
0.138234
0.126016
0.114333
0.103899
0.095252
0.0886438
0.0840384
0.0812515
0.0799962
0.079933
0.0806778
0.0818731
0.0831715
0.0842802
0.0849748
0.0850956
0.084595
0.0834924
0.0818064
0.23479
0.229729
0.224574
0.219195
0.213449
0.207187
0.200255
0.192513
0.183835
0.174131
0.163396
0.15178
0.139664
0.127523
0.116015
0.105753
0.0971774
0.0905023
0.0857641
0.0828
0.0813258
0.0809828
0.0813763
0.0821365
0.0829473
0.0835504
0.0837364
0.083408
0.0825522
0.0811808
0.241469
0.236943
0.232322
0.227533
0.222468
0.217001
0.210994
0.204301
0.196766
0.188244
0.178644
0.167981
0.156474
0.144491
0.132516
0.121103
0.110751
0.101884
0.094827
0.0896211
0.0861306
0.0840832
0.0831204
0.082871
0.0829848
0.0831549
0.0831511
0.082806
0.0820518
0.0808869
0.249361
0.245772
0.242082
0.238275
0.2343
0.230077
0.225488
0.220386
0.214572
0.20783
0.199969
0.19087
0.180597
0.169412
0.157687
0.145721
0.133898
0.122851
0.113137
0.105064
0.098728
0.0940385
0.0907564
0.0885757
0.0871635
0.0861925
0.0853884
0.0845372
0.0835043
0.0822803
0.26403
0.262064
0.259935
0.257794
0.25573
0.253723
0.251654
0.249318
0.246393
0.242539
0.237455
0.230913
0.222847
0.213397
0.202887
0.191221
0.178443
0.165462
0.152946
0.141473
0.131385
0.122836
0.115795
0.110144
0.105662
0.102035
0.0990019
0.0963552
0.0939273
0.0918232
0.309067
0.309297
0.309468
0.310454
0.312458
0.315103
0.317937
0.320486
0.322306
0.322797
0.321714
0.318899
0.314231
0.307932
0.300054
0.290181
0.277714
0.264009
0.249847
0.235892
0.222589
0.210203
0.19892
0.188894
0.180058
0.171763
0.164109
0.157179
0.151026
0.146089
0.500009
0.498579
0.500253
0.506119
0.513492
0.51933
0.523992
0.527513
0.530009
0.530106
0.528988
0.526949
0.524057
0.520828
0.516692
0.511471
0.502995
0.49463
0.486577
0.479425
0.473027
0.467462
0.462673
0.45888
0.455677
0.449184
0.442238
0.435443
0.430035
0.425385
0.0924141
0.104514
0.110033
0.112312
0.112123
0.110046
0.106582
0.102215
0.0972995
0.092136
0.0869877
0.0820984
0.0775437
0.0734663
0.0698825
0.0668825
0.0645242
0.0631243
0.0630813
0.0644863
0.0665315
0.0678811
0.0673854
0.0643723
0.0587139
0.0505426
0.0406395
0.0292606
0.0221547
0.0208356
0.151913
0.170802
0.173692
0.169635
0.161892
0.152335
0.142069
0.131769
0.121814
0.112488
0.103947
0.0962886
0.0895181
0.0837433
0.0789535
0.0752661
0.0727963
0.0721111
0.0736572
0.0774877
0.0825893
0.0873336
0.0900826
0.0896819
0.0854077
0.077222
0.0660751
0.0523447
0.0402913
0.0313566
0.179347
0.20061
0.205299
0.201911
0.1941
0.183875
0.172456
0.160709
0.149162
0.138225
0.12815
0.119086
0.111078
0.104307
0.0988211
0.09483
0.0925539
0.0926168
0.0952743
0.100382
0.106756
0.112699
0.116488
0.116855
0.112815
0.104069
0.0915425
0.075491
0.0604114
0.04708
0.191392
0.212124
0.217768
0.215852
0.209401
0.200226
0.189447
0.178042
0.166568
0.155472
0.14512
0.135742
0.127446
0.120489
0.115011
0.111327
0.109779
0.110905
0.114704
0.120778
0.127824
0.1342
0.138311
0.138985
0.135128
0.126276
0.113252
0.0960963
0.0790997
0.0633402
0.193257
0.210245
0.217176
0.217522
0.213003
0.205677
0.196352
0.186336
0.175923
0.165497
0.155662
0.146682
0.138726
0.132138
0.127145
0.124184
0.123694
0.126041
0.130959
0.137806
0.145227
0.151697
0.155818
0.156604
0.152985
0.144385
0.131455
0.114109
0.096248
0.079234
0.189281
0.201821
0.208208
0.21002
0.208025
0.203152
0.196498
0.188054
0.178949
0.169611
0.160911
0.152844
0.145666
0.139836
0.135661
0.133718
0.134458
0.138084
0.144069
0.151541
0.159148
0.165531
0.169505
0.170309
0.166948
0.158827
0.146365
0.129484
0.111539
0.0940966
0.180422
0.186724
0.19224
0.195332
0.195894
0.193946
0.189884
0.183971
0.17694
0.169526
0.162002
0.155063
0.148948
0.144166
0.141045
0.140321
0.14238
0.147276
0.154243
0.162226
0.169918
0.176128
0.179887
0.180639
0.177542
0.17001
0.15827
0.142288
0.124818
0.107486
0.169078
0.167998
0.171147
0.175183
0.178406
0.17972
0.178571
0.175409
0.17073
0.165281
0.159561
0.154068
0.149257
0.145652
0.143731
0.144327
0.147734
0.153843
0.1617
0.170115
0.177847
0.183868
0.187402
0.188082
0.185232
0.178342
0.167487
0.152677
0.136077
0.119189
0.160906
0.154028
0.153449
0.15626
0.160023
0.163033
0.164253
0.163709
0.16148
0.158174
0.154309
0.150438
0.147046
0.144754
0.14411
0.146031
0.150738
0.157971
0.166639
0.175432
0.183206
0.189068
0.192424
0.193049
0.190442
0.184217
0.174353
0.160894
0.145436
0.129152
0.160537
0.147265
0.14134
0.140967
0.143503
0.146876
0.149511
0.15078
0.150545
0.149102
0.147004
0.144758
0.142836
0.14191
0.142541
0.145728
0.151627
0.15979
0.169177
0.178349
0.186206
0.191994
0.195272
0.195888
0.193535
0.188023
0.179183
0.167042
0.152834
0.137391
0.164735
0.148482
0.136794
0.131344
0.130849
0.132896
0.135658
0.137936
0.139167
0.13929
0.138573
0.137706
0.137156
0.137531
0.139355
0.143704
0.150644
0.159817
0.169791
0.179254
0.187191
0.192969
0.196255
0.196891
0.194829
0.189931
0.182023
0.171233
0.158377
0.144071
0.173288
0.154963
0.139822
0.129404
0.124113
0.123097
0.124356
0.12644
0.128322
0.129513
0.129975
0.130083
0.130589
0.132053
0.134918
0.140256
0.148043
0.157842
0.168304
0.178178
0.186349
0.192225
0.195575
0.196309
0.19442
0.189966
0.183073
0.173661
0.162203
0.149191
0.185902
0.166182
0.148557
0.1348
0.125175
0.119704
0.117677
0.118021
0.119333
0.120758
0.121883
0.122736
0.123823
0.126014
0.129658
0.135726
0.144102
0.154308
0.165087
0.175213
0.183634
0.189743
0.193339
0.194352
0.192846
0.188894
0.18275
0.174592
0.164527
0.152864
0.202401
0.182145
0.163533
0.147393
0.134121
0.12421
0.117986
0.114898
0.113987
0.114405
0.115302
0.116356
0.117732
0.120079
0.124099
0.130531
0.13917
0.149516
0.160415
0.170722
0.179364
0.185762
0.189712
0.191162
0.190166
0.186919
0.181563
0.174404
0.1658
0.155635
0.222454
0.202507
0.183868
0.166464
0.150628
0.136896
0.126171
0.118754
0.114345
0.112232
0.111624
0.111974
0.113048
0.115115
0.118904
0.125201
0.133685
0.143846
0.15463
0.164964
0.173771
0.180481
0.18487
0.186891
0.186533
0.184088
0.179698
0.173716
0.166379
0.157586
0.245702
0.227091
0.209123
0.191096
0.17354
0.156952
0.142357
0.13052
0.12177
0.115957
0.112512
0.110936
0.110792
0.111982
0.114888
0.120406
0.128213
0.137777
0.14814
0.158288
0.167159
0.174161
0.179043
0.181739
0.18217
0.180718
0.177486
0.172566
0.166236
0.158668
0.271731
0.254991
0.238024
0.219858
0.201263
0.18281
0.165338
0.149731
0.136694
0.126584
0.119359
0.114654
0.112192
0.111634
0.113036
0.116968
0.123484
0.131948
0.141495
0.151187
0.159966
0.167198
0.172626
0.176119
0.177543
0.177031
0.174761
0.170808
0.165434
0.158852
0.299465
0.284348
0.268374
0.250757
0.232043
0.212699
0.193391
0.174981
0.158327
0.144104
0.132708
0.12418
0.1184
0.115122
0.114172
0.115985
0.12046
0.127223
0.135487
0.14442
0.152957
0.160355
0.166201
0.170309
0.172555
0.172919
0.171559
0.168575
0.164115
0.158434
0.327142
0.31364
0.299128
0.28262
0.264445
0.244996
0.224787
0.204574
0.185236
0.167592
0.15231
0.139782
0.130144
0.123292
0.119266
0.118268
0.120138
0.124658
0.131156
0.138815
0.146655
0.15384
0.159856
0.164417
0.167344
0.168547
0.168028
0.165931
0.162395
0.157593
0.353774
0.342225
0.329484
0.314472
0.297337
0.278388
0.258056
0.236977
0.215953
0.195816
0.17735
0.161157
0.14762
0.136905
0.129093
0.124677
0.123364
0.125054
0.129178
0.134977
0.141566
0.148149
0.154047
0.158803
0.162215
0.16412
0.164377
0.163103
0.160447
0.156491
0.379391
0.369829
0.358981
0.345683
0.32995
0.311993
0.292206
0.271123
0.249422
0.227829
0.207109
0.187958
0.170933
0.156492
0.144609
0.136264
0.131118
0.129342
0.130474
0.133762
0.138501
0.14399
0.149348
0.153962
0.157582
0.159962
0.160889
0.160327
0.158439
0.15532
0.403994
0.396399
0.387438
0.375996
0.361973
0.345505
0.32695
0.306761
0.285457
0.263571
0.241727
0.220599
0.200827
0.182989
0.167438
0.154703
0.14525
0.139174
0.136404
0.136528
0.138848
0.14248
0.14665
0.150598
0.154056
0.156588
0.157951
0.15795
0.156712
0.154372
0.427915
0.422197
0.415164
0.405785
0.393903
0.379605
0.363202
0.345062
0.325502
0.304791
0.283295
0.261526
0.240128
0.219751
0.201092
0.184201
0.169644
0.158182
0.150221
0.145776
0.144457
0.145402
0.147564
0.150183
0.152701
0.154828
0.156197
0.156544
0.155768
0.154028
0.452218
0.448453
0.443586
0.436774
0.427856
0.416913
0.404192
0.38992
0.374146
0.356792
0.337861
0.31753
0.296312
0.274819
0.254029
0.233422
0.212914
0.194556
0.179321
0.167978
0.160653
0.156774
0.155222
0.155074
0.155625
0.15642
0.15703
0.157154
0.156482
0.155255
0.479625
0.478418
0.476639
0.473722
0.469597
0.464352
0.458108
0.450905
0.442407
0.432023
0.419288
0.403819
0.385838
0.36581
0.344849
0.32172
0.294863
0.267437
0.241661
0.219325
0.201443
0.188185
0.178717
0.172318
0.168163
0.165536
0.163791
0.162426
0.160961
0.159787
0.517604
0.520894
0.524809
0.52904
0.53361
0.538525
0.543763
0.549064
0.553421
0.555419
0.554157
0.548312
0.537776
0.522958
0.504969
0.481585
0.449838
0.412895
0.373708
0.33532
0.299899
0.269008
0.243332
0.222929
0.207305
0.19569
0.187186
0.180953
0.17617
0.173506
0.588914
0.601375
0.616404
0.633904
0.653609
0.675211
0.698328
0.722269
0.744751
0.763846
0.777665
0.784295
0.783536
0.776466
0.763902
0.742834
0.708945
0.665171
0.614576
0.560459
0.505307
0.451685
0.401799
0.357422
0.319526
0.28827
0.263296
0.243802
0.228753
0.219929
0.75501
0.782547
0.812929
0.847205
0.884183
0.923557
0.964367
1.00523
1.04126
1.07153
1.09422
1.10799
1.11265
1.10977
1.1003
1.08087
1.0489
1.00656
0.955232
0.897216
0.834344
0.768771
0.702283
0.637708
0.577354
0.522637
0.474621
0.433397
0.398802
0.376802
1.04411
1.06688
1.10108
1.14215
1.18569
1.23186
1.27642
1.31456
1.34433
1.36635
1.3806
1.38607
1.38286
1.37354
1.35754
1.33165
1.30113
1.26637
1.22697
1.18391
1.13823
1.09121
1.04327
0.995602
0.948653
0.902106
0.856733
0.813082
0.772199
0.745588
1.20183
1.19992
1.21894
1.25073
1.28365
1.31313
1.33628
1.35262
1.3623
1.36562
1.36383
1.35809
1.34766
1.3339
1.31182
1.27915
1.24935
1.21898
1.19118
1.16574
1.14391
1.12681
1.11584
1.11058
1.1094
1.10881
1.1089
1.10861
1.10577
1.09811
0.129449
0.144449
0.148261
0.14883
0.147078
0.143191
0.137667
0.131119
0.124018
0.116796
0.10975
0.103151
0.0970884
0.0917968
0.0873222
0.0838943
0.0817179
0.0817204
0.0851785
0.0919542
0.0992295
0.103825
0.104064
0.0996127
0.0909177
0.0785091
0.0635025
0.0464285
0.0309621
0.0215323
0.212892
0.236986
0.240504
0.235587
0.225313
0.212329
0.198175
0.183849
0.169899
0.156769
0.14466
0.133749
0.124026
0.115704
0.108784
0.103547
0.100434
0.101206
0.107502
0.119087
0.132385
0.143135
0.148464
0.14728
0.139402
0.125377
0.106754
0.0843453
0.0637554
0.0458922
0.256113
0.282573
0.288705
0.284308
0.27385
0.259967
0.244253
0.227864
0.211564
0.19601
0.181528
0.168383
0.15666
0.146695
0.138627
0.132904
0.130165
0.13216
0.140261
0.153956
0.169428
0.182243
0.189288
0.189292
0.181572
0.166541
0.145637
0.119533
0.0941737
0.0709815
0.28276
0.305789
0.312112
0.308733
0.299343
0.286359
0.271175
0.254849
0.238224
0.222102
0.206915
0.193017
0.180625
0.170193
0.162044
0.156802
0.155248
0.158753
0.168163
0.182702
0.198654
0.211853
0.219383
0.220032
0.212873
0.197998
0.176614
0.149248
0.121409
0.0950416
0.297648
0.315306
0.3202
0.31763
0.309538
0.298285
0.284694
0.26955
0.253718
0.238163
0.223319
0.20961
0.197426
0.187334
0.179833
0.175737
0.175829
0.180952
0.191316
0.205925
0.221451
0.234157
0.241488
0.24242
0.23593
0.221843
0.201113
0.173996
0.145401
0.117443
0.304571
0.313805
0.317137
0.31533
0.309749
0.300342
0.288412
0.274732
0.260395
0.246306
0.232556
0.219705
0.208382
0.199234
0.192929
0.190496
0.192488
0.199245
0.210329
0.224546
0.239074
0.250764
0.257468
0.258393
0.252531
0.239544
0.220095
0.194234
0.166094
0.137681
0.304701
0.306315
0.306222
0.304154
0.29997
0.2931
0.283928
0.273238
0.26113
0.248391
0.235899
0.224355
0.214433
0.206705
0.202026
0.201638
0.205705
0.214056
0.225684
0.239263
0.252488
0.262852
0.268654
0.269333
0.263974
0.25218
0.234387
0.210432
0.183583
0.155485
0.301852
0.293713
0.288927
0.286059
0.283231
0.278899
0.272705
0.264817
0.255336
0.244977
0.234553
0.224847
0.216405
0.21039
0.207658
0.209555
0.215804
0.225684
0.23772
0.250549
0.262367
0.271273
0.276022
0.27627
0.271277
0.260669
0.244747
0.223107
0.198089
0.170763
0.294597
0.276302
0.266634
0.26272
0.26112
0.259266
0.256262
0.251557
0.244908
0.237192
0.229073
0.221398
0.214908
0.210869
0.210285
0.21455
0.223004
0.23433
0.246677
0.25875
0.269192
0.276646
0.280314
0.279984
0.275287
0.265844
0.251562
0.232201
0.209271
0.183462
0.285689
0.260872
0.246808
0.240387
0.238519
0.238045
0.237176
0.234955
0.231021
0.226119
0.220441
0.214969
0.210608
0.208692
0.210295
0.216917
0.227456
0.240101
0.252736
0.264123
0.273299
0.279419
0.2821
0.281106
0.276267
0.267633
0.255039
0.238034
0.217532
0.193897
0.280851
0.251656
0.23251
0.222225
0.218311
0.21762
0.217806
0.217405
0.215738
0.213004
0.209628
0.206348
0.204135
0.204347
0.208101
0.216983
0.229335
0.243113
0.255989
0.266795
0.274903
0.280076
0.281826
0.280202
0.275222
0.267065
0.255801
0.241153
0.223182
0.20212
0.281743
0.251186
0.227014
0.211115
0.203577
0.200716
0.200425
0.200681
0.200487
0.199503
0.197924
0.196447
0.196228
0.198343
0.20409
0.214953
0.229024
0.243779
0.256877
0.267351
0.274707
0.278814
0.279771
0.27776
0.272901
0.265243
0.255018
0.242329
0.22712
0.208608
0.287027
0.256227
0.230148
0.210403
0.197143
0.190153
0.187616
0.186974
0.187044
0.187001
0.186696
0.186537
0.187689
0.191346
0.198744
0.211194
0.226439
0.241855
0.255107
0.265333
0.2722
0.275717
0.276171
0.274011
0.269432
0.262453
0.253365
0.24249
0.229666
0.2135
0.297355
0.266977
0.239714
0.217074
0.200076
0.188732
0.182098
0.178669
0.177539
0.177221
0.177306
0.177842
0.179627
0.184168
0.192664
0.206146
0.222073
0.237824
0.251133
0.261234
0.267767
0.270971
0.27123
0.269182
0.26508
0.259007
0.251356
0.242016
0.230927
0.216693
0.313019
0.283377
0.256141
0.23189
0.211741
0.196223
0.185256
0.178278
0.17424
0.172108
0.171356
0.171657
0.173402
0.177747
0.18661
0.200393
0.216387
0.232052
0.245272
0.255249
0.26163
0.264787
0.265172
0.263532
0.260169
0.255355
0.249005
0.240879
0.23101
0.218532
0.334247
0.306319
0.279769
0.254743
0.232306
0.213203
0.197918
0.186517
0.178584
0.173452
0.170554
0.169433
0.170192
0.173624
0.181558
0.194734
0.210054
0.225111
0.237969
0.247759
0.254123
0.257497
0.25834
0.257535
0.255271
0.251502
0.246239
0.239239
0.230488
0.219416
0.361169
0.335072
0.309586
0.284402
0.260477
0.238603
0.219539
0.203787
0.191482
0.182414
0.176245
0.172561
0.171272
0.172942
0.178781
0.19023
0.204012
0.217834
0.229917
0.239392
0.245807
0.249764
0.251479
0.251474
0.2501
0.247338
0.243136
0.237233
0.229533
0.219599
0.392379
0.368246
0.344055
0.319177
0.294452
0.270646
0.248614
0.229098
0.212602
0.199317
0.189223
0.182106
0.177886
0.176836
0.179933
0.188214
0.199527
0.211434
0.222206
0.231238
0.2378
0.242117
0.244505
0.24534
0.244836
0.243031
0.239814
0.234979
0.228269
0.219364
0.426335
0.404212
0.381466
0.35725
0.332302
0.307341
0.283234
0.26083
0.240837
0.223694
0.209657
0.198741
0.190996
0.186651
0.186303
0.190826
0.19864
0.207827
0.216805
0.224733
0.230879
0.235227
0.238029
0.239534
0.239803
0.238833
0.236503
0.232635
0.226838
0.218906
0.461504
0.441395
0.420208
0.396966
0.372322
0.346948
0.321697
0.297443
0.274977
0.254853
0.237481
0.223042
0.211742
0.203832
0.199827
0.20025
0.204038
0.209663
0.215817
0.221645
0.226498
0.230292
0.232998
0.234745
0.23551
0.23513
0.233495
0.23044
0.225425
0.218386
0.496745
0.478621
0.459086
0.43715
0.413382
0.388401
0.363031
0.338135
0.314505
0.292705
0.273186
0.256179
0.242014
0.230932
0.223496
0.219712
0.218967
0.220091
0.222247
0.224745
0.227145
0.229251
0.230924
0.232156
0.232813
0.232572
0.231284
0.228731
0.22428
0.218012
0.531546
0.515377
0.49765
0.477473
0.455319
0.431754
0.407552
0.383537
0.360447
0.338787
0.318955
0.301123
0.285654
0.272693
0.262817
0.255406
0.249698
0.24513
0.241467
0.238682
0.236721
0.235398
0.23451
0.233894
0.233294
0.232328
0.230633
0.227937
0.223717
0.218036
0.56638
0.552231
0.536713
0.519054
0.499634
0.478957
0.45773
0.436716
0.416562
0.397665
0.38027
0.364394
0.350336
0.338005
0.32781
0.318282
0.307756
0.296108
0.284091
0.272817
0.263105
0.25509
0.24873
0.243793
0.239905
0.236605
0.233381
0.229785
0.225067
0.219715
0.603388
0.591771
0.579388
0.565628
0.550778
0.535288
0.519789
0.504944
0.491273
0.478999
0.468105
0.458282
0.449634
0.441709
0.434572
0.425547
0.411184
0.391642
0.368587
0.344424
0.321644
0.301353
0.28418
0.270189
0.259074
0.25028
0.243087
0.236828
0.230601
0.224836
0.648318
0.640612
0.633292
0.625951
0.618795
0.612196
0.60663
0.602602
0.600413
0.599892
0.60059
0.601555
0.602698
0.603173
0.602604
0.596723
0.580111
0.553141
0.517722
0.477657
0.436721
0.397328
0.361555
0.330694
0.305238
0.284946
0.268991
0.256366
0.245871
0.238267
0.715155
0.714265
0.715666
0.718996
0.724343
0.731823
0.74156
0.753717
0.768074
0.783855
0.799688
0.813949
0.826617
0.836828
0.843793
0.840919
0.822576
0.789735
0.744229
0.690077
0.631171
0.570034
0.510457
0.455295
0.406876
0.366413
0.333837
0.30813
0.287911
0.275151
0.833782
0.846065
0.861381
0.879994
0.902391
0.927809
0.955676
0.985581
1.01652
1.04706
1.07514
1.09887
1.11855
1.13353
1.14238
1.13676
1.11386
1.07654
1.02659
0.96697
0.899799
0.82615
0.750305
0.674703
0.603014
0.538692
0.483985
0.438463
0.401571
0.37883
1.05208
1.07587
1.10591
1.14093
1.17814
1.21705
1.25646
1.29513
1.33141
1.36407
1.39139
1.4119
1.42562
1.42895
1.42316
1.3982
1.36235
1.31927
1.27203
1.22117
1.16705
1.11009
1.04503
0.976365
0.906337
0.837371
0.773817
0.71614
0.665738
0.633244
1.33599
1.35092
1.38145
1.42174
1.46488
1.50635
1.54293
1.57261
1.59503
1.61083
1.61984
1.62104
1.61426
1.59877
1.57096
1.52269
1.47315
1.42331
1.37753
1.33552
1.29775
1.26397
1.23555
1.21277
1.19331
1.17252
1.14475
1.11438
1.08267
1.05868
1.413
1.42107
1.44711
1.48376
1.52182
1.55547
1.58136
1.59831
1.60649
1.60718
1.60036
1.58658
1.5649
1.53335
1.48714
1.42379
1.3659
1.31254
1.26858
1.23408
1.21035
1.19689
1.19465
1.20419
1.2221
1.24406
1.26781
1.2898
1.30536
1.31256
0.16631
0.183953
0.186171
0.184061
0.180344
0.174594
0.167093
0.158482
0.149329
0.140137
0.131178
0.122783
0.115045
0.108321
0.102684
0.0985762
0.0965726
0.0992324
0.109902
0.12658
0.141641
0.14967
0.149642
0.142605
0.130152
0.113364
0.09348
0.0711519
0.0510657
0.0349213
0.275489
0.303534
0.304318
0.29702
0.2841
0.268028
0.250418
0.232566
0.215128
0.19861
0.183191
0.169129
0.156352
0.145228
0.135796
0.128644
0.125215
0.130446
0.148244
0.175459
0.201845
0.219427
0.225543
0.220873
0.207186
0.18606
0.159264
0.127587
0.0978158
0.0727329
0.334908
0.363866
0.367144
0.360871
0.347794
0.330638
0.311123
0.290726
0.27038
0.250769
0.232224
0.215129
0.199568
0.186076
0.174957
0.16714
0.164391
0.171589
0.192493
0.22322
0.253054
0.273652
0.282062
0.278755
0.265087
0.2425
0.212729
0.176191
0.139888
0.107499
0.373775
0.397152
0.401011
0.395627
0.383607
0.367278
0.348124
0.327596
0.306701
0.286167
0.266503
0.248204
0.23156
0.217256
0.20592
0.198712
0.197571
0.206585
0.228668
0.259668
0.289547
0.310482
0.319663
0.317477
0.304794
0.28281
0.252823
0.21498
0.17561
0.139027
0.399451
0.414505
0.417093
0.412009
0.401349
0.386679
0.368942
0.349627
0.329555
0.309393
0.289872
0.271563
0.254977
0.240947
0.230418
0.224759
0.225701
0.2365
0.258673
0.288121
0.316201
0.335936
0.344871
0.343378
0.331946
0.311445
0.2828
0.245821
0.205779
0.166784
0.415086
0.420658
0.420309
0.415065
0.405763
0.392943
0.377172
0.360112
0.341878
0.322968
0.304533
0.287142
0.271507
0.258622
0.249723
0.246385
0.249758
0.262174
0.283846
0.310778
0.335902
0.35345
0.361397
0.360118
0.349856
0.331189
0.30473
0.269947
0.230953
0.190857
0.422746
0.418675
0.413677
0.407406
0.399528
0.389524
0.377427
0.362397
0.345802
0.328392
0.311886
0.296178
0.282221
0.271222
0.264663
0.26427
0.270332
0.2842
0.304967
0.328891
0.350434
0.36518
0.371595
0.370078
0.360776
0.344044
0.320236
0.288499
0.251567
0.211384
0.424722
0.41052
0.399644
0.391478
0.384595
0.377074
0.367868
0.356106
0.34262
0.328359
0.313622
0.29968
0.287922
0.279434
0.27583
0.278851
0.287767
0.302894
0.32248
0.343169
0.360917
0.372557
0.377081
0.374935
0.366391
0.351433
0.329941
0.301261
0.26699
0.228582
0.423875
0.397935
0.380479
0.369685
0.363325
0.358163
0.351944
0.343464
0.333196
0.321792
0.309915
0.298639
0.289416
0.283871
0.283711
0.290408
0.302261
0.318399
0.336616
0.353996
0.36807
0.37657
0.379039
0.375705
0.367024
0.3533
0.33431
0.30897
0.278087
0.242355
0.418346
0.381818
0.359005
0.345692
0.339085
0.335314
0.331563
0.326124
0.319157
0.310839
0.302013
0.29365
0.287419
0.285102
0.28876
0.299201
0.313854
0.330776
0.347497
0.361828
0.37238
0.37794
0.378418
0.37412
0.365304
0.352236
0.33498
0.312989
0.286169
0.253499
0.409477
0.368081
0.340234
0.323577
0.315446
0.311876
0.309654
0.306602
0.30227
0.296784
0.290998
0.285662
0.282657
0.283779
0.291313
0.305431
0.322567
0.339968
0.355185
0.366787
0.374173
0.377223
0.375938
0.370924
0.36215
0.349846
0.334135
0.315249
0.291746
0.261908
0.403557
0.359478
0.326637
0.306399
0.295408
0.290546
0.288542
0.286877
0.284577
0.281458
0.278149
0.275695
0.275906
0.280416
0.291751
0.30927
0.328432
0.345967
0.359772
0.369001
0.374087
0.374758
0.372075
0.366556
0.3581
0.346765
0.332901
0.316191
0.294969
0.267706
0.40309
0.358805
0.322943
0.296902
0.281822
0.274131
0.270795
0.269175
0.267924
0.266476
0.265222
0.264981
0.267956
0.275684
0.290496
0.310909
0.331524
0.348847
0.361428
0.369044
0.371862
0.370832
0.367203
0.361475
0.353554
0.34367
0.331415
0.315901
0.296525
0.271512
0.406877
0.363453
0.326802
0.298124
0.277734
0.265224
0.259039
0.255894
0.254389
0.253628
0.253719
0.255102
0.259832
0.270385
0.288069
0.310808
0.332251
0.349276
0.3607
0.366637
0.367862
0.365786
0.361713
0.356182
0.349334
0.340794
0.329519
0.315029
0.296958
0.273865
0.415938
0.374039
0.337208
0.306302
0.282623
0.266261
0.255554
0.249307
0.246094
0.244797
0.245185
0.247353
0.253183
0.265467
0.285136
0.309214
0.330771
0.347046
0.357561
0.362325
0.362557
0.360095
0.356189
0.35157
0.345684
0.337844
0.327355
0.313756
0.296697
0.275199
0.430961
0.390864
0.354239
0.32222
0.295827
0.275494
0.260763
0.250914
0.244877
0.241778
0.241217
0.243108
0.249371
0.261914
0.282578
0.307037
0.327989
0.343234
0.352863
0.356838
0.356777
0.354764
0.351676
0.347532
0.34209
0.33486
0.325042
0.312214
0.296041
0.275846
0.452087
0.414225
0.378886
0.346397
0.317874
0.294069
0.275274
0.261326
0.25171
0.245773
0.243225
0.243794
0.249271
0.261243
0.281595
0.30547
0.325121
0.339073
0.347829
0.351439
0.352079
0.350463
0.347611
0.343777
0.338708
0.331953
0.322683
0.310511
0.295106
0.276032
0.47959
0.444142
0.410125
0.37755
0.34751
0.320906
0.298461
0.280496
0.266991
0.257631
0.252341
0.250837
0.25478
0.26546
0.283905
0.30628
0.324015
0.336573
0.344652
0.348504
0.348982
0.347226
0.344352
0.340662
0.335773
0.329274
0.320391
0.308748
0.294007
0.275961
0.512588
0.479115
0.446338
0.413976
0.383035