/*--------------------------------*- C++ -*----------------------------------*\
  =========                 |
  \\      /  F ield         | OpenFOAM: The Open Source CFD Toolbox
   \\    /   O peration     | Website:  https://openfoam.org
    \\  /    A nd           | Version:  12
     \\/     M anipulation  |
\*---------------------------------------------------------------------------*/
FoamFile
{
    format      ascii;
    class       volScalarField;
    location    "1500/air";
    object      nut;
}
// * * * * * * * * * * * * * * * * * * * * * * * * * * * * * * * * * * * * * //

dimensions      [0 2 -1 0 0 0 0];

internalField   nonuniform List<scalar> 
243000
(
0.000127864
0.000130141
0.000129385
0.000127199
0.00012392
0.000119883
0.000115401
0.000110723
0.000106033
0.000101475
9.7139e-05
9.31451e-05
8.95642e-05
8.64399e-05
8.37417e-05
8.14554e-05
7.95643e-05
7.81556e-05
7.73668e-05
7.73216e-05
7.7963e-05
7.8986e-05
7.98938e-05
8.00955e-05
7.91156e-05
7.65259e-05
0.00033602
0.000323315
0.000293907
0.000260687
0.000474369
0.000479107
0.000469379
0.000452843
0.000433479
0.00041306
0.000392607
0.00037278
0.000353986
0.000336494
0.000320475
0.000306128
0.000293492
0.000282646
0.000273587
0.000266351
0.000261008
0.000258044
0.000257956
0.000261209
0.000267494
0.000275674
0.000283946
0.000290294
0.000292875
0.000290078
0.000283502
0.000267213
0.000249486
0.000223738
0.00058664
0.000626381
0.000640588
0.000643046
0.000638442
0.000629331
0.000617239
0.000603234
0.000588021
0.000572153
0.000556035
0.000540125
0.00052462
0.000509906
0.00049625
0.000483998
0.000473581
0.000466108
0.000462373
0.000462849
0.000466622
0.000471686
0.000475266
0.000474651
0.000467444
0.000451915
0.00042839
0.000395096
0.000357165
0.00030891
0.000576499
0.000626665
0.000650347
0.000658772
0.000657821
0.000651173
0.000640737
0.000627855
0.000613404
0.000598033
0.00058223
0.000566493
0.000551101
0.000536517
0.000523104
0.000511316
0.000501713
0.000495458
0.000493199
0.000495065
0.000499932
0.000505824
0.000510192
0.000510621
0.00050476
0.00049084
0.000468741
0.000437004
0.000399454
0.000351854
0.000548455
0.000606574
0.000639249
0.000655039
0.000659889
0.000657494
0.000650276
0.000639951
0.000627499
0.000613648
0.000599046
0.000584238
0.000569611
0.000555726
0.000543029
0.000532106
0.000523625
0.000518733
0.000517892
0.000520873
0.000526405
0.000532603
0.000537188
0.000538074
0.000533113
0.000520597
0.00050017
0.000470669
0.000434848
0.000389901
0.000514494
0.000570967
0.000611851
0.000636113
0.000648217
0.000651685
0.000649237
0.000642404
0.000632726
0.000621122
0.000608464
0.000595188
0.000581833
0.000569076
0.000557425
0.00054765
0.000540471
0.000536992
0.000537462
0.000541367
0.000547338
0.000553592
0.000558123
0.000559159
0.000554808
0.000543495
0.000524734
0.000497643
0.000464121
0.000422379
0.00049743
0.00053506
0.000574952
0.000605836
0.000625617
0.000635758
0.000638872
0.000636684
0.000630752
0.00062224
0.000611902
0.000600569
0.00058891
0.000577609
0.000567276
0.000558847
0.000553069
0.000550992
0.000552653
0.000557341
0.000563627
0.000569833
0.000574197
0.000575227
0.000571301
0.000561008
0.000543827
0.000519093
0.000488108
0.000449633
0.000500781
0.000514485
0.000544336
0.000574681
0.000597897
0.000612788
0.000621413
0.000624209
0.000622579
0.000617663
0.000610297
0.000601419
0.00059172
0.000582119
0.00057331
0.000566358
0.000562027
0.000561305
0.000564043
0.00056941
0.000575945
0.000582079
0.000586253
0.000587217
0.0005836
0.00057418
0.000558461
0.000535943
0.000507601
0.000472231
0.000519296
0.000511007
0.000523917
0.000547616
0.000571056
0.000588975
0.000600929
0.00060717
0.000609636
0.000608496
0.00060443
0.000598309
0.000590893
0.000583217
0.00057609
0.000570696
0.000567823
0.000568371
0.00057209
0.000578057
0.000584818
0.000590897
0.000594915
0.000595816
0.000592451
0.000583792
0.000569418
0.000549007
0.000523192
0.000490752
0.000547048
0.000525541
0.000518981
0.00052906
0.000547396
0.000565599
0.000579899
0.000589216
0.000594397
0.000596107
0.00059518
0.000591934
0.000587012
0.000581413
0.000576081
0.000572278
0.000570842
0.000572556
0.000577154
0.000583666
0.000590652
0.000596729
0.000600664
0.000601545
0.000598423
0.000590457
0.000577381
0.000558808
0.000535305
0.000505672
0.000577502
0.000551762
0.000531513
0.000524715
0.000531523
0.000545233
0.000559428
0.000570712
0.00057837
0.00058253
0.000583761
0.000583072
0.000580607
0.000577169
0.000573671
0.000571465
0.000571396
0.000574206
0.000579563
0.000586568
0.000593789
0.000599933
0.000603884
0.000604811
0.00060197
0.00059469
0.000582675
0.000565749
0.000544385
0.00051756
0.000607831
0.000583515
0.000557389
0.000537357
0.000529132
0.000532559
0.00054227
0.000553048
0.000562089
0.000568327
0.000571692
0.000572762
0.000572342
0.000570939
0.00056925
0.000568581
0.000569791
0.00057358
0.00057971
0.000587182
0.000594649
0.000600898
0.000604917
0.000605941
0.000603377
0.000596691
0.000585676
0.000570244
0.000550826
0.000526573
0.000637726
0.000615575
0.000589069
0.000563094
0.000542852
0.000532885
0.000533
0.000539153
0.000547127
0.000554224
0.000559239
0.000562024
0.000563037
0.000563265
0.000563218
0.000563962
0.000566327
0.000570966
0.000577683
0.000585566
0.00059332
0.000599776
0.000603978
0.00060519
0.00060288
0.0005967
0.000586642
0.000572618
0.00055496
0.000533048
0.000666889
0.000646189
0.000621745
0.000595257
0.000569297
0.000548417
0.000536422
0.000533436
0.000536465
0.000541936
0.000547273
0.000551216
0.000553542
0.000554789
0.000556024
0.000557972
0.000561326
0.000566663
0.000573842
0.000582059
0.000590074
0.000596774
0.000601248
0.000602772
0.000600867
0.000595246
0.00058599
0.000573151
0.000557116
0.000537343
0.000695224
0.00067587
0.000654419
0.000629294
0.000602348
0.00057593
0.000554018
0.000539938
0.000534134
0.000534376
0.000537566
0.000541286
0.000544287
0.000546384
0.000548253
0.000551042
0.000555137
0.000560993
0.000568489
0.000576931
0.000585162
0.000592118
0.000596919
0.000598857
0.000597454
0.000592508
0.000584059
0.000572278
0.000557613
0.000539781
0.000722663
0.000704526
0.000684803
0.000662028
0.000636659
0.000609332
0.000582365
0.000559349
0.000543338
0.000535065
0.000532835
0.000533971
0.000536248
0.00053852
0.000540706
0.000543719
0.000548181
0.000554309
0.000561944
0.000570473
0.000578841
0.00058603
0.000591185
0.000593607
0.00059279
0.000588588
0.000581041
0.000570327
0.000557049
0.000541081
0.000749083
0.000732038
0.000713729
0.000693105
0.000669894
0.000643914
0.000615952
0.000588254
0.000564117
0.000546421
0.000536052
0.000531711
0.000531047
0.000532152
0.000533989
0.000536734
0.000540996
0.000547034
0.000554569
0.000563013
0.000571399
0.000578764
0.000584272
0.000587227
0.000587075
0.000583789
0.000577488
0.000568145
0.000556254
0.000541929
0.000774304
0.000758199
0.000741087
0.000722343
0.000701229
0.000677286
0.000650475
0.00062171
0.00059319
0.000568039
0.000548968
0.000536925
0.000530863
0.000528777
0.000529007
0.00053085
0.000534366
0.000539738
0.000546828
0.000554961
0.000563212
0.000570685
0.000576626
0.000580278
0.000581058
0.000578828
0.000573713
0.000565681
0.000555135
0.000542296
0.000798112
0.000782827
0.000766789
0.000749694
0.000730463
0.000708584
0.000683686
0.000655881
0.000626208
0.000596898
0.000570936
0.000550869
0.000537587
0.000530215
0.000527087
0.000526901
0.000529041
0.00053333
0.000539553
0.000547116
0.000555141
0.000562697
0.000568974
0.000573227
0.000574867
0.000573637
0.000569636
0.00056286
0.000553613
0.000542144
0.000820348
0.00080583
0.000790869
0.000775228
0.000757668
0.00073767
0.000714769
0.000688723
0.000659812
0.000629239
0.000599286
0.00057282
0.000552156
0.000538055
0.000529782
0.000526066
0.000525814
0.000528372
0.000533294
0.000539948
0.000547463
0.000554889
0.00056135
0.00056608
0.000568484
0.000568181
0.000565232
0.000559662
0.000551651
0.00054148
0.000840938
0.000827258
0.000813851
0.000799282
0.000783045
0.000764627
0.000743547
0.00071942
0.000692127
0.000662129
0.000630806
0.00060049
0.000573896
0.000552988
0.000538418
0.000529695
0.000525761
0.000525645
0.000528593
0.000533836
0.000540451
0.000547443
0.000553869
0.000558908
0.000561935
0.000562482
0.000560514
0.000556061
0.000549237
0.000540304
0.000859973
0.000847672
0.000835009
0.000821389
0.000806328
0.00078933
0.000769927
0.000747693
0.000722331
0.00069387
0.000662984
0.000631219
0.000600943
0.000574488
0.000553621
0.000538974
0.000530135
0.000526197
0.000526265
0.000529386
0.000534559
0.000540692
0.000546764
0.000551872
0.000555333
0.000556612
0.000555531
0.000552102
0.00054642
0.000538665
0.000877459
0.000865895
0.000853998
0.000841308
0.000827375
0.000811735
0.000793943
0.000773576
0.000750264
0.000723813
0.000694433
0.000663011
0.000631251
0.000601248
0.000575207
0.000554677
0.000540179
0.000531344
0.000527452
0.000527542
0.0005305
0.000535187
0.000540448
0.000545284
0.000548911
0.000550732
0.000550406
0.000547903
0.000543296
0.000536664
0.000892589
0.000881864
0.000870831
0.00085912
0.000846337
0.000832074
0.00081592
0.000797466
0.000776318
0.000752172
0.000724955
0.000695083
0.000663631
0.00063216
0.000602745
0.000577316
0.00055717
0.000542735
0.000533832
0.000529772
0.000529541
0.000531898
0.000535664
0.000539707
0.000543106
0.000545165
0.000545403
0.00054368
0.000540031
0.000534476
0.000906103
0.000896295
0.000886193
0.000875525
0.000863978
0.000851209
0.000836839
0.000820482
0.00080174
0.000780242
0.000755746
0.000728322
0.000698599
0.000667535
0.000636756
0.000608075
0.000583099
0.000562945
0.000548222
0.000538811
0.000534048
0.000532884
0.000534069
0.000536405
0.000538878
0.000540661
0.000541104
0.000539915
0.00053703
0.000532463
0.000918769
0.00091014
0.000901245
0.000891928
0.000881962
0.000871069
0.00085893
0.000845184
0.000829425
0.000811223
0.000790209
0.000766199
0.00073943
0.000710513
0.000680437
0.000650543
0.000622255
0.000597019
0.000576182
0.000560329
0.000549431
0.0005429
0.000539742
0.000538827
0.000539056
0.000539456
0.000539293
0.000538033
0.000535457
0.000531539
0.000933521
0.000926818
0.000919875
0.000912653
0.000905041
0.000896874
0.000887901
0.000877799
0.000866128
0.000852383
0.000836059
0.000816762
0.000794419
0.000769375
0.000742249
0.000713547
0.000684062
0.000655367
0.000629095
0.000606419
0.000588005
0.000573971
0.000563896
0.000557041
0.000552492
0.000549283
0.000546577
0.000543707
0.000540247
0.000536155
0.00096048
0.000956966
0.000953141
0.000949272
0.000945519
0.00094185
0.000938036
0.000933693
0.000928203
0.000920904
0.000911174
0.000898497
0.000882623
0.000863667
0.000842103
0.000817524
0.000789761
0.000760562
0.000731343
0.000703516
0.000678113
0.000655798
0.0006368
0.000621088
0.00060829
0.000597681
0.000588626
0.000580581
0.00057309
0.000566508
0.00103935
0.00103984
0.00104022
0.00104195
0.00104538
0.00104985
0.00105461
0.00105887
0.00106189
0.0010627
0.00106091
0.00105625
0.00104848
0.0010379
0.00102452
0.00100751
0.000985634
0.000961035
0.000934962
0.000908555
0.000882658
0.000857835
0.000834563
0.000813298
0.00079406
0.000775529
0.000757999
0.000741739
0.000726977
0.000714894
0.00132299
0.00132113
0.00132335
0.0013311
0.00134079
0.00134841
0.00135447
0.00135902
0.00136224
0.00136237
0.00136093
0.0013583
0.00135457
0.00135039
0.00134501
0.00133819
0.00132705
0.00131598
0.00130525
0.00129565
0.00128701
0.00127944
0.00127289
0.00126767
0.00126327
0.00125424
0.00124449
0.00123486
0.00122711
0.00122045
0.000160481
0.000164294
0.000162437
0.000158316
0.000152819
0.000146517
0.000139833
0.000133113
0.000126581
0.000120417
0.000114758
0.00010973
0.000105358
0.000101715
9.87911e-05
9.66403e-05
9.53019e-05
9.50155e-05
9.6114e-05
9.87014e-05
0.000102187
0.000105562
0.000107896
0.000108476
0.000106821
0.000102404
9.5071e-05
8.35529e-05
7.30467e-05
0.000334367
0.00067007
0.000750125
0.000728795
0.000672028
0.000607259
0.000545845
0.000491588
0.000444767
0.000404555
0.00037054
0.000341971
0.000317824
0.000297293
0.000280384
0.000266384
0.000255382
0.000247109
0.000243113
0.000243392
0.000248402
0.000258099
0.000271562
0.000286185
0.000298319
0.000302839
0.000297501
0.000282981
0.000258879
0.000243935
0.000277945
0.00103659
0.0011846
0.00119435
0.00113947
0.00105988
0.000974448
0.000892338
0.000817702
0.000751344
0.000693804
0.000644606
0.000602711
0.000566976
0.000537677
0.000513846
0.000495235
0.000481469
0.000473964
0.000470062
0.000470039
0.000476021
0.00048921
0.000506827
0.000523028
0.00052996
0.000520735
0.000495543
0.000452013
0.000413203
0.00039739
0.0012599
0.00144521
0.00148323
0.00144838
0.00137808
0.00129257
0.00120327
0.00111837
0.00104025
0.000970223
0.000909144
0.000856782
0.000812253
0.000776335
0.000748323
0.000727775
0.000714607
0.00070805
0.000702937
0.000698433
0.000698025
0.000705446
0.000719487
0.00073514
0.000740754
0.00072799
0.0006952
0.000638817
0.000580121
0.000540508
0.00137257
0.00155619
0.00162963
0.00162773
0.00157587
0.00150229
0.00141704
0.00133522
0.00125682
0.00118287
0.00111768
0.00106137
0.00101364
0.00097611
0.000948444
0.00093059
0.000922568
0.000920647
0.000915515
0.000908003
0.000902471
0.000903639
0.000912583
0.000925295
0.000929367
0.000914521
0.000877754
0.000814692
0.000743302
0.000689057
0.00143172
0.0016015
0.00168456
0.00170437
0.0016785
0.00162485
0.00156089
0.00148383
0.00140755
0.00133417
0.00127225
0.00121764
0.0011712
0.00113598
0.00111224
0.00110069
0.00110036
0.00110434
0.00110269
0.00109401
0.00108387
0.00107965
0.00108349
0.00109414
0.00109621
0.00108043
0.0010421
0.000976722
0.000899059
0.000835499
0.00145307
0.00157714
0.00165927
0.00169565
0.00169561
0.00166794
0.00162312
0.00156478
0.00150148
0.00144102
0.00138162
0.0013306
0.00128854
0.00125897
0.00124197
0.00123944
0.00124841
0.0012591
0.00126153
0.00125307
0.00124098
0.00123314
0.00123258
0.00124005
0.00124241
0.00122674
0.00118873
0.00112435
0.00104433
0.000973921
0.00143253
0.00150171
0.00156382
0.00161055
0.00163791
0.00164308
0.00162351
0.00158816
0.00154303
0.00149559
0.00144811
0.0014056
0.00137148
0.00134911
0.00134066
0.00134888
0.00136823
0.00138719
0.00139348
0.00138689
0.00137506
0.00136541
0.00136094
0.00136527
0.0013671
0.00135409
0.0013184
0.00125747
0.00117874
0.00110363
0.0014187
0.00143473
0.00146675
0.00150337
0.00153779
0.00156158
0.00156866
0.00156165
0.00153911
0.00150956
0.001477
0.00144671
0.00142276
0.0014101
0.00141156
0.00143116
0.00146122
0.00148871
0.00150175
0.00149865
0.00148833
0.00147701
0.00146998
0.00147144
0.00147184
0.00146173
0.00143203
0.00137677
0.00130235
0.00122345
0.00144881
0.00140533
0.00139058
0.00140238
0.00142779
0.00145697
0.00148013
0.00149362
0.00149536
0.00148759
0.00147294
0.00145755
0.00144629
0.00144538
0.00145768
0.00148883
0.00152948
0.00156419
0.00158473
0.00158765
0.00158014
0.00156943
0.00156137
0.00156037
0.0015594
0.00155251
0.00152849
0.00148125
0.00141186
0.00133232
0.00149863
0.00142051
0.00135689
0.00132982
0.00133187
0.00135198
0.00137864
0.00140402
0.00142311
0.0014353
0.00144073
0.00144213
0.00144558
0.00145763
0.00148158
0.00152429
0.00157524
0.00162202
0.00165016
0.00165863
0.00165437
0.00164541
0.00163736
0.00163376
0.00163155
0.00162523
0.00160541
0.00156687
0.00150604
0.00143109
0.00157888
0.00147108
0.00137453
0.00130534
0.00127045
0.00126928
0.00128561
0.00131147
0.0013391
0.0013644
0.00138607
0.00140498
0.00142408
0.00144972
0.00148587
0.0015399
0.00160075
0.00165576
0.00169259
0.00171026
0.00171265
0.00170687
0.00169908
0.00169324
0.00168722
0.00167827
0.00166355
0.0016338
0.00158389
0.00151694
0.0016835
0.00155958
0.00143714
0.00133677
0.00126832
0.00123206
0.00122263
0.00123657
0.00126104
0.0012906
0.00132157
0.00135303
0.00138615
0.00142536
0.00147368
0.00153834
0.00160824
0.00167127
0.0017165
0.00174212
0.00175208
0.00175154
0.00174639
0.00174034
0.00173328
0.00172225
0.00170715
0.00168428
0.00164486
0.00158886
0.00181943
0.00168698
0.00155078
0.0014268
0.00132594
0.00125431
0.00121431
0.001201
0.00120852
0.00123119
0.0012619
0.00129844
0.00134008
0.00138971
0.00144897
0.00152285
0.00160059
0.00167098
0.00172406
0.0017584
0.00177598
0.00178145
0.00178015
0.00177568
0.00176901
0.00175891
0.0017436
0.00172302
0.00169411
0.001651
0.00198021
0.0018492
0.00170983
0.00157256
0.00144787
0.00134402
0.00126806
0.00122146
0.00120188
0.00120458
0.00122323
0.00125542
0.00129755
0.0013504
0.00141697
0.00149752
0.00158117
0.00165768
0.00171786
0.00176046
0.00178567
0.00179769
0.0018013
0.00180003
0.00179522
0.00178709
0.00177425
0.00175806
0.0017361
0.00170354
0.00216385
0.00204269
0.00190792
0.0017657
0.00162629
0.00149812
0.00139024
0.00130838
0.00125449
0.00122751
0.00122342
0.00123923
0.00127166
0.0013199
0.00138453
0.00146756
0.00155422
0.00163478
0.00170066
0.00175036
0.00178292
0.00180174
0.00181115
0.00181461
0.00181333
0.00180933
0.0018015
0.00178814
0.00176922
0.00174486
0.00236481
0.0022588
0.00213383
0.00199349
0.0018479
0.00170499
0.00157335
0.0014606
0.00137203
0.00131022
0.00127496
0.00126446
0.00127665
0.00130978
0.00136402
0.00143963
0.00152502
0.00160657
0.0016759
0.00173119
0.00177041
0.00179603
0.00181206
0.00182174
0.00182628
0.00182623
0.00182121
0.00181048
0.00179396
0.00177317
0.00257666
0.0024862
0.00237383
0.00224167
0.0020978
0.00194908
0.00180289
0.00166712
0.00154876
0.00145304
0.00138298
0.00133973
0.00132268
0.00133121
0.00136485
0.00142474
0.00150007
0.00157836
0.00164825
0.00170724
0.00175237
0.00178464
0.00180651
0.00182119
0.00183026
0.0018341
0.00183242
0.00182556
0.00181155
0.00179346
0.0027903
0.0027151
0.00261774
0.00249787
0.00236125
0.00221377
0.00206135
0.00191113
0.00177047
0.00164593
0.00154272
0.0014646
0.0014131
0.00138917
0.0013944
0.00142967
0.00148652
0.00155466
0.00162146
0.00168057
0.00172845
0.00176496
0.00179178
0.00181132
0.00182507
0.0018336
0.00183581
0.00183254
0.00182241
0.00180775
0.00299741
0.00293729
0.0028554
0.00274966
0.00262376
0.00248235
0.00233019
0.00217314
0.00201788
0.00187124
0.00173949
0.00162826
0.00154121
0.00148181
0.00145207
0.00145546
0.00148749
0.00153767
0.00159559
0.00165166
0.00169941
0.0017388
0.00176978
0.0017936
0.00181195
0.0018253
0.00183244
0.00183344
0.00182841
0.00181747
0.0031915
0.00314405
0.00307602
0.00298409
0.00287022
0.00273759
0.00258991
0.00243157
0.00226798
0.00210537
0.00195035
0.00180988
0.00168949
0.00159536
0.00152849
0.0014965
0.00149637
0.00152418
0.00156827
0.00161588
0.00166277
0.00170548
0.00174055
0.00176828
0.00179135
0.00180972
0.00182271
0.00182872
0.00182884
0.00182339
0.00336367
0.00332449
0.00326661
0.00318614
0.00308347
0.00296014
0.00281857
0.00266158
0.00249315
0.00231864
0.00214481
0.00197967
0.00183032
0.00170481
0.00160429
0.00153617
0.00150247
0.00150141
0.00152676
0.00156799
0.00161426
0.00165732
0.00169754
0.00173089
0.00176096
0.0017855
0.00180519
0.00181758
0.00182388
0.00182602
0.00349843
0.00346155
0.00340886
0.00333597
0.00324174
0.00312594
0.00298925
0.00283302
0.0026601
0.00247564
0.00228696
0.00210304
0.00193197
0.00178199
0.0016564
0.00155801
0.00149071
0.00145778
0.00145815
0.00148522
0.00152956
0.00157952
0.00162762
0.00167172
0.0017096
0.00174343
0.00177236
0.00179531
0.00181261
0.00182439
0.00356986
0.00352932
0.00347633
0.00340629
0.00331645
0.00320462
0.00306961
0.00291177
0.00273419
0.00254322
0.00234728
0.00215592
0.00197644
0.00181537
0.00167827
0.00156136
0.00146575
0.00140092
0.00136874
0.00136911
0.00139791
0.00144613
0.00150287
0.00156114
0.00161556
0.00166521
0.00170935
0.00174806
0.00178022
0.0018076
0.00353965
0.00349055
0.0034333
0.00336312
0.00327539
0.00316589
0.0030323
0.00287568
0.00270141
0.00251765
0.00233289
0.00215575
0.00198972
0.00183892
0.00170817
0.0015902
0.00148011
0.00138887
0.00132087
0.00128044
0.00127019
0.00128899
0.00133034
0.00138726
0.00145233
0.00151973
0.00158514
0.00164615
0.00170071
0.00175073
0.00335953
0.00330758
0.00325214
0.00318753
0.00310838
0.00301032
0.00289225
0.00275739
0.00261246
0.00246385
0.00231762
0.00217829
0.00204647
0.00192541
0.00181793
0.00171532
0.001609
0.00150747
0.00141469
0.00133607
0.00127651
0.00124019
0.00122872
0.00124195
0.00127733
0.00133036
0.00139529
0.00146649
0.00153888
0.00161208
0.00303386
0.00300119
0.00297099
0.00293656
0.00289154
0.00283165
0.00275694
0.00267139
0.00258
0.0024864
0.00239279
0.00229933
0.00220572
0.00211717
0.0020373
0.00195731
0.00186707
0.00177307
0.00167791
0.00158567
0.00149969
0.00142376
0.0013613
0.00131586
0.00128961
0.00128334
0.0012964
0.00132665
0.00137098
0.00143325
0.00275414
0.00276965
0.00278946
0.0028012
0.00280011
0.00278409
0.00275432
0.00271486
0.00266669
0.00261325
0.00255555
0.00249363
0.00242754
0.00236221
0.00230254
0.0022419
0.00217314
0.00210057
0.0020246
0.00194814
0.00187287
0.00180033
0.00173113
0.00166824
0.00161314
0.00156727
0.00153258
0.00151005
0.00150067
0.00152101
0.00269666
0.00272339
0.0027588
0.00279204
0.00281191
0.00281799
0.00280972
0.00278888
0.00275824
0.00272131
0.00267951
0.00263234
0.00258145
0.00253259
0.00248638
0.00243894
0.0023908
0.00234251
0.00229523
0.00225081
0.00221035
0.0021743
0.00214085
0.00211245
0.00208584
0.00206017
0.00203725
0.00201834
0.00200486
0.00201525
0.00273194
0.00275672
0.00278262
0.00280592
0.002815
0.0028141
0.00280436
0.00278715
0.00276381
0.00273569
0.00270405
0.00266909
0.0026313
0.00259612
0.00256107
0.00252943
0.00250209
0.00247774
0.00245867
0.00244638
0.00244159
0.00244424
0.00245394
0.00246527
0.00247857
0.00249008
0.00250233
0.00251618
0.00252845
0.00253445
0.00018994
0.000193155
0.000188555
0.000182242
0.000175019
0.000167123
0.000158912
0.000150752
0.000142895
0.000135564
0.000128887
0.000122984
0.000117877
0.000113685
0.000110418
0.000108219
0.000107231
0.000108084
0.000111657
0.000117834
0.000124777
0.000130543
0.000134084
0.000134948
0.000132937
0.00012764
0.000118813
0.000105289
8.91245e-05
7.72749e-05
0.000867597
0.000972217
0.000965348
0.000910392
0.000832513
0.000754137
0.000683215
0.000621524
0.000568252
0.000522865
0.000483971
0.000450963
0.000422354
0.000398578
0.000377893
0.000360652
0.000346376
0.000339961
0.000342948
0.000357041
0.000380569
0.000408781
0.000435301
0.000453807
0.000457766
0.000442228
0.000411117
0.000366864
0.000328381
0.000289224
0.0013742
0.00157917
0.00161872
0.00156654
0.00147384
0.0013673
0.0012616
0.00116377
0.00107585
0.000999073
0.000932227
0.000874912
0.000825376
0.000784761
0.000750882
0.000723369
0.000701507
0.000688629
0.000682585
0.00068894
0.000711032
0.000745162
0.000781924
0.000810414
0.000813926
0.000789777
0.00073785
0.000659099
0.000579582
0.000513559
0.00173641
0.00197412
0.00204467
0.00201303
0.00192878
0.00182065
0.00170546
0.0015928
0.00148758
0.00139341
0.00131017
0.00123827
0.00117681
0.00112772
0.00108927
0.00106091
0.00104135
0.0010275
0.00101447
0.00101186
0.00102413
0.00105287
0.00108989
0.00112232
0.00112831
0.00109949
0.00103487
0.000934872
0.000825483
0.000734834
0.00198388
0.00222693
0.0023124
0.00230201
0.00223043
0.00213289
0.00202245
0.00190816
0.00179728
0.00169672
0.0016065
0.00152789
0.00146177
0.00141061
0.00137391
0.00135127
0.00133897
0.00132589
0.00130483
0.00129326
0.00129842
0.00131895
0.00135163
0.001385
0.0013951
0.00136681
0.00129833
0.00118814
0.00106102
0.000949879
0.00216161
0.00236745
0.00246499
0.00247532
0.00243321
0.00234655
0.00224037
0.00212639
0.00201726
0.00192044
0.00183077
0.00175142
0.00168644
0.00163871
0.00160864
0.00159646
0.00159323
0.0015817
0.0015556
0.00153389
0.00153022
0.00154341
0.00157046
0.0016032
0.00161759
0.00159623
0.00152975
0.0014186
0.00128294
0.00115654
0.00227723
0.00245099
0.00253626
0.00255332
0.00252405
0.00245792
0.00237096
0.00227868
0.00218029
0.00208273
0.00199318
0.00191705
0.00185855
0.00181883
0.00179932
0.00180094
0.00180748
0.00179712
0.00176752
0.00173751
0.00172451
0.00173059
0.0017519
0.00178271
0.00180059
0.00178739
0.00173284
0.00162719
0.00149111
0.00135342
0.00237788
0.00248138
0.00253675
0.00255314
0.00253666
0.00249118
0.00242628
0.0023513
0.00226852
0.00218465
0.0021062
0.00203978
0.00198658
0.00195705
0.00195112
0.00196843
0.0019843
0.00197646
0.00194332
0.00190581
0.00188654
0.00188591
0.00190169
0.00192946
0.00194884
0.0019448
0.00190551
0.00181541
0.00168538
0.00153881
0.00243504
0.0024603
0.00247995
0.00249048
0.002485
0.00245986
0.0024195
0.00236688
0.00230306
0.00223645
0.00217199
0.00211718
0.00207592
0.00205947
0.00206871
0.0021019
0.00212701
0.00212048
0.00208501
0.00204473
0.00202217
0.00201495
0.00202544
0.00204864
0.00206945
0.00207465
0.00204687
0.00197465
0.00185508
0.00170953
0.00246423
0.00243202
0.00241659
0.00240988
0.00240435
0.00239149
0.00236912
0.00233603
0.00229293
0.00224684
0.00219939
0.00215937
0.00213297
0.00213155
0.00215627
0.00220481
0.00223844
0.00223143
0.00219703
0.00215956
0.00213354
0.00212182
0.00212803
0.00214506
0.00216087
0.00216906
0.00215402
0.00210075
0.0020023
0.00186797
0.00250685
0.00243299
0.00237283
0.00233854
0.00232018
0.0023073
0.00229529
0.00227796
0.00225325
0.00222487
0.00219599
0.00217278
0.00216301
0.00217741
0.00221856
0.00228153
0.00232143
0.00231947
0.00228926
0.0022528
0.00222413
0.00221237
0.00221382
0.00222399
0.00223401
0.00223936
0.00223174
0.0021975
0.00212145
0.00200752
0.00258765
0.00249314
0.00238966
0.00230274
0.00225916
0.00223191
0.00221895
0.002209
0.0021979
0.00218476
0.00217168
0.00216478
0.00217226
0.00220162
0.00225898
0.00233398
0.00238343
0.0023884
0.00236437
0.00233279
0.00230546
0.00228895
0.00228544
0.00229066
0.00229765
0.00230025
0.00229488
0.00227303
0.00222116
0.00213039
0.0026749
0.00256304
0.00243876
0.00233274
0.00224642
0.0021884
0.00216384
0.0021495
0.00214356
0.00214035
0.00213954
0.00214592
0.00216696
0.00221025
0.00228187
0.00236666
0.00242159
0.00243366
0.00241814
0.00239224
0.00236886
0.00235214
0.00234527
0.00234687
0.00235162
0.00235359
0.00235038
0.00233697
0.00230511
0.00223678
0.00279642
0.00267208
0.00252841
0.00239512
0.00228381
0.00220559
0.00215467
0.00212071
0.00211009
0.00210812
0.00211307
0.00212745
0.00215645
0.00221008
0.00229232
0.00238413
0.00244409
0.00246401
0.00245718
0.00243915
0.00241965
0.00240382
0.0023952
0.00239465
0.00239828
0.00240191
0.00240273
0.00239508
0.00237464
0.00232279
0.00294949
0.0028167
0.00267202
0.00252346
0.00238846
0.00227963
0.00219919
0.00214743
0.00211774
0.00210554
0.0021061
0.00212133
0.00215247
0.00220794
0.00229605
0.00239114
0.00245494
0.00248235
0.0024844
0.0024744
0.00245944
0.00244562
0.00243695
0.00243595
0.00244005
0.00244678
0.00245097
0.00244692
0.00242995
0.0023922
0.00313742
0.0030149
0.00286975
0.00271294
0.00256005
0.00242415
0.00231324
0.00223112
0.00217567
0.00214283
0.00213085
0.00213793
0.00216315
0.00221449
0.00229834
0.00239236
0.00245808
0.00249177
0.00250203
0.00249955
0.00248969
0.00247909
0.00247221
0.00247287
0.00247927
0.00248775
0.00249435
0.00249276
0.00247905
0.00245
0.0033658
0.00325016
0.00311014
0.00295191
0.00278849
0.00263212
0.00249326
0.0023791
0.00229211
0.00223162
0.00219622
0.00218416
0.00219385
0.00223313
0.00230305
0.00239036
0.00245567
0.00249408
0.00251141
0.00251589
0.00251152
0.00250543
0.00250204
0.00250459
0.00251244
0.00252288
0.00253211
0.00253354
0.0025229
0.00249849
0.00361184
0.00350781
0.00337722
0.00322295
0.00305567
0.00288622
0.00272536
0.00258209
0.00246217
0.00236833
0.00230121
0.00226056
0.00224598
0.00226162
0.0023113
0.00238257
0.00244541
0.00248736
0.00251116
0.00252218
0.00252358
0.00252201
0.0025224
0.00252837
0.00253866
0.00255158
0.00256335
0.00256889
0.0025614
0.00254086
0.00386537
0.00377337
0.00365332
0.00350578
0.00333927
0.00316297
0.00298673
0.00281979
0.00266947
0.00254075
0.00243672
0.00235948
0.00231067
0.00229486
0.00231415
0.00236326
0.0024169
0.00246172
0.00249237
0.00251149
0.00252031
0.00252531
0.00253099
0.00254142
0.00255589
0.00257213
0.00258734
0.00259728
0.00259363
0.00257787
0.00411335
0.00403048
0.00391944
0.00377898
0.00361555
0.0034365
0.0032502
0.00306503
0.0028884
0.00272631
0.00258377
0.00246532
0.00237518
0.00231933
0.00230158
0.00232044
0.00235901
0.00240198
0.00243955
0.00246942
0.00249055
0.00250683
0.00252059
0.00253733
0.00255865
0.00258016
0.00260043
0.00261549
0.00261742
0.00260799
0.00433772
0.00425994
0.00415482
0.00401998
0.00385996
0.00368008
0.00348688
0.00328728
0.003088
0.00289539
0.00271606
0.00255665
0.00242386
0.0023248
0.00226588
0.00224546
0.00225886
0.00229237
0.0023344
0.00237656
0.00241383
0.00244571
0.00247357
0.00250221
0.00253407
0.00256554
0.00259439
0.00261767
0.00262879
0.00262828
0.00451708
0.0044392
0.00433595
0.00420421
0.00404644
0.00386583
0.00366691
0.00345505
0.00323623
0.00301745
0.00280723
0.00261409
0.00244642
0.00231108
0.00221538
0.00215577
0.00213269
0.00214101
0.00217241
0.00221748
0.00226783
0.00231822
0.00236685
0.00241503
0.00246383
0.00251086
0.00255419
0.00259497
0.00262213
0.00263529
0.00462281
0.00454007
0.00443514
0.00430403
0.00414705
0.00396526
0.00376153
0.00354031
0.00330744
0.00307178
0.00284423
0.00263466
0.00245136
0.0022989
0.00218277
0.00209689
0.00203905
0.00200974
0.00200725
0.00202849
0.00206869
0.00212221
0.00218434
0.00225222
0.00232306
0.00239341
0.00245986
0.00252038
0.00256621
0.00260328
0.00461859
0.00452956
0.00442193
0.00429118
0.00413584
0.00395533
0.00375212
0.00353093
0.00329777
0.00306472
0.00284432
0.00264563
0.00247406
0.00233051
0.0022164
0.00212616
0.00204809
0.00198472
0.00193815
0.00191147
0.00190806
0.00192823
0.00197087
0.00203359
0.00211174
0.00219909
0.00228883
0.00237551
0.00245128
0.00251477
0.00447136
0.00437959
0.00427394
0.00414995
0.00400516
0.00383782
0.00365011
0.00344821
0.00324178
0.00304195
0.00285947
0.00269891
0.00256238
0.00244724
0.00235147
0.00227285
0.0021908
0.00210887
0.00202923
0.00195739
0.00190007
0.00186248
0.00184924
0.00186394
0.00190708
0.00197523
0.00206132
0.00215719
0.00225307
0.00234241
0.00417848
0.00409345
0.00400343
0.00390573
0.00379381
0.00366492
0.00352111
0.00336892
0.00321744
0.00307482
0.00294656
0.00283352
0.00273652
0.00265237
0.0025785
0.00251265
0.00243463
0.00234911
0.00225738
0.00216392
0.00207413
0.00199239
0.00192412
0.00187594
0.00185368
0.00186048
0.00189491
0.00195237
0.00202596
0.00211305
0.00381096
0.00375791
0.00371772
0.00367752
0.00362364
0.00355398
0.00347019
0.0033779
0.00328423
0.00319456
0.00311129
0.00303382
0.00296362