/*--------------------------------*- C++ -*----------------------------------*\
  =========                 |
  \\      /  F ield         | OpenFOAM: The Open Source CFD Toolbox
   \\    /   O peration     | Website:  https://openfoam.org
    \\  /    A nd           | Version:  12
     \\/     M anipulation  |
\*---------------------------------------------------------------------------*/
FoamFile
{
    format      ascii;
    class       volScalarField;
    location    "1500/air";
    object      p_rgh;
}
// * * * * * * * * * * * * * * * * * * * * * * * * * * * * * * * * * * * * * //

dimensions      [1 -1 -2 0 0 0 0];

internalField   nonuniform List<scalar> 
243000
(
29.9844
29.9562
29.898
29.7667
29.6338
29.5158
29.4162
29.3381
29.2809
29.245
29.2279
29.2262
29.2366
29.2603
29.2915
29.3413
29.4029
29.4808
29.5651
29.6567
29.7491
29.8386
29.9204
29.9912
30.0536
30.1021
30.1481
30.1748
30.2264
30.212
29.9755
29.93
29.8804
29.7596
29.6356
29.5213
29.4239
29.347
29.2902
29.2562
29.2406
29.2396
29.2496
29.2726
29.3028
29.3517
29.4119
29.4885
29.5728
29.6645
29.7573
29.847
29.9288
29.9996
30.0616
30.1096
30.1572
30.1824
30.2315
30.2071
29.9516
29.8713
29.8161
29.6962
29.5814
29.4769
29.3893
29.3211
29.2714
29.2431
29.2316
29.2339
29.2454
29.269
29.2992
29.3478
29.407
29.4837
29.5685
29.6609
29.7542
29.8448
29.9278
29.9997
30.0625
30.1106
30.1585
30.1784
30.2314
30.1989
29.9192
29.7974
29.7351
29.6157
29.51
29.4163
29.3394
29.2805
29.2386
29.2166
29.21
29.2157
29.2292
29.2535
29.2835
29.3317
29.3897
29.4649
29.5474
29.6377
29.7294
29.8193
29.9028
29.9764
30.0427
30.0952
30.1491
30.1678
30.2265
30.1903
29.8839
29.7238
29.6569
29.5377
29.439
29.3538
29.2856
29.2346
29.1992
29.1827
29.1805
29.1893
29.2045
29.2295
29.259
29.3062
29.3627
29.4359
29.5159
29.6037
29.6932
29.7823
29.8666
29.9423
30.0122
30.0685
30.1279
30.147
30.2144
30.1779
29.8453
29.6613
29.5891
29.4707
29.3777
29.2985
29.2364
29.1908
29.1601
29.1476
29.1486
29.1597
29.1763
29.2016
29.23
29.2758
29.3301
29.4008
29.4775
29.562
29.649
29.7372
29.8223
29.9003
29.974
30.0343
30.0996
30.1208
30.1955
30.1599
29.804
29.6198
29.5342
29.4177
29.329
29.2537
29.1957
29.1527
29.1239
29.1129
29.1151
29.1275
29.1446
29.1698
29.1966
29.2402
29.2917
29.3592
29.4317
29.5125
29.5967
29.684
29.77
29.8504
29.9281
29.9927
30.0638
30.0889
30.1697
30.1354
29.7574
29.5855
29.4922
29.3823
29.2931
29.221
29.1644
29.1221
29.0933
29.0816
29.0825
29.0942
29.1107
29.1351
29.1597
29.2004
29.2483
29.3118
29.3795
29.456
29.5374
29.6237
29.7107
29.7937
29.8755
29.9446
30.0216
30.0517
30.1376
30.1063
29.7037
29.549
29.4584
29.3576
29.2723
29.1993
29.1422
29.0994
29.0687
29.0548
29.0529
29.0619
29.0758
29.0983
29.1202
29.1573
29.2011
29.2595
29.3219
29.3939
29.4723
29.5576
29.6458
29.7316
29.8175
29.8912
29.9738
30.0098
30.1002
30.0732
29.6433
29.5003
29.4233
29.3369
29.2571
29.1853
29.1265
29.0831
29.0496
29.0325
29.0267
29.032
29.0416
29.0605
29.0791
29.1119
29.1507
29.2033
29.2599
29.3272
29.4026
29.4871
29.5766
29.6653
29.7554
29.8337
29.9215
29.9639
30.0583
30.0369
29.5767
29.4379
29.3779
29.3121
29.2408
29.1744
29.1155
29.0696
29.0343
29.0139
29.0037
29.0047
29.0092
29.0229
29.037
29.0649
29.098
29.1443
29.1949
29.2573
29.3297
29.4135
29.5044
29.5961
29.6902
29.7733
29.8658
29.9151
30.0131
29.9983
29.5041
29.3692
29.3249
29.2759
29.2182
29.1605
29.1057
29.0578
29.0208
28.9975
28.9834
28.9795
28.9784
28.9864
28.9945
29.0171
29.0438
29.0834
29.1278
29.1854
29.2549
29.3381
29.4304
29.5251
29.6233
29.7111
29.8077
29.8645
29.9655
29.9585
29.4275
29.2963
29.2655
29.2311
29.1867
29.1389
29.0908
29.0454
29.008
28.9822
28.9642
28.9559
28.9491
28.9513
28.9525
28.969
28.9891
29.0216
29.0596
29.1125
29.1791
29.2618
29.3557
29.4534
29.5555
29.6477
29.7483
29.8128
29.9164
29.9183
29.347
29.221
29.2015
29.1798
29.1466
29.1097
29.0699
29.0297
28.9942
28.9668
28.9454
28.9328
28.9207
28.9172
28.9114
28.9212
28.9342
28.9597
28.9914
29.0395
29.1035
29.1856
29.281
29.3818
29.4876
29.5843
29.6889
29.7606
29.8654
29.8786
29.2623
29.1434
29.1319
29.1219
29.0989
29.0722
29.0415
29.008
28.9767
28.9499
28.926
28.9095
28.8922
28.8833
28.8708
28.8736
28.8799
28.8983
28.9239
28.9673
29.0287
29.1104
29.2073
29.311
29.4202
29.5216
29.6299
29.7082
29.8134
29.8388
29.173
29.0644
29.0583
29.0564
29.0434
29.0263
29.0045
28.9787
28.9525
28.9288
28.9046
28.8851
28.8632
28.8487
28.8302
28.8266
28.8262
28.8378
28.8575
28.8964
28.9554
29.0366
29.1349
29.2413
29.3541
29.4602
29.5713
29.6561
29.761
29.7994
29.0782
28.9827
28.9824
28.9856
28.9803
28.9719
28.9587
28.9407
28.9204
28.9009
28.8789
28.8583
28.8324
28.8127
28.7886
28.7794
28.7733
28.7785
28.7924
28.827
28.8837
28.9646
29.0642
29.1734
29.2895
29.3996
29.5133
29.6045
29.7088
29.7598
28.9775
28.8979
28.9017
28.9101
28.9109
28.9094
28.9039
28.8936
28.8797
28.8647
28.8464
28.827
28.7988
28.7747
28.7454
28.7312
28.7204
28.72
28.7286
28.7593
28.8138
28.8944
28.9953
29.107
29.2261
29.3403
29.456
29.5531
29.6572
29.7197
28.8705
28.8085
28.8157
28.8295
28.8362
28.8399
28.8408
28.8373
28.8298
28.8198
28.8054
28.7888
28.7604
28.7335
28.6999
28.681
28.6663
28.6617
28.6657
28.6926
28.7452
28.8253
28.9273
29.0416
29.1635
29.2814
29.3993
29.5013
29.6059
29.6785
28.7559
28.7124
28.7229
28.7418
28.7546
28.7637
28.77
28.7723
28.7706
28.7656
28.7553
28.742
28.7152
28.6872
28.6505
28.628
28.6099
28.6019
28.602
28.6254
28.6761
28.7558
28.8593
28.9764
29.1005
29.2218
29.3422
29.4488
29.5548
29.6354
28.6325
28.6077
28.6218
28.6458
28.6641
28.6785
28.6904
28.6984
28.7021
28.7018
28.6958
28.6859
28.6613
28.6338
28.5955
28.5707
28.55
28.539
28.536
28.5565
28.6058
28.6857
28.791
28.91
29.0363
29.1609
29.2839
29.3951
29.5029
29.5905
28.4978
28.4922
28.511
28.5394
28.563
28.5833
28.6007
28.6143
28.6233
28.6278
28.6264
28.6202
28.5983
28.5721
28.5334
28.5077
28.4852
28.472
28.4667
28.4854
28.5339
28.6141
28.7209
28.8416
28.97
29.0978
29.2234
29.3389
29.449
29.5427
28.3543
28.3632
28.3874
28.4213
28.4514
28.4783
28.5018
28.521
28.5351
28.5443
28.5471
28.5448
28.5261
28.5016
28.4631
28.4371
28.4139
28.3997
28.3934
28.411
28.459
28.5396
28.6476
28.7699
28.9003
29.031
29.1594
29.279
29.3917
29.4911
28.1942
28.2129
28.245
28.2866
28.3252
28.3606
28.3917
28.4176
28.4376
28.4517
28.4586
28.4599
28.445
28.4227
28.3848
28.3585
28.3352
28.321
28.3148
28.3319
28.3798
28.4609
28.5694
28.6931
28.8253
28.9584
29.0893
29.2126
29.3278
29.432
28.0178
28.0466
28.0889
28.14
28.1888
28.2342
28.2738
28.3071
28.3335
28.3528
28.3637
28.3681
28.3569
28.3372
28.3005
28.2746
28.2512
28.2372
28.2313
28.2486
28.2967
28.3779
28.4864
28.611
28.7447
28.8801
29.013
29.1392
29.2571
29.3658
27.7934
27.8337
27.8921
27.9604
28.0276
28.0895
28.1428
28.1875
28.2232
28.2498
28.2658
28.274
28.267
28.2499
28.2144
28.1887
28.1645
28.1501
28.1438
28.1605
28.2077
28.2877
28.3944
28.5184
28.6523
28.7879
28.921
29.0485
29.1672
29.2781
27.5861
27.6446
27.7217
27.8079
27.8929
27.9687
28.0331
28.0874
28.1307
28.1629
28.1826
28.1933
28.1893
28.175
28.1413
28.1157
28.0902
28.0753
28.0685
28.0843
28.1295
28.2068
28.3112
28.4345
28.5683
28.7042
28.8378
28.968
29.0895
29.2051
27.1684
27.2732
27.4033
27.5418
27.6751
27.7884
27.8808
27.9576
28.0182
28.0641
28.0935
28.1103
28.1105
28.0987
28.0662
28.0387
28.0091
27.9914
27.9816
27.9934
28.0314
28.0982
28.1911
28.3045
28.4298
28.5566
28.6809
28.8026
28.9144
29.0243
27.1926
27.3297
27.4854
27.6402
27.7792
27.8888
27.9731
28.038
28.0866
28.1235
28.1468
28.1581
28.1538
28.1385
28.1024
28.0741
28.0466
28.0338
28.03
28.049
28.0934
28.1655
28.2625
28.3807
28.5129
28.648
28.7813
28.9141
29.0373
29.163
25.9113
26.148
26.441
26.7378
26.9979
27.197
27.3487
27.4653
27.5542
27.6185
27.6609
27.6858
27.6884
27.6767
27.6416
27.6061
27.5636
27.5333
27.507
27.4983
27.5103
27.5446
27.6034
27.6799
27.7625
27.84
27.915
27.9911
28.061
28.1561
29.7749
29.6307
29.5409
29.3883
29.2602
29.1609
29.0886
29.0397
29.0096
28.9989
29.0009
29.0173
29.0385
29.0701
29.1017
29.149
29.202
29.2724
29.3494
29.4381
29.5319
29.6295
29.7267
29.8209
29.9137
29.9972
30.0799
30.1304
30.2013
30.1896
29.7554
29.592
29.5112
29.3685
29.255
29.1629
29.093
29.0451
29.016
29.0074
29.0107
29.0271
29.0479
29.0787
29.1093
29.1556
29.2074
29.2774
29.3548
29.4443
29.5389
29.6372
29.7351
29.8296
29.9226
30.0057
30.0884
30.1385
30.211
30.1827
29.7295
29.5517
29.4737
29.3364
29.2308
29.1437
29.078
29.034
29.0087
29.003
29.008
29.0245
29.0449
29.0751
29.1044
29.1493
29.1991
29.267
29.3416
29.4282
29.5212
29.6204
29.7204
29.8173
29.9128
29.9973
30.0831
30.1303
30.2087
30.173
29.6954
29.5081
29.4259
29.2934
29.1961
29.1168
29.0588
29.0206
28.9992
28.9964
29.0028
29.0196
29.0395
29.0687
29.0962
29.1393
29.1863
29.2513
29.3222
29.4053
29.4952
29.5923
29.6915
29.7901
29.8889
29.9759
30.0673
30.1117
30.1985
30.1598
29.6593
29.4681
29.3797
29.2523
29.1613
29.0899
29.0384
29.0049
28.9868
28.986
28.9934
29.0102
29.0292
29.0568
29.082
29.1224
29.1656
29.2268
29.2933
29.3723
29.4586
29.5538
29.6526
29.7514
29.8518
29.9414
30.0369
30.0831
30.1803
30.1412
29.6197
29.4315
29.3381
29.2173
29.1315
29.0662
29.02
28.99
28.9739
28.9742
28.9818
28.998
29.0156
29.0412
29.0633
29.1003
29.1388
29.1954
29.2565
29.3307
29.4135
29.507
29.6056
29.7054
29.8077
29.8993
29.9994
30.0475
30.1552
30.1169
29.577
29.3997
29.303
29.1893
29.109
29.0479
29.0052
28.9776
28.9625
28.9627
28.9693
28.9842
28.9999
29.0229
29.0412
29.0741
29.1071
29.1582
29.213
29.2821
29.3614
29.4534
29.5524
29.6534
29.7581
29.8521
29.9568
30.0071
30.1238
30.0873
29.5332
29.3737
29.2805
29.1734
29.0959
29.0365
28.9949
28.9685
28.9535
28.9523
28.9571
28.9699
28.9829
29.0027
29.0167
29.0447
29.0715
29.116
29.1642
29.2279
29.3038
29.3947
29.4943
29.597
29.7043
29.8011
29.9101
29.9636
30.0872
30.0542
29.486
29.3451
29.2662
29.17
29.0956
29.0359
28.9923
28.9627
28.9467
28.9432
28.9459
28.9561
28.9655
28.9814
28.9906
29.0129
29.0328
29.0699
29.1112
29.1695
29.2423
29.3323
29.4328
29.5374
29.6476
29.7474
29.8605
29.9182
30.0464
30.0185
29.4341
29.3003
29.2467
29.1692
29.0986
29.0399
28.9951
28.9631
28.9426
28.936
28.936
28.9431
28.9483
28.9597
28.9633
28.9795
28.9918
29.0211
29.0553
29.1083
29.1781
29.2674
29.3692
29.476
29.5891
29.692
29.8089
29.872
30.0026
29.9811
29.3793
29.245
29.214
29.1613
29.1013
29.0455
29.0007
28.9669
28.9432
28.9316
28.9274
28.9309
28.9316
28.9382
28.9353
28.9449
28.9494
28.9707
28.9976
29.0454
29.1125
29.2014
29.3045
29.4138
29.5298
29.6359
29.756
29.8255
29.9566
29.9426
29.3228
29.1888
29.1745
29.1391
29.0988
29.0496
29.0069
28.9725
28.9463
28.9306
28.9211
28.9198
28.9152
28.917
28.907
28.9095
28.9063
28.9197
28.9394
28.982
29.0465
29.1353
29.2398
29.3516
29.4705
29.5798
29.7027
29.7792
29.9094
29.904
29.2643
29.1328
29.1312
29.1091
29.0829
29.0496
29.0105
28.9776
28.9504
28.9319
28.9173
28.9102
28.8995
28.8958
28.8788
28.8739
28.8632
28.8688
28.8814
28.9191
28.9813
29.07
29.1761
29.2905
29.4121
29.5244
29.6495
29.7333
29.8614
29.8664
29.2052
29.0772
29.0845
29.073
29.0581
29.0365
29.0093
28.9799
28.9533
28.9335
28.9147
28.9023
28.8848
28.8745
28.8507
28.8384
28.8203
28.8187
28.8248
28.8576
28.9176
29.0064
29.114
29.231
29.3553
29.4707
29.5968
29.6876
29.8129
29.8302
29.1452
29.0206
29.0341
29.0323
29.026
29.0144
28.9974
28.976
28.9535
28.9338
28.9118
28.8951
28.8714
28.854
28.8228
28.8033
28.7777
28.7699
28.7702
28.7983
28.8563
28.9451
29.0543
29.1738
29.3006
29.4188
29.5447
29.6425
29.7645
29.7962
29.0813
28.9616
28.9813
28.9867
28.9877
28.9845
28.9764
28.9634
28.9463
28.9285
28.9063
28.8871
28.858
28.8342
28.7954
28.7685
28.7359
28.7224
28.7179
28.7417
28.7979
28.8869
28.9977
29.1198
29.2483
29.3691
29.4948
29.5975
29.7162
29.7643
29.0132
28.9006
28.9248
28.9366
28.9435
28.9471
28.9468
28.9418
28.9316
28.9183
28.8971
28.8769
28.8436
28.8142
28.7684
28.7344
28.6949
28.6766
28.668
28.6883
28.7431
28.8323
28.9443
29.0681
29.1979
29.3215
29.4474
29.5536
29.6683
29.7334
28.9395
28.8373
28.865
28.8823
28.8948
28.9041
28.9098
28.9117
28.9083
28.9008
28.8829
28.863
28.8268
28.7929
28.7411
28.7008
28.6548
28.6322
28.6204
28.6375
28.6912
28.7808
28.8936
29.0184
29.149
29.276
29.4028
29.5128
29.6251
29.7018
28.8596
28.7705
28.8017
28.8241
28.8417
28.8559
28.8669
28.8744
28.877
28.8752
28.8622
28.8442
28.8063
28.7693
28.7127
28.667
28.6154
28.5892
28.5746
28.5895
28.6427
28.7322
28.8451
28.971
29.1029
29.2333
29.3612
29.4745
29.5852
29.6707
28.7722
28.6998
28.7343
28.7615
28.7838
28.8029
28.8187
28.8313
28.839
28.8421
28.8343
28.8194
28.781
28.7422
28.6821
28.6327
28.5769
28.5478
28.5313
28.5447
28.5978
28.686
28.7984
28.9258
29.0598
29.1928
29.3218
29.4381
29.5477
29.6397
28.676
28.6242
28.6622
28.6941
28.7212
28.7453
28.7657
28.783
28.7953
28.8027
28.7997
28.7884
28.7504
28.711
28.6493
28.5982
28.5387
28.5076
28.4897
28.5017
28.5539
28.6411
28.7538
28.8825
29.0187
29.154
29.2843
29.4031
29.512
29.6087
28.5703
28.5423
28.5844
28.6216
28.6538
28.6833
28.7087
28.7308
28.7473
28.7584
28.7594
28.7516
28.7149
28.6761
28.6142
28.5619
28.5
28.4668
28.4476
28.459
28.5109
28.5979
28.7112
28.8408
28.9791
29.1164
29.2481
29.3691
29.4778
29.5781
28.4559
28.4531
28.5003
28.5434
28.5817
28.6172
28.6485
28.6759
28.6967
28.7111
28.7152
28.7104
28.6754
28.6377
28.5753
28.5229
28.4594
28.4248
28.4051
28.4172
28.4698
28.5568
28.6702
28.8005
28.9404
29.0797
29.2126
29.3356
29.4445
29.5477
28.3344
28.3529
28.4074
28.4579
28.504
28.5472
28.5859
28.6198
28.6453
28.6631
28.6697
28.6671
28.634
28.5972
28.5338
28.4812
28.4164
28.382
28.363
28.3772
28.4302
28.517
28.6307
28.7623
28.9032
29.0437
29.1774
29.3016
29.4106
29.516
28.2045
28.2457
28.3089
28.368
28.4236
28.4762
28.5241
28.5655
28.5964
28.6179
28.626
28.6249
28.5939
28.5586
28.4943
28.44
28.3741
28.3392
28.3216
28.3388
28.3927
28.4797
28.5931
28.7262
28.8691
29.0111
29.1456
29.2704
29.3787
29.4851
28.0584
28.125
28.1991
28.27
28.3388
28.4048
28.4651
28.5162
28.5533
28.5795
28.589
28.5883
28.559
28.5251
28.4606
28.406
28.3381
28.3015
28.2849
28.3053
28.36
28.4469
28.5588
28.6919
28.8356
28.9787
29.1132
29.2381
29.3447
29.4522
27.9261
28.0217
28.1062
28.1888
28.2716
28.3525
28.426
28.487
28.5282
28.5572
28.5666
28.565
28.5381
28.5058
28.4412
28.3855
28.3149
28.2764
28.2604
28.2832
28.3384
28.426
28.5412
28.677
28.8223
28.9664
29.1014
29.2263
29.331
29.4381
27.7779
27.9005
28.0008
28.1062
28.2159
28.3209
28.4112
28.4855
28.5417
28.5753
28.5864
28.586
28.5626
28.5334
28.4708
28.4147
28.3395
28.296
28.2756
28.2955
28.3459
28.4288
28.5417
28.6744
28.8153
28.9537
29.0799
29.1964
29.296
29.4009
27.8514
27.9838
28.0969
28.2252
28.3594
28.4833
28.5854
28.6669
28.7281
28.7665
28.7816
28.7838
28.7627
28.7355
28.6762
28.6198
28.5371
28.4874
28.4585
28.4716
28.5134
28.5871
28.6878
28.809
28.941
29.0738
29.1987
29.3135
29.4093
29.5097
28.5344
28.6514
28.7374
28.8524
28.9755
29.0865
29.1741
29.2364
29.2756
29.2944
29.2917
29.2791
29.2458
29.2116
29.1498
29.096
29.0157
28.9699
28.9457
28.9655
29.0152
29.0973
29.2052
29.3342
29.4756
29.6172
29.7484
29.8692
29.9712
30.0847
29.8057
29.5971
29.5155
29.3378
29.1943
29.0874
29.0163
28.9735
28.9506
28.9454
28.9525
28.9756
28.9983
29.0323
29.0543
29.0895
29.1127
29.1493
29.1829
29.2329
29.2966
29.3822
29.4848
29.6
29.7256
29.8484
29.975
30.0638
30.163
30.1586
29.7873
29.5449
29.4768
29.3107
29.1853
29.0889
29.0207
28.9792
28.9585
28.9552
28.963
28.9863
29.0087
29.0424
29.064
29.0994
29.1228
29.1605
29.1948
29.2448
29.3086
29.3947
29.4975
29.6127
29.7381
29.8599
29.986
30.0717
30.1723
30.1605
29.7583
29.5029
29.4431
29.2864
29.1717
29.0818
29.0188
28.9797
28.9594
28.9576
28.9665
28.9896
29.0111
29.0443
29.0646
29.0997
29.1216
29.1578
29.1889
29.2355
29.2975
29.3849
29.4901
29.6071
29.7337
29.8548
29.9825
30.0646
30.1739
30.1538
29.712
29.4573
29.3987
29.2504
29.1472
29.0659
29.0099
28.9753
28.9576
28.958
28.9669
28.9897
29.0106
29.0437
29.0628
29.0971
29.1165
29.1503
29.1772
29.2194
29.2765
29.3601
29.466
29.5859
29.7144
29.8353
29.9652
30.0453
30.1642
30.1374
29.6528
29.4097
29.3493
29.2124
29.1198
29.0467
28.9969
28.9672
28.953
28.9555
28.9647
28.9873
29.0072
29.0393
29.0559
29.0885
29.1039
29.1338
29.1549
29.1917
29.2441
29.3244
29.4277
29.5462
29.6783
29.8007
29.9349
30.0137
30.142
30.113
29.5858
29.3617
29.3001
29.1752
29.0924
29.0274
28.984
28.959
28.9476
28.9515
28.9609
28.983
29.001
29.0317
29.0452
29.0753
29.0854
29.1097
29.1243
29.1551
29.2028
29.2803
29.382
29.4994
29.6313
29.7566
29.894
29.974
30.111
30.0822
29.5162
29.3148
29.253
29.1411
29.0676
29.0101
28.9727
28.9517
28.9424
28.947
28.9559
28.9771
28.993
29.0217
29.0313
29.0582
29.0618
29.0794
29.0868
29.1113
29.1546
29.2298
29.3306
29.4478
29.5798
29.7064
29.8465
29.9298
30.0736
30.0471
29.446
29.2677
29.2089
29.1112
29.0461
28.9957
28.9634
28.9458
28.9378
28.9426
28.9507
28.9705
28.9837
29.01
29.015
29.0378
29.034
29.044
29.044
29.0621
29.101
29.1747
29.2754
29.393
29.5255
29.6525
29.7951
29.883
30.0314
30.0092
29.3771
29.2202
29.1688
29.086
29.0292
28.9852
28.9566
28.9411
28.934
28.9387
28.9455
28.9637
28.9736
28.9971
28.9966
29.0146
29.0028
29.0044
28.9972
29.0091
29.0438
29.1163
29.2176
29.3363
29.4697
29.597
29.7415
29.835
29.9856
29.9699
29.3118
29.1711
29.1325
29.0654
29.017
28.9785
28.9526
28.9378
28.9313
28.9354
28.9408
28.9569
28.9631
28.9836
28.9766
28.9893
28.9686
28.962
28.9476
28.9536
28.9842
29.0562
29.1586
29.2789
29.4135
29.5412
29.6871
29.7867
29.9373
29.9297
29.2501
29.1206
29.0968
29.0433
29.0055
28.9729
28.9502
28.9364
28.9295
28.9328
28.9364
28.9504
28.9524
28.9697
28.9556
28.9624
28.9321
28.9177
28.8963
28.8968
28.9236
28.9956
29.0996
29.222
29.3579
29.4868
29.6331
29.7384
29.8879
29.8901
29.1918
29.071
29.0602
29.02
28.992
28.9666
28.9474
28.9352
28.9281
28.9307
28.9324
28.9442
28.9415
28.9553
28.9339
28.9346
28.8943
28.8722
28.8441
28.8398
28.8631
28.9354
29.0415
29.1666
29.3038
29.4353
29.58
29.6912
29.8378
29.8528
29.1372
29.0223
29.0228
28.9952
28.9768
28.9583
28.9431
28.9329
28.9264
28.9286
28.9286
28.9382
28.9303
28.9408
28.9118
28.9062
28.8557
28.8262
28.7919
28.7833
28.8036
28.8765
28.9852
29.1133
29.2515
29.3865
29.5299
29.6456
29.7873
29.8171
29.0846
28.9744
28.9837
28.9675
28.9584
28.9472
28.9367
28.9294
28.9239
28.9259
28.9245
28.9321
28.9192
28.9259
28.8893
28.8776
28.817
28.7804
28.7404
28.728
28.7457
28.8197
28.9313
29.0625
29.2024
29.3411
29.4832
29.6003
29.7365
29.7835
29.0315
28.9249
28.9427
28.9375
28.9364
28.932
28.9269
28.9233
28.9198
28.9219
28.9194
28.9253
28.908
28.9109
28.8666
28.8492
28.7788
28.7354
28.6901
28.6744
28.6901
28.7655
28.8802
29.0138
29.1572
29.2984
29.4384
29.557
29.6877
29.7528
28.978
28.8747
28.9005
28.9043
28.91
28.9122
28.9128
28.9133
28.9126
28.9158
28.9127
28.9174
28.8959
28.8956
28.8436
28.8211
28.7416
28.6915
28.6415
28.6231
28.6371
28.7143
28.8318
28.9673
29.1142
29.2567
29.3965
29.5175
29.6439
29.723
28.9227
28.8229
28.8554
28.867
28.8792
28.8877
28.8939
28.8988
28.9013
28.9065
28.9037
28.9078
28.8827
28.8795
28.8205
28.7934
28.7054
28.6492
28.5948
28.5741
28.587
28.6656
28.7851
28.9226
29.072
29.2172
29.3579
29.4815
29.6045
29.6941
28.8617
28.7679
28.8067
28.8255
28.8438
28.8585
28.8701
28.8798
28.8857
28.8932
28.8918
28.8958
28.8676
28.8621
28.797
28.7664
28.6706
28.609
28.55
28.5272
28.5392
28.6189
28.7394
28.8797
29.0321
29.1804
29.3223
29.4483
29.5687
29.6662
28.7926
28.7099
28.7545
28.7801
28.8043
28.8248
28.8418
28.8564
28.8661
28.8762
28.8764
28.8809
28.8503
28.8433
28.7728
28.7403
28.6376
28.5711
28.5071
28.4824
28.4936
28.5738
28.6956
28.8391
28.9943
29.1457
29.289
29.4174
29.5357
29.6388
28.7143
28.6483
28.6983
28.7307
28.7608
28.7872
28.8096
28.8292
28.8431
28.856
28.8579
28.8633
28.831
28.8231
28.7479
28.7149
28.6063
28.5353
28.4661
28.4397
28.4499
28.5293
28.6531
28.7998
28.958
29.1125
29.2575
29.3881
29.505
29.6123
28.6262
28.5828
28.6381
28.6775
28.714
28.7466
28.7746
28.7994
28.8175
28.8335
28.8373
28.8436
28.8102
28.8022
28.7232
28.6906
28.5765
28.502
28.4268
28.3979
28.4061
28.4862
28.6114
28.7612
28.9223
29.0801
29.2272
29.36
29.476
29.5866
28.5287
28.5129
28.5739
28.621
28.6643
28.7037
28.7379
28.7684
28.791
28.8105
28.8161
28.8234
28.7894
28.7816
28.6994
28.6687
28.5493
28.4705
28.3885
28.3563
28.3645
28.4456
28.5707
28.7228
28.8867
29.0477
29.1972
29.3324
29.4481
29.5616
28.4247
28.4368
28.5057
28.5617
28.6131
28.6604
28.7016
28.7381
28.7657
28.789
28.7962
28.8043
28.7699
28.7625
28.6778
28.6498
28.5252
28.441
28.3518
28.3189
28.329
28.4087
28.5318
28.6854
28.8509
29.0144
29.1667
29.3049
29.4208
29.5371
28.3139
28.3542
28.4342
28.5009
28.5622
28.6184
28.6674
28.7109
28.7438
28.7713
28.7795
28.7878
28.7529
28.7463
28.6592
28.6342
28.5048
28.4173
28.3219
28.2882
28.2993
28.3757
28.4963
28.6503
28.8167
28.9817
29.1353
29.2759
29.3932
29.5122
28.1965
28.2692
28.3631
28.4422
28.5147
28.581
28.6385
28.6898
28.7281
28.7591
28.7671
28.775
28.7396
28.7345
28.6448
28.623
28.4887
28.3994
28.299
28.2619
28.273
28.3464
28.4649
28.6189
28.7861
28.9524
29.1072
29.2489
29.3666
29.4885
28.0751
28.189
28.2958
28.3875
28.4726
28.551
28.618
28.6769
28.72
28.754
28.7617
28.7697
28.7343
28.7326
28.6409
28.6248
28.4853
28.3939
28.2877
28.2448
28.2521
28.3193
28.4351
28.5903
28.759
28.9278
29.0845
29.2273
29.3451
29.4674
27.9678
28.1221
28.2409
28.3474
28.4459
28.5341
28.6086
28.6745
28.7259
28.7645
28.7728
28.7821
28.7485
28.7521
28.6609
28.653
28.5085
28.4151
28.3005
28.2524
28.2573
28.3238
28.4349
28.5826
28.7504
28.9198
29.0771
29.2202
29.3371
29.457
27.89
28.0699
28.1976
28.3182
28.4293
28.5305
28.6223
28.6995
28.7569
28.7988
28.8073
28.8196
28.7904
28.801
28.712
28.717
28.5689
28.4748
28.3517
28.2964
28.2964
28.3509
28.4521
28.5952
28.7597
28.9295
29.0875
29.2301
29.3448
29.4619
27.8848
28.0828
28.2242
28.355
28.4746
28.5834
28.6796
28.7599
28.8205
28.8646
28.8759
28.8927
28.8692
28.8922
28.8108
28.8394
28.6959
28.6088
28.4781
28.4143
28.4018
28.4455
28.5329
28.6618
28.814
28.9719
29.1211
29.2608
29.3769
29.4979
27.9855
28.1646
28.3032
28.4388
28.5625
28.6735
28.7684
28.8461
28.9038
28.9473
28.9619
28.9844
28.9675
29.0062
28.9376
28.9986
28.8671
28.7951
28.6676
28.6028
28.5825
28.6183
28.6938
28.8094
28.9527
29.1092
29.2646
29.4129
29.5383
29.6622
29.7604
29.5013
29.4337
29.2213
29.0577
28.9425
28.8742
28.8456
28.8364
28.8501
28.8745
28.9133
28.9405
28.9754
28.9751
28.9819
28.9485
28.928
28.8945
28.894
28.9288
29.0188
29.1463
29.2973
29.4643
29.6324
29.8094
29.945
30.0891
30.1013
29.7307
29.4114
29.368
29.1724
29.0338
28.9358
28.8758
28.8496
28.844
28.8598
28.8849
28.9233
28.9498
28.984
28.9831
28.9907
28.9591
28.9425
28.9121
28.9106
28.9418
29.0315
29.159
29.3096
29.4762
29.6437
29.821
29.9547
30.1003
30.1084
29.6856
29.3458
29.3123
29.1362
29.0149
28.9274
28.8751
28.8514
28.8488
28.8667
28.8922
28.9299
28.9546
28.9874
28.9841
28.9904
28.9567
28.9387
28.9062
28.9004
28.9274
29.0209
29.1522
29.3047
29.4722
29.6387
29.8169
29.9482
30.1017
30.1022
29.6173
29.2823
29.2524
29.0912
28.9876
28.912
28.8689
28.8517
28.8526
28.8727
28.8986
28.9357
28.9584
28.9895
28.983
28.9869
28.9484
28.9267
28.8908
28.8802
28.902
28.9912
29.1261
29.2819
29.4502
29.6157
29.7947
29.9262
30.0891
30.084
29.5323
29.2206
29.1917
29.0464
28.9585
28.895
28.8609
28.8501
28.855
28.8769
28.9026
28.9395
28.9588
28.9886
28.9774
28.9773
28.9309
28.9031
28.8616
28.8463
28.8642
28.9502
29.0825
29.2416
29.4116
29.5775
29.7575
29.8904
30.0617
30.0568
29.4382
29.1597
29.1313
29.0022
28.9294
28.8783
28.8533
28.8486
28.8563
28.8797
28.905
28.9416
28.9578
28.9856
28.9684
28.9625
28.9059
28.87
28.8216
28.8019
28.8167
28.9015
29.0324
29.1909
29.3628
29.5293
29.7109
29.845
30.0224
30.0215
29.3423
29.0998
29.0732
28.9612
28.9037
28.8639
28.8473
28.8477
28.8572
28.8819
28.9066
28.9425
28.9561
28.9809
28.9566
28.9435
28.8744
28.8284
28.7728
28.7495
28.7621
28.8469
28.978
29.1355
29.3084
29.4756
29.6579
29.7942
29.9735
29.9814
29.2484
29.0419
29.0192
28.925
28.8819
28.8523
28.8431
28.847
28.8582
28.8841
28.9078
28.9428
28.9535
28.975
28.9425
28.9209
28.8374
28.7801
28.7172
28.6905
28.7022
28.7886
28.9212
29.0785
29.2516
29.4197
29.6013
29.7403
29.9195
29.9391
29.1584
28.9872
28.9712
28.895
28.8643
28.8435
28.8403
28.8467
28.8599
28.8865
28.909
28.943
28.9503
28.9682
28.9264
28.8953
28.7958
28.7265
28.6565
28.6266
28.6391
28.7283
28.8635
29.0213
29.1947
29.3637
29.5432
29.6853
29.8622
29.8963
29.0755
28.9369
28.9287
28.8702
28.8506
28.8375
28.8392
28.8476
28.8625
28.8896
28.9107
28.9435
28.9468
28.9608
28.9088
28.8672
28.7506
28.6692
28.5921
28.5602
28.5744
28.6676
28.8065
28.9656
29.1403
29.3095
29.4862
29.6325
29.8041
29.8545
29.0022
28.8913
28.8913
28.8496
28.84
28.8339
28.8391
28.8504
28.8664
28.8938
28.9129
28.9446
28.9429
28.9529
28.8901
28.8374
28.7026
28.6091
28.5254
28.4927
28.5095
28.608
28.7516
28.9134
29.0901
29.2601
29.4349
29.5823
29.7465
29.8144
28.9391
28.848
28.8563
28.8312
28.8309
28.8314
28.8404
28.8548
28.872
28.8991
28.9158
28.9458
28.9389
28.9447
28.8703
28.806
28.6526
28.5477
28.4578
28.4253
28.4459
28.5507
28.6989
28.8654
29.0446
29.2169
29.3891
29.5343
29.6915
29.7775
28.8822
28.8067
28.8237
28.8142
28.8218
28.8286
28.8415
28.8597
28.8781
28.9049
28.9196
28.9472
28.9345
28.9361
28.8498
28.7735
28.6014
28.486
28.3908
28.3591
28.3846
28.4965
28.6485
28.8217
29.005
29.1795
29.3467
29.4909
29.6425
29.7429
28.8308
28.7682
28.7928
28.7967
28.8116
28.8245
28.8412
28.8638
28.8841
28.9107
28.9237
28.9486
28.9298
28.9271
28.8286
28.7403
28.5499
28.4254
28.3254
28.2953
28.3263
28.4456
28.6017
28.7838
28.971
29.1447
29.3084
29.4534
29.6001
29.7101
28.7837
28.7306
28.7631
28.7776
28.7995
28.8185
28.8394
28.8657
28.8888
28.9162
28.9275
28.9502
28.925
28.9175
28.8067
28.7067
28.4991
28.3668
28.2627
28.2345
28.2719
28.3979
28.5618
28.7501
28.9385
29.1125
29.2756
29.4212
29.5632
29.6797
28.7381
28.6917
28.7331
28.7564
28.7851
28.8103
28.8357
28.865
28.891
28.9207
28.9307
28.9514
28.92
28.9074
28.7842
28.6732
28.4495
28.311
28.2032
28.1775
28.222
28.3536
28.5244
28.7165
28.9079
29.0848
29.248
29.3939
29.5314
29.6518
28.6911
28.6514
28.7018
28.7329
28.7679
28.7995
28.8298
28.8625
28.8906
28.9228
28.9321
28.952
28.9147
28.897
28.761
28.6402
28.4021
28.2587
28.148
28.1255
28.1752
28.3104
28.4869
28.6847
28.881
29.0613
29.2248
29.371
29.5045
29.6269
28.6415
28.6101
28.6684
28.7069
28.7481
28.7862
28.8217
28.8581
28.8886
28.9224
28.9318
28.9521
28.9089
28.8865
28.7377
28.6086
28.3574
28.2112
28.0977
28.0769
28.129
28.2679
28.4521
28.6556
28.8564
29.0409
29.2056
29.3519
29.482
29.6053
28.5867
28.5663
28.6323
28.6781
28.7259
28.7706
28.8115
28.8521
28.885
28.9209
28.9307
28.9513
28.9027
28.8765
28.7153
28.5797
28.3176
28.1691
28.0503
28.0288
28.0852
28.2298
28.4181
28.6279
28.834
29.0228
29.1893
29.3362
29.4633
29.5869
28.5248
28.5191
28.5934
28.6467
28.7017
28.7533
28.7997
28.8446
28.8805
28.9186
28.929
28.9499
28.8966
28.8675
28.6945
28.555
28.2825
28.131
28.0052
27.9853
28.047
28.193
28.3841
28.6006
28.8124
29.0059
29.1753
29.3232
29.4479
29.5716
28.4563
28.4675
28.5504
28.6131
28.6761
28.7346
28.7865
28.8361
28.8754
28.9161
28.9274
28.9493
28.8915
28.8603
28.6761
28.5343
28.2505
28.1001
27.968
27.9494
28.0098
28.1509
28.3495
28.5728
28.7903
28.9887
29.1619
29.3122
29.4353
29.559
28.3805
28.411
28.5047
28.5779
28.6496
28.715
28.7727
28.8272
28.8703
28.9139
28.9265
28.95
28.8889
28.8571
28.6613
28.5177
28.2258
28.0784
27.9402
27.9192
27.9712
28.1089
28.3153
28.5441
28.7672
28.9705
29.1475
29.3016
29.4248
29.5488
28.295
28.3508
28.4571
28.5422
28.6229
28.6953
28.7589
28.8186
28.8658
28.9125
28.9268
28.952
28.8897
28.858
28.6503
28.5086
28.2103
28.0622
27.9154
27.8895
27.9368
28.077
28.2823
28.5153
28.7433
28.9514
29.1319
29.2892
29.4146
29.5399
28.2013
28.2902
28.4093
28.5071
28.5966
28.6764
28.7463
28.8113
28.8626
28.9123
28.9301
28.9561
28.8922
28.8619
28.6428
28.5094
28.2021
28.0512
27.8961
27.8679
27.9138
28.0532
28.254
28.4863
28.7194
28.9324
29.1168
29.2771
29.4045
29.5327
28.1031
28.2319
28.3632
28.4735
28.5721
28.6594
28.7356
28.8059
28.8612
28.916
28.936
28.9633
28.8976
28.871
28.6441
28.5228
28.1974
28.047
27.8871
27.8599
27.9085
28.0445
28.2368
28.4637
28.6977
28.9159
29.1045
29.2683
29.3981
29.5269
28.0068
28.1771
28.3207
28.4427
28.5503
28.6451
28.7275
28.803
28.8634
28.9254
28.9461
28.9764
28.9102
28.8894
28.6578
28.545
28.1983
28.0602
27.8876
27.8632
27.9111
28.0449
28.2326
28.4561
28.6847
28.9049
29.0992
29.2668
29.3988
29.5268
27.9226
28.1297
28.2837
28.4169
28.5336
28.6353
28.7236
28.8058
28.8761
28.9424
28.9658
29.0006
28.9327
28.9214
28.6858
28.5911
28.2349
28.1056
27.9217
27.8914
27.9276
28.0575
28.241
28.4598
28.6864
28.9058
29.1014
29.2714
29.4051
29.5322
27.8657
28.093
28.2548
28.3987
28.5236
28.6321
28.7302
28.8247
28.8997
28.9691
28.9953
29.0364
28.9688
28.9714
28.732
28.6721
28.3094
28.1897
27.9967
27.9627
27.9895
28.1028
28.2709
28.4809
28.7005
28.9142
29.1086
29.2813
29.4192
29.5482
27.8352
28.0706
28.2385
28.39
28.5234
28.6451
28.753
28.8507
28.9277
28.9979
29.026
29.0731
29.0087
29.0299
28.7919
28.7812
28.4167
28.3104
28.1106
28.0715
28.0862
28.1806
28.3296
28.5245
28.7363
28.9465
29.1367
29.3054
29.4419
29.5746
27.8614
28.0714
28.2379
28.3943
28.534
28.6618
28.7736
28.8722
28.9499
29.0214
29.0519
29.1035
29.0462
29.0881
28.8609
28.9115
28.5552
28.4685
28.2675
28.2245
28.2269
28.3042
28.4305
28.6037
28.7969
28.9952
29.1821
29.3543
29.5009
29.6397
29.823
29.5078
29.4434
29.2014
29.0107
28.8785
28.8033
28.7809
28.7799
28.8111
28.8522
28.9167
28.9642
29.0348
29.0463
29.0687
28.9905
28.898
28.7565
28.6787
28.674
28.7572
28.897
29.062
29.2414
29.4248
29.6278
29.7989
29.9964
30.0328
29.778
29.3863
29.3572
29.1343
28.9755
28.865
28.8035
28.7848
28.7889
28.8229
28.865
28.9293
28.9759
29.0464
29.0567
29.0817
29.0073
28.9227
28.7839
28.701
28.6847
28.7638
28.9025
29.0676
29.2483
29.4334
29.6388
29.8102
30.0106
30.0442
29.7168
29.2917
29.2832
29.0833
28.9485
28.8531
28.8021
28.7877
28.797
28.8333
28.8757
28.9399
28.9846
29.0553
29.0632
29.0902
29.0138
28.9238
28.78
28.6961
28.6738
28.7502
28.8919
29.0594
29.2428
29.4289
29.6353
29.8028
30.0091
30.0393
29.6257
29.2051
29.2056
29.0227
28.9107
28.833
28.7943
28.7889
28.8037
28.8425
28.8852
28.9497
28.9923
29.0639
29.0681
29.0968
29.0127
28.9173
28.7668
28.6789
28.6489
28.7165
28.859
29.0308