/*--------------------------------*- C++ -*----------------------------------*\
  =========                 |
  \\      /  F ield         | OpenFOAM: The Open Source CFD Toolbox
   \\    /   O peration     | Website:  https://openfoam.org
    \\  /    A nd           | Version:  12
     \\/     M anipulation  |
\*---------------------------------------------------------------------------*/
FoamFile
{
    format      ascii;
    class       volScalarField;
    location    "1500/air";
    object      T;
}
// * * * * * * * * * * * * * * * * * * * * * * * * * * * * * * * * * * * * * //

dimensions      [0 0 0 1 0 0 0];

internalField   nonuniform List<scalar> 
243000
(
300.681
300.658
300.642
300.63
300.619
300.608
300.599
300.59
300.581
300.573
300.565
300.556
300.548
300.54
300.531
300.522
300.513
300.503
300.492
300.478
300.461
300.441
300.418
300.395
300.373
300.353
300.336
300.321
300.309
300.292
300.718
300.68
300.655
300.637
300.622
300.61
300.599
300.588
300.579
300.57
300.561
300.552
300.544
300.535
300.526
300.517
300.508
300.498
300.486
300.472
300.456
300.437
300.416
300.394
300.372
300.353
300.335
300.319
300.307
300.295
300.792
300.716
300.676
300.649
300.63
300.614
300.601
300.589
300.579
300.568
300.559
300.55
300.541
300.532
300.523
300.513
300.504
300.493
300.481
300.468
300.452
300.434
300.414
300.393
300.372
300.353
300.335
300.319
300.305
300.295
300.906
300.775
300.709
300.669
300.642
300.622
300.606
300.592
300.58
300.569
300.559
300.549
300.539
300.53
300.52
300.51
300.5
300.49
300.478
300.464
300.449
300.432
300.413
300.393
300.373
300.353
300.336
300.319
300.305
300.294
301.06
300.866
300.762
300.702
300.663
300.635
300.614
300.598
300.584
300.571
300.56
300.549
300.539
300.529
300.519
300.508
300.498
300.487
300.475
300.462
300.447
300.43
300.412
300.393
300.373
300.355
300.337
300.321
300.306
300.294
301.241
300.997
300.844
300.752
300.694
300.656
300.628
300.607
300.59
300.575
300.562
300.55
300.539
300.529
300.518
300.507
300.496
300.485
300.473
300.459
300.445
300.429
300.411
300.393
300.375
300.356
300.339
300.323
300.308
300.295
301.411
301.16
300.96
300.827
300.742
300.686
300.648
300.621
300.599
300.582
300.567
300.553
300.541
300.53
300.518
300.507
300.495
300.484
300.471
300.458
300.443
300.428
300.411
300.394
300.376
300.358
300.341
300.325
300.31
300.297
301.546
301.329
301.104
300.93
300.811
300.731
300.678
300.64
300.613
300.591
300.573
300.558
300.544
300.532
300.52
300.508
300.495
300.483
300.47
300.457
300.442
300.427
300.411
300.394
300.377
300.36
300.343
300.327
300.312
300.299
301.641
301.483
301.267
301.064
300.908
300.797
300.721
300.669
300.632
300.604
300.583
300.565
300.549
300.535
300.522
300.509
300.496
300.483
300.47
300.456
300.442
300.427
300.411
300.395
300.379
300.362
300.346
300.33
300.315
300.301
301.704
301.605
301.431
301.225
301.037
300.891
300.786
300.712
300.661
300.624
300.596
300.574
300.556
300.54
300.525
300.512
300.498
300.484
300.47
300.456
300.442
300.427
300.412
300.396
300.38
300.364
300.348
300.333
300.318
300.304
301.744
301.688
301.571
301.395
301.196
301.018
300.878
300.776
300.704
300.652
300.615
300.587
300.565
300.547
300.53
300.515
300.501
300.486
300.471
300.457
300.442
300.428
300.413
300.397
300.382
300.367
300.351
300.336
300.321
300.308
301.774
301.741
301.672
301.546
301.368
301.176
301.004
300.868
300.767
300.695
300.643
300.606
300.578
300.556
300.537
300.52
300.504
300.489
300.474
300.458
300.444
300.429
300.414
300.399
300.384
300.369
300.354
300.339
300.325
300.311
301.8
301.777
301.737
301.659
301.526
301.349
301.161
300.993
300.859
300.759
300.686
300.634
300.597
300.568
300.546
300.527
300.509
300.493
300.477
300.461
300.446
300.431
300.416
300.401
300.386
300.372
300.357
300.343
300.329
300.315
301.824
301.805
301.779
301.733
301.647
301.509
301.333
301.148
300.982
300.849
300.749
300.676
300.624
300.587
300.559
300.536
300.516
300.498
300.481
300.464
300.448
300.433
300.418
300.403
300.389
300.375
300.36
300.346
300.332
300.319
301.848
301.83
301.81
301.78
301.727
301.634
301.492
301.316
301.134
300.97
300.837
300.738
300.666
300.614
300.576
300.548
300.525
300.505
300.486
300.468
300.452
300.436
300.421
300.406
300.392
300.378
300.364
300.35
300.336
300.323
301.87
301.853
301.835
301.812
301.778
301.718
301.618
301.473
301.297
301.116
300.954
300.823
300.725
300.654
300.603
300.566
300.537
300.513
300.493
300.474
300.456
300.44
300.424
300.409
300.395
300.381
300.368
300.354
300.341
300.328
301.89
301.873
301.855
301.836
301.811
301.771
301.705
301.598
301.448
301.271
301.092
300.934
300.806
300.711
300.641
300.591
300.554
300.525
300.501
300.481
300.462
300.444
300.428
300.413
300.399
300.385
300.371
300.358
300.345
300.332
301.908
301.89
301.873
301.855
301.833
301.805
301.76
301.686
301.571
301.417
301.24
301.064
300.91
300.787
300.695
300.627
300.578
300.542
300.513
300.489
300.469
300.45
300.433
300.418
300.403
300.389
300.375
300.362
300.349
300.336
301.921
301.904
301.887
301.87
301.85
301.826
301.794
301.742
301.66
301.538
301.379
301.203
301.032
300.884
300.766
300.678
300.613
300.565
300.53
300.501
300.478
300.457
300.439
300.423
300.408
300.393
300.38
300.367
300.354
300.341
301.931
301.914
301.897
301.88
301.861
301.84
301.814
301.777
301.718
301.626
301.497
301.335
301.162
300.997
300.856
300.744
300.66
300.598
300.552
300.517
300.49
300.467
300.447
300.429
300.413
300.399
300.385
300.371
300.358
300.346
301.935
301.919
301.903
301.886
301.868
301.848
301.826
301.797
301.754
301.687
301.586
301.45
301.287
301.118
300.96
300.827
300.722
300.643
300.584
300.54
300.506
300.479
300.456
300.437
300.42
300.405
300.39
300.377
300.364
300.351
301.933
301.918
301.903
301.887
301.87
301.852
301.831
301.807
301.774
301.725
301.649
301.54
301.398
301.236
301.073
300.924
300.8
300.702
300.627
300.571
300.529
300.496
300.469
300.447
300.429
300.412
300.397
300.383
300.369
300.357
301.923
301.909
301.895
301.88
301.865
301.849
301.832
301.811
301.785
301.748
301.691
301.606
301.489
301.344
301.185
301.029
300.89
300.775
300.683
300.613
300.56
300.519
300.487
300.461
300.44
300.421
300.405
300.39
300.376
300.363
301.904
301.892
301.88
301.868
301.855
301.841
301.826
301.809
301.788
301.759
301.716
301.651
301.558
301.435
301.29
301.136
300.99
300.86
300.753
300.667
300.601
300.55
300.511
300.479
300.454
300.433
300.415
300.399
300.384
300.37
301.876
301.867
301.858
301.849
301.839
301.828
301.816
301.802
301.785
301.762
301.729
301.68
301.607
301.507
301.381
301.238
301.092
300.955
300.835
300.734
300.654
300.592
300.543
300.504
300.474
300.449
300.428
300.41
300.393
300.379
301.838
301.833
301.828
301.822
301.816
301.809
301.8
301.789
301.776
301.758
301.733
301.695
301.639
301.559
301.454
301.328
301.19
301.053
300.926
300.814
300.721
300.645
300.585
300.538
300.5
300.47
300.445
300.424
300.405
300.389
301.785
301.785
301.786
301.785
301.783
301.78
301.775
301.767
301.756
301.742
301.722
301.692
301.649
301.586
301.502
301.395
301.273
301.144
301.017
300.9
300.797
300.71
300.639
300.581
300.535
300.498
300.467
300.442
300.42
300.401
301.707
301.713
301.718
301.722
301.724
301.723
301.719
301.712
301.701
301.687
301.668
301.642
301.607
301.558
301.491
301.407
301.306
301.195
301.079
300.967
300.863
300.772
300.693
300.627
300.573
300.528
300.492
300.461
300.436
300.414
301.531
301.536
301.541
301.544
301.543
301.536
301.525
301.51
301.49
301.468
301.444
301.416
301.384
301.345
301.294
301.233
301.162
301.082
300.996
300.908
300.824
300.746
300.676
300.615
300.564
300.52
300.484
300.453
300.428
300.406
300.764
300.762
300.772
300.779
300.778
300.77
300.758
300.743
300.727
300.709
300.692
300.674
300.656
300.635
300.61
300.581
300.552
300.518
300.481
300.444
300.407
300.374
300.344
300.318
300.296
300.277
300.261
300.248
300.236
300.226
300.669
300.645
300.629
300.616
300.605
300.595
300.585
300.576
300.568
300.559
300.55
300.542
300.533
300.524
300.514
300.505
300.494
300.481
300.465
300.445
300.419
300.391
300.363
300.336
300.313
300.294
300.279
300.266
300.255
300.242
300.695
300.66
300.637
300.62
300.606
300.594
300.583
300.572
300.563
300.554
300.545
300.536
300.526
300.517
300.508
300.497
300.486
300.474
300.458
300.439
300.416
300.39
300.363
300.338
300.316
300.297
300.281
300.267
300.255
300.243
300.723
300.68
300.651
300.63
300.612
300.598
300.585
300.573
300.562
300.552
300.542
300.532
300.522
300.513
300.502
300.492
300.48
300.467
300.452
300.434
300.412
300.388
300.364
300.34
300.319
300.3
300.283
300.269
300.257
300.245
300.755
300.707
300.673
300.647
300.625
300.607
300.592
300.578
300.565
300.553
300.542
300.531
300.521
300.51
300.499
300.487
300.475
300.462
300.447
300.429
300.409
300.387
300.364
300.342
300.321
300.302
300.286
300.271
300.258
300.246
300.793
300.744
300.705
300.673
300.646
300.624
300.604
300.587
300.572
300.558
300.546
300.533
300.521
300.509
300.497
300.485
300.472
300.458
300.442
300.425
300.406
300.386
300.364
300.343
300.323
300.305
300.289
300.274
300.261
300.248
300.844
300.796
300.751
300.712
300.678
300.649
300.624
300.603
300.584
300.568
300.552
300.538
300.524
300.511
300.498
300.484
300.47
300.455
300.439
300.422
300.404
300.385
300.364
300.345
300.326
300.308
300.292
300.277
300.263
300.251
300.916
300.871
300.817
300.767
300.723
300.686
300.654
300.626
300.603
300.582
300.563
300.546
300.53
300.515
300.5
300.485
300.47
300.454
300.437
300.42
300.403
300.384
300.365
300.346
300.328
300.311
300.295
300.28
300.266
300.253
301
300.967
300.907
300.844
300.785
300.736
300.694
300.658
300.628
300.602
300.579
300.558
300.54
300.522
300.505
300.488
300.471
300.454
300.436
300.419
300.402
300.384
300.366
300.348
300.33
300.313
300.298
300.283
300.269
300.256
301.079
301.063
301.007
300.934
300.862
300.799
300.745
300.7
300.662
300.629
300.6
300.575
300.553
300.532
300.513
300.494
300.475
300.456
300.437
300.419
300.402
300.384
300.367
300.349
300.333
300.317
300.301
300.287
300.273
300.26
301.142
301.148
301.107
301.035
300.954
300.876
300.809
300.752
300.704
300.664
300.628
300.598
300.571
300.546
300.524
300.502
300.48
300.46
300.439
300.42
300.402
300.385
300.368
300.351
300.335
300.32
300.305
300.29
300.277
300.264
301.195
301.217
301.198
301.139
301.057
300.969
300.888
300.817
300.757
300.707
300.664
300.626
300.594
300.565
300.538
300.513
300.489
300.466
300.444
300.424
300.405
300.387
300.37
300.354
300.338
300.323
300.309
300.294
300.281
300.268
301.242
301.273
301.272
301.235
301.164
301.074
300.982
300.897
300.824
300.761
300.708
300.663
300.623
300.589
300.557
300.528
300.5
300.474
300.45
300.429
300.409
300.39
300.373
300.357
300.342
300.327
300.313
300.299
300.285
300.272
301.288
301.318
301.331
301.314
301.263
301.183
301.089
300.993
300.906
300.829
300.763
300.708
300.66
300.618
300.581
300.547
300.515
300.486
300.46
300.436
300.414
300.395
300.377
300.361
300.346
300.331
300.317
300.303
300.29
300.277
301.334
301.361
301.378
301.375
301.346
301.285
301.199
301.101
301.003
300.912
300.832
300.764
300.706
300.656
300.612
300.571
300.535
300.502
300.472
300.445
300.422
300.401
300.383
300.366
300.35
300.336
300.322
300.308
300.295
300.282
301.383
301.403
301.419
301.423
301.409
301.369
301.301
301.211
301.11
301.009
300.915
300.833
300.763
300.702
300.65
300.602
300.559
300.521
300.487
300.458
300.432
300.41
300.39
300.372
300.356
300.341
300.327
300.313
300.3
300.287
301.433
301.446
301.457
301.463
301.457
301.433
301.384
301.31
301.217
301.113
301.011
300.916
300.832
300.759
300.696
300.64
300.59
300.546
300.507
300.473
300.445
300.42
300.399
300.38
300.363
300.347
300.333
300.319
300.305
300.293
301.484
301.49
301.495
301.498
301.494
301.479
301.446
301.391
301.312
301.216
301.111
301.008
300.913
300.828
300.753
300.687
300.628
300.577
300.532
300.494
300.461
300.433
300.41
300.389
300.371
300.355
300.34
300.325
300.312
300.299
301.534
301.533
301.533
301.531
301.526
301.514
301.491
301.45
301.388
301.306
301.208
301.104
301.001
300.906
300.819
300.743
300.675
300.615
300.563
300.519
300.481
300.45
300.423
300.401
300.381
300.363
300.348
300.333
300.319
300.306
301.58
301.574
301.568
301.561
301.553
301.541
301.522
301.491
301.444
301.377
301.292
301.194
301.091
300.989
300.894
300.807
300.729
300.661
300.601
300.55
300.507
300.471
300.44
300.415
300.393
300.374
300.357
300.341
300.327
300.313
301.621
301.61
301.6
301.588
301.576
301.562
301.544
301.518
301.481
301.428
301.357
301.271
301.174
301.073
300.973
300.879
300.792
300.715
300.646
300.588
300.538
300.496
300.462
300.433
300.408
300.387
300.368
300.351
300.336
300.322
301.653
301.639
301.625
301.61
301.594
301.578
301.559
301.535
301.504
301.461
301.404
301.332
301.246
301.151
301.052
300.954
300.861
300.776
300.7
300.633
300.576
300.528
300.488
300.455
300.427
300.403
300.382
300.364
300.347
300.332
301.675
301.659
301.642
301.625
301.606
301.587
301.567
301.544
301.516
301.481
301.435
301.375
301.302
301.217
301.124
301.029
300.934
300.844
300.76
300.686
300.621
300.567
300.521
300.482
300.45
300.423
300.399
300.378
300.36
300.344
301.685
301.667
301.649
301.631
301.611
301.591
301.57
301.547
301.521
301.49
301.452
301.403
301.343
301.27
301.187
301.098
301.006
300.914
300.827
300.746
300.675
300.613
300.56
300.516
300.479
300.447
300.42
300.397
300.376
300.357
301.68
301.663
301.646
301.627
301.608
301.587
301.566
301.543
301.519
301.492
301.459
301.418
301.368
301.308
301.237
301.158
301.072
300.984
300.896
300.812
300.735
300.667
300.608
300.557
300.514
300.477
300.446
300.419
300.395
300.374
301.657
301.642
301.626
301.609
301.591
301.572
301.551
301.53
301.507
301.482
301.453
301.42
301.379
301.329
301.27
301.202
301.127
301.046
300.962
300.879
300.8
300.727
300.661
300.604
300.555
300.513
300.476
300.445
300.418
300.394
301.613
301.601
301.588
301.573
301.557
301.54
301.521
301.501
301.48
301.457
301.432
301.403
301.369
301.328
301.278
301.221
301.156
301.084
301.009
300.932
300.855
300.782
300.714
300.653
300.599
300.551
300.51
300.474
300.443
300.416
301.541
301.53
301.519
301.507
301.494
301.48
301.464
301.445
301.425
301.402
301.378
301.352
301.322
301.286
301.244
301.194
301.138
301.077
301.01
300.941
300.872
300.805
300.741
300.681
300.627
300.579
300.536
300.499
300.465
300.436
301.413
301.401
301.392
301.383
301.374
301.363
301.348
301.33
301.309
301.285
301.261
301.235
301.207
301.174
301.134
301.089
301.041
300.989
300.932
300.872
300.813
300.754
300.699
300.648
300.602
300.56
300.523
300.49
300.46
300.433
301.156
301.135
301.126
301.124
301.122
301.115
301.102
301.083
301.06
301.036
301.011
300.986
300.96
300.93
300.895
300.855
300.814
300.769
300.723
300.676
300.63
300.586
300.546
300.51
300.479
300.451
300.427
300.406
300.386
300.369
300.644
300.64
300.646
300.655
300.661
300.662
300.658
300.65
300.639
300.626
300.612
300.597
300.58
300.56
300.536
300.508
300.48
300.449
300.417
300.385
300.354
300.326
300.3
300.278
300.258
300.242
300.228
300.216
300.205
300.196
300.649
300.631
300.618
300.607
300.596
300.587
300.577
300.568
300.559
300.55
300.541
300.532
300.523
300.513
300.503
300.492
300.48
300.464
300.443
300.415
300.382
300.349
300.32
300.296
300.277
300.262
300.251
300.241
300.231
300.215
300.65
300.629
300.613
300.6
300.588
300.578
300.568
300.559
300.55
300.541
300.532
300.523
300.513
300.503
300.493
300.482
300.469
300.454
300.434
300.408
300.379
300.349
300.322
300.299
300.28
300.265
300.252
300.242
300.232
300.218
300.655
300.634
300.617
300.602
300.589
300.578
300.567
300.556
300.546
300.536
300.527
300.517
300.507
300.497
300.486
300.474
300.46
300.445
300.426
300.402
300.376
300.349
300.324
300.302
300.283
300.267
300.254
300.243
300.232
300.22
300.664
300.643
300.625
300.609
300.595
300.582
300.57
300.558
300.547
300.536
300.526
300.515
300.504
300.493
300.481
300.468
300.454
300.438
300.419
300.397
300.373
300.348
300.325
300.304
300.286
300.27
300.256
300.245
300.234
300.222
300.676
300.656
300.638
300.622
300.606
300.591
300.578
300.564
300.552
300.54
300.528
300.516
300.504
300.491
300.478
300.464
300.449
300.432
300.414
300.393
300.371
300.348
300.326
300.306
300.289
300.273
300.259
300.247
300.235
300.224
300.694
300.677
300.659
300.641
300.624
300.607
300.591
300.576
300.562
300.548
300.534
300.52
300.507
300.493
300.478
300.462
300.446
300.428
300.41
300.39
300.369
300.348
300.327
300.309
300.291
300.276
300.262
300.249
300.237
300.226
300.718
300.704
300.688
300.669
300.65
300.631
300.612
300.594
300.577
300.56
300.544
300.529
300.513
300.497
300.481
300.463
300.445
300.426
300.407
300.388
300.368
300.348
300.329
300.311
300.295
300.279
300.265
300.252
300.24
300.228
300.75
300.741
300.727
300.709
300.687
300.664
300.641
300.619
300.598
300.579
300.56
300.541
300.523
300.505
300.486
300.466
300.446
300.426
300.406
300.387
300.368
300.349
300.331
300.314
300.298
300.283
300.269
300.256
300.243
300.231
300.791
300.793
300.783
300.763
300.737
300.709
300.681
300.654
300.628
300.604
300.581
300.559
300.538
300.517
300.495
300.473
300.45
300.428
300.407
300.387
300.368
300.35
300.333
300.317
300.301
300.287
300.273
300.259
300.247
300.235
300.841
300.852
300.847
300.829
300.8
300.766
300.731
300.697
300.666
300.636
300.608
300.582
300.557
300.533
300.508
300.482
300.456
300.432
300.41
300.389
300.37
300.352
300.336
300.32
300.305
300.291
300.277
300.263
300.251
300.238
300.893
300.912
300.915
300.9
300.871
300.833
300.792
300.751
300.713
300.677
300.643
300.612
300.582
300.553
300.525
300.495
300.466
300.439
300.415
300.393
300.374
300.356
300.339
300.324
300.309
300.295
300.281
300.268
300.255
300.243
300.949
300.972
300.982
300.974
300.948
300.909
300.863
300.815
300.769
300.726
300.686
300.649
300.613
300.58
300.546
300.513
300.48
300.45
300.423
300.4
300.379
300.361
300.344
300.329
300.314
300.3
300.286
300.273
300.26
300.247
301.006
301.03
301.045
301.044
301.025
300.989
300.942
300.889
300.836
300.784
300.737
300.693
300.651
300.612
300.573
300.535
300.498
300.464
300.435
300.409
300.387
300.368
300.35
300.335
300.32
300.306
300.292
300.278
300.265
300.252
301.066
301.088
301.105
301.109
301.097
301.068
301.023
300.969
300.91
300.852
300.797
300.745
300.697
300.651
300.607
300.563
300.521
300.483
300.45
300.422
300.397
300.377
300.358
300.342
300.326
300.312
300.298
300.284
300.27
300.258
301.128
301.147
301.162
301.169
301.163
301.141
301.102
301.05
300.99
300.927
300.865
300.805
300.75
300.697
300.646
300.596
300.549
300.507
300.47
300.438
300.411
300.388
300.368
300.35
300.334
300.319
300.305
300.291
300.277
300.264
301.192
301.206
301.218
301.224
301.221
301.205
301.174
301.128
301.07
301.005
300.938
300.872
300.809
300.75
300.692
300.636
300.584
300.536
300.494
300.459
300.428
300.402
300.38
300.361
300.344
300.328
300.313
300.298
300.284
300.271
301.257
301.266
301.272
301.276
301.272
301.26
301.235
301.196
301.144
301.082
301.013
300.943
300.874
300.808
300.744
300.682
300.624
300.571
300.524
300.484
300.45
300.42
300.396
300.374
300.355
300.338
300.322
300.307
300.292
300.278
301.321
301.324
301.325
301.324
301.319
301.307
301.286
301.254
301.208
301.151
301.085
301.014
300.942
300.871
300.801
300.734
300.67
300.612
300.56
300.515
300.476
300.443
300.415
300.39
300.369
300.35
300.333
300.317
300.301
300.287
301.382
301.379
301.375
301.369
301.361
301.348
301.328
301.3
301.26
301.21
301.149
301.08
301.008
300.934
300.861
300.79
300.722
300.659
300.601
300.551
300.507
300.469
300.438
300.41
300.387
300.365
300.346
300.329
300.312
300.297
301.436
301.429
301.421
301.41
301.398
301.383
301.363
301.336
301.302
301.257
301.202
301.139
301.069
300.996
300.922
300.848
300.777
300.71
300.648
300.592
300.544
300.501
300.465
300.434
300.407
300.384
300.362
300.343
300.325
300.308
301.482
301.471
301.459
301.445
301.429
301.411
301.39
301.365
301.333
301.293
301.245
301.188
301.124
301.054
300.982
300.908
300.836
300.766
300.7
300.64
300.586
300.539
300.499
300.463
300.432
300.405
300.381
300.359
300.339
300.321
301.516
301.503
301.488
301.472
301.453
301.433
301.411
301.385
301.355
301.32
301.277
301.227
301.169
301.105
301.037
300.967
300.896
300.826
300.758
300.694
300.635
300.583
300.538
300.497
300.462
300.431
300.404
300.379
300.356
300.337
301.535
301.521
301.505
301.488
301.468
301.447
301.423
301.398
301.369
301.337
301.299
301.254
301.204
301.147
301.086
301.021
300.954
300.886
300.818
300.752
300.69
300.633
300.583
300.537
300.497
300.462
300.43
300.402
300.377
300.354
301.538
301.524
301.509
301.492
301.472
301.451
301.427
301.402
301.374
301.344
301.309
301.269
301.225
301.176
301.121
301.064
301.003
300.94
300.875
300.811
300.747
300.688
300.633
300.583
300.538
300.497
300.461
300.429
300.4
300.375
301.519
301.507
301.493
301.477
301.458
301.438
301.415
301.391
301.364
301.335
301.303
301.268
301.228
301.184
301.136
301.084
301.031
300.975
300.917
300.857
300.797
300.738
300.682
300.629
300.579
300.535
300.494
300.458
300.425
300.397
301.474
301.464
301.451
301.437
301.42
301.401
301.38
301.357
301.331
301.303
301.272
301.238
301.202
301.161
301.117
301.07
301.021
300.972
300.922
300.87
300.818
300.765
300.712
300.661
300.612
300.567
300.524
300.485
300.45
300.419
301.39
301.379
301.368
301.356
301.342
301.326
301.307
301.285
301.26
301.231
301.2
301.168
301.133
301.093
301.05
301.002
300.957
300.912
300.868
300.825
300.782
300.739
300.695
300.651
300.609
300.569
300.53
300.494
300.461
300.43
301.241
301.226
301.214
301.205
301.197
301.187
301.172
301.152
301.127
301.098
301.068
301.035
301.001
300.963
300.92
300.874
300.831
300.789
300.748
300.709
300.671
300.634
300.602
300.572
300.544
300.516
300.488
300.461
300.435
300.41
300.982
300.969
300.963
300.961
300.96
300.956
300.946
300.931
300.91
300.886
300.86
300.832
300.802
300.768
300.729
300.686
300.646
300.608
300.572
300.537
300.505
300.475
300.449
300.426
300.405
300.387
300.372
300.358
300.344
300.33
300.582
300.585
300.593
300.605
300.615
300.622
300.623
300.619
300.611
300.598
300.583
300.565
300.544
300.518
300.487
300.453
300.421
300.39
300.361
300.334
300.309
300.287
300.267
300.251
300.236
300.224
300.213
300.203
300.194
300.186
300.648
300.629
300.615
300.603
300.592
300.582
300.572
300.563
300.554
300.544
300.535
300.526
300.516
300.506
300.495
300.483
300.469
300.449
300.42
300.384
300.346
300.314
300.288
300.269
300.255
300.245
300.236
300.229
300.222
300.212
300.639
300.617
300.602
300.59
300.579
300.568
300.559
300.55
300.541
300.531
300.522
300.513
300.503
300.493
300.482
300.47
300.455
300.436
300.41
300.378
300.345
300.315
300.291
300.272
300.258
300.247
300.237
300.229
300.221
300.212
300.636
300.615
300.599
300.586
300.574
300.563
300.553
300.543
300.534
300.524
300.515
300.505
300.494
300.484
300.472
300.459
300.444
300.425
300.401
300.372
300.343
300.316
300.293
300.275
300.261
300.249
300.238
300.229
300.221
300.212
300.638
300.619
300.603
300.589
300.576
300.564
300.553
300.542
300.532
300.521
300.511
300.5
300.489
300.478
300.465
300.451
300.435
300.416
300.394
300.368
300.341
300.316
300.295
300.278
300.263
300.251
300.24
300.23
300.221
300.212
300.644
300.626
300.61
300.596
300.582
300.569
300.557
300.546
300.534
300.523
300.511
300.5
300.487
300.474
300.46
300.445
300.428
300.409
300.387
300.364
300.34
300.317
300.298
300.281
300.267
300.254
300.242
300.232
300.222
300.212
300.654
300.638
300.623
300.608
300.594
300.58
300.566
300.553
300.54
300.528
300.515
300.502
300.488
300.474
300.458
300.441
300.423
300.404
300.383
300.361
300.339
300.318
300.3
300.284
300.27
300.257
300.245
300.234
300.223
300.213
300.67
300.656
300.642
300.627
300.611
300.596
300.581
300.566
300.551
300.537
300.522
300.508
300.493
300.477
300.459
300.44
300.42
300.4
300.379
300.359
300.339
300.32
300.303
300.288
300.274
300.261
300.248
300.236
300.225
300.214
300.692
300.68
300.667
300.652
300.635
300.619
300.601
300.584
300.568
300.551
300.534
300.518
300.501
300.482
300.462
300.441
300.419
300.398
300.378
300.358
300.339
300.322
300.306
300.292
300.278
300.265
300.252
300.239
300.227
300.216
300.72
300.711
300.699
300.685
300.668
300.649
300.629
300.609
300.59
300.571
300.552
300.532
300.513
300.492
300.469
300.444
300.42
300.398
300.377
300.358
300.341
300.324
300.31
300.296
300.282
300.269
300.256
300.243
300.23
300.219
300.754
300.75
300.741
300.727
300.709
300.688
300.665
300.642
300.619
300.597
300.574
300.552
300.529
300.505
300.479
300.451
300.425
300.4
300.379
300.36
300.343
300.328
300.314
300.3
300.287
300.274
300.26
300.247
300.234
300.221
300.795
300.795
300.789
300.777
300.759
300.736
300.71
300.683
300.656
300.63
300.604
300.577
300.551
300.523
300.493
300.461
300.432
300.406
300.384
300.365
300.348
300.333
300.319
300.306
300.292
300.279
300.265
300.251
300.238
300.225
300.843
300.845
300.842
300.833
300.816
300.791
300.763
300.732
300.701
300.67
300.639
300.609
300.578
300.545
300.511
300.476
300.443
300.415
300.391
300.371
300.354
300.339
300.325
300.312
300.298
300.285
300.271
300.256
300.242
300.229
300.895
300.9
300.899
300.892
300.877
300.853
300.823
300.789
300.753
300.717
300.682
300.647
300.611
300.574
300.534
300.494
300.458
300.427
300.402
300.381
300.363
300.347
300.332
300.318
300.305
300.291
300.277
300.262
300.248
300.234
300.951
300.957
300.958
300.953
300.94
300.917
300.887
300.851
300.812
300.772
300.731
300.691
300.65
300.607
300.562
300.518
300.478
300.444
300.417
300.393
300.374
300.357
300.341
300.327
300.313
300.298
300.284
300.269
300.254
300.24
301.012
301.017
301.018
301.014
301.003
300.982
300.953
300.917
300.875
300.831
300.786
300.74
300.694
300.646
300.596
300.547
300.503
300.466
300.436
300.41
300.388
300.369
300.352
300.337
300.322
300.307
300.292
300.276
300.261
300.246
301.075
301.079
301.078
301.074
301.064
301.045
301.018
300.982
300.94
300.893
300.844
300.794
300.743
300.69
300.635
300.581
300.534
300.494
300.46
300.431
300.406
300.385
300.366
300.349
300.333
300.317
300.301
300.285
300.269
300.254
301.14
301.141
301.139
301.133
301.122
301.104
301.078
301.045
301.003
300.956
300.904
300.85
300.795
300.738
300.679
300.622
300.571
300.527
300.489
300.457
300.429
300.405
300.384
300.365
300.347
300.329
300.312
300.295
300.278
300.262
301.204
301.202
301.197
301.189
301.176
301.158
301.134
301.102
301.062
301.015
300.963
300.907
300.849
300.789
300.727
300.667
300.613
300.565
300.524
300.488
300.456
300.429
300.405
300.384
300.363
300.344
300.325
300.307
300.288
300.272
301.264
301.26
301.252
301.241
301.226
301.208
301.183
301.153
301.115
301.07
301.019
300.962
300.903
300.842
300.778
300.716
300.66
300.61
300.564
300.524
300.489
300.459
300.431
300.407
300.384
300.362
300.341
300.32
300.301
300.283
301.319
301.312
301.301
301.288
301.271
301.251
301.227
301.197
301.161
301.118
301.069
301.014
300.956
300.894
300.831
300.769
300.711
300.659
300.611
300.567
300.528
300.494
300.463
300.434
300.407
300.383
300.359
300.336
300.315
300.295
301.365
301.355
301.343
301.328
301.309
301.288
301.263
301.234
301.199
301.159
301.113
301.061
301.005
300.945
300.884
300.823
300.766
300.712
300.662
300.615
300.573
300.534
300.499
300.466
300.435
300.407
300.38
300.355
300.331
300.309
301.398
301.388
301.375
301.359
301.339
301.317
301.292
301.263
301.23
301.192
301.149
301.101
301.049
300.992
300.934
300.876
300.821
300.767
300.716
300.668
300.623
300.58
300.54
300.503
300.468
300.435
300.405
300.376
300.349
300.326
301.417
301.408
301.395
301.379
301.359
301.337
301.311
301.283
301.251
301.216
301.176
301.132
301.083
301.031
300.978
300.923
300.87
300.819
300.769
300.721
300.674
300.629
300.585
300.543
300.504
300.467
300.432
300.4
300.37
300.344
301.42
301.412
301.4
301.385
301.366
301.344
301.319
301.291
301.261
301.227
301.19
301.148
301.104
301.056
301.006
300.955
300.905
300.857
300.81
300.764
300.719
300.673
300.628
300.584
300.541
300.5
300.461
300.426
300.393
300.364
301.4
301.394
301.385
301.371
301.354
301.333
301.309
301.283
301.253
301.221
301.185
301.146
301.104
301.058
301.01
300.959
300.91
300.864
300.822
300.782
300.741
300.7
300.659
300.616
300.572
300.53
300.49
300.452
300.417
300.386
301.353
301.348
301.341
301.329
301.314
301.295
301.273
301.248
301.219
301.187
301.152
301.114
301.072
301.026
300.978
300.924
300.874
300.829
300.791
300.755
300.721
300.688
300.655
300.62
300.584
300.546
300.508
300.471
300.436
300.404
301.264
301.259
301.251
301.243
301.231
301.216
301.197
301.174
301.147
301.115
301.08
301.042
301
300.953
300.904
300.847
300.796
300.752
300.715
300.683
300.654
300.628
300.602
300.578
300.554
300.527
300.498
300.467
300.436
300.408
301.111
301.105
301.098
301.093
301.087
301.079
301.066
301.047
301.022
300.992
300.958
300.922
300.882
300.836
300.787
300.728
300.678
300.635
300.6
300.57
300.545
300.523
300.503
300.486
300.471
300.456
300.44
300.422
300.401
300.38
300.866
300.866
300.867
300.87
300.873
300.873
300.868
300.856
300.837
300.814
300.786
300.755
300.72
300.679
300.631
300.575
300.528
300.488
300.456
300.429
300.407
300.388
300.373
300.36
300.349
300.339
300.33
300.32
300.31
300.299
300.538
300.549
300.562
300.578
300.593
300.604
300.61
300.609
300.602
300.59
300.573
300.551
300.525
300.491
300.45
300.402
300.363
300.329
300.302
300.279
300.261
300.245
300.233
300.223
300.215
300.207
300.2
300.194
300.187
300.18
300.651
300.629
300.614
300.602
300.591
300.58
300.57
300.56
300.55
300.54
300.531
300.521
300.511
300.5
300.488
300.475
300.459
300.434
300.396
300.352
300.315
300.286
300.266
300.252
300.242
300.234
300.228
300.222
300.216
300.209
300.634
300.611
300.595
300.583
300.571
300.561
300.552
300.542
300.533
300.524
300.515
300.505
300.495
300.484
300.473
300.459
300.443
300.419
300.385
300.348
300.314
300.288
300.269
300.255
300.245
300.236
300.229
300.222
300.215
300.207
300.624
300.602
300.586
300.573
300.562
300.552
300.542
300.533
300.523
300.514
300.504
300.494
300.484
300.473
300.461
300.447
300.43
300.406
300.376
300.343
300.313
300.289
300.272
300.258
300.247
300.238
300.23
300.222
300.215
300.206
300.62
300.602
300.586
300.573
300.561
300.55
300.539
300.529
300.519
300.509
300.498
300.488
300.477
300.465
300.452
300.436
300.419
300.396
300.369
300.339
300.313
300.291
300.275
300.262
300.251
300.241
300.231