/*--------------------------------*- C++ -*----------------------------------*\
  =========                 |
  \\      /  F ield         | OpenFOAM: The Open Source CFD Toolbox
   \\    /   O peration     | Website:  https://openfoam.org
    \\  /    A nd           | Version:  12
     \\/     M anipulation  |
\*---------------------------------------------------------------------------*/
FoamFile
{
    format      ascii;
    class       volScalarField;
    location    "500/air";
    object      alphat;
}
// * * * * * * * * * * * * * * * * * * * * * * * * * * * * * * * * * * * * * //

dimensions      [1 -1 -1 0 0 0 0];

internalField   nonuniform List<scalar> 
243000
(
0.000216703
0.000214514
0.000206971
0.000197992
0.0001881
0.000177929
0.000167889
0.000158312
0.000149349
0.000141278
0.000134195
0.000128416
0.000123793
0.000119869
0.000116134
0.000112225
0.000107796
0.00010293
9.78134e-05
9.24767e-05
8.6394e-05
8.36167e-05
9.23658e-05
0.00010587
0.000115997
0.000124737
0.00013346
0.000142897
0.000155009
0.000171545
0.000830221
0.000813576
0.00077189
0.000726867
0.000681231
0.000636981
0.00059515
0.000556387
0.000520858
0.000489131
0.000461142
0.000437553
0.000417505
0.000401481
0.000388661
0.000377576
0.000366441
0.00035596
0.000348489
0.000346909
0.000354718
0.000367486
0.000398885
0.000447025
0.000480659
0.000511184
0.000543232
0.000576815
0.000620959
0.000682177
0.00108678
0.00110276
0.00108657
0.00106119
0.00103021
0.000996137
0.000960374
0.000924127
0.000888025
0.000853528
0.000820986
0.000792156
0.000765435
0.000742197
0.000721517
0.000701102
0.000677693
0.000653017
0.000634953
0.000634783
0.000663769
0.000700941
0.000729296
0.000768752
0.00079458
0.000813701
0.00083167
0.00084794
0.000873466
0.000913794
0.00115262
0.0011645
0.00114912
0.00112423
0.00109347
0.00105929
0.00102298
0.000985729
0.000948343
0.000912512
0.000878921
0.000849691
0.000822554
0.000798145
0.000775505
0.000752534
0.000725783
0.00069695
0.000676775
0.000682612
0.000729922
0.000790127
0.000822753
0.000848497
0.00087123
0.000890492
0.000909096
0.000925921
0.000950942
0.000988862
0.00119604
0.00120419
0.00119014
0.00116686
0.00113769
0.00110485
0.00106936
0.0010324
0.000994912
0.000958838
0.000925262
0.000896545
0.000869787
0.000844734
0.000820347
0.000794702
0.000764267
0.000730579
0.000709017
0.000719613
0.00077459
0.000851793
0.00089275
0.000910337
0.00092797
0.000947063
0.000966665
0.000984625
0.00100957
0.00104565
0.00122399
0.00122985
0.00121728
0.00119607
0.00116914
0.00113831
0.00110436
0.00106838
0.00103146
0.000995818
0.000962891
0.000935131
0.000909081
0.000883654
0.000857735
0.000829463
0.000795384
0.000757039
0.000736229
0.000749664
0.00080627
0.000892695
0.000942878
0.000958096
0.000970234
0.000988733
0.00100954
0.00102908
0.00105421
0.00108891
0.00124114
0.00124586
0.00123481
0.00121592
0.00119152
0.00116304
0.00113098
0.00109636
0.00106042
0.00102562
0.000993706
0.000967083
0.000941821
0.000916193
0.000888891
0.000858166
0.000820637
0.000779738
0.000759485
0.000774115
0.000832093
0.000917991
0.000976433
0.00099321
0.00100112
0.00101869
0.00104102
0.00106245
0.00108786
0.00112171
0.00125053
0.00125477
0.00124531
0.00122888
0.00120719
0.0011812
0.00115119
0.00111815
0.00108345
0.00104975
0.00101903
0.000993558
0.000969052
0.000943301
0.000914778
0.000881836
0.000841244
0.00080007
0.000779793
0.000794467
0.000851846
0.000934023
0.000996616
0.00101675
0.00102238
0.00103886
0.001063
0.00108674
0.00111264
0.00114611
0.00125394
0.0012584
0.00125059
0.00123659
0.00121761
0.00119421
0.00116636
0.00113502
0.00110172
0.00106927
0.00103981
0.00101542
0.000991567
0.000965732
0.000936148
0.00090127
0.000858139
0.000817812
0.00079756
0.000811685
0.000867751
0.000947292
0.00100698
0.00103024
0.00103535
0.00105044
0.00107645
0.00110306
0.00112975
0.00116386
0.00125285
0.00125811
0.00125221
0.0012405
0.00122403
0.00120302
0.00117735
0.00114784
0.00111605
0.00108496
0.00105675
0.00103331
0.00101001
0.000984076
0.000953606
0.000917127
0.000872034
0.00083331
0.000813134
0.000826235
0.000880312
0.000957
0.00101462
0.00103622
0.00104109
0.00105444
0.0010828
0.0011126
0.00114065
0.00117617
0.00124832
0.00125463
0.00125096
0.00124155
0.00122739
0.00120864
0.00118495
0.0011572
0.00112704
0.00109735
0.00107037
0.00104775
0.0010249
0.000998846
0.000967673
0.000929964
0.000885076
0.000847246
0.000826868
0.000838336
0.00088982
0.00096351
0.0010193
0.00104088
0.00104353
0.0010533
0.00108345
0.00111626
0.00114619
0.00118358
0.00124065
0.00124839
0.00124705
0.00124022
0.00122832
0.00121163
0.00118982
0.00116374
0.00113511
0.00110687
0.00108106
0.00105917
0.00103661
0.00101049
0.000978809
0.000940217
0.000896721
0.000859755
0.000838943
0.000848241
0.000896581
0.000967287
0.00102184
0.00104339
0.00104507
0.00105109
0.00107865
0.00111507
0.00114722
0.00118641
0.00123021
0.00123973
0.00124093
0.00123668
0.00122716
0.00121246
0.00119236
0.00116787
0.00114072
0.00111385
0.00108916
0.00106787
0.00104552
0.0010194
0.000987416
0.000948262
0.000906826
0.000870901
0.00084951
0.000856171
0.000900979
0.000968926
0.00102191
0.00104362
0.00104528
0.00104854
0.0010715
0.00110903
0.00114404
0.00118547
0.00121718
0.00122898
0.00123284
0.00123124
0.00122404
0.00121137
0.00119294
0.00116992
0.0011442
0.00111857
0.00109494
0.00107415
0.00105199
0.00102595
0.000993852
0.000954477
0.000915601
0.000880835
0.000858812
0.000862596
0.000903418
0.000968006
0.00101962
0.00104167
0.0010439
0.00104534
0.00106478
0.0010991
0.00113709
0.00118085
0.0012019
0.00121638
0.00122302
0.00122408
0.0012191
0.00120838
0.00119166
0.0011702
0.00114581
0.00112138
0.00109859
0.00107825
0.00105632
0.00103044
0.000998411
0.000960529
0.000923544
0.000889814
0.000867071
0.000867803
0.000904283
0.000964903
0.00101521
0.00103788
0.00104093
0.00104145
0.00105806
0.00108863
0.00112703
0.001173
0.00118468
0.00120208
0.00121162
0.00121528
0.00121251
0.00120358
0.00118855
0.0011687
0.00114581
0.00112249
0.00110048
0.00108048
0.00105872
0.0010331
0.00100139
0.000965951
0.000930795
0.000898038
0.0008745
0.000872059
0.000903483
0.000959872
0.00100887
0.0010323
0.00103639
0.00103674
0.00105107
0.00107881
0.00111457
0.00116236
0.00116599
0.00118627
0.00119873
0.00120489
0.00120432
0.00119713
0.00118366
0.00116544
0.00114409
0.00112209
0.0011009
0.00108123
0.00105966
0.00103428
0.00100348
0.000970812
0.000937498
0.000905672
0.000881295
0.000875621
0.000901486
0.000953197
0.00100071
0.00102506
0.00103036
0.00103106
0.00104368
0.00106934
0.00110283
0.00114933
0.00114872
0.0011694
0.00118449
0.00119303
0.00119456
0.00118906
0.00117713
0.00116047
0.00114072
0.00112004
0.00109978
0.00108054
0.00105928
0.00103437
0.00100579
0.000975436
0.000943853
0.000912904
0.000887752
0.000878714
0.000898695
0.000945169
0.000990934
0.00101627
0.00102296
0.00102435
0.00103586
0.00106
0.00109167
0.00113429
0.00113255
0.00115379
0.00116978
0.00117992
0.00118334
0.0011795
0.0011691
0.00115391
0.0011357
0.0011164
0.00109711
0.00107839
0.00105757
0.00103433
0.00100825
0.00098001
0.000950043
0.000919913
0.000894034
0.000881566
0.000895464
0.000936099
0.000979847
0.00100607
0.00101427
0.00101668
0.00102766
0.00105064
0.00108075
0.00111881
0.00111722
0.00113914
0.00115602
0.00116685
0.0011711
0.00116862
0.00115965
0.00114597
0.0011295
0.00111179
0.00109369
0.00107577
0.00105637
0.00103501
0.00101104
0.000984701
0.000956237
0.000926884
0.000900323
0.000884627
0.000892199
0.000926262
0.000967615
0.000994607
0.00100444
0.00100815
0.00101911
0.00104119
0.00106999
0.00110465
0.00110253
0.00112527
0.00114302
0.00115456
0.00115962
0.00115817
0.00115056
0.00113857
0.0011239
0.0011078
0.00109104
0.00107413
0.00105619
0.00103638
0.00101426
0.000989648
0.000962596
0.000933988
0.00090684
0.000888175
0.000889429
0.000916362
0.000954543
0.000982094
0.000993642
0.000998927
0.00101026
0.00103166
0.00105934
0.00109139
0.00108838
0.00111201
0.00113063
0.00114284
0.00114876
0.00114838
0.00114212
0.00113175
0.00111882
0.00110436
0.00108903
0.00107333
0.00105676
0.00103844
0.00101798
0.00099498
0.000969277
0.000941423
0.000913818
0.000892448
0.000887632
0.000907029
0.000941078
0.000968838
0.000982146
0.000989282
0.00100129
0.00102216
0.00104885
0.00107878
0.00107474
0.00109907
0.00111868
0.00113162
0.0011384
0.00113911
0.00113419
0.0011254
0.00111418
0.00110139
0.0010876
0.0010733
0.00105804
0.00104119
0.00102232
0.00100088
0.000976514
0.000949467
0.000921577
0.000897826
0.000887391
0.000899034
0.000927899
0.000955272
0.00097035
0.000979602
0.000992481
0.00101289
0.00103863
0.00106675
0.00106156
0.00108653
0.00110704
0.00112087
0.00112846
0.00113021
0.00112664
0.00111946
0.00110998
0.00109893
0.00108681
0.00107399
0.00106013
0.00104482
0.00102757
0.00100776
0.00098483
0.000958734
0.00093078
0.000905005
0.000889521
0.000893408
0.000916091
0.000942133
0.000958997
0.000970421
0.000984179
0.00100422
0.00102898
0.00105543
0.0010491
0.00107464
0.00109575
0.00111059
0.00111889
0.00112163
0.00111946
0.00111393
0.00110626
0.00109706
0.00108694
0.00107575
0.00106358
0.0010501
0.00103474
0.00101685
0.000995625
0.000970744
0.000942994
0.000915532
0.000895344
0.000891739
0.00090729
0.000930842
0.000949274
0.000962421
0.000976968
0.000996591
0.00102019
0.00104496
0.00103791
0.00106373
0.0010851
0.00110084
0.00110982
0.00111349
0.00111286
0.00110915
0.00110359
0.00109677
0.00108892
0.00108017
0.00107046
0.00105954
0.00104681
0.00103147
0.00101247
0.000989185
0.000961917
0.000933
0.000908322
0.000897398
0.000904965
0.000924157
0.000943105
0.000956846
0.000971726
0.000990771
0.00101291
0.00103588
0.00102962
0.00105529
0.00107649
0.00109266
0.00110253
0.00110742
0.00110879
0.00110773
0.00110524
0.00110186
0.0010978
0.00109313
0.00108762
0.00108079
0.00107208
0.00106029
0.00104409
0.00102263
0.000995951
0.000965648
0.000936754
0.000918267
0.000917152
0.000929926
0.00094583
0.000958332
0.00097235
0.000989662
0.00100936
0.00102979
0.00103067
0.00105547
0.00107651
0.0010937
0.00110609
0.00111387
0.00111936
0.0011234
0.00112665
0.00112973
0.00113276
0.00113552
0.00113725
0.00113679
0.00113329
0.00112549
0.00111186
0.00109184
0.00106541
0.00103384
0.0010014
0.000976447
0.000966349
0.000969216
0.000976036
0.000982864
0.000992006
0.00100418
0.00101862
0.00103416
0.00109627
0.0011192
0.00114063
0.00116008
0.00117741
0.00119203
0.00120607
0.00121895
0.00123113
0.00124445
0.00125802
0.00127084
0.00128076
0.00128618
0.00128611
0.00128015
0.00126734
0.00124779
0.00122211
0.00119182
0.00116053
0.00113537
0.00112102
0.00111249
0.00110616
0.00110185
0.00109962
0.00109939
0.00110119
0.00110531
0.0014826
0.00149471
0.00150702
0.00151859
0.00152744
0.00153792
0.00154941
0.00155749
0.00156449
0.00157744
0.00159093
0.00160263
0.00160819
0.00160768
0.00160169
0.00159196
0.00157865
0.00156264
0.0015449
0.00152849
0.00151529
0.00150829
0.00150792
0.00150962
0.00150957
0.00150819
0.00150579
0.00150186
0.00149664
0.00149128
0.000263022
0.000265636
0.000257764
0.000246396
0.000233218
0.000219301
0.000205306
0.00019171
0.000178674
0.000166575
0.000155392
0.000145565
0.000136393
0.000128271
0.000121056
0.000115316
0.000113166
0.000123262
0.000140674
0.000155362
0.000164218
0.000168846
0.000174013
0.000177427
0.000179153
0.000179788
0.000180869
0.000180891
0.000187425
0.000197266
0.0011776
0.00123876
0.00113041
0.000996003
0.000870761
0.000763623
0.000674713
0.000601551
0.000541038
0.000492428
0.000450903
0.000413358
0.00038104
0.000378624
0.000397736
0.000428723
0.000474807
0.000558412
0.000692601
0.000801414
0.000850173
0.000862242
0.000866201
0.000873154
0.000876486
0.000872508
0.000861557
0.000824365
0.000771307
0.000740601
0.0019434
0.00210136
0.00199804
0.00181697
0.00162102
0.00143878
0.00127941
0.00114447
0.00103198
0.000942268
0.000867396
0.000800226
0.000743636
0.000739328
0.000766246
0.000806507
0.000870038
0.00100927
0.00124846
0.00144959
0.00155326
0.00158944
0.00159703
0.00159824
0.00159541
0.00158179
0.00155757
0.00149624
0.00140365
0.00136136
0.00255108
0.0027456
0.00267678
0.00249836
0.00227816
0.0020561
0.0018505
0.00166942
0.00151663
0.00139412
0.00128839
0.00119908
0.00112485
0.00111302
0.00113417
0.00116845
0.00123509
0.00141047
0.00172259
0.00200088
0.00216148
0.00222938
0.0022478
0.00224548
0.0022365
0.00221763
0.00218595
0.00211266
0.0019991
0.00195533
0.00304623
0.00324382
0.00320643
0.00304829
0.00282918
0.00259165
0.00235979
0.0021482
0.00196518
0.0018164
0.00169241
0.00158848
0.00150163
0.00147803
0.00148466
0.00150348
0.00156352
0.00175886
0.00212146
0.00245828
0.00267498
0.00277744
0.0028117
0.00281192
0.00279696
0.00277727
0.00274426
0.00266957
0.00254749
0.00250281
0.00345184
0.00363742
0.003627
0.00349504
0.00328997
0.00305207
0.00280824
0.00257839
0.0023743
0.0022082
0.00207404
0.00196128
0.00186506
0.00182623
0.00181271
0.00180958
0.00185596
0.00206035
0.0024375
0.00282124
0.0030937
0.00323471
0.00328787
0.003299
0.00329312
0.00327147
0.00323538
0.00316353
0.00304465
0.00299782
0.00379111
0.00395747
0.00396609
0.00386181
0.00367761
0.00344866
0.00320287
0.00296401
0.00274777
0.00257095
0.00243186
0.00231473
0.00221035
0.00215367
0.00211644
0.00208741
0.0021173
0.00231876
0.00269211
0.00309676
0.00341817
0.00360549
0.00368009
0.00370433
0.0037062
0.00370026
0.0036786
0.00360619
0.00348398
0.00343498
0.00407232
0.00421648
0.00423926
0.00416482
0.00400575
0.00379165
0.00355095
0.00331023
0.00309024
0.00290719
0.00276451
0.00264695
0.00253438
0.00245804
0.00239526
0.00233922
0.00235793
0.00255095
0.00291739
0.00333174
0.0036699
0.00389428
0.00399365
0.00403102
0.00404412
0.00404955
0.00404743
0.00399784
0.00387822
0.00383297
0.00430715
0.0044394
0.00447047
0.00441675
0.0042843
0.00408903
0.00385846
0.00362153
0.00340228
0.00321916
0.00307238
0.00295339
0.00283499
0.00273841
0.00264915
0.00256826
0.00258232
0.00275674
0.00311189
0.00353442
0.00388301
0.0041192
0.00423554
0.00428328
0.00430902
0.00432781
0.00434249
0.00432021
0.00421201
0.00417587
0.00452215
0.00463755
0.00467244
0.0046337
0.00452088
0.00434593
0.0041297
0.00390106
0.00368616
0.00350583
0.00335833
0.00323302
0.0031084
0.0029946
0.00287908
0.00277889
0.00278683
0.00293574
0.00327476
0.0036957
0.00404343
0.00428999
0.00442001
0.00447497
0.00450167
0.00453694
0.00456984
0.00457889
0.00449218
0.00446829
0.0047172
0.00481812
0.00485353
0.00482385
0.00472729
0.00456826
0.00436642
0.00415072
0.00394339
0.00376695
0.00362013
0.00349107
0.00335563
0.00322321
0.00308718
0.00297774
0.00296887
0.0030894
0.00340589
0.00380367
0.0041422
0.00439124
0.00453532
0.00459575
0.00463303
0.00468156
0.00472891
0.00475437
0.00471873
0.00471219
0.00487089
0.00496414
0.00500682
0.00499294
0.00490835
0.00476407
0.00457509
0.00437088
0.00417437
0.00400296
0.00385706
0.00372474
0.00358043
0.00343061
0.0032773
0.00316669
0.00313034
0.00321885
0.00350271
0.00386388
0.00418577
0.00444235
0.004598
0.00466601
0.00470593
0.00476536
0.00483796
0.0048879
0.00488392
0.00488838
0.00498076
0.00507343
0.00512794
0.00513481
0.00506839
0.00493602
0.00475968
0.00456594
0.0043801
0.00421442
0.00406965
0.00393466
0.00378102
0.00361732
0.00345413
0.0033428
0.0032727
0.00332673
0.00356414
0.00388381
0.0041887
0.00444993
0.00461323
0.00468918
0.0047342
0.00480018
0.00489508
0.00497783
0.00500794
0.00503573
0.0050481
0.00514858
0.00521913
0.00524691
0.00520387
0.00508715
0.00492192
0.00473955
0.0045625
0.00440276
0.00425956
0.00412134
0.00396011
0.00378741
0.00362476
0.00350265
0.00339687
0.00341144
0.00359942
0.00387052
0.00415891
0.00441815
0.00458645
0.00466974
0.00472274
0.00479604
0.00490476
0.00502704
0.00509152
0.00515107
0.00508352
0.0051987
0.00528809
0.00533635
0.00531285
0.00521614
0.00506326
0.00489322
0.0047245
0.00457033
0.0044289
0.00428765
0.00412178
0.00394659
0.00378874
0.00364225
0.00350335
0.00347622
0.00361258
0.00383511
0.00410039
0.00435288
0.00452372
0.00461291
0.00467616
0.00475849
0.00487946
0.00503008
0.00513926
0.00523228
0.00509013
0.00522628
0.00533684
0.00540428
0.00540011
0.00532055
0.00518557
0.00502884
0.00486934
0.00472001
0.00458098
0.00443763
0.00427172
0.00409902
0.00394144
0.00376444
0.00359347
0.00352703
0.00360485
0.00378361
0.0040188
0.00425973
0.00443086
0.00452512
0.00459967
0.00469254
0.00482429
0.00500116
0.00515361
0.0052816
0.00507061
0.00523536
0.00536827
0.00545118
0.00546707
0.00540363
0.00528918
0.00514866
0.00499891
0.00485559
0.0047199
0.00457644
0.00441124
0.00424804
0.00407543
0.00386942
0.00366909
0.0035627
0.00357903
0.00371722
0.00392021
0.00414462
0.0043138
0.00441279
0.00449908
0.00460351
0.00474468
0.00494261
0.00513107
0.00530114
0.00502635
0.00523114
0.00538327
0.00548265
0.00551654
0.00546962
0.00538053
0.00525511
0.00511737
0.00498065
0.00484669
0.00470578
0.00454946
0.00438281
0.00418509
0.00395605
0.00373046
0.00358474
0.00355362
0.00363416
0.00380934
0.00401331
0.00417843
0.00428208
0.00438029
0.00449686
0.0046467
0.00485989
0.00508024
0.0052962
0.00496292
0.00519652
0.00538696
0.00550838
0.00555925
0.00553444
0.00546119
0.00535296
0.00522722
0.0051003
0.00496865
0.00482765
0.00466971
0.00448726
0.00426855
0.00402158
0.00377551
0.00359272
0.00351469
0.00354079
0.00368495
0.00387073
0.00403044
0.00413836
0.00424885
0.00437816
0.00453679
0.00476039
0.0050064
0.00527585
0.00488661
0.00514013
0.00536203
0.00551773
0.00559468
0.00559365
0.00553317
0.00543928
0.00532296
0.00519845
0.00506488
0.00491911
0.00474958
0.00455298
0.00431938
0.00405976
0.00379856
0.00358562
0.0034663
0.00344871
0.00354581
0.00372124
0.00387542
0.00398636
0.00410884
0.0042534
0.004421
0.00465102
0.00491574
0.00522062
0.00479901
0.0050698
0.00531676
0.00549547
0.00559266
0.0056182
0.00556839
0.00548463
0.00537638
0.00525308
0.0051156
0.00496194
0.00477972
0.00457054
0.00432574
0.0040591
0.00378899
0.00355573
0.00340323
0.00335631
0.00341365
0.00355862
0.00371635
0.0038353
0.00397026
0.00412614
0.00430283
0.00453849
0.00481574
0.00513818
0.00470429
0.00498787
0.00524158
0.00543057
0.00555989
0.00560272
0.00556271
0.00548475
0.00538006
0.00525463
0.00510922
0.00494371
0.00474609
0.00452221
0.00426974
0.00400182
0.00372969
0.00348767
0.00331583
0.00324571
0.0032761
0.0033998
0.00355492
0.00369536
0.00384349
0.00400931
0.00419321
0.00443098
0.00471153
0.00503341
0.00460236
0.00488319
0.00513358
0.00534605
0.00549239
0.00554174
0.00550757
0.00542978
0.00532181
0.00518673
0.00502583
0.00484166
0.00462557
0.00438573
0.0041284
0.0038661
0.00360087
0.00336268
0.00318747
0.00310614
0.00312825
0.00323302
0.00338712
0.00355563
0.00372715
0.00390413
0.00409904
0.00433378
0.00461027
0.00491727
0.00448163
0.00475365
0.005015
0.00523657
0.00538024
0.00542124
0.00538227
0.00529872
0.00517806
0.00502251
0.00483747
0.00462742
0.0043926
0.00414114
0.00388329
0.00363774
0.00339088
0.00317228
0.00300812
0.00292728
0.00294554
0.00305259
0.00321808
0.00340976
0.00359603
0.00379189
0.00400418
0.00424348
0.00451471
0.00479746
0.00435842
0.00462748
0.00487301
0.00507572
0.0051945
0.00521182
0.005154
0.00504914
0.00490402
0.0047249
0.00451668
0.00428474
0.00404072
0.00379411
0.00355198
0.00333933
0.00312837
0.00294283
0.0027992
0.00272302
0.0027366
0.00284218
0.00302817
0.00324274
0.00344453
0.00366052
0.00388888
0.0041336
0.00439314
0.00464278
0.0042031
0.00444664
0.00465271
0.0048155
0.00488151
0.0048577
0.00476919
0.00463799
0.00447221
0.00428152
0.0040725
0.00385199
0.00362893
0.00342161
0.00322527
0.00306498
0.00290538
0.00276
0.00263818
0.00256047
0.00255427
0.00263565
0.00281533
0.00302425
0.00323305
0.00346272
0.00370582
0.00395863
0.00421227
0.00444023
0.0039307
0.0041335
0.00427808
0.00437417
0.00438381
0.00432614
0.00422307
0.00409228
0.00394244
0.00378333
0.00362103
0.00346146
0.0033078
0.00316674
0.00304134
0.00293881
0.00282937
0.00272047
0.0026184
0.00253595
0.0024989
0.00252904
0.00264712
0.00279392
0.00296444
0.00316839
0.00339859
0.00364706
0.00389165
0.00410852
0.00350689
0.00364598
0.00373745
0.00379423
0.00379109
0.00374786
0.00368232
0.00360494
0.00352009
0.00343389
0.00334999
0.00327137
0.00319461
0.00311155
0.0030332
0.0029644
0.00288797
0.00280935
0.00272965
0.0026565
0.00260863
0.0026032
0.00265366
0.00272474
0.00281423
0.00293415
0.00308411
0.00325917
0.00344378
0.00362214
0.00319378
0.00328168
0.00335087
0.00340541
0.00342693
0.00342486
0.00341049
0.00338893
0.00336016
0.00332738
0.0032854
0.00324358
0.00319592
0.00314793
0.00309513
0.00303979
0.00298395
0.00292956
0.00287654
0.00282831
0.00279608
0.00279028
0.00281322
0.00285293
0.00290363
0.00296398
0.00303457
0.00311424
0.00319572
0.00326844
0.00321057
0.00326367
0.00330337
0.00333325
0.00334564
0.00334463
0.0033336
0.00331724
0.00329639
0.00327796
0.00325609
0.00323115
0.00319689
0.00315885
0.00311812
0.00308103
0.00305011
0.00302567
0.00300361
0.00298788
0.00298195
0.0029866
0.0030053
0.00303552
0.0030712
0.00310407
0.00313459
0.00316427
0.0031969
0.00322748
0.000301358
0.000302572
0.000292318
0.00027926
0.000264304
0.000248468
0.000232423
0.000216645
0.000201211
0.000186437
0.000172019
0.00015847
0.000145015
0.000136292
0.000133514
0.000140857
0.000159982
0.000187956
0.000205512
0.000217318
0.000224679
0.000229462
0.000232326
0.000233922
0.000234616
0.000234387
0.000234019
0.000232044
0.000233289
0.000235845
0.00144768
0.00155921
0.00146563
0.0012994
0.00113601
0.000994568
0.000877844
0.000781781
0.000701492
0.000635014
0.00057333
0.000507016
0.000458725
0.000509942
0.000609474
0.000728335
0.000872853
0.00105028
0.00118536
0.00126591
0.00129913
0.00130265
0.00128313
0.00125733
0.00122783
0.00118905
0.00113879
0.00106063
0.00096576
0.000894633
0.00242964
0.00267898
0.00260389
0.00239941
0.00215602
0.0019205
0.00171157
0.00153206
0.00137871
0.00125079
0.00113372
0.00101117
0.000924836
0.00101737
0.00117708
0.0013627
0.00160596
0.00190821
0.00216028
0.00232953
0.00241422
0.00243941
0.0024121
0.0023647
0.00230529
0.00222556
0.00213134
0.00199238
0.00181109
0.001679
0.00322481
0.0035157
0.00348624
0.00329847
0.00303527
0.00275417
0.00248704
0.00224684
0.00203638
0.00185986
0.0017027
0.00153582
0.0014286
0.00154253
0.00172805
0.00194423
0.00225028
0.00264065
0.00297966
0.00322746
0.0033651
0.00341948
0.00339784
0.00334072
0.00326725
0.00316841
0.0030431
0.00285512
0.00261561
0.00244517
0.00389224
0.00418384
0.00418966
0.0040318
0.00377541
0.00347725
0.00317656
0.00289593
0.00264533
0.00243471
0.00224727
0.00206147
0.00194439
0.0020619
0.00224916
0.00247255
0.00280906
0.00325639
0.00366173
0.00397594
0.00416262
0.00424596
0.00423907
0.00418182
0.00410532
0.00400371
0.00386982
0.00365071
0.00336681
0.00316154
0.0044638
0.00473527
0.00476949
0.00464495
0.00440725
0.00410793
0.00379013
0.00348452
0.00320792
0.00297594
0.00276978
0.0025796
0.00245993
0.00256601
0.00273764
0.00295118
0.00329381
0.00376526
0.00422292
0.00459591
0.00482703
0.00493555
0.00494786
0.00489761
0.00482339
0.00473005
0.00460192
0.00438338
0.00407644
0.00383646
0.00495886
0.00520257
0.00525964
0.00517
0.00495665
0.00466531
0.00434155
0.00402269
0.00373154
0.00348805
0.00327329
0.00308704
0.00296625
0.00304903
0.00319266
0.00338465
0.00371556
0.00418091
0.00467169
0.00510016
0.00537557
0.00550565
0.00553536
0.00549734
0.00543135
0.00534614
0.00523785
0.00503527
0.00472011
0.00446192
0.0053869
0.00560968
0.005683
0.005628
0.00544221
0.00516443
0.0048426
0.00451935
0.00422259
0.00397432
0.00376036
0.00357718
0.00345581
0.00350688
0.003616
0.00377893
0.00408558
0.00454855
0.00507254
0.00553163
0.00582506
0.00597313
0.00601186
0.00598906
0.00593497
0.00586466
0.00577627
0.00560499
0.00529928
0.00503301
0.0057847
0.00598922
0.0060685
0.00603392
0.00587668
0.00561621
0.0053022
0.00498138
0.00468544
0.00443712
0.00422621
0.00404307
0.00392227
0.00393747
0.00400717
0.00414075
0.00441735
0.00488004
0.00538491
0.00586108
0.00619234
0.00635667
0.00639285
0.00636776
0.00632657
0.00628543
0.00623067
0.00609714
0.00582099
0.00555475
0.00615865
0.00634741
0.00642786
0.00640613
0.00626721
0.00602751
0.00572651
0.00541342
0.00512272
0.00487705
0.00466813
0.00448807
0.00436122
0.00434123
0.00437005
0.00447655
0.00471526
0.00514365
0.00562294
0.00610667
0.00646719
0.0066474
0.00669238
0.00667508
0.0066397
0.00659246
0.00653958
0.00646
0.0062639
0.0060273
0.0065092
0.0066899
0.00676762
0.00675326
0.00662807
0.00640244
0.00611889
0.00581824
0.00553561
0.00529356
0.00508522
0.00490605
0.00477052
0.00471784
0.00470844
0.00478705
0.00498057
0.00535494
0.00581073
0.00628859
0.00667083
0.00686594
0.0069191
0.00691049
0.00688616
0.00685466
0.00680742
0.00673859
0.00659066
0.00642571
0.00681231
0.00699191
0.00708511
0.0070798
0.0069645
0.00675279
0.00648143
0.00619704
0.00592447
0.00568597
0.00547719
0.0052956
0.00515051
0.00506835
0.00502723
0.0050699
0.00521499
0.00553029
0.00595008
0.00640934
0.0068047
0.00701564
0.00708237
0.00708527
0.00707029
0.00705831
0.00703528
0.00698219
0.00687073
0.00675312
0.0070729
0.00725739
0.00736856
0.00738473
0.00727913
0.00708027
0.00682291
0.00655121
0.00628951
0.00605418
0.00584399
0.00565815
0.00550275
0.00539506
0.0053303
0.00532573
0.00541837
0.00566895
0.00604215
0.00647165
0.00687119
0.00709957
0.00718464
0.00720408
0.00720425
0.00720727
0.00721333
0.00719457
0.0071213
0.00705418
0.007284
0.00748171
0.0076161
0.00765783
0.00757314
0.00738599
0.00714372
0.00688303
0.0066313
0.00639877
0.00618694
0.00599618
0.00583011
0.00570105
0.00560831
0.00555313
0.0055883
0.0057699
0.00608773
0.00647881
0.00687326
0.00712062
0.0072276
0.00726972
0.00729131
0.00731427
0.00734422
0.00736653
0.00734617
0.00732721
0.00745097
0.00767063
0.00783384
0.00790006
0.00783736
0.00766994
0.00744395
0.00719384
0.00695113
0.0067207
0.00650826
0.006312
0.00613543
0.00598876
0.00585752
0.00574943
0.00572245
0.00583218
0.00608655
0.00643489
0.00681434
0.00708148
0.00721266
0.00728407
0.00733386
0.00738235
0.00744004
0.00750031
0.00753396
0.00757251
0.00758516
0.00783572
0.00802959
0.00811913
0.00807508
0.00793199
0.00772281
0.0074848
0.00724975
0.00702153
0.00680887
0.00660693
0.00641868
0.0062474
0.0060734
0.00591038
0.00581883
0.00585471
0.00603982
0.00634187
0.00669849
0.00698381
0.00714211
0.0072485
0.00733349
0.00741368
0.00750292
0.00759992
0.00768567
0.00777548
0.00769028
0.00797999
0.00820463
0.00831345
0.00828763
0.00817077
0.0079769
0.0077555
0.00752801
0.00730209
0.00708709
0.00687703
0.00667191
0.00646664
0.00624837
0.00603014
0.00587267
0.00583487
0.00594897
0.0062002
0.00653099
0.00682982
0.00701797
0.00716407
0.00729123
0.00740961
0.00753471
0.00767057
0.00780385
0.00794051
0.00777268
0.00810859
0.00836005
0.0084802
0.00848058
0.00838157
0.00820967
0.00800304
0.0077858
0.00756271
0.0073351
0.00711003
0.00687673
0.00663487
0.00637175
0.00609975
0.00587839
0.00576839
0.00580849
0.00601216
0.00631428
0.00662184
0.00684208
0.00703164
0.00720756
0.00736984
0.00753567
0.00771286
0.0078923
0.00807368
0.00784218
0.00820781
0.0084802
0.00862027
0.00865398
0.00857215
0.0084166
0.00821916
0.0079987
0.00776987
0.00752996
0.00728397
0.00701757
0.00673625
0.0064285
0.00610663
0.00582729
0.00564867
0.00562378
0.0057589
0.00604619
0.00636208
0.00661557
0.0068517
0.00708168
0.00729239
0.00750371
0.00772451
0.00794893
0.00817494
0.0078915
0.00826989
0.00855579
0.00871117
0.00878908
0.00872065
0.00856606
0.00837075
0.008148
0.00790907
0.00765125
0.0073777
0.0070733
0.00674979
0.00639888
0.00603278
0.00570411
0.00546795
0.00538655
0.00547421
0.00572746
0.00605221
0.00635534
0.00663634
0.00691179
0.00717344
0.0074353
0.0077008
0.00796634
0.00824275
0.00790659
0.00828588
0.0085695
0.00876055
0.00885675
0.00879519
0.0086431
0.00844224
0.00820963
0.0079545
0.00767203
0.00736408
0.00701804
0.00665086
0.00626023
0.00585798
0.00549098
0.00521418
0.00509096
0.00514003
0.00536066
0.00568535
0.00605381
0.00640616
0.00672589
0.00702804
0.00732898
0.00763308
0.00794217
0.00826581
0.00786345
0.00822409
0.00851723
0.00873968
0.00883909
0.00877523
0.0086161
0.00840219
0.00815173
0.00787268
0.00756097
0.00721295
0.00682494
0.00641646
0.00599322
0.00556785
0.0051765
0.00487442
0.00472455
0.00475912
0.00494765
0.00527212
0.00568492
0.00609808
0.0064935
0.00686239
0.00721012
0.0075491
0.00789548
0.00824065
0.00772572
0.00808573
0.0084001
0.00862075
0.00870399
0.00862466
0.00844741
0.00821144
0.00793515
0.00762636
0.00728378
0.00689933
0.00647633
0.0060379
0.00559485
0.00516732
0.00477027
0.00445917
0.00429596
0.00431182
0.00449806
0.00481838
0.00526313
0.00572412
0.00616562
0.00658321
0.0069816
0.00737604
0.0077625
0.00813009
0.00750515
0.00787192
0.00816248
0.00836076
0.00840646
0.00829694
0.00809156
0.00782735
0.007523
0.0071874
0.00682181
0.00641974
0.00598254
0.00553878
0.00510092
0.00469961
0.00431996
0.00401971
0.00385108
0.00384426
0.00400966
0.00433316
0.00479551
0.00528111
0.00575194
0.00620788
0.00665459
0.00709135
0.00751207
0.00788847
0.00716106
0.00750115
0.00774868
0.00789903
0.00789086
0.0077428
0.00750896
0.00722325
0.00690457
0.00656321
0.00620138
0.00581445
0.00540557
0.00499443
0.00459924
0.00425292
0.00391686
0.0036557
0.003499
0.00346412
0.00357397
0.00384848
0.0042928
0.00475841
0.00523091
0.00570463
0.00618125
0.00664973
0.00709628
0.0074814
0.00660331
0.0069023
0.00709177
0.00717482
0.00711847
0.00694582
0.00670708
0.00643178
0.00613719
0.00583252
0.00551902
0.0051926
0.00485658
0.00452286
0.00420427
0.0039271
0.00367544
0.00347128
0.00333031
0.00326862
0.00331336
0.00349032
0.00381957
0.00420485
0.00462259
0.00506403
0.00552694
0.0059989
0.00645282
0.00684435
0.00579826
0.00604233
0.00617221
0.00621518
0.00615001
0.00599988
0.0058078
0.00559602
0.00537634
0.00515465
0.00492954
0.00469694
0.00445858
0.0042119
0.00398367
0.00378611
0.00360018
0.00343909
0.00331839
0.00324771
0.00324979
0.00334604
0.00353008
0.003767
0.00406914
0.00440303
0.00477973
0.00517869
0.00558336
0.0059572
0.00491844
0.00510153
0.00520798
0.00525891
0.00523675
0.00515889
0.00505507
0.00493834
0.00481426
0.00468634
0.00455012
0.0044015
0.00423681
0.00405891
0.0039048
0.00374145
0.00359418
0.00346855
0.00337352
0.00331384
0.00330647
0.0033663
0.00347365
0.00360442
0.00376521
0.00397162
0.00421787
0.00447535
0.0047482
0.0050191
0.00437451
0.00449541
0.00458564
0.0046483
0.00466658
0.00464887
0.0046113
0.00455892
0.0044956
0.00442458
0.00433428
0.00421792