/*--------------------------------*- C++ -*----------------------------------*\
  =========                 |
  \\      /  F ield         | OpenFOAM: The Open Source CFD Toolbox
   \\    /   O peration     | Website:  https://openfoam.org
    \\  /    A nd           | Version:  12
     \\/     M anipulation  |
\*---------------------------------------------------------------------------*/
FoamFile
{
    format      ascii;
    class       volScalarField;
    location    "500/air";
    object      epsilon;
}
// * * * * * * * * * * * * * * * * * * * * * * * * * * * * * * * * * * * * * //

dimensions      [0 2 -3 0 0 0 0];

internalField   nonuniform List<scalar> 
243000
(
7.50302
8.46939
8.82703
8.92352
8.78647
8.48064
8.05783
7.56846
7.04222
6.52561
6.03985
5.63489
5.29185
4.95622
4.57371
4.11736
3.57792
3.01215
2.48204
2.04015
1.68564
1.436
1.63484
2.09239
2.38931
2.58496
2.74596
2.91162
3.20043
3.72641
5.19103
5.67399
5.61729
5.41226
5.11285
4.76434
4.39365
4.02099
3.65554
3.31493
3.00197
2.73298
2.49287
2.29164
2.11325
1.93586
1.73753
1.54601
1.40606
1.36901
1.46941
1.56788
1.6916
1.95468
2.10607
2.2007
2.28729
2.36192
2.53278
2.87535
5.99811
6.25169
5.97599
5.56372
5.08902
4.60021
4.12264
3.67399
3.26087
2.89628
2.57858
2.31805
2.09321
1.91023
1.75526
1.60931
1.45068
1.30215
1.22163
1.28756
1.56934
1.88757
2.04498
2.23458
2.40978
2.5602
2.71592
2.86548
3.12166
3.56265
7.15774
7.3647
7.07087
6.61718
6.08676
5.53313
4.98363
4.45958
3.9722
3.53998
3.16498
2.86214
2.5991
2.37678
2.1804
1.99064
1.78175
1.58203
1.47966
1.60245
2.0715
2.64397
2.90285
3.024
3.18579
3.36106
3.55122
3.73441
4.03174
4.51992
7.99362
8.14719
7.85897
7.40216
6.85851
6.28053
5.69474
5.12514
4.58805
4.10843
3.69402
3.36374
3.07416
2.81825
2.58089
2.34363
2.07876
1.8194
1.69712
1.85839
2.45835
3.26829
3.67037
3.74906
3.86171
4.05002
4.27393
4.49416
4.82771
5.34859
8.5673
8.68364
8.41341
7.9765
7.44699
6.87208
6.27513
5.68216
5.11462
4.60435
4.16518
3.81857
3.51079
3.22608
2.94947
2.66323
2.3404
2.0216
1.8971
2.08623
2.73827
3.73071
4.29095
4.37693
4.42949
4.61751
4.87412
5.13508
5.50038
6.04456
8.93534
9.03221
8.78765
8.38536
7.88765
7.33382
6.74324
6.14321
5.56019
5.03265
4.58014
4.22509
3.90464
3.59552
3.2816
2.94722
2.56726
2.21055
2.08032
2.28494
2.96454
4.03131
4.74094
4.87535
4.88236
5.06103
5.35157
5.65637
6.04835
6.61326
9.14393
9.23303
9.01987
8.66257
8.20815
7.68722
7.11519
6.52013
5.93328
5.39894
4.94154
4.58319
4.25374
3.9237
3.5753
3.1953
2.76235
2.3872
2.24885
2.45966
3.15048
4.20765
5.02389
5.22764
5.21506
5.37984
5.70609
6.0599
6.47719
7.06336
9.22563
9.31963
9.1412
8.83263
8.42852
7.94929
7.40434
6.82333
6.24161
5.70861
5.25233
4.89377
4.55753
4.20959
3.83003
3.40841
2.93005
2.54848
2.4031
2.614
3.30537
4.34332
5.16301
5.43543
5.42731
5.57641
5.93631
6.34572
6.78832
7.40653
9.20789
9.31912
9.18224
8.92265
8.56841
8.13196
7.62059
7.06124
6.49181
5.96637
5.51548
5.15828
4.81687
4.45313
4.04635
3.58855
3.07815
2.6963
2.54381
2.74828
3.43009
4.44162
5.23818
5.52173
5.52535
5.65439
6.0498
6.51816
6.99281
7.6527
9.11545
9.24864
9.16126
8.9508
8.64474
8.25173
7.77384
7.2397
6.68891
6.17608
5.73358
5.37871
5.03292
4.65555
4.22592
3.73841
3.21974
2.8338
2.67176
2.86216
3.52458
4.50541
5.2816
5.56379
5.55012
5.64618
6.0678
6.58862
7.10162
7.80568
8.95631
9.11808
9.08205
8.92817
8.6695
8.31813
7.87463
7.36706
6.8372
6.341
5.90893
5.55724
5.20724
4.81896
4.37122
3.8606
3.34831
2.96062
2.78685
2.95623
3.59029
4.53807
5.29521
5.5778
5.56117
5.60322
5.99596
6.57445
7.12598
7.86769
8.74066
8.9369
8.95578
8.85822
8.6506
8.33978
7.92946
7.44971
6.94225
6.46431
6.04439
5.69592
5.3424
4.94623
4.48522
3.95874
3.46248
3.07653
2.8897
3.03232
3.63031
4.54108
5.27552
5.56171
5.552
5.55818
5.87569
6.47476
7.07289
7.85498
8.47438
8.71355
8.78832
8.74788
8.59036
8.32212
7.94489
7.49258
7.00904
6.54908
6.14243
5.79748
5.44161
5.0406
4.57117
4.04077
3.56491
3.18258
2.9818
3.09307
3.64841
4.51304
5.22516
5.51742
5.51962
5.50579
5.76548
6.30824
6.95053
7.76909
8.16751
8.45515
8.5861
8.60203
8.49193
8.26553
7.92357
7.50113
7.04121
6.6003
6.20504
5.86415
5.50812
5.10536
4.63212
4.11973
3.65947
3.2804
3.06482
3.14097
3.64563
4.45778
5.14689
5.44724
5.46391
5.44311
5.65677
6.12909
6.77268
7.62063
7.82947
8.1673
8.35424
8.42324
8.35992
8.17184
7.86567
7.4755
7.04348
6.62141
6.23795
5.90048
5.54489
5.14327
4.67234
4.19077
3.74715
3.37157
3.14041
3.17865
3.62388
4.37878
5.04342
5.35257
5.38592
5.36728
5.54567
5.9652
6.55454
7.41991
7.47184
7.85556
8.09614
8.21435
8.19638
8.045
7.77254
7.41616
7.01401
6.6155
6.24544
5.91233
5.55877
5.15952
4.70517
4.25598
3.82957
3.45764
3.21022
3.20873
3.58813
4.27999
4.91729
5.23574
5.28743
5.2769
5.43014
5.81027
6.34967
7.17725
7.14827
7.53018
7.8161
7.97862
8.00286
7.88699
7.64755
7.32417
6.95392
6.58033
6.22643
5.90044
5.55161
5.16041
4.74009
4.31876
3.9089
3.54047
3.27687
3.23377
3.54283
4.16542
4.7725
5.0994
5.17068
5.17222
5.31026
5.66031
6.15992
6.90275
6.85439
7.23677
7.53281
7.7227
7.78332
7.70148
7.49437
7.20274
6.86419
6.51726
6.1812
5.86463
5.52528
5.16368
4.77753
4.38152
3.98725
3.62197
3.34267
3.25634
3.49208
4.03909
4.61272
4.94635
5.03798
5.05477
5.1863
5.51285
5.97842
6.62516
6.58358
6.96842
7.2741
7.47309
7.54879
7.49321
7.31681
7.05832
6.75623
6.44014
6.12685
5.82533
5.51071
5.17695
4.81964
4.44641
4.06671
3.70418
3.4097
3.28018
3.44044
3.90548
4.44117
4.77955
4.89184
4.92689
5.0586
5.36662
5.80335
6.37801
6.33111
6.72071
7.03519
7.24328
7.33322
7.29873
7.15098
6.92684
6.65984
6.37422
6.08527
5.80171
5.51072
5.20028
4.86796
4.5154
4.14933
3.7893
3.48033
3.30939
3.3937
3.77246
4.26256
4.60271
4.73555
4.79154
4.92845
5.22168
5.63367
6.15251
6.09409
6.4892
6.81228
7.0286
7.13286
7.11946
6.99882
6.80668
6.57286
6.31768
6.05432
5.79157
5.52211
5.23369
4.92377
4.59039
4.2373
3.8799
3.55741
3.34718
3.3575
3.64703
4.08294
4.42053
4.57335
4.65284
4.79838
5.07966
5.46968
5.9431
5.87097
6.26913
6.60174
6.8268
6.94481
6.95191
6.8573
6.69557
6.49388
6.26937
6.03281
5.79335
5.54416
5.27745
4.9888
4.67403
4.33388
3.97969
3.64506
3.39816
3.33861
3.53761
3.91018
4.23879
4.41077
4.51595
4.67228
4.94353
5.31302
5.74788
5.66026
6.05966
6.40124
6.6369
6.7672
6.793
6.72394
6.5924
6.42288
6.22948
6.02185
5.80651
5.57899
5.33473
5.06784
4.77266
4.44649
4.09689
3.75173
3.47067
3.34627
3.45502
3.75609
4.06637
4.25736
4.38741
4.55486
4.8179
5.16719
5.56762
5.4655
5.8651
6.21021
6.45802
6.59843
6.64159
6.59834
6.49703
6.36027
6.19937
6.02562
5.83676
5.63555
5.41776
5.17637
4.90446
4.59529
4.25234
3.89778
3.58354
3.39562
3.41602
3.63848
3.91894
4.12658
4.27634
4.45312
4.70816
5.03603
5.40378
5.29372
5.68976
6.03247
6.2913
6.44057
6.49958
6.48364
6.41519
6.31562
6.19599
6.06006
5.91079
5.74733
5.56703
5.36138
5.12082
4.83374
4.49911
4.13372
3.78272
3.52781
3.46073
3.59402
3.82845
4.03997
4.19729
4.37833
4.62387
4.92805
5.26337
5.16768
5.5553
5.89016
6.15301
6.31475
6.39435
6.41355
6.39148
6.34511
6.28377
6.211
6.12782
6.0303
5.91112
5.76174
5.56472
5.30305
4.97205
4.58592
4.18517
3.85079
3.6827
3.71695
3.88494
4.06389
4.20827
4.37943
4.60353
4.87346
5.16864
5.18025
5.55579
5.88852
6.16929
6.37473
6.5058
6.59835
6.66664
6.72173
6.77399
6.82507
6.87078
6.89663
6.8815
6.80995
6.66048
6.40947
6.05661
5.61726
5.13297
4.68867
4.39725
4.3113
4.36421
4.44282
4.52289
4.63786
4.80006
5.00227
5.22933
6.21782
6.61012
6.99196
7.35098
7.68117
7.96688
8.24781
8.51209
8.76776
9.05252
9.34767
9.63082
9.85189
9.96927
9.95815
9.80903
9.50431
9.05681
8.49866
7.88225
7.29904
6.88099
6.66455
6.52702
6.4127
6.32977
6.28304
6.27219
6.29864
6.36607
15.2965
15.6713
16.0587
16.4318
16.7234
17.072
17.4527
17.7251
17.9676
18.4144
18.8822
19.2904
19.4864
19.4577
19.2304
18.8713
18.3925
17.8259
17.2266
16.6958
16.2901
16.1048
16.1154
16.1669
16.1605
16.1105
16.0271
15.8969
15.7292
15.5582
13.4246
16.0823
17.0412
17.1815
16.7214
15.8458
14.6959
13.3961
12.0119
10.649
9.3324
8.16544
7.04262
6.05504
5.18158
4.50561
4.27958
5.57868
7.99525
10.0694
10.9905
11.0115
10.6672
9.94003
8.98352
7.92081
6.99523
6.03945
5.75794
5.72679
8.94442
9.5479
9.84784
9.87989
9.64163
9.17806
8.54668
7.8109
7.01571
6.21377
5.45484
4.78719
4.15952
3.68892
3.39113
3.30736
3.57084
4.64319
6.45036
7.92398
8.61875
8.81371
8.69164
8.28708
7.72102
7.07128
6.45254
5.75459
5.46074
5.43229
8.57077
8.67125
8.62414
8.49832
8.26728
7.91423
7.44383
6.88304
6.26019
5.61759
5.00041
4.46468
3.94676
3.56679
3.36467
3.37737
3.70229
4.61816
6.28056
7.70606
8.44886
8.7415
8.7509
8.52242
8.10228
7.5496
7.00139
6.34976
6.03985
6.00853
8.57293
8.39486
8.16484
7.94846
7.71556
7.42275
7.04439
6.58525
6.05709
5.50174
4.98086
4.51842
4.05349
3.70486
3.5282
3.55438
3.85516
4.63651
6.18361
7.59342
8.40671
8.77529
8.87188
8.75464
8.44404
7.96793
7.47601
6.87595
6.55689
6.54415
8.59126
8.20789
7.87278
7.60843
7.38141
7.13347
6.82045
6.43251
5.97811
5.49658
5.03603
4.63015
4.20631
3.875
3.70113
3.71068
3.95327
4.6026
5.98584
7.3766
8.27462
8.71739
8.88325
8.84562
8.63645
8.23839
7.80405
7.26152
6.94464
6.94785
8.55171
8.02767
7.62273
7.3356
7.12047
6.90895
6.64564
6.31227
5.91848
5.49664
5.08746
4.72909
4.34053
4.02286
3.84348
3.82374
3.99488
4.50603
5.71658
7.06667
8.04246
8.55504
8.77791
8.79446
8.64203
8.34084
7.98301
7.51072
7.19471
7.20402
8.42764
7.82116
7.37932
7.08779
6.88884
6.70797
6.48375
6.1942
5.84913
5.47953
5.11788
4.79863
4.44169
4.13629
3.94798
3.89477
3.9985
4.38677
5.43274
6.69917
7.71718
8.30226
8.57171
8.63322
8.53869
8.29414
7.98481
7.61053
7.32452
7.33807
8.23017
7.58476
7.13381
6.85127
6.67114
6.51646
6.32352
6.06964
5.76295
5.44089
5.12606
4.83661
4.50843
4.21452
4.01647
3.93141
3.98265
4.29006
5.19073
6.33178
7.34595
7.98162
8.28598
8.38443
8.33512
8.15381
7.89167
7.5779
7.32605
7.32613
7.97592
7.32711
6.88681
6.62185
6.46176
6.3296
6.16207
5.93769
5.66537
5.38142
5.11148
4.8503
4.54319
4.26053
4.05411
3.9432
3.9688
4.20761
4.98442
6.01603
6.9796
7.62214
7.9586
8.07052
8.05548
7.92605
7.71858
7.46546
7.24668
7.22616
7.68126
7.0569
6.64099
6.39899
6.25892
6.14621
5.99966
5.80027
5.55857
5.30808
5.07297
4.84223
4.5542
4.2787
4.06722
3.94022
3.95209
4.13656
4.80907
5.74419
6.64633
7.27301
7.60863
7.72971
7.72242
7.63315
7.47264
7.27694
7.08611
7.05791
7.3586
6.77941
6.39896
6.18322
6.06263
5.96676
5.83779
5.66005
5.44539
5.22519
5.0182
4.80895
4.54397
4.27856
4.06308
3.9353
3.93687
4.08225
4.6632
5.50731
6.34472
6.94949
7.2719
7.37629
7.36777
7.29643
7.17193
7.02362
6.86338
6.83634
7.01446
6.4997
6.16241
5.97516
5.8734
5.79237
5.6785
5.51983
5.32924
5.13569
4.95211
4.76041
4.51307
4.25902
4.04833
3.93394
3.92673
4.04158
4.54335
5.30064
6.07236
6.65416
6.95649
7.03788
7.01408
6.94006
6.83633
6.72743
6.5975
6.57371
6.66454
6.22349
5.93282
5.77511
5.69177
5.62415
5.52381
5.38236
5.21333
5.04268
4.87882
4.70167
4.47073
4.22987
4.03141
3.93664
3.92573
4.01549
4.44949
5.12428
5.83102
6.3891
6.66794
6.72211
6.6768
6.59377
6.49028
6.4079
6.30593
6.28397
6.32173
5.95479
5.71155
5.58344
5.51839
5.4634
5.37575
5.25043
5.10107
4.95003
4.80264
4.6381
4.42317
4.19862
4.02356
3.94734
3.93754
4.0112
4.38055
4.97588
5.62163
6.15482
6.40953
6.43494
6.36421
6.26595
6.16534
6.08279
6.00361
5.98348
5.99261
5.69717
5.50055
5.40156
5.35475
5.31225
5.23702
5.12727
4.99625
4.86234
4.72887
4.57607
4.37784
4.17419
4.03076
3.97125
3.96606
4.02768
4.3404
4.85309
5.44449
5.95079
6.18247
6.1805
6.08211
5.96342
5.85776
5.76976
5.70396
5.68478
5.68291
5.45392
5.30228
5.23186
5.2033
5.17335
5.11102
5.0169
4.90348
4.78529
4.66426
4.52349
4.344
4.17164
4.05822
4.01452
4.01533
4.06628
4.33276
4.7591
5.29842
5.77643
5.98721
5.96055
5.8338
5.69196
5.57546
5.48884
5.41952
5.39697
5.40018
5.22971
5.12033
5.07769
5.06736
5.05046
5.00229
4.92462
4.82857
4.72585
4.6177
4.49055
4.33882
4.19772
4.1134
4.08442
4.09074
4.13375
4.35422
4.69972
5.18202
5.63042
5.82336
5.77528
5.62114
5.4554
5.32412
5.23438
5.16162
5.12745
5.16185
5.03332
4.96069
4.9445
4.95175
4.94926
4.91746
4.8579
4.7791
4.69501
4.60435
4.49527
4.37099
4.26253
4.2059
4.19
4.20036
4.23648
4.4027
4.68556
5.09705
5.51151
5.68959
5.62414
5.44474
5.2554
5.10731
5.01031
4.93473
4.88402
4.9659
4.87893
4.83596
4.84197
4.86556
4.87927
4.86669
4.82797
4.77448
4.70846
4.63543
4.5474
4.45465
4.37926
4.34787
4.34427
4.35671
4.38467
4.49724
4.71608
5.05415
5.42063
5.58457
5.5062
5.30456
5.09293
4.92812
4.82231
4.74312
4.68149
4.8131
4.76655
4.7578
4.78401
4.82231
4.85546
4.86557
4.85095
4.82196
4.77931
4.72757
4.66556
4.60797
4.5657
4.55956
4.56834
4.58072
4.59561
4.65461
4.79721
5.06784
5.36254
5.5081
5.42195
5.20194
4.9685
4.7897
4.67559
4.59337
4.52947
4.70611
4.70126
4.72691
4.77729
4.84283
4.89892
4.93406
4.9465
4.94421
4.92807
4.90369
4.87442
4.85817
4.85249
4.87644
4.89945
4.91028
4.90159
4.90323
4.9639
5.13458
5.36418
5.46785
5.36917
5.13347
4.88717
4.69739
4.57531
4.49185
4.43043
4.65073
4.68569
4.75539
4.84076
4.93802
5.02401
5.08935
5.1341
5.16421
5.18541
5.20082
5.21594
5.25544
5.2988
5.36382
5.40773
5.41754
5.37492
5.3034
5.26079
5.31106
5.43289
5.48235
5.34773
5.09788
4.84627
4.65375
4.52952
4.44606
4.38883
4.65126
4.73738
4.8587
4.98963
5.1298
5.25634
5.36094
5.45068
5.53306
5.6172
5.69629
5.77798
5.90056
6.02124
6.15299
6.23494
6.24719
6.15672
5.98301
5.79197
5.67534
5.64782
5.5976
5.40183
5.11835
4.86329
4.67194
4.54862
4.46838
4.41872
4.73515
4.88306
5.0678
5.2622
5.46164
5.64702
5.81551
5.99413
6.17941
6.3717
6.5638
6.75014
7.00645
7.27042
7.52803
7.68818
7.71291
7.54914
7.21206
6.78875
6.41225
6.14554
5.91148
5.60548
5.27637
5.00519
4.80556
4.67581
4.59315
4.55163
4.96372
5.18785
5.45508
5.74272
6.04021
6.3426
6.63844
6.96519
7.32382
7.7163
8.14215
8.57344
9.06784
9.61936
10.1376
10.4641
10.5206
10.226
9.59298
8.75692
7.93355
7.25525
6.67144
6.1344
5.70216
5.3801
5.14878
4.99177
4.88767
4.85112
5.4949
5.82493
6.22281
6.6853
7.17033
7.67033
8.21682
8.84384
9.55242
10.3487
11.2461
12.2309
13.2556
14.3867
15.4392
16.0803
16.1589
15.5853
14.3846
12.7869
11.1583
9.74716
8.49396
7.50411
6.80843
6.32562
5.98022
5.72982
5.56058
5.49056
6.84194
7.3729
8.03207
8.79083
9.66033
10.5942
11.6839
12.95
14.3901
16.0161
17.868
19.9305
22.1082
24.2081
26.1162
27.0771
26.951
25.7337
23.5158
20.6809
17.7946
15.2489
12.9351
11.139
9.83542
8.89534
8.18575
7.6418
7.24607
7.02576
10.7673
11.6704
12.8784
14.2888
15.9672
17.8275
20.0249
22.5269
25.3051
28.3524
31.721
35.3103
38.8694
41.9042
43.8599
44.0707
42.6489
39.9906
36.6194
32.8036
28.993
25.666
22.7451
20.192
18.0347
16.17
14.5405
13.1455
12.0445
11.3244
22.6408
24.2802
26.4433
28.9088
31.7316
34.8543
38.3841
42.1506
46.0775
50.0538
53.7788
57.0606
59.477
59.9023
58.5724
55.4788
51.7645
47.8867
44.2084
40.9585
38.2981
36.5135
35.8345
35.2604
34.0932
32.4616
30.3685
27.9265
25.5602
23.7574
44.5831
47.5254
50.2965
52.691
54.8532
57.1338
59.393
61.1712
62.5566
63.5521
63.314
62.047
59.8753
57.0861
53.0429
48.3641
44.2784
40.7969
38.0221
36.1127
35.1125
35.0791
36.1525
37.8301
39.6812
41.4202
42.9822
44.3136
44.9581
44.9326
20.2159
23.7652
24.8502
25.0061
24.3269
23.0317
21.3051
19.3138
17.1344
14.9122
12.645
10.5233
8.47157
7.3289
7.09982
8.52803
12.4943
19.5428
24.2364
26.817
27.3836
26.5932
24.8185
22.5272
20.0281
17.4605
15.0931
12.7091
11.0919
9.79297
12.0726
12.407
12.4855
12.5098
12.2893
11.8151
11.1201
10.2635
9.28873
8.24293
7.16024
6.0901
5.11364
4.84212
5.2411
6.62534
9.2881
13.2777
15.724
17.0122
17.3009
16.9487
16.1437
15.031
13.7514
12.3914
11.1071
9.79189
8.91283
8.37186
11.3739
11.0412
10.6741
10.398
10.1182
9.76809
9.30823
8.73181
8.05125
7.29277
6.4774
5.64464
4.90202
4.78733
5.26355
6.52133
8.75883
11.9233
13.977
15.0778
15.4049
15.2415
14.7424
13.9747
13.0365
11.9889
10.9326
9.80318
9.09431
8.73534
11.2156
10.5563
9.98906
9.57978
9.26891
8.97561
8.63027
8.19339
7.65933
7.04212
6.35612
5.67466
5.04721
4.98196
5.4418
6.54653
8.45819
11.1237
12.991
14.046
14.4484
14.425
14.1159
13.5567
12.8058
11.9139
11.0088
10.029
9.38209
9.06595
11.0491
10.1844
9.52535
9.06564
8.75547
8.50682
8.23558
7.88727
7.44771
6.92816
6.3538
5.76766
5.23676
5.18993
5.59838
6.53956
8.15304
10.4232
12.144
13.1806
13.655
13.7455
13.5766
13.1774
12.5771
11.8088
11.0061
10.1563
9.56374
9.25852
10.7598
9.81104
9.1122
8.64635
8.35547
8.14596
7.9278
7.64163
7.27097
6.82905
6.35062
5.84892
5.40233
5.36191
5.70347
6.47635
7.81851
9.74218
11.3247
12.3449
12.8757
13.0557
12.9915
12.7206
12.2572
11.6048
10.896
10.1309
9.56472
9.2449
10.3895
9.40792
8.70997
8.26493
8.00201
7.82658
7.64813
7.40821
7.09182
6.7173
6.32277
5.89994
5.52963
5.48853
5.75695
6.36773
7.46468
9.07131
10.5155
11.5174
12.0894
12.3347
12.3464
12.175
11.8256
11.2969
10.6721
9.99524
9.45811
9.14941
9.95234
8.98326
8.31399
7.9038
7.67166
7.5252
7.37696
7.17316
6.90247
6.58954
6.26551
5.92308
5.61795
5.57047
5.7637
6.22788
7.11112
8.42521
9.72178
10.7055
11.3072
11.5953
11.6595
11.5605
11.3028
10.8802
10.3544
9.76312
9.25976
8.94813
9.47333
8.54946
7.92723
7.55779
7.35589
7.23359
7.1088
6.93461
6.70445
6.44783
6.18929
5.92405
5.66965
5.61155
5.73566
6.07996
6.79262
7.86638
9.01164
9.93938
10.5461
10.8616
10.9568
10.9049
10.7169
10.383
9.94598
9.44729
8.98144
8.66303
8.97762
8.11742
7.55265
7.22554
7.05177
6.94976
6.84384
6.69514
6.50201
6.29661
6.09901
5.89511
5.68771
5.61658
5.68184
5.94218
6.51219
7.3823
8.38107
9.2493
9.84665
10.1571
10.2641
10.2378
10.0981
9.83456
9.47379
9.05774
8.63686
8.32474
8.48212
7.69775
7.19256
6.90706
6.75915
6.67446
6.58464
6.45887
6.30003
6.14093
5.99752
5.84665
5.67705
5.59313
5.61392
5.81897
6.26466
6.96366
7.82786
8.63406
9.212
9.50978
9.60522
9.58292
9.47278
9.26256
8.96591
8.6202
8.24465
7.94615
7.99345
7.29442
6.84895
6.60318
6.47919
6.40988
6.33457
6.23021
6.10324
5.9854
5.88841
5.78341
5.64294
5.55019
5.54624
5.70616
6.05036
6.60856
7.3506
8.09273
8.64586
8.92591
8.99996
8.96651
8.861
8.68839
8.44403
8.15624
7.82401
7.54424
7.52552
6.91133
6.52351
6.31528
6.2138
6.15875
6.09742
6.01359
5.91623
5.83458
5.77666
5.70978
5.59344
5.49951
5.49628
5.61064
5.87267
6.31558
6.94739
7.62469
8.15059
8.41012
8.45678
8.40117
8.28657
8.12816
7.92362
7.68299
7.39153
7.13412
7.08156
6.5509
6.21824
6.04557
5.96586
5.92467
5.87747
5.81371
5.74383
5.69373
5.66826
5.63232
5.53902
5.45548
5.46078
5.53867
5.73508
6.08376
6.61704
7.22893
7.72699
7.96486
7.9818
7.89654
7.7613
7.60293
7.41782
7.21478
6.96102
6.72805
6.66502
6.21527
5.93562
5.79716
5.73901
5.71192
5.67954
5.63577
5.59181
5.56977
5.57109
5.5612
5.49423
5.43865
5.44705
5.49754
5.64191
5.91341
6.35971
6.90369
7.37443
7.59067
7.57876
7.45914
7.29459
7.1236
6.94525
6.76478
6.54393
6.33659
6.28016
5.90736
5.67876
5.57378
5.53735
5.52522
5.50903
5.4862
5.46772
5.47167
5.49646
5.51096
5.47923
5.45452
5.46644
5.4965
5.59958
5.80682
6.17524
6.65007
7.09142
7.28781
7.24853
7.0924
6.89285
6.69957
6.51695
6.34647
6.15081
5.968
5.9323
5.63146
5.45215
5.38034
5.36639
5.37061
5.37308
5.37388
5.38152
5.41137
5.46066
5.50371
5.51371
5.51248
5.53262
5.54814
5.61848
5.77042
6.06601
6.47195
6.87616
7.05576
6.99085
6.79771
6.55986
6.33813
6.1427
5.97238
5.79293
5.63049
5.62982
5.39526
5.26335
5.22463
5.23403
5.25717
5.2822
5.31122
5.34698
5.40514
5.48813
5.56176
5.60757
5.63177
5.66506
5.67066
5.7144
5.81712
6.04773
6.3747
6.73239
6.89459
6.80578
6.57555
6.29752
6.04489
5.8302
5.65219
5.48231
5.33479
5.37886
5.20529
5.12077
5.11751
5.15179
5.19924
5.25063
5.30891
5.38168
5.47459
5.59206
5.70078
5.7854
5.83976
5.89323
5.89322
5.91413
5.97032
6.12851
6.39075
6.67294
6.80747
6.6958
6.42738
6.10855
5.82388
5.58576
5.39503
5.22796
5.09127
5.1868
5.06974
5.03422
5.06375
5.1277
5.20702
5.29527
5.39046
5.50357
5.64015
5.80132
5.95391
6.08537
6.17937
6.26455
6.26657
6.26688
6.26983
6.3486
6.51375
6.71732
6.80661
6.65259
6.34775
5.99781
5.68063
5.41562
5.20921
5.03951
4.90954
5.06239
5.0001
5.01117
5.081
5.18703
5.30679
5.43694
5.57886
5.7453
5.94059
6.1622
6.37521
6.57023
6.72205
6.85949
6.87844
6.86126
6.7968
6.77271
6.81243
6.90519
6.92508
6.69757
6.32622
5.94808
5.60963
5.32657
5.10514
4.92789
4.79915
5.01836
5.01213
5.07635
5.19655
5.35405
5.52635
5.71345
5.92006
6.16224
6.44201
6.75338
7.05763
7.3485
7.59299
7.8208
7.88285
7.85754
7.70912
7.53706
7.39519
7.32192
7.2099
6.89256
6.44417
5.99804
5.61463
5.30917
5.07524
4.89406
4.7687
5.0797
5.13332
5.2636
5.44841
5.67639
5.92318
6.19329
6.49695
6.85442
7.26427
7.7172
8.1696
8.61824
9.0226
9.41284
9.56899
9.55713
9.30295
8.91519
8.48865
8.13614
7.79025
7.30575
6.75015
6.23201
5.79774
5.45273
5.19021
4.99098
4.859
5.29556
5.4225
5.63942
5.91572
6.24646
6.6084
7.00988
7.47029
8.01418
8.63598
9.32479
10.0318
10.7563
11.4486
12.138
12.4865
12.5342
12.1531
11.4403
10.5488
9.71299
8.94435
8.13795
7.388
6.74234
6.22201
5.81382
5.50376
5.27197
5.12689
5.78071
6.00667
6.34953
6.76735
7.26226
7.81678
8.44229
9.17113
10.0321
11.0156
12.1122
13.2697
14.4888
15.7011
16.9248
17.6232
17.8064
17.1549
15.8498
14.2353
12.6913
11.2539
9.84696
8.7253
7.82527
7.12847
6.58957
6.18008
5.87642
5.6937
6.8254
7.20064
7.74672
8.40249
9.18341
10.0796
11.1078
12.3172
13.7337
15.3449
17.1422
19.0726
21.1368
23.2054
25.233
26.3405
26.097
24.7232
22.6028
20.1139
17.7299
15.5583
13.4229
11.6152
10.2018
9.12219
8.28142
7.63912
7.16064
6.86928
9.24073
9.86032
10.7605
11.8363
13.1337
14.6513
16.4051
18.4553
20.8033
23.4247
26.302
29.3675
32.5988
35.6507
37.9796
38.1119
36.727
34.2668
31.2567
28.0332
25.0502
22.4591
20.1364
17.8079
15.5284
13.7165
12.2075
11.021
10.1057
9.51223
15.3498
16.3518
17.8377
19.6057
21.7466
24.2552
27.1265
30.3778
33.9448
37.761
41.7436
45.7534
49.5444
51.8024
52.0695
49.9892
46.794
43.0746
39.4143
36.0246
33.2065
31.1384
29.6947
28.2061
26.3271
23.8837
21.3935
19.235
17.3792
16.0407
30.1932
31.6444
33.7198
36.1265
38.9945
42.3107
46.0041
49.9257
53.9373
57.8832
61.4284
64.085
64.8316
63.5535
60.4499
55.4181
50.3928
45.8145
42.1139
39.3563
37.6358
37.1114
37.6119
38.3311
38.7904
38.7826
37.9186
36.0031
33.6092
31.4124
50.0859
52.7922
54.9722
56.921
59.0337
61.3708
63.8021
66.0038
67.8943
69.2038
69.1722
67.4193
64.206
59.7634
54.1316
47.64
42.1744
37.8741
34.8085
32.9811
32.3407
32.9683
34.6905
37.0855
39.7935
42.5579
45.2232
47.6041
49.3768
50.4732
26.9347
31.6483
32.5676
32.6247
31.7353
30.0704
27.8307
25.2115
22.284
19.1961
15.8817
12.6306
9.69916
9.78181
13.1948
20.8665
29.6837
41.0481
47.4283
50.0135
49.3849
46.723
42.8919
38.5645
34.0914
29.5997
25.3441
20.9777
17.4895
14.307
15.0886
15.4373
15.233
15.1666
14.9316
14.4342
13.6783
12.7118
11.5753
10.2941
8.85059
7.29655
6.08679
6.83856
9.33706
13.6839
18.4999
23.8523
26.603
27.6027
27.1973
25.9863
24.3279
22.3997
20.3527
18.2445
16.2325
14.1831
12.7361
11.4988
13.9684
13.3762
12.7179
12.2949
11.9619
11.6109
11.1622
10.5733
9.83773
8.95226
7.89393
6.70134
5.87871
6.71606
8.86336
12.2499
16.0251
20.0394
22.1967
23.017
22.8046
22.0172
20.9058
19.5668
18.0909
16.5056
14.9806
13.4056
12.3351
11.4956
13.5802
12.5788
11.731
11.1679
10.7979
10.5135
10.2048
9.78989
9.23664
8.53164
7.65349
6.68117
6.06339
6.89497
8.76054
11.5423
14.6661
17.9258
19.8442
20.6548
20.6086
20.0894
19.2952
18.2872
17.1239
15.8154
14.5125
13.1518
12.2159
11.4746
13.2134
11.9776
11.0593
10.4599
10.0996
9.86766
9.64271
9.32855
8.88328
8.29428
7.55941
6.75002
6.3066
7.09849
8.71045
11.001
13.5907
16.2894
18.0346
18.8573
18.9484
18.6266
18.0631
17.298
16.3687
15.2729
14.1243
12.9249
12.0567
11.3992
12.7197
11.3964
10.4723
9.89186
9.56594
9.37968
9.21044
8.96061
8.58849
8.09122
7.48486
6.82768
6.53952
7.27711
8.64886
10.5131
12.6378
14.8726
16.4532
17.2759
17.4724
17.2959
16.9057
16.3309
15.5938
14.6837
13.6875
12.6217
11.7984
11.2188
12.1121
10.8005
9.91912
9.38761
9.10469
8.95722
8.82669
8.62144
8.30597
7.89174
7.4044
6.90144
6.74802
7.42149
8.56572
10.0549
11.7737
13.6122
15.0253
15.8276
16.0956
16.0205
15.7583
15.3315
14.7525
14.0059
13.1592
12.2267
11.4472
10.8946
11.4427
10.2032
9.3939
8.9237
8.6832
8.56704
8.46392
8.29274
8.02719
7.69346
7.3204
6.96838
6.93059
7.53173
8.46301
9.62647
10.9957
12.4948
13.7375
14.5008
14.8089
14.7971
14.6224
14.3064
13.8553
13.2501
12.538
11.74
11.0115
10.4675
10.7623
9.62474
8.89826
8.49026
8.28821
8.19693
8.11435
7.97259
7.75555
7.50086
7.24136
7.02768
7.08653
7.60952
8.34628
9.23492
10.3097
11.5176
12.5927
13.3027
13.623
13.6446
13.5232
13.2845
12.9306
12.4425
11.849
11.1747
10.5102
9.98539
10.1003
9.07337
8.43189
8.08234
7.91459
7.84387
7.77854
7.66509
7.49722
7.32018
7.16939
7.08013
7.21405
7.6577
8.22275
8.89056
9.71824
10.6733
11.5891
12.2395
12.5546
12.5844
12.4878
12.2968
12.0127
11.6179
11.1261
10.561
9.96518
9.47337
9.46691
8.55281
7.99383
7.69827
7.56176
7.50931
7.46049
7.3759
7.25803
7.15608
7.10543
7.12599
7.31248
7.67587
8.10203
8.5919
9.2096
9.94732
10.7143
11.3027
11.6025
11.6301
11.5378
11.3676
11.129
10.8059
10.3983
9.92597
9.39807
8.94802
8.87309
8.06719
7.58517
7.33889
7.2319
7.19687
7.16506
7.11035
7.04271
7.01205
7.04964
7.16482
7.38483
7.67566
7.9993
8.3369
8.77798
9.32981
9.96105
10.4869
10.7669
10.7855
10.6851
10.5155
10.2979
10.0266
9.68597
9.29052
8.82834
8.42526
8.31973
7.61859
7.20762
7.00676
6.92828
6.9105
6.8969
6.87309
6.85528
6.88846
7.00429
7.19766
7.43676
7.67134
7.91364
8.12578
8.42086
8.8145
9.32406
9.78899
10.0474
10.0534
9.93606
9.75269
9.53739
9.29385
9.00399
8.67119
8.2714
7.91752
7.80705
7.20725
6.86273
6.70485
6.6544
6.65411
6.66012
6.66839
6.69705
6.7864
6.97292
7.22567
7.47769
7.67438
7.85148
7.96164
8.13764
8.3984
8.79977
9.20618
9.44272
9.43439
9.29415
9.08681
8.85869
8.62464
8.36535
8.08203
7.73939
7.43446
7.33573
6.83321
6.55196
6.43596
6.41377
6.43074
6.45858
6.49922
6.57146
6.71343
6.95523
7.25792
7.52339
7.70175
7.82273
7.85132
7.9312
8.08173
8.38671
8.73612
8.95086
8.92708
8.76029
8.52247
8.27055
8.03019
7.785
7.53555
7.24263
6.98428
6.90821
6.49788
6.27768
6.20358
6.20879
6.24455
6.29678
6.37074
6.48419
6.67666
6.96025
7.31273
7.59874
7.76037
7.84099
7.80666
7.80948
7.86923
8.0866
8.37856
8.57027
8.52979
8.33367
8.06096
7.77867
7.51957
7.27508
7.04359
6.79084
6.57365
6.52906
6.20501
6.04441
6.01285
6.04329
6.10161
6.18193
6.29076
6.44567
6.67734
7.0268
7.41361
7.71755
7.87048
7.92623
7.84634
7.78779
7.77276
7.9073
8.13776
8.30191
8.2418
8.01293
7.70323
7.38542
7.09921
6.84435
6.61785
6.39256
6.20953
6.20589
5.962
5.86034
5.8692
5.9263
6.01181
6.12599
6.26701
6.47208
6.76495
7.16127
7.58078
7.9059
8.06025
8.10783
7.99998
7.8922
7.81257
7.86914
8.0273
8.15387
8.06574
7.79901
7.44894
7.09192
6.77288
6.49955
6.26789
6.0588
5.89949
5.94546
5.77636
5.7336
5.77756
5.86723
5.98054
6.13116
6.33205
6.59315
6.94108
7.38842
7.84602
8.20003
8.37065
8.43205
8.31325
8.16722
8.02356
8.00256
8.07646
8.14616
8.01157
7.69708
7.30122
6.9007
6.54317
6.24599
6.00171
5.79829
5.65486
5.75621
5.65694
5.66832
5.74586
5.87204
6.04075
6.24441
6.50093
6.8259
7.2394
7.74806
8.25528
8.65496
8.86503
8.97078
8.86048
8.68752
8.48124
8.35522
8.31872
8.30843
8.10473
7.67927
7.23699
6.80285
6.41425
6.08993
5.82704
5.61938
5.48416
5.64862
5.61489
5.67544
5.80857
5.98963
6.21207
6.48026
6.80769
7.21386
7.71247
8.30336
8.88378
9.35861
9.64364
9.83923
9.76373
9.57933
9.29845
9.02646
8.82963
8.68978
8.38797
7.85954
7.30446
6.7903
6.36678
6.02134
5.74598
5.53371
5.39646
5.64293
5.67285
5.79768
5.99294
6.24132
6.53653
6.89023
7.31329
7.82984
8.44692
9.15735
9.85295
10.4524
10.8693
11.2263
11.2264
11.0626
10.6529
10.1721
9.7404
9.39842
8.93292
8.26748
7.5997
6.99668
6.49013
6.08306
5.76975
5.54111
5.40639
5.77449
5.87397
6.0769
6.35406
6.69253
7.09036
7.56442
8.12414
8.79948
9.59089
10.4837
11.3652
12.1716
12.8136
13.4454
13.5916
13.4207
12.8113
12.0314
11.2612
10.6169
9.89721
9.03147
8.18275
7.45253
6.84741
6.36478
5.99552
5.72793
5.57565
6.11631
6.29872
6.60519
6.9967
7.46438
8.01446
8.6677
9.43276
10.3471
11.4043
12.5829
13.7663
14.9119
15.9265
17.0035
17.3559
17.0227
16.0947
14.9025
13.6767
12.6163
11.545
10.3984
9.28542
8.33152
7.56501
6.95728
6.49498
6.16205
5.97495
6.82415
7.11669
7.57138
8.13208
8.7963
9.58312
10.5145
11.5989
12.8829
14.3514
15.9766
17.6399
19.3208
20.9144
22.6343
22.8919
22.1525
20.7066
18.9815
17.2266
15.6969
14.2443
12.7899
11.3741
10.0288
8.96579
8.12801
7.48973
7.03031
6.76732
8.26297
8.71158
9.38951
10.2114
11.1855
12.3497
13.719
15.3029
17.1528
19.2422
21.5306
23.8988
26.3307
28.6752
30.7743
30.2402
28.6092
26.37
24.0442
21.8208
19.9376
18.2938
16.7239
15.0906
13.378
11.762
10.4842
9.49478
8.7709
8.33512
11.3289
11.9949
13.007
14.2252
15.6741
17.4199
19.4441
21.7578
24.3983
27.3145
30.438
33.6327
36.8077
39.4961
40.673
38.3004
35.2545
32.0161
29.1477
26.7034
24.8102
23.457
22.3317
21.0041
19.3378
17.3734
15.3473
13.7071
12.4412
11.6111
18.1414
19.0457
20.4675
22.1748
24.2183
26.6896
29.4908
32.6232
36.0673
39.72
43.4387
47.0074
50.005
50.8893
49.7491
44.5899
39.8613
35.6629
32.5043
30.2231
28.7862
28.3205
28.3484
28.2801
27.7494
26.5989
24.7953
22.435
20.3501
18.7643
31.9551
33.0105
34.5958
36.4849
38.7851
41.5921
44.7045
48.062
51.5573
54.9965
58.0644
60.2382
60.2407
57.9474
53.4977
45.6231
39.6269
34.912
31.7892
29.9874
29.3226
29.9402
31.3883
33.1203
34.7155
35.9202
36.5067
36.2154
34.7722
32.9067
46.8369
49.1544
50.8821
52.3657
54.0567
56.0876
58.279
60.4571
62.4809
64.0448
64.6144
63.2808
59.8174
54.6334
47.9058
39.0731
32.8319
28.4565
25.7742
24.4217
24.2487
25.3136
27.2711
29.8767
32.8976
36.1433
39.3407
42.3489
44.9473
47.0577
34.1479
40.0532
40.9481
40.665
39.4818
37.404
34.6158
31.3258
27.5963
23.5858
19.1264
14.5418
11.046
15.0785
25.3954
38.9123
53.1686
70.4573
79.0731
80.5303
76.9609
70.9551
64.1381
57.0652
50.0771
43.2575
36.7928
30.1635
24.5447
19.1954
18.2553
18.6493
18.3092
18.0406
17.744
17.1957
16.362
15.2634
13.9357
12.3786
10.5437
8.48077
7.31062
10.2754
15.8066
22.3293
29.2199
36.64
39.913
40.2162
38.5063
35.9066
33.0456
30.0383
27.06
24.1242
21.3847
18.6355
16.6504
14.7249
16.5431
15.7743
14.9097
14.3475
13.9523
13.5819
13.1247
12.4978
11.6729
10.6191
9.28588
7.74444
7.10432
9.6689
13.9418
18.8573
24.11
29.4757
31.8715
32.1356
31.0012
29.2217
27.2499
25.161
23.0444
20.8938
18.8587
16.8144
15.4771
14.2416
15.8836
14.5908
13.5389
12.8575
12.4371
12.1517
11.8596
11.4378
10.8275
9.9927
8.89368
7.62928
7.29586
9.59187
13.1004
17.1337
21.418
25.6409
27.7078
28.0563
27.2876
25.9831
24.5022
22.9068
21.2471