/*--------------------------------*- C++ -*----------------------------------*\
  =========                 |
  \\      /  F ield         | OpenFOAM: The Open Source CFD Toolbox
   \\    /   O peration     | Website:  https://openfoam.org
    \\  /    A nd           | Version:  12
     \\/     M anipulation  |
\*---------------------------------------------------------------------------*/
FoamFile
{
    format      ascii;
    class       volScalarField;
    location    "500/air";
    object      k;
}
// * * * * * * * * * * * * * * * * * * * * * * * * * * * * * * * * * * * * * //

dimensions      [0 2 -2 0 0 0 0];

internalField   nonuniform List<scalar> 
243000
(
0.124794
0.131919
0.132284
0.130088
0.125818
0.120219
0.113829
0.107126
0.100367
0.0939693
0.0881115
0.0832574
0.0792231
0.0754507
0.0713498
0.0665562
0.0608163
0.0545327
0.0482445
0.0424681
0.0372661
0.033707
0.0379634
0.0459669
0.0514752
0.055548
0.0592335
0.0631221
0.0689295
0.0782449
0.203154
0.21028
0.203801
0.194131
0.182669
0.170511
0.158275
0.146399
0.135056
0.12463
0.115157
0.107028
0.0998461
0.0938727
0.0886937
0.0836735
0.0781004
0.0726045
0.0684636
0.0672412
0.0700629
0.0732983
0.079749
0.0912348
0.0983224
0.103709
0.10903
0.114194
0.122715
0.137069
0.249842
0.256972
0.249401
0.237826
0.224114
0.209527
0.19476
0.180353
0.166557
0.153889
0.142405
0.132622
0.123876
0.116521
0.110125
0.103948
0.0970388
0.0902405
0.0861155
0.0881665
0.0990746
0.111353
0.118583
0.127884
0.135202
0.141112
0.146989
0.152489
0.161566
0.176572
0.281067
0.286604
0.278982
0.266955
0.25251
0.236963
0.221001
0.205216
0.189967
0.175911
0.163238
0.152621
0.143089
0.13478
0.127245
0.119772
0.111294
0.102762
0.0978452
0.101995
0.119422
0.14016
0.150159
0.156232
0.162755
0.169126
0.175719
0.1819
0.191575
0.206879
0.302577
0.306533
0.299317
0.287642
0.273402
0.257826
0.241535
0.225141
0.209112
0.194256
0.180939
0.169951
0.16002
0.150984
0.142385
0.133552
0.123364
0.112838
0.107265
0.112842
0.134102
0.16197
0.176005
0.180128
0.184902
0.191441
0.198771
0.205768
0.215992
0.231407
0.316886
0.319811
0.313197
0.302299
0.288792
0.273743
0.257654
0.24115
0.2248
0.209569
0.195995
0.184928
0.174824
0.165219
0.155644
0.145452
0.133543
0.121089
0.115572
0.122064
0.144619
0.177286
0.195677
0.199635
0.202446
0.20884
0.216913
0.224853
0.235584
0.251031
0.325877
0.328273
0.322374
0.312501
0.300036
0.285837
0.270283
0.253998
0.237649
0.222349
0.208783
0.197814
0.187657
0.177605
0.167131
0.155641
0.142078
0.128499
0.122925
0.129839
0.152952
0.186998
0.209388
0.214509
0.215857
0.221901
0.230787
0.239773
0.250942
0.266489
0.330895
0.333077
0.32798
0.319301
0.308066
0.294908
0.2801
0.264255
0.248138
0.232985
0.219604
0.208823
0.198676
0.188259
0.176975
0.164285
0.149227
0.135266
0.129511
0.136494
0.159608
0.192929
0.217826
0.22474
0.225405
0.231006
0.240792
0.250986
0.262615
0.278371
0.332813
0.335109
0.330866
0.323418
0.313506
0.30153
0.287601
0.272353
0.256632
0.241784
0.228695
0.218139
0.208022
0.197303
0.185302
0.171542
0.155234
0.141305
0.135402
0.142248
0.165059
0.197496
0.222034
0.230685
0.23136
0.236453
0.247124
0.258738
0.270892
0.287234
0.332336
0.33505
0.331812
0.325564
0.316919
0.306087
0.293132
0.278613
0.263415
0.248981
0.23625
0.225917
0.215837
0.20485
0.192236
0.177566
0.160402
0.146717
0.14067
0.147178
0.169407
0.200827
0.224638
0.233232
0.234066
0.23853
0.250193
0.263346
0.27625
0.293486
0.330052
0.333307
0.331255
0.326205
0.318753
0.309042
0.297009
0.28325
0.268688
0.254755
0.242417
0.232297
0.222243
0.211022
0.197903
0.182507
0.165251
0.151662
0.145384
0.151314
0.172694
0.203024
0.226184
0.234728
0.234912
0.238197
0.250622
0.265188
0.279053
0.297321
0.326138
0.330108
0.329292
0.325607
0.31932
0.310656
0.299532
0.286527
0.272612
0.259244
0.247317
0.237401
0.227347
0.215943
0.202437
0.186492
0.169621
0.156158
0.149571
0.154708
0.174997
0.204211
0.226811
0.235365
0.235347
0.237061
0.248564
0.264745
0.279645
0.298844
0.320813
0.325663
0.326179
0.323853
0.31881
0.311157
0.300884
0.288632
0.275369
0.26257
0.251067
0.241328
0.231267
0.219742
0.205964
0.189659
0.173458
0.160215
0.153272
0.157445
0.176436
0.204496
0.226457
0.235116
0.235205
0.235831
0.245246
0.262003
0.278202
0.298471
0.314194
0.320157
0.322047
0.321109
0.317282
0.310677
0.301242
0.289708
0.277106
0.264841
0.253761
0.244184
0.234126
0.222542
0.20861
0.192247
0.176853
0.16388
0.156555
0.159626
0.177141
0.203811
0.225163
0.233999
0.23439
0.234368
0.242173
0.257438
0.274933
0.296242
0.306494
0.313738
0.317037
0.317482
0.314812
0.309227
0.300667
0.289901
0.27793
0.266202
0.255472
0.246051
0.236037
0.22446
0.210482
0.194714
0.179955
0.167226
0.15949
0.161362
0.177194
0.202268
0.223017
0.232105
0.232893
0.232596
0.23912
0.252547
0.270179
0.292411
0.297911
0.306521
0.311254
0.313022
0.311499
0.306848
0.299167
0.289211
0.27797
0.266757
0.256368
0.247067
0.237094
0.225587
0.211713
0.196935
0.182809
0.170316
0.162144
0.162747
0.176621
0.199973
0.220094
0.22948
0.230737
0.230447
0.235978
0.248021
0.26431
0.287211
0.288708
0.298618
0.304763
0.307782
0.307385
0.303632
0.29677
0.287653
0.277174
0.266585
0.256569
0.2474
0.237497
0.226075
0.212669
0.198956
0.18547
0.173208
0.164582
0.163871
0.175587
0.197041
0.216462
0.226177
0.227965
0.227875
0.232685
0.243701
0.258772
0.280879
0.28028
0.290274
0.297651
0.301827
0.302491
0.299613
0.293555
0.285247
0.275573
0.26563
0.256046
0.247073
0.237305
0.226105
0.213697
0.20089
0.188012
0.17597
0.166902
0.164817
0.174239
0.193589
0.212213
0.222261
0.224631
0.224873
0.229234
0.239479
0.253582
0.27364
0.272512
0.282647
0.290379
0.295303
0.296901
0.294869
0.289601
0.282067
0.273181
0.263921
0.254804
0.246078
0.236553
0.226165
0.214796
0.202814
0.190505
0.178666
0.169173
0.165686
0.172711
0.189738
0.207465
0.217802
0.220791
0.221476
0.225641
0.235291
0.248562
0.266243
0.265252
0.275581
0.283657
0.288868
0.290867
0.289503
0.284986
0.278259
0.270274
0.261805
0.253278
0.244946
0.236095
0.226521
0.216032
0.204794
0.193017
0.181367
0.171469
0.166607
0.171156
0.185619
0.202301
0.212875
0.21651
0.217741
0.221914
0.2311
0.243669
0.259568
0.258392
0.268978
0.277378
0.282881
0.285266
0.28443
0.280621
0.274751
0.267666
0.259987
0.252104
0.244256
0.236067
0.227174
0.217451
0.206889
0.195612
0.184141
0.17387
0.167706
0.169766
0.181484
0.196853
0.207579
0.211876
0.213748
0.218086
0.226909
0.238879
0.2534
0.251869
0.262734
0.271457
0.277232
0.280013
0.279717
0.276589
0.271531
0.265302
0.258421
0.251224
0.243944
0.236368
0.228122
0.21909
0.209157
0.198356
0.18707
0.176468
0.169089
0.168732
0.177568
0.191306
0.202047
0.207007
0.209615
0.214231
0.222766
0.234203
0.247605
0.245654
0.256725
0.265806
0.27187
0.275041
0.275279
0.272817
0.268541
0.263149
0.257079
0.250607
0.243973
0.236977
0.229372
0.220996
0.211674
0.201348
0.190268
0.179393
0.170908
0.168282
0.174156
0.185915
0.196458
0.202068
0.2055
0.210466
0.218761
0.229694
0.24214
0.239715
0.250949
0.260365
0.26678
0.270307
0.271042
0.269244
0.265753
0.261208
0.255969
0.250282
0.244324
0.23795
0.231011
0.223307
0.214625
0.204811
0.193989
0.182912
0.173432
0.168709
0.171622
0.181077
0.191094
0.197359
0.201612
0.206936
0.215037
0.225462
0.237043
0.234163
0.245527
0.255132
0.261944
0.265775
0.266979
0.265861
0.263167
0.259491
0.255127
0.250372
0.245154
0.239538
0.233384
0.226467
0.218543
0.209344
0.198869
0.187664
0.177273
0.170548
0.17055
0.177396
0.186481
0.193324
0.198231
0.203866
0.211767
0.221628
0.232367
0.229217
0.240595
0.250225
0.257398
0.261507
0.263146
0.262757
0.260939
0.258262
0.25502
0.251311
0.247206
0.242677
0.237633
0.231813
0.224907
0.216512
0.20649
0.195195
0.183883
0.175138
0.172264
0.176137
0.183676
0.190681
0.195836
0.201614
0.209254
0.218457
0.228331
0.225565
0.236788
0.246271
0.253603
0.258085
0.260292
0.260853
0.260286
0.259055
0.257411
0.255452
0.253204
0.250558
0.247304
0.24319
0.237698
0.230286
0.220707
0.209202
0.196788
0.185861
0.179819
0.180395
0.185649
0.191554
0.196266
0.201721
0.208688
0.21687
0.225606
0.225962
0.236824
0.246242
0.25406
0.259729
0.263315
0.265842
0.267702
0.2692
0.270619
0.272007
0.273257
0.273989
0.273647
0.271818
0.267913
0.261245
0.251685
0.239459
0.225497
0.21207
0.202686
0.199516
0.200972
0.203521
0.206102
0.209707
0.214674
0.220738
0.227419
0.255346
0.26603
0.276223
0.285638
0.294163
0.301444
0.308519
0.315096
0.32139
0.328332
0.335461
0.342244
0.347508
0.350325
0.350136
0.346718
0.339603
0.328973
0.315402
0.299971
0.284817
0.273435
0.267299
0.263476
0.260424
0.258248
0.257052
0.256819
0.257581
0.259447
0.465843
0.473442
0.481229
0.488653
0.494396
0.501225
0.508679
0.513966
0.518623
0.527204
0.536145
0.543912
0.547622
0.547144
0.542938
0.536225
0.527176
0.516374
0.504731
0.494234
0.48605
0.482096
0.482157
0.483206
0.483115
0.482159
0.480538
0.477967
0.474619
0.471192
0.183897
0.202289
0.205127
0.201381
0.193285
0.18246
0.17002
0.156864
0.143405
0.130378
0.117891
0.106736
0.0959593
0.0862855
0.0775373
0.0705482
0.0680375
0.080892
0.103347
0.121897
0.130846
0.132742
0.132772
0.129613
0.123886
0.116575
0.10991
0.102153
0.101563
0.103955
0.317623
0.336652
0.326643
0.307145
0.283721
0.259232
0.235135
0.212227
0.190723
0.171202
0.153453
0.137592
0.123061
0.115427
0.113393
0.116242
0.127008
0.156809
0.205785
0.24556
0.26403
0.269031
0.268011
0.262892
0.254333
0.242923
0.230653
0.213094
0.200795
0.196269
0.399429
0.417868
0.406387
0.384726
0.358434
0.330401
0.302152
0.274768
0.248789
0.225142
0.203737
0.184838
0.167426
0.158604
0.156811
0.16117
0.175131
0.210277
0.272625
0.325709
0.353364
0.363689
0.365015
0.360646
0.351481
0.337938
0.323018
0.301546
0.284873
0.279875
0.457741
0.469966
0.457652
0.436253
0.410445
0.382457
0.353448
0.324551
0.296623
0.270972
0.247782
0.227579
0.208674
0.198369
0.19542
0.199079
0.213
0.249175
0.317786
0.379821
0.415744
0.431575
0.435978
0.433202
0.42479
0.411029
0.395384
0.372836
0.354207
0.350051
0.500699
0.505078
0.49181
0.47141
0.447323
0.420874
0.392676
0.363807
0.335386
0.309102
0.285506
0.265127
0.245608
0.233826
0.229056
0.230794
0.242759
0.277284
0.347044
0.414942
0.45886
0.48015
0.487885
0.487213
0.480384
0.467697
0.452603
0.430672
0.411484
0.40806
0.531763
0.528915
0.51465
0.495581
0.473708
0.449417
0.422772
0.394764
0.366741
0.340751
0.317622
0.297708
0.278065
0.264869
0.257974
0.257084
0.265973
0.297053
0.363689
0.435103
0.486413
0.513347
0.524456
0.526157
0.521365
0.510673
0.496974
0.476794
0.457863
0.454754
0.553192
0.54451
0.52945
0.511993
0.492552
0.470651
0.445895
0.419209
0.39215
0.367048
0.344914
0.32578
0.306239
0.291706
0.282564
0.27872
0.284254
0.31109
0.372715
0.443913
0.50076
0.533892
0.548331
0.552372
0.549751
0.541551
0.529947
0.512371
0.494172
0.491258
0.566547
0.553441
0.538134
0.522672
0.505791
0.486328
0.463587
0.438469
0.412732
0.388884
0.368003
0.349741
0.330395
0.314615
0.303243
0.296484
0.299433
0.322809
0.379382
0.44773
0.506258
0.543934
0.561622
0.567826
0.567348
0.561694
0.552591
0.538285
0.521396
0.518492
0.573534
0.558105
0.542912
0.529094
0.51472
0.497665
0.476959
0.453541
0.429327
0.406936
0.387385
0.369949
0.350813
0.333924
0.320443
0.311165
0.312875
0.332454
0.384059
0.449525
0.507651
0.546651
0.566811
0.574245
0.57568
0.572478
0.566035
0.555355
0.540384
0.537446
0.576679
0.559777
0.545002
0.532679
0.520306
0.505487
0.486815
0.465173
0.442594
0.421729
0.403475
0.386758
0.367808
0.349979
0.334637
0.323579
0.324422
0.340275
0.38707
0.449318
0.505643
0.545037
0.566143
0.574483
0.576153
0.57519
0.571286
0.564429
0.551805
0.549371
0.576443
0.5592
0.545215
0.534207
0.523583
0.510572
0.493694
0.473927
0.453046
0.433699
0.416634
0.400533
0.381758
0.363119
0.346375
0.334754
0.334276
0.346858
0.388761
0.446455
0.500141
0.539083
0.560669
0.568684
0.57083
0.571216
0.569333
0.565033
0.556531
0.555196
0.571854
0.555701
0.54335
0.53423
0.525075
0.513669
0.498361
0.480212
0.461086
0.443215
0.427212
0.411645
0.393025
0.373797
0.356257
0.345177
0.342857
0.352362
0.389309
0.441555
0.491935
0.530546
0.552161
0.559703
0.561302
0.561959
0.562169
0.560672
0.555116
0.554465
0.563535
0.549612
0.53945
0.532543
0.52522
0.515167
0.501304
0.484628
0.467122
0.450624
0.435575
0.420487
0.402013
0.382546
0.36499
0.354809
0.350566
0.357136
0.38877
0.435357
0.482233
0.520309
0.54148
0.548359
0.549257
0.549712
0.550892
0.552176
0.549508
0.550195
0.552479
0.541518
0.533919
0.52925
0.523967
0.515444
0.502867
0.487644
0.471565
0.456331
0.442141
0.427449
0.409254
0.390009
0.37353
0.363757
0.35774
0.361502
0.387761
0.428348
0.471813
0.50886
0.529331
0.535408
0.535566
0.535599
0.537413
0.540598
0.540574
0.542943
0.539719
0.53218
0.527354
0.52492
0.521455
0.51462
0.503394
0.489626
0.47491
0.460804
0.447384
0.433085
0.4154
0.396971
0.382243
0.372123
0.364665
0.365778
0.386757
0.42112
0.461051
0.496654
0.516291
0.521512
0.520946
0.520417
0.522434
0.526595
0.529341
0.533323
0.525858
0.522011
0.520086
0.519839
0.518198
0.512877
0.503259
0.490988
0.477645
0.464575
0.451898
0.438077
0.421261
0.404439
0.391233
0.380421
0.371668
0.370272
0.386046
0.414263
0.450297
0.484069
0.502826
0.507237
0.505985
0.504859
0.506747
0.512083
0.516652
0.522043
0.511566
0.511558
0.512533
0.514296
0.514513
0.510666
0.502793
0.492214
0.480262
0.468279
0.456415
0.443273
0.427836
0.413026
0.400598
0.38908
0.379134
0.375284
0.385803
0.408087
0.439861
0.471421
0.489301
0.49304
0.491189
0.489509
0.491038
0.497086
0.503062
0.509737
0.497899
0.501592
0.505138
0.508931
0.510881
0.50859
0.502802
0.493906
0.483432
0.472741
0.461858
0.449728
0.436112
0.422795
0.410551
0.398508
0.387438
0.381167
0.386627
0.402922
0.430053
0.458982
0.476001
0.47927
0.47697
0.474825
0.475896
0.482199
0.489399
0.497223
0.48521
0.492143
0.49887
0.504778
0.50835
0.507935
0.503943
0.496948
0.488376
0.479088
0.469238
0.458182
0.446092
0.433696
0.421614
0.40916
0.397005
0.388286
0.388684
0.399131
0.421207
0.447042
0.463167
0.466185
0.463648
0.461194
0.461866
0.468162
0.476268
0.485821
0.473952
0.483748
0.493644
0.502171
0.507715
0.50942
0.507208
0.502169
0.495325
0.487367
0.478511
0.468543
0.45764
0.446123
0.434358
0.421592
0.408358
0.39722
0.392774
0.397425
0.413817
0.435988
0.451071
0.45403
0.451502
0.448974
0.449453
0.455631
0.464398
0.475327
0.464392
0.477094
0.489954
0.500824
0.508704
0.512867
0.512453
0.509266
0.504136
0.497552
0.489843
0.481062
0.471449
0.460849
0.449552
0.436581
0.422278
0.408587
0.399505
0.39884
0.408759
0.426421
0.440108
0.443146
0.440867
0.438553
0.439108
0.445217
0.454524
0.466351
0.457033
0.472429
0.487961
0.501165
0.512207
0.51871
0.520254
0.518903
0.51547
0.510517
0.504211
0.49677
0.488664
0.479052
0.468428
0.455418
0.440071
0.423774
0.410194
0.403847
0.407379
0.419493
0.430987
0.434099
0.432247
0.43047
0.431451
0.43769
0.447259
0.459383
0.452083
0.470039
0.488126
0.504851
0.518924
0.527729
0.531362
0.532038
0.530726
0.527958
0.52341
0.517471
0.511204
0.502916
0.493319
0.480625
0.464317
0.44535
0.427202
0.414558
0.411515
0.417129
0.425085
0.427932
0.426526
0.425547
0.42744
0.433774
0.443537
0.455594
0.450136
0.47084
0.492734
0.513161
0.530003
0.541066
0.547155
0.551207
0.553294
0.553374
0.551265
0.54683
0.542861
0.536996
0.529192
0.517664
0.500616
0.478974
0.45567
0.435738
0.424413
0.422817
0.425796
0.426879
0.425406
0.425529
0.428517
0.435236
0.445036
0.456759
0.454496
0.478845
0.503969
0.527826
0.547721
0.562287
0.572102
0.580061
0.586238
0.590687
0.593297
0.593025
0.592325
0.591218
0.587288
0.578581
0.561567
0.536937
0.507018
0.477408
0.455096
0.443273
0.438739
0.435512
0.432858
0.43351
0.43718
0.443883
0.452889
0.463913
0.469641
0.497429
0.525999
0.554755
0.578552
0.597
0.612294
0.626467
0.639379
0.65119
0.662104
0.671575
0.67866
0.686593
0.690612
0.687116
0.670701
0.642005
0.602899
0.559666
0.52168
0.494886
0.47735
0.465187
0.458246
0.457218
0.459978
0.465435
0.473051
0.482688
0.506817
0.539606
0.573061
0.606316
0.636396
0.662122
0.687057
0.712083
0.736808
0.761512
0.786934
0.812638
0.836736
0.856778
0.872192
0.873073
0.854764
0.819073
0.768126
0.708695
0.652099
0.606781
0.571481
0.54488
0.527453
0.518656
0.515391
0.515944
0.519066
0.525235
0.600584
0.637633
0.678261
0.71995
0.76087
0.799453
0.839911
0.881481
0.923246
0.965257
1.00848
1.0515
1.09028
1.11731
1.1287
1.11859
1.08623
1.0375
0.978655
0.913653
0.850809
0.799206
0.759315
0.724908
0.696233
0.673164
0.654495
0.63978
0.629571
0.626131
0.831376
0.87278
0.920456
0.970302
1.0199
1.06866
1.11917
1.16912
1.2172
1.26248
1.30038
1.33096
1.3489
1.34355
1.31744
1.27073
1.21619
1.1591
1.10358
1.05325
1.01238
0.987198
0.981775
0.980686
0.972858
0.959113
0.938666
0.911876
0.88377
0.861698
1.1701
1.21805
1.26068
1.2962
1.32507
1.35217
1.37641
1.39344
1.4047
1.41188
1.40456
1.38513
1.35348
1.31371
1.25818
1.19426
1.13698
1.08701
1.04555
1.01624
1.00097
1.00114
1.01941
1.04803
1.0797
1.10901
1.13528
1.15818
1.17256
1.17784
0.241537
0.262446
0.26379
0.258646
0.248192
0.234154
0.217821
0.200237
0.181767
0.163235
0.144394
0.126437
0.108519
0.0978083
0.0952132
0.107049
0.137945
0.187018
0.21783
0.235663
0.242156
0.241181
0.234495
0.224228
0.211783
0.197682
0.18368
0.167864
0.157274
0.148632
0.409184
0.43058
0.418827
0.394793
0.365889
0.335689
0.305942
0.27734
0.249872
0.223885
0.198208
0.171834
0.149597
0.153292
0.174388
0.214325
0.27772
0.364252
0.421297
0.453033
0.462914
0.458841
0.444578
0.424784
0.401613
0.375248
0.347762
0.315184
0.287001
0.267793
0.514516
0.532404
0.516148
0.489056
0.457328
0.424095
0.390803
0.358064
0.326089
0.2955
0.265036
0.233546
0.207919
0.215333
0.242945
0.290911
0.365837
0.465277
0.536182
0.578511
0.595431
0.595457
0.582508
0.56171
0.535803
0.504976
0.472027
0.43224
0.396998
0.374743
0.58865
0.596349
0.577703
0.550316
0.519273
0.486747
0.453525
0.419957
0.386462
0.354014
0.321681
0.288518
0.262212
0.270573
0.299393
0.348261
0.425619
0.528719
0.607105
0.657223
0.680815
0.685877
0.67654
0.657593
0.632209
0.600635
0.565935
0.523331
0.48458
0.460721
0.641861
0.638951
0.618373
0.591791
0.562773
0.532351
0.500596
0.467685
0.434249
0.401668
0.369412
0.336939
0.311621
0.319382
0.346523
0.392569
0.466958
0.568396
0.650725
0.706643
0.736143
0.746093
0.741114
0.725383
0.702321
0.672198
0.638124
0.595478
0.555037
0.529383
0.6783
0.667136
0.645237
0.620242
0.59389
0.566104
0.536385
0.504856
0.47239
0.440795
0.409939
0.379529
0.356045
0.36224
0.38595
0.426889
0.495254
0.590946
0.67483
0.735265
0.769784
0.783987
0.783265
0.7713
0.751524
0.724285
0.692378
0.651688
0.610766
0.582712
0.702474
0.684707
0.662367
0.639657
0.616242
0.591229
0.563747
0.533981
0.503067
0.47321
0.44461
0.416978
0.39561
0.399588
0.418814
0.453394
0.514065
0.600942
0.683962
0.748116
0.787154
0.804871
0.807643
0.799449
0.783305
0.759713
0.731029
0.693762
0.653534
0.625144
0.716554
0.694699
0.672595
0.652523
0.632132
0.609838
0.584622
0.556822
0.527853
0.500219
0.474346
0.449744
0.430469
0.431809
0.446033
0.473859
0.526249
0.604124
0.685293
0.751157
0.792459
0.81284
0.817965
0.813097
0.800487
0.780869
0.756156
0.723381
0.68514
0.656558
0.724388
0.700229
0.678599
0.660587
0.643089
0.623385
0.600397
0.574683
0.547908
0.522769
0.499781
0.478187
0.460765
0.459319
0.468457
0.490169
0.53492
0.604759
0.67997
0.745118
0.789111
0.811668
0.817723
0.814385
0.804867
0.789757
0.769688
0.742125
0.707155
0.678605
0.727584
0.702365
0.681633
0.665437
0.650119
0.632878
0.612104
0.588554
0.564117
0.541568
0.521413
0.502626
0.486697
0.482578
0.486961
0.503917
0.541236
0.601659
0.670139
0.733703
0.779228
0.802647
0.809797
0.807871
0.800368
0.78717
0.769594
0.748016
0.719361
0.692899
0.727021
0.702111
0.682485
0.667921
0.654463
0.639114
0.620509
0.599215
0.577174
0.55718
0.539672
0.523388
0.508597
0.502087
0.502481
0.515753
0.545665
0.596309
0.658422
0.719378
0.765471
0.789309
0.796537
0.795232
0.789407
0.778942
0.763846
0.745269
0.720901
0.698921
0.72194
0.698624
0.681318
0.668604
0.65675
0.643142
0.62631
0.607296
0.587665
0.570098
0.554988
0.540863
0.526929
0.518452
0.516117
0.525672
0.548791
0.590389
0.645691
0.703131
0.748975
0.772972
0.780068
0.778884
0.773589
0.765489
0.753536
0.737892
0.716994
0.698101
0.713663
0.692702
0.67799
0.667697
0.657473
0.645457
0.630398
0.61341
0.59613
0.580816
0.567833
0.55554
0.542302
0.532496
0.529105
0.534308
0.551169
0.584407
0.632622
0.685822
0.730739
0.754756
0.761584
0.7602
0.755108
0.748117
0.739064
0.726915
0.709447
0.693776
0.702374
0.684586
0.672831
0.665158
0.657034
0.646545
0.633271
0.618192
0.603122
0.589885
0.578782
0.568037
0.555521
0.545227
0.541044
0.542149
0.553215
0.578734
0.619773
0.668175
0.711588
0.735554
0.742075
0.740329
0.735141
0.728839
0.721481
0.712718
0.699194
0.6866
0.689073
0.675094
0.666613
0.661496
0.655502
0.646883
0.635445
0.622244
0.609281
0.597954
0.588544
0.579148
0.567609
0.557983
0.552297
0.549656
0.555328
0.573719
0.607594
0.650776
0.692161
0.71605
0.722321
0.720198
0.714721
0.708709
0.702598
0.696294
0.686463
0.677299
0.674778
0.665115
0.66005
0.657494
0.653535
0.646982
0.637447
0.626231
0.615318
0.605815
0.597977
0.589878
0.579802
0.570789
0.563436
0.557298
0.557961
0.569694
0.596468
0.634098
0.672941
0.696728
0.702908
0.700502
0.694687
0.688689
0.683398
0.67883
0.672123
0.665975
0.660252
0.655267
0.653692
0.653622
0.651745
0.647395
0.639821
0.63092
0.622085
0.614431
0.608126
0.601455
0.593036
0.58385
0.574996
0.565615
0.561553
0.567017
0.586776
0.618537
0.654303
0.677912
0.684238
0.681735
0.675684
0.66961
0.664827
0.661513
0.657209
0.653628
0.646558
0.646459
0.648276
0.650487
0.651085
0.648745
0.64359
0.637185
0.630657
0.624981
0.620286
0.614839
0.607228
0.59781
0.587601
0.575169
0.566655
0.566136
0.578941
0.604489
0.636578
0.659816
0.666572
0.664225
0.658171
0.65212
0.647677
0.645248
0.6429
0.641491
0.634747
0.638783
0.643981
0.649095
0.652547
0.652462
0.64975
0.645685
0.641363
0.637618
0.634461
0.630109
0.62312
0.613426
0.602018
0.586719
0.574026
0.567601
0.57351
0.59241
0.620128
0.642634
0.6501
0.648199
0.642491
0.636664
0.632557
0.630821
0.629999
0.630562
0.625217
0.632754
0.641351
0.649043
0.656098
0.658667
0.658342
0.65667
0.654689
0.653036
0.651476
0.648141
0.641656
0.631682
0.619288
0.601375
0.584654
0.572319
0.571325
0.5831
0.605539
0.626683
0.635058
0.633906
0.628903
0.623599
0.619971
0.618858
0.619179
0.621748
0.618216
0.629002
0.640429
0.652022
0.662482
0.667846
0.670164
0.670975
0.671518
0.672201
0.672416
0.670122
0.664166
0.654018
0.640981
0.620865
0.600222
0.581919
0.573667
0.577843
0.593935
0.61259
0.62181
0.621705
0.617757
0.613322
0.610397
0.609915
0.611345
0.615568
0.613831
0.627439
0.642608
0.658652
0.672474
0.680826
0.686007
0.689631
0.69308
0.696458
0.698884
0.697859
0.692712
0.682757
0.669666
0.64798
0.623656
0.599206
0.582947
0.579198
0.587538
0.601844
0.611188
0.612191
0.609534
0.606322
0.604408
0.604738
0.607421
0.612647
0.612164
0.629597
0.649866
0.669888
0.687194
0.698857
0.707291
0.714283
0.721267
0.727973
0.733323
0.73437
0.730797
0.721991
0.709826
0.687768
0.660281
0.629588
0.604562
0.590586
0.590404
0.597989
0.605355
0.607011
0.605415
0.603475
0.60279
0.604555
0.608259
0.614301
0.616039
0.638513
0.663152
0.6875
0.708529
0.724092
0.736532
0.747862
0.759438
0.770604
0.780153
0.78502
0.784719
0.778968
0.769669
0.749281
0.719666
0.683331
0.648532
0.621705
0.608938
0.607516
0.609793
0.609941
0.608227
0.607118
0.607719
0.610465
0.615022
0.621587
0.628758
0.656064
0.685658
0.714813
0.74024
0.760823
0.778699
0.796065
0.814054
0.831708
0.84778
0.85927
0.865765
0.866313
0.863082
0.846901
0.816967
0.774556
0.728048
0.686003
0.657436
0.642172
0.634596
0.629169
0.624869
0.622956
0.62359
0.626462
0.631142
0.637961
0.656106
0.689082
0.72459
0.759164
0.790663
0.818315
0.844199
0.870576
0.898012
0.925406
0.951495
0.973557
0.991228
1.00233
1.00774
0.995168
0.958342
0.906457
0.848709
0.792713
0.748778
0.719483
0.699032
0.682443
0.670722
0.663952
0.66104
0.661554
0.664386
0.67026
0.715378
0.754482
0.796714
0.838626
0.878888
0.916966
0.9547
0.994019
1.03449
1.07491
1.11393
1.14902
1.17956
1.19901
1.20362
1.17553
1.12534
1.0624
0.996572
0.933345
0.882087
0.847052
0.823666
0.800091
0.77656
0.75925
0.746379
0.738291
0.734182
0.735841
0.849249
0.892817
0.942311
0.992867
1.04363
1.09406
1.14538
1.19807
1.25051
1.30135
1.3483
1.38842
1.41761
1.41887
1.39531
1.33833
1.26916
1.1962
1.12839
1.06896
1.02479
1.00096
0.992798
0.985584
0.973134
0.951896
0.928446
0.90688
0.887973
0.877166
1.12364
1.1662
1.21596
1.26729
1.31938
1.37182
1.42473
1.47582
1.52332
1.5656
1.59638
1.6086
1.59516
1.55367
1.48931
1.40003
1.31359
1.23587
1.1736
1.12843
1.10322
1.10349
1.1227
1.14872
1.1734
1.19234
1.2008
1.19386
1.17595
1.15579
1.40314
1.45582
1.49726
1.53195
1.56407
1.59428
1.62188
1.64273
1.65771
1.66478
1.65049
1.61291
1.55471
1.47907
1.38702
1.28263
1.19319
1.12152
1.07014
1.04008
1.03143
1.04698
1.08178
1.12907
1.18243
1.23703
1.29015
1.33948
1.38042
1.41206
0.292431
0.317647
0.315902
0.308821
0.296323
0.279721
0.260299
0.239168
0.216566
0.193156
0.168082
0.142804
0.11865
0.118098
0.143147
0.194238
0.246457
0.307688
0.341648
0.357868
0.359615
0.351987
0.338372
0.321387
0.302302
0.281341
0.259708
0.234602
0.213148
0.191391
0.490165
0.515026
0.49976
0.472436
0.439565
0.405285
0.37149
0.338616
0.306103
0.27363
0.238571
0.198483
0.1716
0.20862
0.280127
0.378654
0.478529
0.585007
0.645931
0.672964
0.67225
0.653711
0.624709
0.591219
0.554754
0.514814
0.472498
0.422207
0.37605
0.336161
0.616186
0.631033
0.611004
0.580047
0.544626
0.508142
0.471784
0.435466
0.398547
0.36054
0.318735
0.270506
0.241629
0.293264
0.379509
0.490885
0.606321
0.72395
0.798511
0.835722
0.84124
0.825347
0.796441
0.760859
0.720589
0.6748
0.625281
0.565461
0.510308
0.464444
0.702426
0.703432
0.679966
0.648436
0.614157
0.579281
0.543977
0.507592
0.469495
0.429424
0.385209
0.334966
0.308381
0.366548
0.455501
0.566822
0.684593
0.803271
0.885113
0.930187
0.942362
0.931645
0.90644
0.87293
0.833342
0.786693
0.735295
0.672486
0.613084
0.562676
0.761968
0.751395
0.724883
0.694246
0.66256
0.630502
0.597376
0.56222
0.524561
0.484613
0.440952
0.392912
0.371107
0.43092
0.516436
0.620938
0.733565
0.848265
0.933681
0.984655
1.00273
0.997611
0.977296
0.947637
0.91104
0.866415
0.81616
0.753898
0.692498
0.64078
0.802148
0.781992
0.753988
0.725484
0.697102
0.668235
0.637625
0.604267
0.567991
0.529669
0.488711
0.445579
0.429633
0.487837
0.566257
0.660192
0.76343
0.870231
0.956744
1.01216
1.03499
1.03478
1.01947
0.994293
0.961872
0.921139
0.874028
0.814788
0.752957
0.701876
0.827414
0.800032
0.772278
0.746884
0.721995
0.696292
0.668238
0.636995
0.602803
0.567249
0.530518
0.493849
0.483835
0.538203
0.607404
0.6888
0.78034
0.877544
0.962979
1.02045
1.04718
1.05046
1.03966
1.01886
0.990978
0.955223
0.912731
0.858409
0.797953
0.746721
0.841281
0.81068
0.783602
0.761473
0.739915
0.717152
0.69158
0.662679
0.631152
0.599227
0.56768
0.538145
0.533629
0.582612
0.641524
0.709692
0.788422
0.877233
0.956963
1.0157
1.04531
1.05016
1.04183
1.02508
1.00216
0.972155
0.935384
0.887415
0.830473
0.778871
0.84904
0.816557
0.790517
0.770979
0.752591
0.732529
0.709366
0.683021
0.654629
0.626914
0.601021
0.578641
0.578912
0.621528
0.66986
0.725065
0.791298
0.867506
0.941792
1.00075
1.03244
1.03911
1.03306
1.01901
0.997929
0.970612
0.938204
0.898649
0.848938
0.800787
0.851434
0.818826
0.794339
0.777011
0.761202
0.743694
0.72293
0.699335
0.674421
0.651214
0.631073
0.615452
0.619653
0.655366
0.693454
0.73669
0.790943
0.854327
0.921914
0.979775
1.01256
1.02053
1.01616
1.00445
0.986433
0.961957
0.9324
0.897127
0.854199
0.812543
0.84955
0.818527
0.795776
0.780495
0.76677
0.751665
0.733342
0.71265
0.691405
0.672767
0.658199
0.64877
0.65586
0.68457
0.713287
0.74538
0.787042
0.83891
0.899051
0.954588
0.98791
0.997112
0.993878
0.983848
0.968442
0.947641
0.921205
0.890003
0.851586
0.815876
0.843548
0.815047
0.795444
0.78206
0.77031
0.75728
0.741483
0.723779
0.706253
0.692054
0.682708
0.678832
0.687729
0.709687
0.730463
0.751786
0.781665
0.822345
0.87464
0.92673
0.960284
0.970681
0.968352
0.959479
0.945907
0.928396
0.905915
0.878414
0.844804
0.813904
0.83486
0.809551
0.793158
0.78227
0.772427
0.761433
0.748083
0.733388
0.719516
0.709498
0.704905
0.705947
0.715621
0.731434
0.744994
0.756456
0.775483
0.805499
0.849731
0.897605
0.931109
0.942737
0.941163
0.933154
0.920925
0.905748
0.886949
0.863899
0.834889
0.808995
0.82407
0.80257
0.789541
0.78139
0.773615
0.764681
0.753761
0.74206
0.73171
0.725539
0.725213
0.730463
0.740104
0.750773
0.757416
0.75992
0.769079
0.789065
0.825162
0.868298
0.901468
0.914423
0.913577
0.906273
0.894996
0.8816
0.865617
0.846821
0.822764
0.801863
0.811119
0.794169
0.784941
0.779725
0.774319
0.767494
0.759081
0.750356
0.743366
0.74065
0.744332
0.752778
0.761976
0.768156
0.7683
0.76273
0.762992
0.773628
0.801595
0.839605
0.872127
0.886546
0.886534
0.87994
0.869403
0.857289
0.843493
0.828291
0.809298
0.793112
0.797535
0.785547
0.780222
0.777871
0.775006
0.770464
0.764635
0.758872
0.755072
0.755632
0.762858
0.77359
0.782366
0.783839
0.778441
0.765504
0.757797
0.759709
0.779546
0.812118
0.843607
0.859602
0.860691
0.854925
0.845134
0.833976
0.82191
0.809434
0.794915
0.783259
0.784068
0.777427
0.776006
0.776539
0.776249
0.774243
0.771105
0.768304
0.767539
0.771386
0.781597
0.793942
0.801416
0.798786
0.788497
0.768956
0.753906
0.747965
0.759579
0.786322
0.816258
0.833846
0.836457
0.831726
0.822818
0.812534
0.80187
0.791536
0.780554
0.77266
0.771754
0.770627
0.772846
0.776157
0.779053
0.779685
0.779335
0.779477
0.781856
0.788648
0.801163
0.814317
0.819981
0.813951
0.79938
0.773959
0.752165
0.738781
0.742297
0.762881
0.790455
0.809415
0.814007
0.81056
0.802807
0.793526
0.784115
0.775503
0.767373
0.762425
0.761713
0.765229
0.77098
0.777375
0.783669
0.787134
0.789629
0.792804
0.798299
0.807852
0.822247
0.835622
0.839243
0.830411
0.812283
0.781632
0.753277
0.732745
0.728572
0.742372
0.766764
0.786454
0.793415
0.791543
0.78528
0.777267
0.769138
0.762031
0.756167
0.753613
0.75427
0.761642
0.770438
0.780936
0.790614
0.797106
0.802647
0.808968
0.81762
0.829849
0.845829
0.859056
0.860684
0.849606
0.828785
0.793534
0.759195
0.731148
0.71938
0.725647
0.745795
0.765297
0.774813
0.774855
0.770393
0.763949
0.757265
0.751604
0.747588
0.746988
0.749353
0.759911
0.772611
0.787419
0.800598
0.810368
0.819196
0.828822
0.840778
0.855737
0.873217