/*--------------------------------*- C++ -*----------------------------------*\
  =========                 |
  \\      /  F ield         | OpenFOAM: The Open Source CFD Toolbox
   \\    /   O peration     | Website:  https://openfoam.org
    \\  /    A nd           | Version:  12
     \\/     M anipulation  |
\*---------------------------------------------------------------------------*/
FoamFile
{
    format      ascii;
    class       volScalarField;
    location    "500/air";
    object      nut;
}
// * * * * * * * * * * * * * * * * * * * * * * * * * * * * * * * * * * * * * //

dimensions      [0 2 -1 0 0 0 0];

internalField   nonuniform List<scalar> 
243000
(
0.000186806
0.000184928
0.000178419
0.000170679
0.000162149
0.000153378
0.000144722
0.000136466
0.000128739
0.000121785
0.000115686
0.000110714
0.000106743
0.000103376
0.000100175
9.68279e-05
9.3036e-05
8.88544e-05
8.43976e-05
7.95619e-05
7.41491e-05
7.12081e-05
7.93407e-05
9.08847e-05
9.98081e-05
0.00010743
0.000114996
0.00012316
0.000133612
0.000147864
0.000715553
0.000701372
0.000665471
0.000626694
0.000587365
0.000549215
0.000513144
0.000479716
0.000449074
0.000421712
0.000397574
0.000377222
0.00035992
0.000346078
0.000335025
0.000325496
0.00031595
0.000306873
0.000300025
0.00029724
0.000300659
0.000308403
0.000338372
0.000383256
0.000413119
0.000439857
0.000467748
0.000496892
0.000535103
0.000588074
0.000936613
0.000950643
0.000936758
0.000914947
0.000888273
0.000858905
0.00082807
0.000796804
0.000765659
0.000735894
0.000707807
0.000682896
0.000659791
0.000639681
0.000621833
0.000604273
0.0005842
0.000562842
0.000546344
0.000543355
0.000562924
0.000591216
0.000618869
0.000658687
0.000682701
0.000699999
0.000715972
0.000730335
0.000752592
0.000787615
0.000993315
0.00100381
0.000990657
0.00096927
0.000942789
0.000913342
0.000882036
0.000849904
0.000817651
0.000786731
0.000757727
0.000732455
0.000708981
0.000687861
0.000668328
0.000648579
0.000625659
0.000600743
0.000582317
0.000584268
0.000619624
0.000668705
0.00069907
0.000726438
0.00074833
0.000765926
0.000782533
0.000797421
0.000819267
0.00085221
0.00103079
0.00103798
0.00102598
0.00100598
0.000980878
0.000952579
0.000921993
0.000890113
0.000857773
0.000826639
0.000797641
0.000772803
0.000749659
0.000727994
0.000706969
0.00068494
0.000658888
0.000629835
0.000610159
0.000616662
0.000658363
0.000722426
0.000759595
0.000778903
0.000796797
0.000814435
0.000831997
0.00084791
0.000869715
0.000901064
0.00105488
0.00106005
0.00104932
0.00103111
0.00100794
0.000981385
0.000952123
0.000921092
0.000889247
0.000858479
0.000830036
0.000806023
0.000783498
0.000761528
0.000739203
0.000714941
0.000685799
0.000652766
0.000633667
0.000642768
0.000687414
0.000758226
0.000803098
0.000819497
0.000832734
0.000850086
0.000868793
0.000886119
0.000908113
0.000938281
0.00106964
0.00107379
0.00106436
0.00104815
0.00102717
0.00100265
0.000975019
0.000945167
0.000914169
0.000884126
0.000856553
0.000833525
0.000811694
0.000789571
0.000766076
0.000739735
0.000707668
0.00067227
0.000653723
0.000664012
0.000710227
0.000780673
0.000832304
0.000849427
0.000858907
0.000875633
0.000895748
0.000914759
0.000937027
0.000966462
0.00107768
0.00108141
0.00107334
0.00105925
0.0010406
0.00101823
0.000992387
0.000963901
0.000933971
0.000904875
0.000878332
0.000856308
0.000835145
0.000812937
0.000788416
0.000760199
0.000725534
0.000689808
0.000671264
0.000681697
0.000727738
0.000796157
0.000850005
0.000869555
0.000876821
0.00089273
0.000914507
0.000935568
0.000958289
0.000987367
0.00108055
0.00108447
0.00107781
0.00106581
0.0010495
0.00102938
0.00100539
0.000978385
0.000949662
0.000921652
0.000896197
0.000875113
0.000854535
0.000832278
0.000806868
0.000777018
0.000740185
0.000705136
0.00068663
0.000696674
0.000741821
0.000808234
0.000859366
0.000881146
0.000887633
0.000902355
0.000925882
0.00094947
0.000972906
0.00100254
0.00107954
0.00108414
0.00107914
0.00106911
0.00105497
0.0010369
0.0010148
0.00098938
0.000961962
0.000935116
0.000910755
0.000890504
0.000870424
0.000848101
0.000821953
0.000790754
0.000752266
0.00071851
0.000700106
0.000709365
0.000753012
0.000817236
0.000867015
0.000886634
0.000892398
0.000905612
0.000931216
0.00095757
0.000982189
0.00101299
0.00107555
0.00108107
0.00107798
0.00106994
0.00105779
0.00104167
0.00102128
0.00099738
0.000971371
0.000945745
0.000922454
0.000902929
0.000883243
0.000860846
0.000834118
0.000801885
0.000763327
0.000730507
0.000711993
0.000719956
0.000761539
0.000823383
0.000871769
0.000891251
0.000894849
0.000904398
0.000931644
0.000960628
0.000986867
0.00101926
0.00106885
0.0010756
0.00107454
0.00106873
0.00105852
0.00104418
0.00102541
0.00100295
0.000978262
0.000953901
0.000931626
0.000912744
0.000893334
0.000870899
0.000843759
0.000810788
0.000773346
0.000741294
0.000722474
0.000728667
0.000767671
0.000827044
0.000874352
0.000893848
0.000896385
0.000902664
0.000927382
0.000959486
0.000987672
0.00102161
0.00105975
0.00106805
0.00106918
0.00106559
0.00105745
0.00104483
0.00102754
0.00100645
0.000983044
0.000959866
0.000938572
0.000920224
0.00090102
0.000878604
0.000851221
0.000817777
0.000782066
0.00075091
0.000731671
0.000735742
0.000771741
0.000828806
0.000874883
0.00089454
0.000896784
0.000900556
0.000921271
0.000954179
0.000984845
0.00102071
0.00104841
0.0010587
0.00106213
0.00106083
0.00105468
0.00104382
0.00102798
0.00100816
0.000985996
0.000963898
0.00094352
0.00092563
0.0009066
0.00088427
0.00085681
0.000823181
0.000789621
0.000759482
0.000739771
0.000741413
0.000774065
0.000828374
0.00087325
0.00089317
0.0008958
0.00089788
0.000915502
0.000945543
0.000978768
0.00101664
0.00103514
0.00104775
0.00105358
0.00105458
0.00105036
0.00104118
0.00102682
0.00100836
0.000987335
0.00096628
0.000946643
0.000929155
0.000910334
0.000888165
0.000860783
0.000828264
0.000796438
0.000767228
0.000746971
0.000746077
0.000775117
0.000825997
0.000869706
0.000890096
0.000893412
0.000894543
0.000909718
0.00093655
0.00097003
0.00100981
0.0010202
0.00103534
0.00104368
0.00104692
0.00104461
0.00103698
0.00102408
0.00100701
0.000987302
0.000967213
0.000948262
0.000931072
0.000912413
0.000890492
0.000863383
0.000832905
0.000802666
0.000774323
0.000753456
0.000749939
0.000774731
0.000821924
0.000864438
0.000885461
0.000889644
0.000890496
0.000903717
0.000928101
0.000959244
0.00100057
0.001004
0.00102164
0.0010325
0.0010379
0.00103749
0.00103136
0.00101981
0.00100416
0.000985784
0.000966835
0.000948609
0.000931712
0.000913233
0.000891532
0.000865123
0.000837061
0.000808422
0.00078091
0.000759406
0.000753206
0.000773318
0.000816416
0.000857591
0.000879349
0.000884571
0.000885639
0.000897367
0.000919942
0.000949132
0.000989286
0.00098907
0.00100705
0.00102016
0.00102762
0.00102902
0.00102436
0.00101414
0.000999829
0.000982844
0.00096505
0.000947631
0.000931128
0.00091293
0.000891621
0.000867069
0.000841009
0.000813876
0.000787152
0.000765074
0.000756031
0.000771226
0.000809736
0.000849263
0.000871868
0.000878282
0.000879911
0.000890605
0.000911883
0.000939515
0.000976291
0.000975089
0.00099354
0.00100743
0.00101627
0.0010193
0.00101607
0.00100718
0.000994143
0.000978485
0.000961892
0.000945327
0.000929282
0.000911476
0.00089153
0.000869142
0.000844913
0.000819187
0.0007932
0.000770564
0.000758727
0.000768776
0.000802172
0.0008398
0.000863142
0.000870861
0.000873361
0.000883532
0.000903808
0.000930095
0.00096295
0.000961825
0.000980861
0.000995519
0.00100494
0.00100868
0.00100666
0.000999007
0.000987275
0.000973077
0.00095786
0.000942327
0.000926968
0.000910346
0.000892044
0.000871495
0.000848917
0.000824501
0.000799218
0.000776065
0.000761602
0.000766322
0.000793983
0.000829354
0.000853306
0.000862437
0.000866064
0.000876154
0.000895655
0.000920801
0.000950735
0.000949118
0.000968859
0.000984264
0.000994295
0.000998731
0.00099758
0.000991099
0.000980809
0.000968198
0.000954374
0.000939989
0.000925499
0.00091013
0.000893164
0.00087422
0.000853143
0.000829957
0.00080535
0.000781757
0.000764877
0.000764315
0.000785766
0.000818195
0.000842547
0.000853167
0.000858165
0.000868535
0.000887433
0.000911605
0.000939299
0.000936875
0.000957375
0.000973538
0.000984145
0.000989315
0.000989085
0.000983757
0.000974867
0.000963763
0.000951352
0.000938211
0.000924752
0.000910573
0.00089489
0.000877385
0.000857702
0.000835691
0.000811764
0.000787843
0.000768767
0.00076317
0.000778096
0.000806729
0.000831142
0.000843289
0.000849905
0.000860818
0.000879239
0.000902537
0.000928425
0.000925082
0.000946177
0.000963194
0.000974425
0.000980338
0.000981036
0.000976863
0.00096934
0.000959715
0.000948754
0.000936934
0.00092469
0.00091163
0.00089722
0.000881081
0.000862749
0.000841903
0.000818701
0.000794598
0.000773611
0.000763404
0.000771635
0.000795563
0.000819479
0.000833153
0.000841625
0.00085325
0.000871254
0.000893719
0.000918053
0.000913685
0.000935331
0.000953109
0.000965123
0.000971733
0.000973316
0.000970309
0.000964176
0.000956058
0.000946594
0.000936209
0.000925248
0.000913391
0.000900313
0.000885571
0.000868649
0.000849046
0.00082669
0.000802593
0.000779992
0.000765521
0.000767253
0.000785654
0.000808218
0.000823409
0.000833807
0.000846131
0.000863793
0.000885392
0.000908293
0.000902917
0.000925049
0.000943335
0.000956225
0.000963449
0.000965884
0.000964089
0.000959378
0.000952823
0.000944948
0.000936293
0.00092672
0.000916334
0.000904826
0.000891715
0.000876446
0.000858327
0.000837042
0.000813181
0.000789251
0.000770928
0.000766343
0.00077841
0.000798624
0.000815125
0.000827013
0.00083998
0.000857248
0.000877819
0.000899278
0.000893256
0.000915631
0.000934135
0.000947789
0.000955617
0.000958849
0.00095837
0.000955236
0.000950492
0.000944669
0.000937966
0.000930501
0.000922217
0.000912922
0.000902073
0.000889012
0.00087282
0.000852933
0.000829547
0.000804491
0.000782522
0.000771728
0.000776897
0.000793091
0.000809985
0.00082235
0.000835554
0.000852282
0.000871567
0.00089147
0.000886116
0.000908352
0.000926708
0.000940728
0.000949321
0.0009536
0.000954852
0.000953987
0.00095189
0.000949023
0.000945582
0.000941624
0.000936957
0.000931183
0.000923802
0.000913799
0.000900018
0.000881735
0.000858912
0.000832775
0.000807367
0.00079022
0.000787961
0.000798445
0.00081261
0.000823815
0.000836234
0.000851422
0.000868568
0.00088627
0.000887081
0.000908548
0.000926748
0.000941629
0.000952402
0.000959163
0.00096395
0.000967469
0.000970312
0.000973003
0.000975652
0.000978088
0.000979654
0.000979354
0.00097646
0.000969895
0.000958332
0.000941295
0.000918717
0.00089157
0.00086328
0.000840831
0.000830976
0.000832933
0.00083908
0.000845261
0.000853395
0.000864083
0.000876655
0.000890122
0.000943762
0.000963594
0.000982116
0.000998915
0.00101389
0.00102652
0.00103865
0.00104977
0.00106027
0.00107176
0.00108349
0.00109459
0.0011032
0.00110795
0.001108
0.00110299
0.0010921
0.00107545
0.00105347
0.00102742
0.00100025
0.000977908
0.000964868
0.000957214
0.000951838
0.00094826
0.000946485
0.00094641
0.000948035
0.000951632
0.00127682
0.00128727
0.00129789
0.00130785
0.00131543
0.00132442
0.00133434
0.00134129
0.00134727
0.00135844
0.00137011
0.00138025
0.00138507
0.00138469
0.00137961
0.00137131
0.00135992
0.00134623
0.00133095
0.00131675
0.00130521
0.00129883
0.00129831
0.00129981
0.00129984
0.00129871
0.0012967
0.00129338
0.00128892
0.00128434
0.00022672
0.000229002
0.000222223
0.000212431
0.000201078
0.000189088
0.00017703
0.000165315
0.000154084
0.000143662
0.000134032
0.000125571
0.000117674
0.000110663
0.000104424
9.94171e-05
9.73505e-05
0.000105565
0.000120229
0.000132809
0.0001402
0.000144016
0.000148732
0.000152107
0.000153758
0.000154412
0.000155422
0.000155505
0.000161229
0.000169832
0.00101511
0.00106831
0.000975096
0.000859367
0.000751407
0.000658977
0.000582211
0.000518972
0.000466632
0.000424527
0.00038852
0.000355918
0.000327673
0.000325054
0.000341249
0.000367692
0.000406567
0.000476618
0.000590863
0.00068488
0.000727958
0.000739076
0.000743781
0.000750579
0.000754003
0.000751072
0.000742043
0.000710183
0.000664501
0.000638211
0.00167533
0.00181234
0.00172348
0.00156752
0.00139862
0.00124141
0.00110382
0.00098718
0.000889854
0.000812092
0.000747093
0.000688709
0.000639218
0.000634736
0.000657737
0.000692206
0.000745582
0.000861704
0.00106506
0.001239
0.00133012
0.00136181
0.00137028
0.00137354
0.00137227
0.00136142
0.00134126
0.00128882
0.00120926
0.00117328
0.00219964
0.00236789
0.00230869
0.00215495
0.0019651
0.00177355
0.00159607
0.00143958
0.00130734
0.00120113
0.00110937
0.00103162
0.000966827
0.000955916
0.000974152
0.00100353
0.00105915
0.0012052
0.00146984
0.00170987
0.00185041
0.00191026
0.00192822
0.00192923
0.00192327
0.00190828
0.00188196
0.00181947
0.0017221
0.0016852
0.00262627
0.00279722
0.00276509
0.00262872
0.00243975
0.00223483
0.00203469
0.00185184
0.00169343
0.00156442
0.00145675
0.00136633
0.00129071
0.00126986
0.00127582
0.00129192
0.00134164
0.00150345
0.00181087
0.00210069
0.00229011
0.00238019
0.0024116
0.0024152
0.00240483
0.00238962
0.00236242
0.00229884
0.00219432
0.00215695
0.00297595
0.00313636
0.0031272
0.00301325
0.00283632
0.00263105
0.00242058
0.00222194
0.00204528
0.00190116
0.00178469
0.00168673
0.00160322
0.00156953
0.00155837
0.00155562
0.00159373
0.00176245
0.00208241
0.00241108
0.00264767
0.00277232
0.00282013
0.00283312
0.0028308
0.00281396
0.00278448
0.00272409
0.00262241
0.00258358
0.00326805
0.0034118
0.00341882
0.00332858
0.00316957
0.00297201
0.00275983
0.0025534
0.00236623
0.00221281
0.00209206
0.00199055
0.00190027
0.0018515
0.00182012
0.00179514
0.00181868
0.0019855
0.00230132
0.00264738
0.00292444
0.00308996
0.0031569
0.00318078
0.00318555
0.00318237
0.0031655
0.00310454
0.00300068
0.00295992
0.00350999
0.00363448
0.00365344
0.00358864
0.00345131
0.00326655
0.00305877
0.00285074
0.00266032
0.00250157
0.00237773
0.00227611
0.00217914
0.00211374
0.00206054
0.00201233
0.00202614
0.00218611
0.00249555
0.00284937
0.00314006
0.00333614
0.003426
0.00346098
0.00347559
0.00348243
0.00348242
0.00344126
0.00333971
0.00330257
0.00371176
0.00382597
0.00385198
0.00380477
0.00369006
0.00352161
0.0033226
0.00311787
0.00292814
0.00276947
0.00264229
0.00253955
0.002438
0.00235545
0.00227954
0.00220991
0.00221986
0.00236412
0.00266332
0.00302302
0.0033231
0.00352847
0.00363313
0.00367736
0.00370266
0.00372138
0.00373587
0.00371816
0.00362667
0.00359753
0.00389654
0.0039963
0.00402536
0.00399083
0.00389278
0.00374157
0.00355504
0.00335756
0.00317169
0.00301558
0.00288811
0.00278019
0.00267346
0.0025764
0.00247795
0.00239158
0.00239682
0.00251921
0.00280388
0.00316317
0.00346217
0.00367604
0.00379131
0.00384267
0.00386869
0.00390086
0.00393075
0.00394015
0.00386727
0.00384855
0.00406406
0.0041513
0.00418088
0.00415382
0.00406961
0.00393204
0.00375759
0.00357146
0.00339233
0.00323979
0.00311318
0.0030024
0.00288659
0.0027736
0.00265755
0.00256282
0.00255448
0.00265244
0.00291691
0.00325731
0.00354826
0.00376358
0.00389053
0.00394591
0.00398033
0.00402469
0.00406761
0.00409099
0.00406147
0.004058
0.00419584
0.00427594
0.00431173
0.00429882
0.0042247
0.00409971
0.00393638
0.00375995
0.00359039
0.00344249
0.00331695
0.00320364
0.00308042
0.0029526
0.00282158
0.00272584
0.00269424
0.00276484
0.00300231
0.00331042
0.00358674
0.00380711
0.00394442
0.00400605
0.00404264
0.00409533
0.00416058
0.00420544
0.00420368
0.00420901
0.00428859
0.00436838
0.00441452
0.00441968
0.00436192
0.00424699
0.00409454
0.00392724
0.00376693
0.00362418
0.00349989
0.00338451
0.00325345
0.00311374
0.00297405
0.0028781
0.00281749
0.00285871
0.00305716
0.0033289
0.00358932
0.00381351
0.00395745
0.00402594
0.00406654
0.00412458
0.00420834
0.00428235
0.00430965
0.00433552
0.00434549
0.00443202
0.004492
0.00451504
0.00447752
0.00437665
0.0042336
0.00407618
0.00392342
0.00378613
0.0036634
0.00354544
0.00340797
0.0032605
0.00312092
0.00301689
0.00292518
0.00293218
0.00308918
0.00331868
0.00356385
0.00378638
0.00393433
0.0040093
0.00405624
0.00412036
0.00421601
0.00432402
0.00438067
0.00443402
0.00437483
0.00447405
0.00455031
0.00459103
0.00457022
0.00448682
0.00435486
0.00420809
0.00406275
0.00393034
0.0038093
0.00368888
0.00354745
0.00339772
0.00326239
0.00313826
0.00301767
0.00298966
0.00310162
0.00328879
0.00351385
0.00373057
0.00388034
0.00396047
0.00401582
0.00408743
0.00419347
0.00432551
0.00442116
0.00450309
0.00437934
0.00449669
0.00459125
0.00464861
0.00464467
0.00457612
0.00445983
0.00432462
0.00418743
0.00405925
0.0039404
0.00381829
0.00367668
0.00352892
0.00339452
0.00324442
0.00309623
0.0030345
0.00309568
0.00324541
0.00344425
0.00365087
0.00380061
0.00388489
0.00394971
0.00403014
0.00414519
0.00429975
0.00443279
0.00454471
0.00436152
0.00450354
0.0046173
0.00468817
0.00470168
0.00464713
0.00454834
0.00442769
0.00429913
0.00417611
0.0040601
0.00393808
0.00379687
0.00365749
0.00351123
0.00333573
0.00316248
0.00306633
0.00307653
0.00318915
0.00336027
0.00355238
0.00370017
0.0037882
0.00386292
0.0039531
0.00407592
0.00424854
0.00441265
0.00456072
0.00432234
0.00449873
0.00462936
0.00471453
0.00474376
0.00470368
0.00462696
0.00451941
0.00440116
0.00428403
0.00416956
0.00404936
0.00391614
0.00377428
0.00360677
0.00341116
0.00321633
0.00308652
0.00305568
0.00311834
0.00326563
0.00344004
0.00358408
0.00367576
0.00376053
0.00386103
0.00399092
0.00417667
0.00436822
0.00455584
0.00426682
0.00446786
0.00463164
0.0047361
0.00478008
0.00475888
0.00469648
0.00460362
0.00449599
0.00438728
0.00427502
0.00415485
0.00402048
0.00386557
0.00367957
0.00346827
0.00325593
0.00309463
0.00302336
0.00304013
0.00315927
0.0033181
0.00345723
0.00355228
0.00364729
0.00375873
0.00389577
0.00409053
0.0043041
0.00453744
0.00420035
0.00441852
0.00460962
0.00474411
0.00481092
0.00481021
0.00475862
0.00467859
0.00457929
0.0044729
0.00435903
0.00423485
0.00409054
0.00392323
0.00372404
0.00350162
0.00327635
0.00309003
0.00298294
0.00296322
0.00304115
0.00319022
0.00332453
0.00342181
0.00352692
0.0036514
0.00379579
0.00399607
0.00422564
0.00448931
0.0041243
0.00435748
0.00457063
0.00472531
0.00480921
0.00483227
0.00479011
0.00471883
0.00462639
0.00452109
0.00440385
0.00427288
0.00411754
0.00393909
0.00372991
0.00350126
0.00326838
0.00306531
0.00292958
0.00288414
0.00292868
0.00305081
0.0031882
0.00329177
0.00340758
0.00354184
0.00369427
0.00389911
0.00413933
0.00441796
0.00404218
0.00428689
0.00450637
0.00466971
0.00478167
0.00481994
0.00478643
0.00472009
0.00463069
0.00452355
0.00439942
0.00425815
0.00408935
0.0038979
0.00368174
0.00345181
0.00321726
0.00300704
0.0028554
0.00279013
0.00281228
0.00291516
0.00304933
0.0031714
0.00329851
0.00344129
0.00360001
0.00380648
0.00404935
0.00432757
0.00395465
0.00419732
0.00441354
0.00459727
0.00472443
0.00476849
0.00474005
0.00467388
0.0045816
0.00446603
0.00432846
0.00417099
0.003986
0.00378049
0.00355969
0.00333444
0.00310589
0.00289932
0.0027453
0.00267046
0.00268548
0.00277269
0.00290531
0.00305107
0.00319892
0.00335126
0.00351961
0.00372298
0.00396235
0.00422769
0.00385121
0.004086
0.00431169
0.00450383
0.00462887
0.00466576
0.00463314
0.0045619
0.0044587
0.00432538
0.00416684
0.00398689
0.00378549
0.00356964
0.00334802
0.00313701
0.00292438
0.00273507
0.0025911
0.00251712
0.00252818
0.00261811
0.00276026
0.00292577
0.00308685
0.00325597
0.00343902
0.00364616
0.0038808
0.00412524
0.00374538
0.00397782
0.00419033
0.00436622
0.00447001
0.00448633
0.00443735
0.00434767
0.0042233
0.00406956
0.00389089
0.00369176
0.00348224
0.00327034
0.00306204
0.00287919
0.00269777
0.00253736
0.00241177
0.00234245
0.00234953
0.00243743
0.00259678
0.00278272
0.00295729
0.00314377
0.00334087
0.00355243
0.0037768
0.00399277
0.00361256
0.00382308
0.00400153
0.00414308
0.00420134
0.00418193
0.00410638
0.00399391
0.00385165
0.00368784
0.00350827
0.00331875
0.00312714
0.00294904
0.00278026
0.00264246
0.00250547
0.00238015
0.00227422
0.00220462
0.0021951
0.00226139
0.00241439
0.00259537
0.00277583
0.00297431
0.0031842
0.00340267
0.00362193
0.00381907
0.00337882
0.00355432
0.00367974
0.00376366
0.00377316
0.00372434
0.00363615
0.00352398
0.00339536
0.00325867
0.00311921
0.00298208
0.00285014
0.0027291
0.00262154
0.00253362
0.00243983
0.00234631
0.00225812
0.0021857
0.00215071
0.00217304
0.00227235
0.00239883
0.00254576
0.0027217
0.0029205
0.0031351
0.00334646
0.00353391
0.00301497
0.00313543
0.00321495
0.00326477
0.00326312
0.00322655
0.00317058
0.00310433
0.00303158
0.00295759
0.00288556
0.00281811
0.00275238
0.00268124
0.00261417
0.00255526
0.00248986
0.0024225
0.00235391
0.00229025
0.00224705
0.00223976
0.00228138
0.00234223
0.00241904
0.00252218
0.00265139
0.00280237
0.00296172
0.00311573
0.00274755
0.00282358
0.00288359
0.00293107
0.00295031
0.00294892
0.00293685
0.00291846
0.00289387
0.00286586
0.00282989
0.00279405
0.0027533
0.00271209
0.00266692
0.0026195
0.00257167
0.00252503
0.00247939
0.0024376
0.00240851
0.00240213
0.00242084
0.0024548
0.00249847
0.00255042
0.00261121
0.00267977
0.00275015
0.00281289
0.00276386
0.00280963
0.00284392
0.0028698
0.00288083
0.00288014
0.0028708
0.00285676
0.00283883
0.002823
0.00280428
0.00278294
0.00275358
0.00272091
0.00268595
0.0026541
0.00262757
0.00260662
0.00258758
0.0025738
0.00256818
0.00257146
0.00258705
0.00261308
0.002644
0.00267239
0.00269874
0.00272432
0.00275237
0.00277879
0.000259727
0.000260845
0.000252017
0.000240774
0.000227893
0.00021425
0.000200428
0.000186836
0.000173542
0.000160814
0.000148395
0.000136723
0.000125109
0.000117478
0.000114918
0.000120937
0.00013707
0.000161074
0.000176202
0.000186387
0.000192726
0.00019686
0.000199404
0.00020087
0.000201551
0.000201428
0.000201181
0.000199546
0.000200702
0.000203027
0.00124818
0.00134488
0.00126446
0.00112132
0.000980424
0.000858378
0.000757555
0.000674486
0.000604953
0.000547283
0.000493805
0.000436352
0.000393876
0.000436763
0.000522223
0.000623995
0.000747359
0.000899343
0.00101591
0.00108578
0.00111474
0.00111797
0.00110188
0.00108041
0.00105563
0.00102272
0.000979954
0.00091307
0.000831754
0.000770938
0.00209474
0.00231051
0.00224626
0.00207019
0.00186035
0.00165714
0.0014767
0.00132147
0.00118865
0.00107762
0.000976006
0.000869666
0.0007937
0.000871704
0.00100921
0.00116795
0.00137522
0.00163406
0.0018512
0.0019977
0.00207131
0.0020937
0.00207147
0.002032
0.00198194
0.00191428
0.00183422
0.00171524
0.00155973
0.00144687
0.00278057
0.003032
0.00300695
0.00284519
0.00261821
0.00237567
0.00214497
0.00193726
0.00175495
0.0016017
0.00146521
0.00132023
0.00122602
0.00132254
0.00148246
0.0016674
0.00192756
0.00226174
0.00255344
0.00276769
0.00288722
0.00293508
0.00291824
0.0028708
0.00280904
0.00272528
0.0026184
0.00245775
0.00225255
0.0021072
0.00335581
0.0036078
0.00361296
0.00347681
0.00325559
0.00299827
0.00273857
0.00249587
0.00227876
0.00209585
0.00193299
0.00177152
0.00166891
0.0017689
0.00193039
0.00212093
0.00240702
0.00278962
0.00313816
0.00340962
0.00357172
0.00364474
0.00364102
0.00359373
0.00352967
0.00344374
0.0033298
0.00314224
0.00289907
0.00272421
0.00384842
0.00408278
0.00411205
0.00400435
0.00379912
0.00354073
0.0032662
0.00300187
0.00276218
0.00256068
0.00238158
0.00221645
0.00211189
0.0022025
0.00235053
0.00253246
0.00282341
0.00322613
0.00361913
0.00394133
0.004142
0.004237
0.00425011
0.00420901
0.00414702
0.00406842
0.00395971
0.00377289
0.0035101
0.00330559
0.00427474
0.00448497
0.00453339
0.00445551
0.00427116
0.00401959
0.00373987
0.00346402
0.00321171
0.00300024
0.00281381
0.0026523
0.00254731
0.00261824
0.00274216
0.00290543
0.00318616
0.00358292
0.00400385
0.00437347
0.00461274
0.0047268
0.00475491
0.00472449
0.00466962
0.00459816
0.00450672
0.00433382
0.0040642
0.00384423
0.00464318
0.00483506
0.00489712
0.00484841
0.00468779
0.00444788
0.0041698
0.00389014
0.00363299
0.00341749
0.00323204
0.00307345
0.00296858
0.00301255
0.00310652
0.00324489
0.00350499
0.00389865
0.00434759
0.00474346
0.00499854
0.00512828
0.00516454
0.00514694
0.00510231
0.00504386
0.00496981
0.00482379
0.00456249
0.00433567
0.00498519
0.00516159
0.00522815
0.00519647
0.00505999
0.00483506
0.00456376
0.00428625
0.00402991
0.0038146
0.00363212
0.00347391
0.00337012
0.00338366
0.00344349
0.00355659
0.00379125
0.00418439
0.00461763
0.00502729
0.00531408
0.00545893
0.00549254
0.00547368
0.00544029
0.00540639
0.00536074
0.00524674
0.00501101
0.00478417
0.00530698
0.00546952
0.00553662
0.00551551
0.00539424
0.00518695
0.00492712
0.00465646
0.00440487
0.0041922
0.00401187
0.00385693
0.00374819
0.0037317
0.00375615
0.00384605
0.00404845
0.00441318
0.00482251
0.00523811
0.00554988
0.00570853
0.00575009
0.00573745
0.00570927
0.00567054
0.00562655
0.00555961
0.00539238
0.00519053
0.00560831
0.00576356
0.00582834
0.00581298
0.00570323
0.00550785
0.00526268
0.00500325
0.00475898
0.00454987
0.00437049
0.0042168
0.00410079
0.00405645
0.00404777
0.00411415
0.00427757
0.00459566
0.00498435
0.00539438
0.00572461
0.00589612
0.00594494
0.00593926
0.00592062
0.00589551
0.00585678
0.00579897
0.00567311
0.00553275
0.00586828
0.00602198
0.00609983
0.00609295
0.0059913
0.00580773
0.0055732
0.00532771
0.00509263
0.00488706
0.00470773
0.00455232
0.00442834
0.00435865
0.00432256
0.00435841
0.00447998
0.00474693
0.00510469
0.0054982
0.00583941
0.00602445
0.00608508
0.00608926
0.00607828
0.00606989
0.00605203
0.00600811
0.00591349
0.00581384
0.00609105
0.00624848
0.00634174
0.00635343
0.00626096
0.00608815
0.00586578
0.00563133
0.00540605
0.00520367
0.00502351
0.00486467
0.00473202
0.00464036
0.00458413
0.00457946
0.00465561
0.00486699
0.00518453
0.00555192
0.00589627
0.00609612
0.00617266
0.00619096
0.00619278
0.00619711
0.00620416
0.00618984
0.00612841
0.00607212
0.00626976
0.0064387
0.00655219
0.0065865
0.00651247
0.00635004
0.00614088
0.0059161
0.00569969
0.00550022
0.0053189
0.00515594
0.0050143
0.00490416
0.00482451
0.00477611
0.00480275
0.00495483
0.0052245
0.00555838
0.00589778
0.00611356
0.00620922
0.00624676
0.00626685
0.00628818
0.00631562
0.00633658
0.0063207
0.00630609
0.00641167
0.00659951
0.00673789
0.00679333
0.00673836
0.00659343
0.0063986
0.00618317
0.00597484
0.00577751
0.00559577
0.00542816
0.00527757
0.00515221
0.00503996
0.00494602
0.00491943
0.0050096
0.00522435
0.00552107
0.00584693
0.00607924
0.0061959
0.00625831
0.00630253
0.00634569
0.00639689
0.00645021
0.00648094
0.00651549
0.00652519
0.00673973
0.00690467
0.00698034
0.00694189
0.00681832
0.00663827
0.00643338
0.00623212
0.00603675
0.00585502
0.0056825
0.00552183
0.00537571
0.00522669
0.00508548
0.00500373
0.00503024
0.00518517
0.00544163
0.00574729
0.00599476
0.00613465
0.00622685
0.00630119
0.00637151
0.0064498
0.0065348
0.00661009
0.00668852
0.00661361
0.00686212
0.00705378
0.00714638
0.00712387
0.00702357
0.00685704
0.00666659
0.00647198
0.00627888
0.00609515
0.00591553
0.00574065
0.00556541
0.00537825
0.00518964
0.00505132
0.0050145
0.00510839
0.00532034
0.00560343
0.005862
0.00602736
0.00615334
0.00626376
0.00636686
0.00647591
0.00659435
0.00671044
0.00682902
0.00668286
0.00697127
0.00718621
0.00728894
0.00728922
0.00720508
0.00705742
0.00687987
0.00669453
0.00650382
0.00630961
0.00611721
0.00591794
0.00571114
0.00548532
0.00525049
0.0050572
0.00495879
0.00498792
0.00515892
0.00541723
0.00568302
0.00587569
0.00603866
0.00619086
0.00633154
0.00647554
0.00662949
0.00678524
0.00694234
0.00674146
0.00705513
0.00728876
0.00740968
0.00743889
0.00736908
0.00723643
0.0070677
0.00687913
0.00668363
0.00647859
0.00626815
0.00604022
0.00579925
0.00553488
0.00525714
0.00501435
0.00485658
0.00483025
0.00494238
0.00518666
0.00545989
0.00568068
0.00588334
0.00608188
0.00626399
0.00644703
0.00663837
0.00683266
0.00702865
0.00678272
0.00710766
0.00735363
0.00748717
0.00755539
0.00749869
0.00736645
0.00719965
0.00700919
0.00680497
0.00658435
0.00635007
0.0060892
0.0058116
0.00550983
0.00519401
0.00490895
0.00470179
0.00462734
0.00469784
0.00491282
0.00519288
0.00545605
0.00569734
0.00593495
0.00616108
0.0063876
0.00661688
0.00684678
0.00708648
0.00679465
0.00712145
0.00736622
0.0075304
0.00761503
0.00756421
0.00743447
0.00726289
0.0070639
0.0068456
0.00660363
0.00633951
0.00604249
0.00572691
0.00539064
0.00504367
0.00472567
0.00448398
0.0043732
0.00441123
0.00459775
0.00487706
0.00519565
0.00549878
0.00577431
0.00603512
0.00629535
0.00655803
0.00682581
0.00710609
0.00675737
0.00706909
0.00732122
0.00751345
0.00760169
0.00754877
0.00741311
0.0072302
0.0070157
0.00677658
0.00650925
0.0062104
0.00587691
0.00552539
0.00516069
0.00479383
0.00445499
0.0041917
0.00405788
0.00408269
0.00424316
0.00452149
0.00487766
0.00523418
0.00557479
0.00589288
0.00619266
0.00648516
0.00678505
0.00708374
0.00663956
0.00694976
0.00722116
0.00741271
0.00748736
0.00742103
0.00726973
0.00706763
0.00683068
0.0065657
0.00627153
0.00594116
0.00557721
0.00519964
0.00481755
0.00444898
0.00410556
0.00383473
0.00368972
0.00369803
0.00385587
0.00413121
0.00451437
0.00491272
0.00529324
0.00565331
0.00599738
0.00633766
0.00667166
0.00698968
0.0064498
0.00676679
0.00701834
0.00719084
0.0072331
0.00714058
0.00696489
0.00673825
0.00647692
0.0061886
0.00587439
0.00552871
0.00515239
0.00477013
0.00439243
0.00404659
0.00371884
0.00345793
0.00330879
0.00329767
0.00343586
0.00371372
0.00411237
0.00453202
0.00493813
0.0053316
0.00571725
0.00609403
0.00645731
0.00678253
0.00615502
0.00644913
0.00666371
0.00679531
0.00679072
0.00666472
0.00646431
0.00621895
0.0059451
0.00565165
0.00534054
0.00500774
0.00465596
0.00430193
0.00396117
0.00366288
0.00337346
0.00314746
0.00300981
0.00297527
0.00306509
0.00329794
0.00368074
0.00408317
0.00449077
0.0048996
0.00531108
0.00571529
0.00610075
0.00643333
0.00567626
0.0059349
0.0060997
0.00617313
0.00612662
0.00597917
0.00577437
0.00553787
0.00528467
0.00502276
0.00475323
0.00447255
0.00418361
0.0038965
0.00362219
0.00338385
0.00316733
0.0029911
0.00286812
0.00281176
0.00284605
0.00299449
0.00327634
0.00360867
0.00396871
0.00434927
0.00474891
0.0051562
0.00554794
0.00588596
0.00498433
0.00519576
0.00530903
0.00534765
0.00529325
0.00516502
0.00500032
0.00481849
0.00462977
0.00443931
0.0042459
0.00404607
0.00384131
0.00362928
0.003433
0.00326325
0.00310329
0.00296446
0.00285967
0.00279675
0.00279547
0.00287522
0.00303224
0.00323527
0.00349516
0.0037824
0.0041071
0.00445121
0.00480049
0.00512304
0.00422872
0.00438734
0.00448013