/*--------------------------------*- C++ -*----------------------------------*\
  =========                 |
  \\      /  F ield         | OpenFOAM: The Open Source CFD Toolbox
   \\    /   O peration     | Website:  https://openfoam.org
    \\  /    A nd           | Version:  12
     \\/     M anipulation  |
\*---------------------------------------------------------------------------*/
FoamFile
{
    format      ascii;
    class       volScalarField;
    location    "500/air";
    object      p_rgh;
}
// * * * * * * * * * * * * * * * * * * * * * * * * * * * * * * * * * * * * * //

dimensions      [1 -1 -2 0 0 0 0];

internalField   nonuniform List<scalar> 
243000
(
29.145
29.279
29.4026
29.3722
29.3086
29.225
29.1309
29.0355
28.9273
28.8164
28.6588
28.4749
28.1773
27.7719
27.3886
27.1501
27.0633
27.1434
27.2667
27.3937
27.5052
27.6214
27.665
27.6889
27.7804
27.9
28.0733
28.2719
28.5879
28.9442
29.1436
29.2741
29.414
29.388
29.3298
29.2479
29.154
29.0582
28.9485
28.8363
28.6766
28.4917
28.193
27.7869
27.4065
27.1695
27.0782
27.1529
27.2759
27.4026
27.5115
27.6274
27.6723
27.7008
27.7923
27.9109
28.0858
28.2849
28.598
28.9092
29.0814
29.2143
29.3447
29.3252
29.2835
29.2137
29.1336
29.0496
28.9464
28.8379
28.6784
28.4937
28.1943
27.789
27.4096
27.1743
27.08
27.1539
27.2783
27.406
27.5132
27.6257
27.6753
27.7095
27.8003
27.9173
28.0939
28.2945
28.6083
28.9025
28.9725
29.0962
29.2119
29.2071
29.1879
29.1376
29.0738
29.0019
28.9077
28.8052
28.6468
28.4614
28.1618
27.7664
27.3993
27.169
27.075
27.1441
27.2702
27.3987
27.5003
27.6024
27.6574
27.7047
27.801
27.9165
28.0929
28.2931
28.6005
28.8841
28.8397
28.945
29.05
29.0615
29.0651
29.0365
28.9915
28.9337
28.8506
28.7563
28.6001
28.4138
28.1152
27.7323
27.3798
27.1564
27.0652
27.1311
27.2548
27.3823
27.4793
27.574
27.6286
27.6801
27.782
27.8969
28.0696
28.2692
28.5665
28.8491
28.6829
28.7739
28.8745
28.9032
28.9274
28.9219
28.8968
28.8543
28.7837
28.6985
28.5461
28.3588
28.0623
27.6938
27.3566
27.1422
27.0547
27.1189
27.2391
27.3646
27.4577
27.5447
27.5969
27.6499
27.7499
27.862
28.0273
28.226
28.5089
28.7951
28.51
28.5916
28.6909
28.7365
28.7801
28.7958
28.7909
28.7645
28.7074
28.632
28.484
28.2963
28.0033
27.6508
27.3294
27.1262
27.0437
27.1072
27.223
27.3466
27.4365
27.5152
27.563
27.615
27.7094
27.8152
27.9679
28.1632
28.4286
28.7223
28.3282
28.4058
28.5056
28.5674
28.6285
28.6634
28.6769
28.6669
28.6239
28.5584
28.4154
28.228
27.9401
27.6049
27.2997
27.1093
27.033
27.0962
27.2077
27.3296
27.4168
27.4868
27.5287
27.578
27.6655
27.7614
27.8983
28.087
28.3294
28.6292
28.1449
28.2225
28.3238
28.4005
28.477
28.5294
28.5593
28.5646
28.5358
28.48
28.342
28.156
27.8748
27.5576
27.269
27.0922
27.0231
27.0864
27.1939
27.3153
27.3996
27.4614
27.497
27.5417
27.6209
27.7073
27.8251
28.0031
28.2196
28.5191
27.966
28.0465
28.1496
28.2398
28.3294
28.3973
28.442
28.4606
28.4456
28.399
28.2659
28.0824
27.8094
27.51
27.2387
27.0762
27.0147
27.0773
27.1822
27.3034
27.3853
27.44
27.4697
27.508
27.5781
27.6562
27.7545
27.9154
28.1062
28.3996
27.7966
27.8817
27.9864
28.0885
28.1891
28.2705
28.328
28.3584
28.3558
28.3173
28.1889
28.0092
27.7457
27.4639
27.2108
27.0623
27.0082
27.0691
27.1736
27.2929
27.3754
27.4243
27.4479
27.479
27.5393
27.6092
27.6896
27.8301
27.9948
28.277
27.641
27.731
27.8368
27.9492
28.059
28.1521
28.2205
28.2614
28.2688
28.2375
28.1136
27.9385
27.685
27.4209
27.1859
27.0506
27.0038
27.0644
27.1681
27.2854
27.3696
27.4147
27.4324
27.4564
27.5062
27.5683
27.6324
27.753
27.8913
28.1575
27.5023
27.5969
27.7034
27.8241
27.9415
28.0447
28.1223
28.1721
28.1873
28.1614
28.0418
27.872
27.6289
27.3822
27.1644
27.0414
27.0012
27.0629
27.1662
27.2841
27.3698
27.4118
27.4238
27.4413
27.4798
27.5352
27.5847
27.6864
27.7988
28.0447
27.3828
27.481
27.5879
27.7156
27.8387
27.9504
28.0358
28.0927
28.1135
28.091
27.9754
27.8112
27.579
27.3495
27.147
27.0354
27.0004
27.0637
27.1669
27.2862
27.3729
27.4146
27.4245
27.4352
27.4614
27.5091
27.5474
27.632
27.7204
27.9416
27.2847
27.3854
27.4923
27.6255
27.753
27.8715
27.9631
28.0253
28.0494
28.0281
27.9163
27.7579
27.537
27.3235
27.1343
27.0323
27.0011
27.0655
27.1687
27.29
27.3791
27.422
27.4312
27.4387
27.4558
27.491
27.5207
27.59
27.6586
27.8502
27.2103
27.3131
27.4192
27.5569
27.6872
27.811
27.9068
27.9725
27.9976
27.9754
27.8676
27.7146
27.5047
27.304
27.1261
27.0313
27.0031
27.0679
27.1712
27.2949
27.3879
27.4348
27.4444
27.4493
27.4606
27.4881
27.5068
27.561
27.6151
27.7746
27.1592
27.2621
27.3674
27.5073
27.6411
27.7711
27.8711
27.9379
27.9612
27.9361
27.8321
27.6831
27.4819
27.2912
27.1222
27.0323
27.0058
27.0702
27.1743
27.3005
27.3982
27.4514
27.4631
27.4668
27.4731
27.4945
27.509
27.5502
27.59
27.7198
27.1252
27.228
27.3333
27.4751
27.6121
27.7475
27.853
27.924
27.9419
27.9122
27.8115
27.6679
27.4734
27.2896
27.123
27.0345
27.0083
27.0722
27.1774
27.3063
27.4094
27.4708
27.4865
27.4904
27.4935
27.5095
27.5195
27.5542
27.5862
27.6868
27.1067
27.2109
27.3169
27.4603
27.6006
27.7408
27.8509
27.9246
27.9409
27.9119
27.8134
27.67
27.4764
27.2929
27.1257
27.0369
27.0095
27.0733
27.1799
27.3118
27.4207
27.4914
27.5132
27.5189
27.5209
27.5334
27.5401
27.567
27.5945
27.6766
27.1022
27.2094
27.3195
27.469
27.619
27.7712
27.886
27.9523
27.9576
27.9234
27.8252
27.6802
27.4852
27.2993
27.1296
27.0382
27.0087
27.0718
27.1809
27.316
27.4311
27.5117
27.5419
27.551
27.5541
27.5648
27.5702
27.5923
27.6141
27.6846
27.1267
27.2452
27.3673
27.5269
27.6844
27.8369
27.9448
27.9981
27.9929
27.9504
27.8472
27.6981
27.4991
27.3082
27.1336
27.0369
27.0035
27.0627
27.1772
27.3178
27.4397
27.5295
27.5707
27.585
27.5913
27.6025
27.6094
27.6302
27.6485
27.7076
27.1814
27.3141
27.447
27.6149
27.7762
27.9274
28.0238
28.0623
28.0466
27.994
27.8826
27.7237
27.5176
27.3187
27.1365
27.0322
26.9927
27.0474
27.1632
27.3143
27.4451
27.5435
27.598
27.6194
27.6303
27.6448
27.6564
27.6803
27.6997
27.7532
27.2598
27.4074
27.552
27.7285
27.8942
28.0402
28.1229
28.1458
28.1186
28.054
27.9306
27.7585
27.5408
27.3305
27.138
27.0226
26.975
27.0242
27.1391
27.2989
27.4461
27.5536
27.6208
27.6519
27.6685
27.6904
27.7096
27.7408
27.7664
27.8206
27.361
27.5253
27.6837
27.8683
28.0363
28.1749
28.2419
28.2482
28.2079
28.129
27.99
27.8014
27.5687
27.3431
27.1374
27.0077
26.9497
26.9918
27.1051
27.2692
27.4351
27.5585
27.636
27.6808
27.7035
27.7364
27.7673
27.8101
27.8472
27.9078
27.4848
27.6682
27.8425
28.0348
28.2032
28.3315
28.3802
28.3705
28.315
28.2187
28.0602
27.852
27.6013
27.3569
27.1338
26.9879
26.9172
26.9499
27.0603
27.2278
27.4069
27.5561
27.645
27.7031
27.7343
27.7806
27.8277
27.8871
27.9407
28.0139
27.6276
27.8343
28.0269
28.2272
28.3945
28.5101
28.5393
28.5136
28.4404
28.3232
28.1413
27.9099
27.6384
27.3725
27.1295
26.9645
26.8781
26.8982
27.0031
27.1723
27.3621
27.5331
27.6469
27.7149
27.7589
27.8186
27.8862
27.9665
28.0404
28.1341
27.8031
28.0326
28.2444
28.4512
28.6152
28.7174
28.7271
28.6838
28.5895
28.4471
28.2383
27.9804
27.6845
27.3954
27.1322
26.9471
26.8437
26.8475
26.9435
27.1105
27.3073
27.495
27.641
27.7226
27.7809
27.8596
27.9517
28.0587
28.162
28.2833
27.9456
28.2168
28.4636
28.6861
28.8439
28.9294
28.9201
28.8554
28.7344
28.5623
28.3244
28.0384
27.7155
27.4026
27.1107
26.9014
26.7761
26.7636
26.8474
27.0113
27.214
27.4206
27.5961
27.6993
27.7726
27.868
27.9752
28.1019
28.2318
28.3813
28.3612
28.6329
28.8711
29.0681
29.1961
29.2607
29.2346
29.1441
28.9913
28.785
28.5146
28.1973
27.846
27.5142
27.2081
26.9846
26.8461
26.8188
26.8856
27.0395
27.2413
27.4504
27.6351
27.7768
27.8978
28.047
28.207
28.3835
28.5628
28.7521
27.7233
28.1298
28.4987
28.8054
28.9791
29.0323
28.9789
28.8599
28.6763
28.4383
28.144
27.8012
27.4223
27.0632
26.7278
26.4731
26.3009
26.2485
26.293
26.4232
26.6119
26.8127
26.9927
27.1363
27.2551
27.383
27.5177
27.6728
27.8437
28.0486
28.392
28.2561
28.2848
28.2469
28.241
28.2503
28.2658
28.2829
28.2767
28.2586
28.1696
28.0349
27.7559
27.3787
27.0737
26.9501
26.9439
26.98
26.9986
27.1111
27.2472
27.3705
27.4184
27.4693
27.5677
27.6795
27.831
27.9598
28.1853
28.2845
28.3555
28.2097
28.2662
28.2492
28.2585
28.276
28.2948
28.3109
28.3029
28.2818
28.1878
28.0523
27.7731
27.3953
27.0927
26.9684
26.9604
26.9934
27.0143
27.1278
27.2655
27.391
27.4449
27.4934
27.5912
27.7015
27.8531
27.9801
28.209
28.308
28.2952
28.1428
28.2117
28.2085
28.2322
28.2583
28.2822
28.3012
28.2956
28.2773
28.1821
28.0451
27.763
27.3924
27.0949
26.974
26.9649
26.9946
27.0198
27.1367
27.2725
27.3951
27.4519
27.5033
27.6007
27.7094
27.8615
27.9861
28.2135
28.3119
28.1911
28.0539
28.1309
28.1439
28.1849
28.2231
28.2556
28.28
28.2791
28.2637
28.1678
28.0297
27.7466
27.3852
27.0949
26.9734
26.9603
26.9864
27.0116
27.1345
27.2633
27.3735
27.4326
27.4902
27.5899
27.6978
27.851
27.9767
28.1964
28.3092
28.0613
27.9536
28.0344
28.0618
28.1184
28.1689
28.2112
28.2425
28.2477
28.2371
28.1395
27.9975
27.7138
27.3655
27.0869
26.9677
26.9495
26.9736
26.9961
27.1195
27.2419
27.3439
27.4004
27.4586
27.5551
27.6623
27.8145
27.9442
28.1525
28.2906
27.9181
27.8467
27.9283
27.9693
28.0392
28.1017
28.154
28.1931
28.205
28.1997
28.1022
27.9568
27.674
27.3409
27.0748
26.9587
26.9354
26.9571
26.9789
27.1
27.2181
27.3114
27.3625
27.4194
27.5122
27.614
27.7593
27.8937
28.0862
28.2547
27.7698
27.7371
27.8175
27.8713
27.9525
28.026
28.0884
28.1354
28.1542
28.1545
28.0578
27.91
27.6297
27.3135
27.0604
26.9482
26.92
26.9402
26.966
27.083
27.1956
27.2801
27.323
27.3771
27.4653
27.5609
27.6945
27.833
28.0029
28.2033
27.6231
27.6274
27.7054
27.7717
27.8622
27.9459
28.0177
28.0725
28.0981
28.1034
28.0081
27.8591
27.5833
27.2851
27.0453
26.9379
26.9058
26.9254
26.9578
27.0743
27.179
27.253
27.286
27.3346
27.4176
27.5069
27.6269
27.7646
27.9114
28.136
27.4836
27.5186
27.5948
27.6735
27.772
27.8648
27.9451
28.0073
28.0393
28.0488
27.9551
27.8061
27.5368
27.2573
27.0309
26.9293
26.8935
26.9145
26.956
27.0751
27.1743
27.2335
27.2569
27.2965
27.3721
27.4546
27.5595
27.6942
27.8181
28.0581
27.353
27.4151
27.4894
27.5799
27.6847
27.7856
27.8735
27.9424
27.98
27.9928
27.9009
27.7531
27.4922
27.2316
27.0189
26.9232
26.8836
26.9076
26.9583
27.0801
27.1768
27.2238
27.2392
27.2684
27.3312
27.4071
27.4951
27.6261
27.7281
27.9749
27.2347
27.3197
27.3922
27.4936
27.6032
27.7113
27.8055
27.8803
27.9226
27.9377
27.8477
27.7024
27.4513
27.2096
27.0105
26.92
26.8773
26.9033
26.9646
27.0895
27.1833
27.2255
27.2322
27.2507
27.2997
27.366
27.4368
27.5622
27.644
27.8902
27.1309
27.2345
27.3057
27.4168
27.5301
27.6445
27.7439
27.8234
27.8692
27.8856
27.7975
27.6559
27.4159
27.1923
27.0065
26.9196
26.8753
26.9056
26.9753
27.1033
27.1947
27.233
27.2348
27.2459
27.2801
27.3341
27.3872
27.5046
27.5674
27.8067
27.0429
27.1616
27.232
27.3519
27.4677
27.5877
27.6912
27.7742
27.822
27.8383
27.7523
27.6153
27.3873
27.1816
27.0079
26.9227
26.8778
26.9137
26.9904
27.1212
27.2118
27.2489
27.2468
27.2517
27.2765
27.317
27.3507
27.4547
27.5013
27.7273
26.9726
27.1038
27.1727
27.2994
27.4179
27.5434
27.65
27.7349
27.7832
27.7979
27.7143
27.5824
27.3667
27.1821
27.0137
26.9294
26.8853
26.9272
27.0106
27.1438
27.2351
27.273
27.2686
27.2676
27.2833
27.3187
27.3356
27.4157
27.4489
27.655
26.9217
27.0586
27.1273
27.2572
27.3785
27.5089
27.6204
27.7081
27.7548
27.7665
27.6855
27.5589
27.3618
27.1876
27.0236
26.9404
26.8987
26.9463
27.0359
27.1707
27.2644
27.3048
27.3
27.2936
27.3005
27.3264
27.3385
27.3929
27.4143
27.5926
26.8899
27.0244
27.095
27.2267
27.3506
27.4854
27.601
27.6927
27.7392
27.7462
27.6679
27.5537
27.3663
27.1983
27.0375
26.9566
26.9177
26.9706
27.0656
27.2018
27.299
27.3435
27.3401
27.3298
27.3287
27.3461
27.3493
27.3943
27.4025
27.5438
26.8703
27.0017
27.0759
27.2091
27.3355
27.474
27.5932
27.6882
27.7363
27.74
27.6693
27.5594
27.3773
27.215
27.0558
26.9782
26.9419
26.9994
27.0982
27.2364
27.3381
27.3879
27.3879
27.3753
27.3667
27.3775
27.3705
27.4038
27.4077
27.5146
26.864
26.9913
27.0699
27.2049
27.3343
27.4801
27.6079
27.7091
27.7508
27.7475
27.6795
27.5728
27.3943
27.2367
27.0796
27.0055
26.9709
27.0319
27.1331
27.2739
27.3806
27.4371
27.442
27.4293
27.4153
27.42
27.4037
27.4258
27.4231
27.5103
26.884
27.0035
27.0893
27.2305
27.3707
27.5255
27.6538
27.7483
27.7793
27.7689
27.6998
27.5939
27.4186
27.2646
27.1098
27.0377
27.0037
27.0675
27.1699
27.3134
27.4258
27.4897
27.5007
27.491
27.4749
27.4747
27.4523
27.4653
27.4524
27.5215
26.9342
27.0591
27.1478
27.2949
27.44
27.5952
27.7179
27.801
27.8209
27.8031
27.7322
27.6253
27.4521
27.3006
27.1463
27.0743
27.0397
27.1047
27.2078
27.3538
27.4724
27.5445
27.5632
27.5586
27.5438
27.541
27.517
27.5241
27.5034
27.5549
27.0107
27.1413
27.2331
27.3855
27.5333
27.686
27.7994
27.8701
27.8793
27.8541
27.7793
27.6697
27.497
27.3448
27.1885
27.1146
27.0777
27.1419
27.2459
27.3944
27.5194
27.6004
27.6284
27.6304
27.6199
27.6192
27.5968
27.6009
27.5768
27.6167
27.1135
27.2494
27.3484
27.5052
27.6538
27.8004
27.9027
27.9597
27.9584
27.9247
27.8436
27.7281
27.5531
27.3968
27.2362
27.1578
27.1168
27.1787
27.2831
27.4342
27.5659
27.6575
27.6957
27.7055
27.7024
27.7062
27.69
27.6945
27.6722
27.706
27.2426
27.3845
27.4935
27.6539
27.8022
27.9407
28.0292
28.0701
28.058
28.0139
27.9247
27.8017
27.621
27.4575
27.2896
27.204
27.1567
27.2148
27.3186
27.4723
27.6111
27.7147
27.7639
27.7822
27.7899
27.8005
27.7954
27.8047
27.7899
27.8226
27.3979
27.5481
27.6691
27.8331
27.9786
28.106
28.1788
28.2022
28.1779
28.1217
28.0222
27.8905
27.7016
27.5282
27.3496
27.2537
27.1973
27.2495
27.3516
27.5081
27.655
27.7715
27.8326
27.8606
27.8812
27.9032
27.9121
27.931
27.9281
27.9655
27.5799
27.741
27.8766
28.0426
28.1832
28.2976
28.3528
28.3588
28.3218
28.252
28.1397
27.995
27.7972
27.6092
27.4172
27.3078
27.2389
27.2827
27.382
27.54
27.696
27.8284
27.9028
27.9436
27.9778
28.0145
28.041
28.0732
28.0859
28.1353
27.7888
27.9626
28.1175
28.2848
28.4182
28.5182
28.5547
28.5453
28.4943
28.4083
28.2801
28.1171
27.9058
27.702
27.4916
27.365
27.2827
27.3173
27.4117
27.5704
27.7351
27.8846
27.9756
28.0318
28.0824
28.1367
28.183
28.2319
28.2659
28.33
28.0408
28.2291
28.4007
28.567
28.6899
28.7745
28.7914
28.7651
28.6958
28.5889
28.4398
28.2551
28.0243
27.8081
27.5819
27.4409
27.3434
27.3674
27.4551
27.612
27.7824
27.9472
28.0574
28.1304
28.2026
28.2773
28.3461
28.4193
28.4801
28.5628
28.3133
28.5198
28.7058
28.8731
28.9846
29.0502
29.0465
29.0006
28.9103
28.7822
28.6149
28.4152
28.1701
27.9372
27.6982
27.5399
27.4249
27.4396
27.5194
27.6714
27.8449
28.0213
28.1506
28.24
28.3273
28.4215
28.5144
28.6117
28.6997
28.8033
28.7296
28.9392
29.13
29.2859
29.38
29.425
29.4058
29.3431
29.2353
29.0923
28.9092
28.6968
28.4482
28.2093
27.9685
27.8076
27.6847
27.6957
27.7696
27.9142
28.0837
28.2601
28.3987
28.4944
28.5888
28.694
28.8077
28.935
29.0597
29.185
29.462
29.643
29.8103
29.9486
30.0171
30.0353
29.9984
29.9172
29.7905
29.6268
29.4277
29.2105
28.9641
28.7428
28.5202
28.3777
28.2622
28.2709
28.3359
28.467
28.6229
28.7926
28.9371
29.0552
29.1763
29.3065
29.4439
29.5937
29.7495
29.9115
28.4636
28.041
27.995
27.8487
27.7967
27.7883
27.808
27.851
27.8771
27.9085
27.8638
27.7883
27.5179
27.1622
26.9025
26.7948
26.6998
26.6979
26.7058
26.7584
26.8101
26.8935
26.973
27.0829
27.2311
27.3913
27.5909
27.7514
28.0282
28.0908
28.3891
27.9495
27.9516
27.8469
27.8111
27.8191
27.8467
27.8911
27.9164
27.9444
27.8936
27.8132
27.5421
27.1852
26.9281
26.8228
26.7287
26.7248
26.7293
26.7802
26.8328
26.9172
26.9989
27.1113
27.2611
27.4212
27.622
27.7813
28.0642
28.1299
28.2946
27.8703
27.8935
27.8119
27.801
27.8183
27.8518
27.8993
27.9253
27.9521
27.8988
27.8172
27.5445
27.1928
26.9414
26.8388
26.7461
26.7416
26.7413
26.7885
26.8395
26.9231
27.0058
27.1201
27.2708
27.4303
27.6319
27.7889
28.0716
28.1369
28.1507
27.7651
27.8122
27.7597
27.7742
27.8064
27.8457
27.8963
27.9245
27.9545
27.9014
27.8189
27.5448
27.1974
26.9466
26.8425
26.748
26.7445
26.7396
26.7819
26.8267
26.9054
26.987
27.1051
27.2588
27.4191
27.6211
27.7786
28.0515
28.1369
27.978
27.6601
27.721
27.6956
27.7308
27.7767
27.8257
27.8809
27.9123
27.944
27.8876
27.8016
27.5256
27.1942
26.945
26.8398
26.7427
26.7399
26.7312
26.7684
26.8056
26.8765
26.9508
27.0617
27.2156
27.3769
27.5768
27.7379
27.9938
28.1099
27.7922
27.555
27.623
27.6227
27.6752
27.7338
27.7925
27.8532
27.8884
27.9223
27.8637
27.7719
27.4938
27.1791
26.9373
26.8323
26.7336
26.7321
26.7214
26.7534
26.7827
26.8443
26.9099
27.0119
27.1569
27.3166
27.5097
27.6762
27.9017
28.0635
27.601
27.4524
27.5222
27.5434
27.611
27.6815
27.7496
27.8162
27.8555
27.8916
27.8314
27.7346
27.4565
27.1598
26.9263
26.8218
26.7234
26.7247
26.7132
26.7408
26.7624
26.8137
26.8693
26.9608
27.0948
27.2465
27.4285
27.6028
27.7907
28.0093
27.4119
27.3517
27.4201
27.4614
27.5416
27.6231
27.6999
27.7725
27.8158
27.8539
27.7923
27.6916
27.4157
27.1384
26.9137
26.8109
26.7164
26.7221
26.7108
26.734
26.7479
26.7887
26.8326
26.9125
27.0336
27.1759
27.3443
27.5224
27.6746
27.9464
27.2347
27.2532
27.3187
27.3795
27.4699
27.5616
27.6463
27.7245
27.7717
27.8111
27.7485
27.6449
27.3736
27.1168
26.9015
26.8036
26.7152
26.7255
26.7151
26.7355
26.7432
26.7722
26.8034
26.87
26.9767
27.1083
27.2608
27.4412
27.5603
27.8684
27.0749
27.1566
27.2202
27.3003
27.3988
27.4997
27.5912
27.6746
27.7253
27.7653
27.7018
27.5966
27.3324
27.0967
26.8913
26.8018
26.7192
26.7333
26.7227
26.7422
26.7478
26.7668
26.7854
26.8371
26.9273
27.0469
27.1808
27.3633
27.452
27.7838
26.937
27.0683
27.129
27.227
27.3311
27.4401
27.5374
27.6252
27.6786
27.7186
27.6543
27.549
27.294
27.0797
26.8847
26.8046
26.7262
26.7443
26.7345
26.7547
26.7589
26.7727
26.7841
26.8192
26.8878
26.9948
27.1084
27.2903
27.3537
27.698
26.8251
26.9914
27.0484
27.1616
27.2694
27.3855
27.4873
27.5786
27.634
27.6731
27.6082
27.5043
27.2602
27.0673
26.8833
26.8117
26.7372
26.7594
26.7527
26.7752
26.7781
26.7878
26.792
26.8213
26.8686
26.9545
27.0504
27.2241
27.2679
27.6119
26.7346
26.9276
26.9801
27.1064
27.2161
27.3384
27.4433
27.5373
27.5935
27.631
27.5657
27.4646
27.2328
27.0644
26.8863
26.8243
26.7541
26.7808
26.778
26.804
26.8064
26.8128
26.8098
26.8311
26.8707
26.9361
27.0079
27.1673
27.1977
27.5285
26.6648
26.8727
26.9241
27.0592
27.1711
27.2991
27.4082
27.5038
27.5594
27.5942
27.5288
27.4316
27.2131
27.0677
26.8942
26.8438
26.7773
26.8086
26.8102
26.8403
26.8433
26.8478
26.8383
26.851
26.8811
26.9386
26.9872
27.1221
27.1448
27.4515
26.6171
26.8273
26.8804
27.0202
27.1347
27.2673
27.3805
27.4797
27.5335
27.5648
27.4999
27.4075
27.2082
27.0755
26.9083
26.8703
26.8068
26.8427
26.8488
26.8837
26.8881
26.8922
26.8774
26.8822
26.9009
26.9493
26.9892
27.0944
27.1114
27.3836
26.5884
26.7924
26.8477
26.9907
27.1078
27.2444
27.361
27.4636
27.5178
27.5447
27.4808
27.3986
27.212
27.0891
26.9298
26.904
26.8426
26.883
26.8932
26.9336
26.9403
26.9453
26.9267
26.9243
26.9324
26.9693
27.0015
27.09
27.0999
27.3277
26.5725
26.7684
26.8278
26.9723
27.0916
27.2316
27.3512
27.4564
27.5119
27.5364
27.4776
27.4023
27.2213
27.1106
26.9589
26.9445
26.8844
26.9292
26.9428
26.9887
26.999
27.0061
26.9858
26.9765
26.9751
27.0021
27.0239
27.0987
27.1065
27.2897
26.5688
26.7568
26.8198
26.9655
27.0872
27.2306
27.3544
27.4645
27.5202
27.54
27.4836
27.4125
27.2374
27.1412
26.9957
26.9913
26.932
26.9807
26.9973
27.0481
27.0628
27.0734
27.0533
27.0382
27.0287
27.0473
27.06
27.1178
27.1246
27.2765
26.586
26.7594
26.8317
26.9798
27.1082
27.259
27.3872
27.4949
27.5423
27.5549
27.4988
27.4316
27.2647
27.1811
27.0401
27.0442
26.9849
27.0367
27.0561
27.1112
27.1309
27.1457
27.1276
27.1084
27.0931
27.1047
27.1101
27.1549
27.1553
27.2836
26.6305
26.7962
26.8813
27.0297
27.1643
27.3162
27.4402
27.5409
27.5784
27.584
27.5279
27.4638
27.3035
27.2305
27.0921
27.104
27.0434
27.0966
27.1183
27.1772
27.202
27.2214
27.2068
27.1862
27.167
27.1736
27.1747
27.2099
27.2047
27.3072
26.7
26.8661
26.9553
27.1065
27.2434
27.3939
27.5115
27.6021
27.63
27.6288
27.5714
27.5094
27.3548
27.29
27.1527
27.1715
27.107
27.16
27.1829
27.2448
27.2747
27.2995
27.2887
27.2701
27.2496
27.2537
27.2535
27.2825
27.276
27.357
26.7945
26.9585
27.0531
27.2068
27.3446
27.4916
27.6007
27.68
27.6979
27.6904
27.631
27.5696
27.4196
27.3606
27.2231
27.2459
27.1753
27.2269
27.2495
27.3133
27.3479
27.3786
27.3723
27.3581
27.3399
27.3443
27.3455
27.3711
27.3667
27.4344
26.9126
27.0738
27.1753
27.3311
27.4688
27.6094
27.709
27.7756
27.7836
27.7698
27.7079
27.6458
27.4998
27.4432
27.3039
27.327
27.2491
27.2972
27.3178
27.3822
27.4209
27.4576
27.4567
27.4485
27.4367
27.4443
27.4502
27.4758
27.4771
27.5374
27.0527
27.2123
27.3232
27.4798
27.6161
27.7483
27.8371
27.891
27.8901
27.8698
27.8045
27.7394
27.5964
27.5382
27.395
27.4154
27.3291
27.3704
27.3859
27.4497
27.4928
27.536
27.5412
27.5401
27.5389
27.5529
27.5669
27.5971
27.607
27.6653
27.2156
27.3753
27.4976
27.6545
27.7878
27.9107
27.9875
28.0283
28.0199
27.9922
27.9219
27.8508
27.7075
27.6445
27.4947
27.5121
27.4105
27.4416
27.4502
27.5128
27.5608
27.6121
27.627
27.634
27.6458
27.6707
27.6965
27.7352
27.7564
27.8185
27.404
27.5655
27.7007
27.8576
27.9859
28.098
28.1618
28.188
28.1708
28.1334
28.0558
27.9764
27.828
27.7595
27.6
27.6085
27.49
27.5109
27.5116
27.5727
27.6257
27.6851
27.7134
27.7336
27.7592
27.7997
27.8407
27.8917
27.9271
27.9966
27.6256
27.7909
27.9356
28.089
28.2093
28.3066
28.3548
28.3641
28.3355
28.2855
28.1978
28.1088
27.9551
27.8774
27.707
27.7097
27.5801
27.5941
27.5841
27.6412
27.6964
27.7621
27.8014
27.8379
27.8834
27.94
28.0003
28.0689
28.1236
28.2038
27.8707
28.0379
28.1857
28.3305
28.4402
28.5198
28.5498
28.5423
28.5006
28.4374
28.3404
28.2451
28.0819
28.0004
27.8273
27.8412
27.7056
27.7134
27.6906
27.7392
27.7889
27.854
27.896
27.9431
28.0056
28.0815
28.1657
28.2564
28.3323
28.4257
28.1264
28.2884
28.433
28.5638
28.6593
28.7212
28.7334
28.7119
28.6578
28.5833
28.4814
28.3781
28.2143
28.1347
27.9637
27.9916
27.8522
27.8574
27.824
27.8662
27.9116
27.9773
28.0259
28.0806
28.1458
28.2306
28.3255
28.4298
28.5356
28.6535
28.4021
28.5451
28.6764
28.7919
28.8737
28.9206
28.9192
28.8878
28.8252
28.7426
28.6212
28.5031
28.3427
28.2756
28.1175
28.1729
28.0395
28.0494
28.0109
28.0481
28.0867
28.1495
28.2017
28.2634
28.3369
28.4285
28.5373
28.6644
28.7905
28.9141
28.4462
27.7393
27.624
27.3668
27.2391
27.2153
27.2432
27.3213
27.3909
27.4931
27.4968
27.5045
27.2531
26.8904
26.6134
26.4629
26.3401
26.3046
26.299
26.3487
26.3729
26.4316
26.5057
26.6247
26.785
26.961
27.1901
27.3676
27.7244
27.7701
28.299
27.5731
27.5337
27.327
27.2421
27.2374
27.2815
27.3659
27.4375
27.5368
27.5351
27.5367
27.2775
26.9119
26.6427
26.4918
26.3639
26.3145
26.3017
26.3516
26.3809
26.4468
26.5267
26.6501
26.8141
26.9919
27.2241
27.4009
27.7662
27.8134
28.1331
27.4623
27.4465
27.2764
27.2277
27.242
27.2984
27.3868
27.4584
27.5527
27.547
27.5443
27.2826
26.9219
26.6555
26.5056
26.3737
26.3126
26.2923
26.3403
26.3702
26.4427
26.5287
26.6553
26.8216
26.9998
27.2331
27.406
27.7696
27.8037
27.9176
27.3249
27.3397
27.212
27.2024
27.2356
27.3
27.3966
27.4695
27.5638
27.5557
27.55
27.2848
26.9259
26.6563
26.5031
26.3676
26.3002
26.2731
26.3166
26.3447
26.4145
26.4973
26.6305
26.8026
26.9837
27.217
27.3894
27.7349
27.7812
27.6815
27.1906
27.2311
27.1455
27.1675
27.2193
27.2914
27.3916
27.4652
27.5604
27.5526
27.5444
27.2717
26.9207
26.648
26.4926
26.354
26.2832
26.25
26.288
26.3124
26.3772
26.4541
26.5796
26.7515
26.9346
27.1645
27.3388
27.6458
27.7432
27.4322
27.066
27.122
27.0771
27.125
27.1945
27.2752
27.3796
27.4543
27.55
27.5398
27.5231
27.2425
26.904
26.6343
26.4783
26.3378
26.2659
26.2273
26.2595
26.2787
26.3367
26.406
26.5226
26.6853
26.8675
27.0887
27.2697
27.5264
27.6975
27.1841
26.9542
27.0155
27.0085
27.0773
27.1626
27.2528
27.3618
27.438
27.5319
27.5191
27.4936
27.2076
26.8836
26.6178
26.4638
26.3223
26.2524
26.2085
26.2351
26.2481
26.298
26.3578
26.4641
26.6155
26.7913
26.9999
27.1908
27.3953
27.6423
26.9508
26.8526
26.9138
26.9398
27.0263
27.126
27.2255
27.3393
27.4174
27.5077
27.4919
27.4576
27.1689
26.8618
26.601
26.4515
26.3111
26.2457
26.1968
26.2182
26.2243
26.2652
26.3138
26.408
26.5458
26.712
26.9064
27.1068
27.2606
27.5791
26.7359
26.759
26.8166
26.8733
26.9741
27.0871
27.1948
27.3134
27.3926
27.4791
27.46
27.4171
27.1288
26.8405
26.5859
26.4439
26.3053
26.2444
26.1929
26.2107
26.2109
26.242
26.2783
26.3586
26.4803
26.6353
26.8123
27.0212
27.1284
27.5049
26.5537
26.6701
26.7247
26.8113
26.923
27.047
27.1623
27.2854
27.3649
27.4477
27.4252
27.3743
27.0894
26.8216
26.5741
26.4416
26.3024
26.2504
26.1956
26.2115
26.2077
26.2305
26.2548
26.3202
26.4233
26.5658
26.7221
26.9398
27.0061
27.4209
26.4096
26.5941
26.6429
26.7565
26.8741
27.0076
27.1296
27.2567
27.3361
27.4153
27.3894
27.3313
27.0527
26.8065
26.5674
26.4442
26.3024
26.2618
26.2044
26.2198
26.2131
26.2322
26.2459
26.2953
26.3778
26.5065
26.6436
26.8639
26.8997
27.3347
26.2946
26.5301
26.5728
26.7073
26.8283
26.9705
27.0981
27.2287
27.3082
27.3836
27.3544
27.2907
27.0206
26.8001
26.5675
26.4523
26.3103
26.2796
26.2203
26.2365
26.2274
26.2428
26.2508
26.2938
26.3535
26.4619
26.5796
26.7952
26.8105
27.2474
26.2053
26.4737
26.5141
26.6639
26.7878
26.937
27.0693
27.2027
27.2827
27.3544
27.322
27.2545
26.9947
26.8021
26.5713
26.4667
26.3243
26.3042
26.2442
26.2621
26.2516
26.2642
26.2653
26.3018
26.3537
26.4412
26.5322
26.7351
26.7397
27.1625
26.1417
26.4252
26.4674
26.6267
26.7533
26.9082
27.0443
27.1801
27.2615
27.3293
27.294
27.2248
26.9785
26.8089
26.5811
26.488
26.3446
26.3356
26.2762
26.2966
26.2858
26.2966
26.2905
26.3185
26.3627
26.4427
26.5079
26.6858
26.6882
27.0833
26.1024
26.3854
26.4303
26.5965
26.7258
26.8851
27.0245
27.1622
27.2452
27.3099
27.2721
27.2031
26.9761
26.8207
26.5976
26.5165
26.3715
26.3732
26.3161
26.3399
26.3297
26.3397
26.3267
26.3464
26.3809
26.4526
26.5089
26.6547
26.6583
27.013
26.0825
26.3549
26.4035
26.5743
26.7059
26.8687
27.0108
27.1501
27.2343
27.2976
27.2581
27.1967
26.9806
26.8404
26.6211
26.5523
26.4053
26.4166
26.3632
26.3914
26.3826
26.3929
26.3737
26.3863
26.4111
26.4712
26.52
26.6458
26.6507
26.9547
26.0744
26.3339
26.3883
26.5611
26.6948
26.8601
27.0042
27.1446
27.2298
27.2939
27.2554
27.2005
26.9912
26.8689
26.6517
26.5955
26.4456
26.4658
26.4162
26.45
26.4436
26.4552
26.4311
26.4376
26.4535
26.5016
26.5422
26.6522
26.6588
26.9105
26.0798
26.324
26.3839
26.5571
26.6924
26.8594
27.0065
27.1499
27.2369
27.3004
27.2613
27.2116
27.0094
26.9062
26.6898
26.6458
26.4924
26.5209
26.474
26.5141
26.511
26.5252
26.4983
26.4992
26.5079
26.5457
26.5756
26.6691
26.6791
26.8868
26.1098
26.3282
26.4002
26.5724
26.7125
26.8833
27.0346
27.18
27.2622
27.3191
27.2781
27.2321
27.0388
26.9531
26.7358
26.7036
26.5456
26.5817
26.5358
26.5822
26.5834
26.6014
26.5739
26.5697
26.5736
26.6034
26.6256
26.7003
26.7117
26.8882
26.1613
26.3627
26.4504
26.6192
26.7651
26.9378
27.0879
27.2267
27.3006
27.3503
27.3075
27.2654
27.0798
27.01
26.7903
26.7693
26.6053
26.6476
26.6013
26.653
26.6595
26.6816
26.6556
26.6482
26.6491
26.6731
26.69
26.7509
26.7585
26.9047
26.2359
26.43
26.5254
26.6937
26.8411
27.0112
27.1564
27.2877
27.3525
27.3951
27.3508
27.3123
27.1336
27.078
26.8542
26.8436
26.6726
26.7176
26.6698
26.7259
26.7377
26.7637
26.742
26.7334
26.7332
26.754
26.7688
26.8201
26.8271
26.9433
26.3336
26.5196
26.6205
26.7872
26.9355
27.1015
27.2406
27.3633
27.4192
27.455
27.4095
27.3745
27.2016
27.1578
26.9285
26.9278
26.746
26.7916
26.7403
26.7993
26.8163
26.8468
26.8314
26.8246
26.8251
26.8453
26.8609
26.9063
26.9159
27.0087
26.4531
26.6295
26.7363
26.9009
27.0488
27.2098
27.341
27.4543
27.5022
27.5316
27.4854
27.4537
27.2851
27.2506
27.0141
27.0228
26.8236
26.8683
26.8115
26.8722
26.8938
26.9294
26.9212
26.9204
26.9242
26.9465
26.9659
27.0084
27.0226
27.1016
26.5928
26.7601
26.8738
27.0361
27.1821
27.3357
27.459
27.5626
27.603
27.6262
27.5795
27.5503
27.3846
27.3562
27.111
27.1236
26.9053
26.9466
26.8825
26.9437
26.9698
27.0105
27.0112
27.02
27.0293
27.0565
27.0832
27.1271
27.148
27.2194
26.7528
26.9128
27.0339
27.1935
27.336
27.4808
27.5956
27.6893
27.7223
27.7391
27.6914
27.663
27.4985
27.4728
27.216
27.2289
26.991
27.0278
26.9542
27.0145
27.0444
27.0911
27.1008
27.1207
27.142
27.1755
27.2129
27.2624
27.2924
27.3617
26.9352
27.0897
27.2182
27.3732
27.5103
27.6451
27.7504
27.8332
27.8579
27.8671
27.8173
27.7872
27.6221
27.5966
27.323
27.3433
27.0829
27.1146
27.0297
27.0877
27.1201
27.1726
27.1911
27.2223
27.2589
27.3059
27.3537
27.4141
27.4562
27.5279
27.1415
27.292
27.4247
27.572
27.701
27.8239
27.9179
27.9877
28.0027
28.0027
27.9489
27.9158
27.7506
27.7197
27.4346
27.4668
27.1849
27.2128
27.1154
27.1698
27.2022
27.2595
27.2868
27.3285
27.376
27.4405
27.5062
27.5785
27.6378
27.7158
27.3643
27.5089
27.6406
27.7771
27.8957
28.0049
28.0865
28.1415
28.1452
28.1363
28.0771
28.0425
27.8732
27.8402
27.5463
27.6029
27.3037
27.33
27.2199
27.2695
27.2985
27.3578
27.3919
27.4432
27.501
27.574
27.6562
27.748
27.8266
27.9156
27.5801
27.7203
27.8479
27.9716
28.0763
28.1713
28.2403
28.2798
28.2736
28.2561
28.193
28.1582
27.9788
27.9572
27.6622
27.7488
27.4369
27.4702
27.3503
27.3957
27.4188
27.4763
27.5142
27.5706
27.6351
27.7156
27.8064
27.9076
28.0003
28.1041
27.7886
27.9068
28.0269
28.1393
28.231
28.3114
28.3681
28.3944
28.3805
28.3559
28.2862
28.2421
28.0644
28.0621
27.7787
27.9071
27.5936
27.6406
27.5159
27.5586
27.5775
27.631
27.6716
27.7309
27.7978
27.8802
27.9753
28.0846
28.1972
28.304
28.6615
27.7079
27.5324
27.1679
26.9582
26.8965
26.9063
26.996
27.084
27.237
27.2748
27.4038
27.1708
26.7882
26.4869
26.3668
26.2844
26.3377
26.3294
26.3331
26.2523
26.2187
26.2224
26.3137
26.4593
26.6378
26.8922
27.0961
27.5568
27.6136
28.4468
27.465
27.3996
27.0953
26.947
26.91
26.9436
27.0444
27.137
27.289
27.3231
27.4456
27.1947
26.8126
26.5143
26.3837
26.2801
26.3054
26.2894
26.2951
26.2283
26.2095
26.2257
26.3265
26.4795
26.6631
26.9242
27.1298
27.6024
27.6608
28.2143
27.3115
27.2815
27.0271
26.9252
26.9157
26.9681
27.0745
27.168
27.3147
27.3442
27.455
27.2006
26.8255
26.5285
26.3931
26.2703
26.27
26.2416
26.2501
26.1926
26.181
26.1989
26.3132
26.4804
26.6676
26.9322
27.135
27.6025
27.6347
27.9233
27.1379
27.1437
26.9401
26.891
26.9105
26.9782
27.0955
27.1893
27.3348
27.3606
27.4612
27.2019
26.8294
26.5265
26.3869
26.2479
26.2333
26.1924
26.1979
26.145
26.1375
26.1543
26.2642
26.4407
26.6384
26.9062
27.1104
27.5482