/*--------------------------------*- C++ -*----------------------------------*\
  =========                 |
  \\      /  F ield         | OpenFOAM: The Open Source CFD Toolbox
   \\    /   O peration     | Website:  https://openfoam.org
    \\  /    A nd           | Version:  12
     \\/     M anipulation  |
\*---------------------------------------------------------------------------*/
FoamFile
{
    format      ascii;
    class       volScalarField;
    location    "700/air";
    object      alphat;
}
// * * * * * * * * * * * * * * * * * * * * * * * * * * * * * * * * * * * * * //

dimensions      [1 -1 -1 0 0 0 0];

internalField   nonuniform List<scalar> 
243000
(
0.000203971
0.000206522
0.000202862
0.000196342
0.000188274
0.000179289
0.000169986
0.000160861
0.000152242
0.00014443
0.000137592
0.000132095
0.000128118
0.000125847
0.000124854
0.000124409
0.000123971
0.000123332
0.000122451
0.000121318
0.000119965
0.000118597
0.000116936
0.000112544
0.000103324
9.78904e-05
0.00011797
0.000130294
0.000140333
0.000151835
0.00075451
0.000774039
0.000760384
0.000732639
0.000699345
0.000663572
0.000627546
0.000592757
0.000560143
0.000530434
0.000504141
0.000482092
0.000464039
0.000449697
0.000437267
0.000425565
0.000414757
0.000405488
0.000397877
0.000391764
0.000386834
0.000383043
0.000379922
0.000372736
0.00035283
0.00034262
0.000425421
0.000491933
0.000542884
0.000597774
0.000975159
0.00104378
0.00107074
0.00107278
0.00106282
0.00104487
0.00102177
0.000995635
0.000967944
0.000940006
0.000912994
0.000888498
0.000866114
0.000845304
0.000822745
0.000796918
0.000769107
0.00074179
0.000715884
0.000691486
0.000668201
0.000645583
0.000622419
0.000594139
0.000549781
0.000510059
0.000582079
0.00067348
0.0007294
0.000780494
0.00102097
0.00109693
0.00113086
0.00113637
0.00112868
0.00111246
0.00109057
0.0010652
0.00103789
0.00101004
0.000982815
0.000957766
0.000934526
0.000912358
0.000887588
0.000858696
0.000827235
0.000796209
0.000766847
0.000739439
0.000713548
0.000688374
0.000662135
0.000632094
0.000589253
0.000543333
0.000575392
0.000690609
0.000760898
0.000823268
0.00104647
0.00112826
0.00116765
0.00117713
0.00117243
0.00115882
0.00113912
0.00111552
0.00108958
0.00106278
0.00103626
0.00101156
0.000988444
0.000965987
0.000940191
0.000909589
0.00087591
0.000842414
0.000810595
0.000780915
0.000752947
0.000725721
0.000697038
0.000665203
0.000623489
0.000574042
0.000564211
0.000691745
0.000779651
0.000851855
0.00105971
0.00114258
0.00118883
0.00120248
0.0012012
0.00119066
0.00117368
0.00115241
0.0011284
0.00110319
0.00107792
0.00105413
0.00103173
0.00100959
0.000983457
0.000951962
0.000917038
0.000881935
0.000848403
0.000817061
0.00078753
0.000758758
0.000728283
0.000694956
0.000654022
0.000603595
0.000574596
0.000673075
0.00078753
0.000869905
0.00106315
0.00114554
0.00119725
0.00121662
0.00121912
0.00121194
0.001198
0.00117937
0.00115762
0.00113433
0.00111064
0.00108815
0.00106683
0.00104539
0.00101935
0.00098753
0.000952014
0.000915934
0.000881265
0.000848749
0.000818092
0.000788206
0.000756458
0.000722038
0.000681597
0.000631568
0.000589371
0.000645652
0.000787758
0.000879619
0.00105953
0.00114125
0.00119631
0.00122212
0.00122882
0.00122523
0.0012145
0.00119871
0.0011794
0.00115823
0.00113636
0.00111542
0.00109542
0.00107492
0.00104927
0.00101753
0.000981885
0.00094532
0.000909955
0.000876668
0.000845242
0.000814595
0.000781968
0.000746846
0.000706757
0.00065768
0.000608434
0.00062119
0.000780402
0.000882573
0.00105048
0.00113184
0.0011897
0.00122045
0.00123195
0.00123223
0.00122485
0.00121201
0.00119526
0.00117633
0.00115643
0.00113721
0.00111868
0.00109926
0.00107422
0.00104289
0.00100743
0.000970803
0.000935098
0.000901362
0.000869469
0.000838341
0.000805132
0.00076965
0.000729906
0.000681967
0.000628956
0.000606463
0.000766239
0.000879736
0.00103674
0.00111828
0.00117874
0.00121393
0.00122996
0.0012342
0.00123028
0.00122044
0.00120629
0.00118966
0.00117184
0.00115445
0.00113746
0.00111921
0.00109497
0.00106428
0.00102928
0.000992919
0.000957178
0.00092327
0.000891161
0.000859785
0.000826212
0.000790665
0.000751334
0.000704553
0.000650417
0.000614206
0.00074224
0.00087259
0.00101907
0.00110121
0.00116425
0.00120346
0.00122424
0.00123226
0.00123179
0.00122481
0.0012133
0.00119902
0.00118332
0.00116783
0.00115243
0.00113538
0.00111208
0.00108223
0.00104793
0.00101207
0.000976597
0.00094275
0.000910644
0.0008792
0.000845436
0.000810075
0.000771259
0.000725612
0.000671708
0.000627316
0.000716871
0.000863383
0.00100132
0.00108132
0.00114682
0.0011899
0.00121527
0.00122711
0.00123005
0.0012261
0.00121694
0.00120499
0.00119145
0.00117789
0.00116409
0.00114826
0.00112601
0.00109717
0.00106376
0.00102861
0.000993657
0.000960097
0.000928169
0.000896819
0.000863015
0.000828056
0.000789847
0.000745142
0.000691942
0.000640891
0.000694393
0.000852464
0.000982382
0.00106116
0.00112704
0.00117385
0.00120352
0.00121932
0.00122554
0.00122463
0.00121803
0.00120811
0.00119669
0.00118503
0.00117283
0.00115824
0.00113711
0.00110942
0.00107708
0.00104284
0.0010086
0.000975556
0.000943963
0.000912853
0.000879152
0.000844777
0.000807246
0.000763405
0.000711117
0.000656279
0.000676406
0.000840325
0.000961771
0.00104102
0.00110632
0.0011558
0.0011894
0.00120931
0.0012187
0.00122074
0.00121672
0.00120904
0.00119944
0.00118962
0.00117897
0.00116562
0.0011457
0.00111928
0.00108817
0.00105501
0.00102165
0.000989303
0.000958233
0.000927495
0.000894042
0.000860411
0.000823575
0.000780617
0.000729307
0.000672249
0.00066387
0.000827407
0.000938917
0.00102051
0.00108633
0.00113629
0.0011734
0.0011973
0.00120989
0.00121472
0.00121328
0.00120781
0.00120019
0.00119195
0.0011828
0.00117068
0.00115201
0.00112697
0.00109724
0.00106533
0.00103302
0.00100152
0.000971151
0.000940929
0.000908008
0.00087512
0.000839033
0.000796915
0.000746571
0.00068887
0.000657451
0.000813851
0.000913233
0.000999303
0.00106668
0.00111731
0.00115596
0.00118353
0.00119937
0.00120684
0.00120794
0.00120467
0.00119894
0.0011924
0.00118453
0.00117365
0.0011563
0.00113273
0.00110451
0.001074
0.0010429
0.0010124
0.000982886
0.000953333
0.000921185
0.000889037
0.000853704
0.000812406
0.000762987
0.000705067
0.000662294
0.000797769
0.000883911
0.000977013
0.00104706
0.00109886
0.00113757
0.00116828
0.00118739
0.00119739
0.00120086
0.00119978
0.00119595
0.00119099
0.00118455
0.00117477
0.00115876
0.00113676
0.00111019
0.00108123
0.00105147
0.00102213
0.000993624
0.000964878
0.000933602
0.000902259
0.000867713
0.000827231
0.000778683
0.00072107
0.00067306
0.000780968
0.000847538
0.000953122
0.00102723
0.00108076
0.00112021
0.00115187
0.00117415
0.00118656
0.00119224
0.00119332
0.00119134
0.00118797
0.0011828
0.00117425
0.00115962
0.00113929
0.00111448
0.0010872
0.00105893
0.00103088
0.00100353
0.000975739
0.000945395
0.000914922
0.000881218
0.000841557
0.000793818
0.000736631
0.000684941
0.000767139
0.000803771
0.000926974
0.00100703
0.00106288
0.00110337
0.00113472
0.0011598
0.00117455
0.00118231
0.00118541
0.00118528
0.00118348
0.00117957
0.00117222
0.00115907
0.00114053
0.00111759
0.00109212
0.00106547
0.00103885
0.00101277
0.000986073
0.00095671
0.000927171
0.000894378
0.000855575
0.000808592
0.000751828
0.000696506
0.000755842
0.000760141
0.000896382
0.000986364
0.00104519
0.00108691
0.00111838
0.00114451
0.00116149
0.0011712
0.00117621
0.00117785
0.00117761
0.00117499
0.00116889
0.00115729
0.00114059
0.00111969
0.00109618
0.00107129
0.00104621
0.00102149
0.000996008
0.000967687
0.000939149
0.000907355
0.000869465
0.000823221
0.000766849
0.000708886
0.000746543
0.000727486
0.000859983
0.000965179
0.0010277
0.00107081
0.00110262
0.00112848
0.00114745
0.00115899
0.0011658
0.00116915
0.00117042
0.00116915
0.00116438
0.00115442
0.00113971
0.00112098
0.00109954
0.00107653
0.00105309
0.00102979
0.00100563
0.00097843
0.000950969
0.000920276
0.00088336
0.00083786
0.000781851
0.000721755
0.000739491
0.000714495
0.000821117
0.000943046
0.00101052
0.00105506
0.00108731
0.00111297
0.00113249
0.00114563
0.00115416
0.00115916
0.0011619
0.00116202
0.00115871
0.00115051
0.00113792
0.00112141
0.00110222
0.00108124
0.0010595
0.00103769
0.0010149
0.000989022
0.000962712
0.000933225
0.000897364
0.000852654
0.000796955
0.000735109
0.000735221
0.000721703
0.000786732
0.000919718
0.000993826
0.00103973
0.00107242
0.00109796
0.0011171
0.00113115
0.00114113
0.00114768
0.00115187
0.00115339
0.00115167
0.00114536
0.00113503
0.00112089
0.00110411
0.0010852
0.00106525
0.00104497
0.00102357
0.000999309
0.000974444
0.000946341
0.000911682
0.000867753
0.000812291
0.000748912
0.0007343
0.000743433
0.000763689
0.00089698
0.00097789
0.00102484
0.00105784
0.00108349
0.00110265
0.00111632
0.0011267
0.00113451
0.00114001
0.00114286
0.00114277
0.00113844
0.00113047
0.00111886
0.00110449
0.00108787
0.00106987
0.00105121
0.00103129
0.0010095
0.000986477
0.000959981
0.000926695
0.000883517
0.000828113
0.000763467
0.000737035
0.000768732
0.00075455
0.000877424
0.000963078
0.00101057
0.00104391
0.00106978
0.00108932
0.00110284
0.00111323
0.00112124
0.00112719
0.00113082
0.00113191
0.00112952
0.00112395
0.0011152
0.00110372
0.00109001
0.0010746
0.0010581
0.00104041
0.00102122
0.00100016
0.000975321
0.000943402
0.000901013
0.000845258
0.00077892
0.0007435
0.000794773
0.000757271
0.000864555
0.00095063
0.000998115
0.00103144
0.00105751
0.00107778
0.00109157
0.00110244
0.00111117
0.00111809
0.00112299
0.00112572
0.00112564
0.00112276
0.00111706
0.00110871
0.00109795
0.00108519
0.00107093
0.00105527
0.00103802
0.00101855
0.000995007
0.000964142
0.000922119
0.000865605
0.000796746
0.000754622
0.000824135
0.00077218
0.000862493
0.000943251
0.000989956
0.00102346
0.00104994
0.00107161
0.00108656
0.00109886
0.00110927
0.00111803
0.00112526
0.00113057
0.00113358
0.00113397
0.00113167
0.00112661
0.00111883
0.0011086
0.00109638
0.00108231
0.00106625
0.00104757
0.0010246
0.000994024
0.000951595
0.000893357
0.000820759
0.000773978
0.000867291
0.00081024
0.000885303
0.000955297
0.00100098
0.00103503
0.00106275
0.00108708
0.00110492
0.00112038
0.00113409
0.00114647
0.00115766
0.00116699
0.00117397
0.00117795
0.00117881
0.00117637
0.00117055
0.00116166
0.00115027
0.00113653
0.00112023
0.00110086
0.00107703
0.00104578
0.00100232
0.000941589
0.000864681
0.000815144
0.00099461
0.00095305
0.00100343
0.00106021
0.00110276
0.00113637
0.00116455
0.00119053
0.00121185
0.00123114
0.00124804
0.00126441
0.00128025
0.00129334
0.00130294
0.00130851
0.00131014
0.00130773
0.0013013
0.00129143
0.00127895
0.00126402
0.00124577
0.00122424
0.00119894
0.00116767
0.00112671
0.0010706
0.000998796
0.000954007
0.00144188
0.00143973
0.00145955
0.00148661
0.00150901
0.00152427
0.00153429
0.001543
0.0015523
0.00156234
0.00156914
0.00157928
0.00159246
0.00160125
0.00160608
0.00160802
0.00160714
0.0016038
0.00159783
0.00159065
0.00158339
0.00157598
0.00156371
0.00154993
0.00153633
0.00152124
0.0015037
0.00147923
0.00144647
0.00143072
0.00024225
0.000254152
0.000252613
0.00024668
0.000237886
0.00022745
0.00021624
0.00020493
0.00019396
0.000183702
0.000174328
0.000166107
0.000159113
0.000153519
0.000148554
0.00014326
0.000137244
0.000130584
0.000123435
0.000115833
0.00010769
9.90811e-05
9.32342e-05
8.92818e-05
9.20452e-05
0.000107146
0.000123432
0.00013504
0.000143319
0.000164202
0.00100858
0.00118522
0.00117361
0.00111192
0.00103121
0.000946581
0.000867496
0.000796763
0.000733468
0.000676731
0.000624437
0.000576235
0.000528928
0.000478128
0.000422752
0.000371624
0.000332586
0.000307834
0.000293597
0.000287066
0.000283319
0.000283206
0.000282431
0.00027487
0.000275127
0.000421513
0.000566537
0.00072219
0.000833027
0.000911236
0.00170808
0.00205511
0.00211185
0.0020499
0.00193063
0.00179342
0.00165812
0.00153268
0.0014173
0.00131175
0.00121325
0.0011207
0.00102825
0.000927776
0.000817855
0.000716678
0.000638066
0.000587146
0.000556951
0.000541723
0.000533483
0.000530581
0.000522796
0.000499822
0.000464424
0.000583771
0.000789899
0.00104382
0.00129392
0.00148129
0.00220293
0.00272853
0.00285363
0.00281786
0.00268948
0.00252966
0.00236276
0.00220187
0.0020491
0.00190626
0.00177186
0.00164056
0.00150692
0.00136172
0.00120664
0.00106427
0.000952102
0.000877521
0.000831316
0.000805838
0.000790222
0.000780137
0.000762933
0.000712507
0.000626455
0.000667074
0.000854608
0.0011928
0.00157878
0.00192252
0.00259389
0.00322352
0.00342225
0.0034179
0.00329887
0.00313581
0.00295548
0.00277507
0.00259844
0.00243023
0.0022656
0.00210345
0.00193742
0.00175654
0.00156446
0.00138991
0.0012516
0.00115697
0.00109673
0.00106204
0.00103983
0.00102275
0.000997771
0.000921111
0.000783101
0.000732075
0.0008648
0.00125943
0.00177546
0.00227535
0.00289587
0.0035382
0.00384307
0.00387403
0.00378001
0.00362542
0.00344533
0.00325674
0.00306666
0.00287979
0.00269489
0.00251108
0.00231905
0.00211029
0.00188925
0.00169033
0.00153224
0.00142083
0.00134842
0.00130574
0.0012785
0.00125607
0.00122644
0.00112814
0.00094423
0.000810454
0.000858669
0.00127945
0.00189001
0.00254358
0.00309532
0.00373976
0.00408095
0.00420805
0.00415173
0.00401583
0.00384612
0.0036576
0.00346163
0.00326445
0.00306479
0.00286737
0.00265593
0.00242652
0.00218403
0.0019673
0.00179446
0.00166894
0.0015859
0.00153624
0.00150545
0.00147974
0.00144854
0.00133287
0.00111097
0.00090682
0.000886871
0.00123955
0.00194081
0.00272787
0.00324622
0.0038828
0.0042536
0.00441551
0.00442733
0.00432371
0.0041705
0.00398877
0.00379273
0.00359169
0.00338279
0.00317662
0.00295295
0.00270932
0.00245229
0.00222322
0.00203933
0.00190238
0.00180978
0.00175392
0.00172089
0.0016938
0.00166356
0.00153348
0.0012806
0.00101962
0.000928255
0.001182
0.0019523
0.00283688
0.00334747
0.00397313
0.0043689
0.00456623
0.00461203
0.00455882
0.004429
0.00426052
0.00406818
0.00386723
0.00365767
0.00344313
0.00321518
0.0029623
0.00269716
0.00246026
0.002268
0.00212232
0.002021
0.00195955
0.00192531
0.00189868
0.00187108
0.00172813
0.00144961
0.00114321
0.000981346
0.00113558
0.00191871
0.002886
0.0033898
0.00401257
0.004436
0.00466864
0.00474855
0.00472654
0.00463219
0.00448111
0.00429529
0.00409782
0.00389128
0.00367489
0.00344479
0.00318943
0.00292133
0.00268026
0.00248181
0.00232946
0.00222037
0.00215403
0.00211916
0.00209526
0.00207073
0.00191549
0.00161538
0.00127279
0.00104952
0.00113143
0.00184968
0.00289605
0.00336161
0.00400166
0.00445863
0.00472918
0.00484352
0.00485488
0.00478928
0.00465743
0.00448053
0.00428911
0.00408813
0.00387679
0.00364541
0.00339157
0.00312701
0.00288457
0.00268168
0.00252422
0.00240875
0.00233826
0.00230306
0.00228501
0.00226219
0.00209479
0.0017763
0.00140502
0.00112608
0.00114991
0.00176851
0.00285124
0.00324445
0.00393873
0.0044392
0.00475203
0.0049028
0.00494592
0.00490747
0.00480492
0.00463409
0.00444614
0.00425345
0.00404959
0.00382414
0.00357514
0.00331471
0.00307396
0.00286794
0.00270663
0.00258704
0.00251311
0.00247781
0.0024675
0.00244488
0.00226564
0.00193127
0.00153886
0.00121372
0.00117682
0.00169003
0.00277652
0.00305975
0.00381591
0.00438124
0.00473971
0.00493144
0.00500458
0.00499309
0.00491533
0.00476761
0.00457974
0.00439191
0.00419756
0.0039819
0.00374188
0.0034887
0.00325156
0.00304295
0.00287822
0.0027559
0.00267933
0.00264444
0.00264224
0.00261849
0.00242813
0.00207962
0.00166808
0.00131049
0.00121214
0.00162579
0.00268811
0.00283359
0.00363624
0.00428484
0.00469746
0.00493362
0.00503597
0.00505063
0.00499533
0.00486914
0.00469784
0.00451141
0.00432466
0.00412174
0.00389328
0.00364893
0.00341577
0.00320772
0.00304096
0.00291628
0.00283768
0.00280415
0.00280956
0.00278312
0.00258291
0.00222147
0.00179452
0.00141254
0.00124786
0.00158338
0.0025967
0.00258861
0.00342209
0.00413892
0.0046277
0.00491151
0.00504491
0.00508429
0.00504977
0.00494851
0.00479095
0.00461843
0.00443558
0.00424632
0.00403111
0.00379663
0.00356871
0.00336334
0.00319573
0.00306898
0.00298896
0.00295821
0.00296994
0.0029392
0.00273101
0.00235868
0.00191852
0.0015146
0.00129817
0.00156045
0.00251171
0.00234286
0.00319186
0.00396237
0.00452787
0.00486751
0.00503552
0.00509817
0.00508422
0.00500574
0.00486593
0.00470818
0.00453597
0.00435824
0.00415693
0.00393302
0.00371138
0.00350958
0.00334287
0.00321442
0.00313389
0.00310782
0.00312334
0.0030876
0.00287352
0.00249277
0.00204071
0.00161724
0.00136059
0.00156016
0.00243911
0.00211106
0.00296029
0.00376967
0.00440024
0.00480435
0.00501024
0.00509633
0.00510251
0.00504467
0.00492677
0.00478157
0.00462757
0.00446105
0.00427248
0.00405934
0.00384472
0.00364863
0.00348122
0.00335229
0.00327253
0.00325217
0.00326849
0.00322819
0.00301076
0.0026248
0.00216193
0.00172107
0.00142593
0.00157639
0.00238093
0.00190309
0.00273829
0.00357244
0.00425602
0.00471846
0.00497156
0.00508316
0.00510839
0.00506944
0.00497554
0.00484598
0.00470661
0.00455578
0.00437912
0.00417646
0.00396936
0.0037764
0.00361098
0.00348197
0.00340427
0.00338808
0.00340232
0.00335899
0.00314156
0.00275474
0.00228303
0.00182707
0.00149636
0.00160555
0.00233806
0.00173047
0.00253354
0.00337997
0.00410453
0.00461782
0.00492531
0.00506155
0.00510544
0.00508478
0.00501365
0.00490275
0.00478113
0.00464079
0.00447705
0.00428396
0.00408425
0.00389474
0.00373129
0.00360206
0.00352644
0.00351079
0.00351892
0.00347582
0.00326218
0.00288042
0.00240572
0.00193537
0.00157723
0.00164581
0.00231033
0.00160093
0.00235125
0.00319988
0.00395394
0.00450901
0.0048624
0.00503417
0.0050969
0.00509368
0.0050429
0.00495161
0.00484323
0.00471528
0.00456038
0.00437809
0.00418521
0.0039991
0.00383695
0.00370732
0.00363192
0.00361103
0.00361069
0.00356914
0.00336481
0.0029961
0.00252607
0.00204632
0.00166867
0.00169467
0.00229693
0.00151785
0.00219646
0.00303911
0.00381173
0.00439711
0.00479008
0.0050034
0.00508346
0.00509664
0.00506358
0.00498955
0.00488927
0.00477267
0.00462603
0.00445004
0.00426182
0.00407803
0.00391596
0.00378482
0.00370447
0.00367429
0.00366455
0.00362388
0.00343697
0.00309182
0.00263405
0.0021555
0.00176623
0.00174314
0.00229655
0.00148452
0.0020757
0.00290478
0.00368323
0.00428644
0.00471066
0.00496099
0.00506396
0.00508833
0.00506713
0.00500394
0.00490912
0.00479365
0.0046537
0.00447969
0.00429295
0.00411042
0.00394368
0.00380918
0.00371966
0.00367914
0.00366093
0.00362214
0.00346122
0.0031537
0.00272023
0.00225786
0.00186262
0.00180638
0.00230919
0.00149196
0.00199456
0.00280199
0.0035691
0.00418044
0.00461781
0.00486755
0.00499653
0.00504655
0.00502883
0.00496775
0.00487356
0.00475046
0.00460546
0.00443255
0.0042446
0.00405738
0.00388569
0.00374647
0.00364957
0.0036007
0.00357883
0.00354575
0.00341921
0.00316575
0.00277251
0.00234018
0.0019519
0.00188095
0.00233186
0.0015531
0.0019571
0.00272897
0.00346719
0.00403783
0.00443867
0.00470818
0.00486739
0.00492385
0.00490227
0.00483243
0.00473087
0.00459804
0.00444044
0.00426201
0.00407404
0.00388407
0.00371415
0.00357625
0.00347998
0.00342898
0.00340995
0.00338615
0.00330338
0.00311598
0.00278234
0.00239256
0.00202674
0.00196121
0.00236217
0.00162983
0.00195057
0.00266278
0.00330204
0.0038102
0.00420536
0.00447027
0.0046107
0.00464317
0.00460829
0.0045304
0.00442439
0.00429021
0.00413212
0.00395215
0.00377548
0.00360481
0.00345305
0.00332899
0.00324264
0.00319673
0.00318157
0.00317292
0.00313236
0.0030118
0.0027516
0.00241242
0.00208218
0.00203377
0.00237731
0.00171847
0.00200206
0.00255953
0.00310363
0.00354505
0.00386636
0.00407997
0.00417173
0.00418014
0.00413906
0.00406646
0.00397239
0.00386004
0.00372955
0.00358281
0.00344228
0.00331667
0.00320576
0.003111
0.00304347
0.00300527
0.00299092
0.00298692
0.00296854
0.00289525
0.00270518
0.00241308
0.00212012
0.00207744
0.00236434
0.00182339
0.00199791
0.00242266
0.00283075
0.00316047
0.00339591
0.00355889
0.00363441
0.00365219
0.0036376
0.00360069
0.00354728
0.00348216
0.00340536
0.00332112
0.00323919
0.0031655
0.00310118
0.00303969
0.00299078
0.00295708
0.00293609
0.00292098
0.00289807
0.00283948
0.00269635
0.00243829
0.00216573
0.00207438
0.00228126
0.00197665
0.00200796
0.00229792
0.00259285
0.00283341
0.00302127
0.00316629
0.00325685
0.00330505
0.00333083
0.00333727
0.00332828
0.00330921
0.00328171
0.00324845
0.00321153
0.00316979
0.00312874
0.00308717
0.00304999
0.00301997
0.00299647
0.0029751
0.00294755
0.00289538
0.00278273
0.00256749
0.00230909
0.00213503
0.00222065
0.002361
0.00234301
0.0025088
0.00270179
0.00286507
0.00299957
0.00310835
0.00318499
0.00323452
0.00326802
0.00328585
0.00329145
0.00328437
0.00326696
0.00324013
0.00320983
0.00317916
0.00314933
0.00312093
0.00309623
0.00307743
0.00306382
0.00305131
0.00303342
0.00299719
0.00292348
0.00279408
0.0026175
0.00246699
0.00247807
0.00286636
0.00286912
0.00292799
0.00299755
0.0030612
0.00311732
0.00316379
0.00319667
0.00321961
0.00323148
0.00323409
0.0032319
0.00322752
0.0032129
0.00318726
0.00315964
0.00313619
0.00311722
0.00310429
0.00309863
0.00309912
0.00310346
0.00310811
0.00311116
0.00310614
0.00308565
0.00304771
0.00298199
0.00292795
0.00291722
0.000270186
0.000287026
0.000285455
0.000279515
0.000270403
0.000259314
0.000247147
0.000234633
0.000222227
0.000210305
0.000198983
0.000188484
0.00017875
0.000169895
0.000160847
0.000150747
0.00013989
0.000129449
0.000120089
0.000111407
0.000101349
8.74679e-05
0.000399196
0.000367569
9.56086e-05
0.000112772
0.000128612
0.000140658
0.000149672
0.000181875
0.00125428
0.00152031
0.00156595
0.00150117
0.00139498
0.00127782
0.00116647
0.00106535
0.000973436
0.00088889
0.00080825
0.000730813
0.000650591
0.000562575
0.000475764
0.00041624
0.00039132
0.000398186
0.000418509
0.000438767
0.000436889
0.00042517
0.000462877
0.00035349
0.000281489
0.000471667
0.000671401
0.000886876
0.00102345
0.00102867
0.00210845
0.00263084
0.00281038
0.00278174
0.00264284
0.00246323
0.00227637
0.00209659
0.00192569
0.00176297
0.00160422
0.00144854
0.00128413
0.00110371
0.000927649
0.00080818
0.000755949
0.000759659
0.000787602
0.000818694
0.000815834
0.000798165
0.000772964
0.000579132
0.000470683
0.000685962
0.000999591
0.00138123
0.00168954
0.0017521
0.00274529
0.00348753
0.00377394
0.00380076
0.00366523
0.00346498
0.00323957
0.00301096
0.00278434
0.00256166
0.00234051
0.00211969
0.00188028
0.00161856
0.00136907
0.00120247
0.00112628
0.00112239
0.00115074
0.00118376
0.00118179
0.00116283
0.00109772
0.000845915
0.000654462
0.000807074
0.00114314
0.00166947
0.00216121
0.00234838
0.00326217
0.00414245
0.00452452
0.00459872
0.00448312
0.00428267
0.004041
0.0037842
0.00352016
0.00325435
0.002987
0.0027095
0.00240673
0.00208157
0.00177627
0.00157658
0.00148231
0.00147102
0.00149774
0.00153232
0.00153522
0.00151641
0.00142334
0.00113006
0.00085294
0.000899192
0.00122851
0.00185427
0.00254466
0.00286707
0.00368991
0.00459309
0.00509776
0.00521934
0.00513753
0.00494774
0.00470501
0.00443312
0.0041448
0.00384878
0.00354295
0.00322228
0.00287225
0.00249655
0.0021512
0.00192947
0.00182259
0.00180376
0.00182851
0.00186559
0.00187663
0.00186092
0.0017472
0.00142397
0.00107344
0.0010059
0.00128514
0.00196869
0.00283367
0.00332387
0.0040107
0.00490387
0.0054446
0.00568916
0.00565665
0.00548823
0.00525469
0.00497704
0.00467383
0.00435667
0.00402118
0.00367027
0.00328496
0.00287071
0.00250002
0.00226504
0.00214914
0.00212219
0.00214391
0.00218406
0.00220583
0.00220019
0.00206678
0.00172087
0.00131325
0.0011441
0.00134219
0.00205062
0.0030419
0.00371223
0.00428149
0.00516598
0.00573091
0.00600594
0.00605839
0.00592712
0.0057079
0.00543321
0.00512121
0.00478979
0.00443636
0.00406089
0.00365316
0.0032124
0.00282902
0.00258728
0.00246444
0.00242843
0.00244566
0.00248878
0.00252429
0.00252984
0.00237827
0.0020141
0.00156258
0.00130386
0.00142513
0.00211007
0.00318865
0.00403323
0.00451648
0.00538289
0.00596394
0.00626599
0.00634849
0.00627673
0.00607962
0.00581494
0.00549879
0.005159
0.00479678
0.00440375
0.00398119
0.0035293
0.00314358
0.0028995
0.0027706
0.00272434
0.00273569
0.00278118
0.00283472
0.00284577
0.00267748
0.00229775
0.00181266
0.00147558
0.00152596
0.00216307
0.00329532
0.00429047
0.00470377
0.00555067
0.00614776
0.00647554
0.00658689
0.00654205
0.00638363
0.00613282
0.00581714
0.00547386
0.00510867
0.00471173
0.00427528
0.00382722
0.00344776
0.00320404
0.00306886
0.00301168
0.00301554
0.00306259
0.00313371
0.00314387
0.00296046
0.00256762
0.00205688
0.00165513
0.00163206
0.00220911
0.00337157
0.00448565
0.00482406
0.00566527
0.0062822
0.00663899
0.0067794
0.00676194
0.00663034
0.0063966
0.00608475
0.0057421
0.00537905
0.00498512
0.00454805
0.00411062
0.00374437
0.00350234
0.00335993
0.00329168
0.00328641
0.0033345
0.00341826
0.00342025
0.00322386
0.00282042
0.00229056
0.00183722
0.0017366
0.00224961
0.00342141
0.00463096
0.00486185
0.00571776
0.00636181
0.00675857
0.00693085
0.00693944
0.00683132
0.00662753
0.00631616
0.00597061
0.00561616
0.0052311
0.0048061
0.0043843
0.00403527
0.00379512
0.00364451
0.00356477
0.00354897
0.00359838
0.00368632
0.00367385
0.0034652
0.0030534
0.00251053
0.00201721
0.00184942
0.00229023
0.00344622
0.00473535
0.00481921
0.0057035
0.00639206
0.00683546
0.00704545
0.00707831
0.00699322
0.00681328
0.00652381
0.00617555
0.00582825
0.00545668
0.00505199
0.00465388
0.00432153
0.00408246
0.00392288
0.00383106
0.00380368
0.00385484
0.00393617
0.00390419
0.00368283
0.00326448
0.0027146
0.00219146
0.001966
0.00233141
0.00345438
0.0047864
0.00469569
0.00562704
0.00637435
0.00686723
0.0071255
0.0071855
0.00712192
0.00696371
0.00670092
0.0063632
0.00602174
0.00566816
0.00529004
0.0049199
0.00460281
0.00436383
0.00419474
0.00409021
0.00405057
0.00410018
0.00416509
0.00411001
0.00387573
0.00345196
0.0029007
0.00235923
0.00207913
0.00237652
0.00345128
0.00479995
0.00450146
0.00549326
0.00631281
0.00686584
0.00717301
0.00726642
0.00722309
0.00708399
0.00684797
0.00653743
0.00620571
0.00587066
0.00552249
0.00518165
0.00487805
0.00463819
0.00445919
0.00434092
0.00428899
0.00432952
0.00436917
0.00428922
0.00404301
0.00361499
0.00306729
0.0025195
0.00218483
0.00243124
0.00343956
0.00478778
0.00425423
0.00531213
0.00621226
0.00683445
0.00718904
0.0073253
0.00730236
0.00718197
0.00697523
0.00668925
0.00638148
0.0060674
0.00574984
0.00543507
0.00514495
0.00490348
0.00471399
0.00458023
0.00451631
0.00453627
0.0045426
0.00443841
0.00418295
0.00375496
0.00321295
0.00266577
0.00228842
0.00249842
0.00342248
0.0047587
0.00397672
0.00509729
0.00607976
0.00677625
0.00718428
0.00736226
0.00736546
0.00726455
0.00708417
0.0068254
0.006547
0.00625997
0.00597074
0.00567755
0.00539987
0.00515561
0.00495446
0.00480264
0.00472437
0.00471145
0.0046787
0.00455223
0.00429212
0.00387114
0.00333769
0.00279275
0.00239328
0.00255901
0.0034131
0.00471968
0.00369378
0.00486432
0.00592415
0.00669556
0.00715986
0.00737873
0.00741282
0.00733537
0.00717926
0.00695591
0.00670653
0.00644479
0.00617744
0.00590691
0.0056365
0.00538673
0.00517128
0.00499902
0.00489567
0.0048416
0.00476851
0.00462314
0.0043648
0.00396028
0.0034407
0.00290534
0.00249833
0.00261035
0.0034101
0.0046779
0.00342741
0.0046289
0.00575512
0.00659725
0.00711766
0.0073779
0.00744813
0.00739468
0.00726503
0.00707426
0.00685445
0.00661181
0.00636408
0.00611001
0.00584218
0.00558238
0.00534841
0.00515046
0.00500998
0.00490984
0.00480014
0.00464168
0.00439334
0.00401658
0.00351874
0.00300534
0.00260313
0.00267288
0.00341966
0.00463661
0.00319715
0.00440565
0.00558241
0.00648616
0.00705886
0.00735931
0.0074616
0.00743103
0.00732391
0.00718253
0.0069787
0.00674875
0.0065102
0.0062679
0.00599531
0.00571912
0.00546171
0.00522694
0.00504461
0.00489935
0.00476156
0.00459842
0.00436975
0.00403232
0.00356808
0.00308349
0.00270248
0.00275033
0.00344479
0.00460745
0.00302151
0.00420741
0.00541495
0.00636634
0.0069833
0.00731972
0.0074552
0.00744097
0.0073751
0.00723547
0.00704927
0.00683335
0.00659185
0.00634596
0.00606402
0.00576545
0.00547447
0.00520275
0.00498026
0.00480033
0.00464564
0.00448806
0.00428901
0.00400121
0.00358562
0.00313551
0.00278627
0.00283193
0.00349439
0.00459309
0.00290084
0.00404287
0.00525953
0.00623985
0.00688815
0.00724268
0.00734741
0.00738659
0.00733787
0.00720589
0.00703024
0.00682189
0.00657308
0.00630513
0.00600859
0.00568629
0.00536131
0.00506325
0.00481451
0.00461608
0.00445778
0.00431579
0.00415428
0.00392408
0.0035699
0.0031589
0.0028442
0.00290303
0.00354446
0.00457618
0.00280628
0.00391577
0.00511758
0.00607218
0.00666051
0.00697483
0.00715398
0.0072204
0.00717483
0.0070443
0.00687082
0.00666293
0.00641165
0.00612211
0.0057989
0.00546256
0.00512815
0.00482574
0.00457243
0.00437353
0.00422384
0.00410412
0.00398258
0.00381174
0.00352651
0.00315669
0.00287321
0.00294411
0.00357846
0.00453567
0.00272547
0.00378886
0.00488535
0.00570414
0.0062481
0.00662052
0.00682187
0.00688466
0.00682699
0.00669691
0.00652923
0.006327
0.00608215
0.00579254
0.00545799
0.0051298
0.00482143
0.00454296
0.00430817
0.0041241
0.00399117
0.00389449
0.00380771
0.0036886
0.00347073
0.00314128
0.00287804
0.00294278
0.00356308
0.00442307
0.00271526
0.00355728
0.0044816
0.00522882
0.00576915
0.00610806
0.00629826
0.00633699
0.00627927
0.00616478
0.00601927
0.00584176
0.00562544
0.00536702
0.00506717
0.00477684
0.00452083
0.00428668
0.00408558
0.0039256
0.00381219
0.00373436
0.00367183
0.00358944
0.0034284
0.00313699
0.00287734
0.00290199
0.00347101
0.00415325
0.00267694
0.0033856
0.00408797
0.00468121
0.00512268
0.00542508
0.00559383
0.00563737
0.00560979
0.00553887
0.00544143
0.00531418
0.00515235
0.00495501
0.004725
0.00449652
0.00429593
0.00410506
0.00394001
0.00381586
0.00372705
0.00366517
0.00361613
0.00355434
0.00343086
0.00317947
0.00290724
0.00284665
0.00326104
0.0037582
0.00263135
0.00309609
0.0036125
0.0040821
0.00444726
0.00471252
0.00488916
0.00497211
0.0049977
0.00498726
0.00495022
0.0048835
0.00478464
0.00465444
0.0044958
0.00431931
0.00416201
0.00401193
0.00388661
0.00378887
0.00371791
0.0036696
0.00363274
0.00358721
0.00349357
0.00329208
0.00302163
0.00285964
0.00303648
0.00337921
0.00278421
0.00299816
0.00336302
0.00371983
0.00401618
0.00425185
0.00443017
0.00454373
0.00460757
0.00463971
0.00464449
0.00462005
0.00456385
0.00447446
0.00434765
0.00420864
0.00407055
0.00394333
0.00383755
0.00375908
0.00370526
0.00367557
0.00366054
0.00364398
0.00359244
0.00346167
0.00324668
0.00306111
0.00306845
0.0032638
0.00319984
0.00329026