/*--------------------------------*- C++ -*----------------------------------*\
  =========                 |
  \\      /  F ield         | OpenFOAM: The Open Source CFD Toolbox
   \\    /   O peration     | Website:  https://openfoam.org
    \\  /    A nd           | Version:  12
     \\/     M anipulation  |
\*---------------------------------------------------------------------------*/
FoamFile
{
    format      ascii;
    class       volScalarField;
    location    "700/air";
    object      epsilon;
}
// * * * * * * * * * * * * * * * * * * * * * * * * * * * * * * * * * * * * * //

dimensions      [0 2 -3 0 0 0 0];

internalField   nonuniform List<scalar> 
243000
(
6.38736
7.69062
8.43603
8.81818
8.91582
8.77016
8.44617
8.01313
7.52516
7.0331
6.57051
6.19566
5.93519
5.81288
5.76924
5.70367
5.5459
5.27962
4.91683
4.48151
4.00448
3.53002
3.03928
2.39424
1.59693
1.31907
1.97259
2.26512
2.45555
2.68161
3.97613
4.97974
5.45725
5.62302
5.6045
5.45026
5.2061
4.90899
4.58596
4.26054
3.9503
3.67842
3.44097
3.23327
3.01878
2.7808
2.53127
2.28909
2.06051
1.84604
1.64433
1.45752
1.28049
1.07215
0.79403
0.683182
1.1511
1.50559
1.74344
2.00317
4.42005
5.40244
5.81138
5.83097
5.66054
5.37137
5.01735
4.6378
4.25796
3.89692
3.56832
3.2867
3.04237
2.82565
2.6023
2.36269
2.123
1.90471
1.7123
1.54333
1.3925
1.25504
1.1225
0.970608
0.76159
0.625514
0.989494
1.48481
1.87478
2.29732
5.07819
6.27182
6.84707
6.93002
6.77887
6.48189
6.09977
5.67843
5.24825
4.83318
4.44975
4.11529
3.82006
3.55107
3.26554
2.95403
2.63993
2.35386
2.10331
1.88609
1.69475
1.52056
1.3507
1.16977
0.939659
0.746194
0.959417
1.61102
2.13175
2.69453
5.47288
6.82809
7.53858
7.70298
7.59764
7.32591
6.9506
6.52107
6.07132
5.6296
5.21484
4.84718
4.51896
4.21363
3.88011
3.50995
3.13283
2.78685
2.48325
2.22074
1.9905
1.78099
1.57498
1.36407
1.11481
0.873777
0.891084
1.63411
2.29654
2.98099
5.68879
7.09665
7.95931
8.21225
8.17067
7.94637
7.60241
7.18922
6.7431
6.2959
5.86849
5.48431
5.1381
4.80948
4.4401
4.02304
3.59452
3.19706
2.84647
2.54293
2.27697
2.03496
1.79583
1.55594
1.28856
1.01088
0.892708
1.53902
2.3725
3.17391
5.75165
7.15761
8.13516
8.50692
8.54226
8.38027
8.08481
7.70567
7.28035
6.84374
6.41867
6.03189
5.67984
5.3389
4.94376
4.49068
4.02128
3.58073
3.18965
2.84989
2.55203
2.28088
2.01206
1.74553
1.46048
1.15643
0.956372
1.3668
2.38075
3.28316
5.69997
7.0824
8.12047
8.62483
8.7487
8.65934
8.42378
8.091
7.69903
7.2852
6.87446
6.4962
6.1482
5.80368
5.39162
4.91236
4.41155
3.93618
3.511
3.14006
2.81431
2.51754
2.22237
1.93224
1.63004
1.30583
1.04237
1.21093
2.32605
3.32081
5.56244
6.91405
7.99095
8.59328
8.81741
8.80969
8.64172
8.36367
8.01377
7.63183
7.24479
6.88384
6.54759
6.20638
5.78524
5.28861
4.76475
4.26288
3.80982
3.41262
3.06307
2.74406
2.4257
2.11528
1.79711
1.45689
1.14522
1.10497
2.21856
3.29579
5.35458
6.67467
7.77716
8.46059
8.77755
8.85369
8.7579
8.53975
8.23775
7.8942
7.53792
7.20115
6.88248
6.54999
6.12668
5.62061
5.08143
4.56068
4.08583
3.66728
3.29791
2.95995
2.62129
2.29399
1.96156
1.6082
1.26157
1.09223
2.04958
3.22119
5.0928
6.38037
7.49937
8.24874
8.65851
8.81432
8.7917
8.63236
8.38238
8.08178
7.76137
7.45405
7.1572
6.83762
6.41816
5.90978
5.36252
4.82951
4.33935
3.90412
3.51878
3.16488
2.80874
2.46795
2.12325
1.75869
1.38804
1.14805
1.85319
3.12297
4.82975
6.04714
7.17357
7.97834
8.47364
8.70672
8.75633
8.66067
8.45817
8.20299
7.92204
7.64773
7.37613
7.07239
6.662
6.15769
5.60907
5.07007
4.57056
4.12344
3.72569
3.3588
2.98813
2.63698
2.28196
1.90653
1.51797
1.21952
1.67927
3.00973
4.56273
5.71406
6.81457
7.66538
8.23486
8.5447
8.66232
8.63089
8.48147
8.26684
8.02654
7.7872
7.54287
7.25766
6.86069
6.36612
5.82236
5.28327
4.77969
4.3257
3.91904
3.54204
3.15998
2.8012
2.43747
2.05214
1.649
1.30281
1.54107
2.88689
4.28658
5.39609
6.44543
7.32242
7.95347
8.33882
8.52014
8.55036
8.45485
8.28597
8.08163
7.87741
7.6613
7.39663
7.01675
6.53699
6.0038
5.47025
4.96757
4.5111
4.09946
3.71515
3.32521
2.96085
2.58973
2.19583
1.78032
1.39652
1.44364
2.75982
3.99675
5.0869
6.10405
6.96249
7.64136
8.09643
8.33873
8.42588
8.38396
8.26084
8.09669
7.92305
7.73534
7.49262
7.13291
6.67243
6.15509
5.63229
5.13526
4.68036
4.26758
3.87894
3.4851
3.11617
2.73935
2.33769
1.91124
1.49859
1.38694
2.63306
3.68905
4.78146
5.78102
6.6185
7.31016
7.82406
8.1251
8.26438
8.27431
8.19634
8.07108
7.93153
7.76859
7.54904
7.21215
6.77493
6.27819
5.77101
5.28408
4.83465
4.42434
4.03442
3.63948
3.26776
2.88634
2.47788
2.0415
1.6058
1.37983
2.50764
3.36026
4.47562
5.4708
6.29673
6.97058
7.52918
7.88589
8.07269
8.13021
8.09697
8.01018
7.90285
7.76791
7.56983
7.25781
6.84732
6.37546
5.88829
5.4156
4.9755
4.57116
4.18287
3.78889
3.41619
3.0315
2.6171
2.17143
1.71641
1.42433
2.37014
2.99095
4.16493
5.1697
5.99212
6.65509
7.21958
7.62694
7.85656
7.95693
7.96675
7.91748
7.84205
7.73277
7.5588
7.27343
6.89289
6.44966
5.98652
5.5319
5.10473
4.70949
4.32586
3.93456
3.56252
3.17599
2.75648
2.30186
1.82978
1.48926
2.24687
2.57543
3.84478
4.87583
5.70181
6.35913
6.90417
7.35281
7.62111
7.75999
7.80935
7.79656
7.7527
7.66854
7.51898
7.26256
6.91519
6.50382
6.06839
5.63536
5.22448
4.84109
4.46506
4.07789
3.70809
3.3212
2.89753
2.43411
1.94591
1.56207
2.1436
2.18083
3.50123
4.58828
5.42436
6.07914
6.60883
7.06753
7.37029
7.54338
7.62858
7.6504
7.63709
7.57868
7.45434
7.22872
6.91626
6.54075
6.1367
5.72861
5.3368
4.96753
4.60176
4.22031
3.85433
3.46865
3.042
2.56991
2.06571
1.64167
2.05788
1.89267
3.11979
4.30702
5.1595
5.81347
6.33229
6.77618
7.10666
7.30981
7.42746
7.4814
7.49738
7.46542
7.3677
7.17483
6.90031
6.56361
6.19369
5.81358
5.44315
5.08997
4.73675
4.36292
4.00243
3.62
3.1914
2.71085
2.19038
1.72946
1.98994
1.75232
2.73334
4.0314
4.90809
5.56148
6.07178
6.49952
6.83259
7.05977
7.20667
7.29047
7.33408
7.32897
7.25995
7.10186
6.86777
6.57151
6.23951
5.89033
5.54335
5.20806
4.86919
4.50615
4.15329
3.77613
3.34699
2.85845
2.32105
1.82478
1.94304
1.75918
2.4061
3.75623
4.67169
5.32325
5.82538
6.23942
6.55737
6.79525
6.96492
7.07541
7.1451
7.16632
7.12798
7.00675
6.81564
6.56245
6.27166
5.95524
5.63382
5.318
4.99498
4.64897
4.30793
3.93895
3.5112
3.01459
2.45899
1.92799
1.9209
1.88771
2.18251
3.50004
4.4529
5.09828
5.59086
5.99563
6.30584
6.53173
6.70377
6.83427
6.92626
6.97174
6.96403
6.88063
6.73419
6.5272
6.27848
5.99933
5.707
5.41326
5.109
4.79352
4.47085
4.11353
3.6895
3.18366
2.60695
2.04054
1.92843
2.07146
2.0753
3.2868
4.2551
4.88852
5.37265
5.7708
6.07929
6.29825
6.46759
6.59955
6.69794
6.75699
6.77118
6.72433
6.62254
6.46747
6.269
6.03837
5.78637
5.52404
5.25077
4.96529
4.66177
4.31629
3.89504
3.37855
2.77376
2.16727
1.96696
2.28327
2.0688
3.14779
4.09243
4.70944
5.18203
5.57435
5.88761
6.10718
6.28262
6.42533
6.53952
6.62073
6.66452
6.65959
6.60608
6.50442
6.35886
6.1754
5.96292
5.73118
5.48305
5.21759
4.92654
4.58579
4.16046
3.62421
2.98043
2.31903
2.04644
2.54308
2.16926
3.11921
3.99601
4.59367
5.0614
5.45412
5.78653
6.02302
6.22217
6.39411
6.54128
6.66412
6.75522
6.80621
6.8113
6.76849
6.67748
6.53975
6.36217
6.15404
5.9197
5.65867
5.36292
5.0107
4.56287
3.98628
3.27848
2.53523
2.19871
2.96675
2.50453
3.34084
4.14361
4.74378
5.23053
5.65203
6.03811
6.33147
6.5946
6.83394
7.05607
7.26109
7.43538
7.56759
7.64334
7.65901
7.61075
7.49759
7.32781
7.11371
6.86057
6.5672
6.22812
5.82476
5.31925
4.66436
3.84424
2.96598
2.56416
4.51223
4.06414
4.80726
5.63848
6.3239
6.90621
7.42311
7.92288
8.34826
8.74849
9.10946
9.4717
9.83079
10.1344
10.3608
10.4933
10.5311
10.4718
10.3165
10.082
9.79117
9.44975
9.04157
8.57599
8.04769
7.42178
6.64879
5.68078
4.59902
4.09863
13.9951
13.9972
14.6246
15.4415
16.1341
16.6125
16.9352
17.2245
17.5364
17.8757
18.107
18.4707
18.9374
19.2532
19.4266
19.4948
19.4593
19.334
19.1152
18.8556
18.5967
18.3342
17.8952
17.4253
16.9698
16.4703
15.897
15.1175
14.1389
13.7559
10.7139
14.3463
16.2992
17.4891
17.9788
17.8944
17.3698
16.5456
15.5346
14.4405
13.3271
12.2779
11.3221
10.5006
9.6619
8.65257
7.47074
6.2183
4.99461
3.86531
2.86637
2.0395
1.53333
1.20565
1.20324
1.6844
2.22677
2.48153
2.59532
3.40299
6.86255
8.29067
9.35659
10.0513
10.372
10.3791
10.1174
9.65689
9.06556
8.40126
7.70927
7.02769
6.37948
5.78184
5.17137
4.51014
3.86241
3.26221
2.72692
2.25269
1.82025
1.41643
1.08518
0.865319
0.857093
1.00657
1.12244
1.41395
1.74464
2.68918
5.9295
7.11468
7.98332
8.56706
8.86691
8.928
8.77234
8.44364
7.99123
7.45962
6.88619
6.30906
5.75035
5.21832
4.65356
4.04408
3.45571
2.93798
2.4976
2.12396
1.78527
1.46144
1.16975
0.92888
0.812258
0.870424
1.03021
1.40418
1.79521
2.63405
5.40263
6.54481
7.35363
7.91116
8.22628
8.33727
8.26
8.02148
7.66105
7.21382
6.71049
6.20497
5.71103
5.22602
4.67838
4.07541
3.48944
2.97859
2.55341
2.20313
1.89438
1.59911
1.32268
1.06818
0.875831
0.83028
1.01068
1.43868
1.87504
2.60592
5.00817
6.10176
6.89784
7.45929
7.80434
7.96495
7.95673
7.79346
7.50746
7.12594
6.69181
6.24575
5.80133
5.35155
4.81733
4.21349
3.61972
3.10107
2.67303
2.32658
2.02956
1.75033
1.48631
1.22642
0.984876
0.849672
0.950166
1.44893
1.93422
2.57985
4.6683
5.69573
6.49306
7.06932
7.44971
7.65911
7.71169
7.61637
7.39602
7.07928
6.70192
6.30674
5.91025
5.49168
4.96819
4.36311
3.76189
3.23435
2.80067
2.45401
2.16388
1.89837
1.64788
1.38966
1.11916
0.911063
0.899971
1.41184
1.96376
2.56492
4.35301
5.30957
6.10391
6.70176
7.11829
7.37429
7.48081
7.44756
7.28734
7.02759
6.7068
6.35728
6.00556
5.61497
5.10169
4.49758
3.8923
3.3587
2.92095
2.57458
2.29084
2.03975
1.80453
1.55342
1.26883
1.00814
0.935091
1.31106
1.9705
2.56375
4.05642
4.94519
5.73016
6.34587
6.79739
7.09654
7.25141
7.27318
7.16785
6.95972
6.69284
6.38843
6.07657
5.71094
5.20847
4.6085
4.00347
3.46808
3.02933
2.68534
2.40932
2.17391
1.9555
1.71528
1.42685
1.13086
0.990092
1.2029
1.95736
2.56372
3.77904
4.60865
5.37958
6.00433
6.48474
6.82268
7.021
7.08957
7.03457
6.87518
6.65199
6.39855
6.1196
5.77657
5.28613
4.69391
4.09373
3.5611
3.12501
2.78598
2.51981
2.30116
2.10064
1.87357
1.58764
1.27025
1.06305
1.13092
1.91861
2.55648
3.52829
4.30493
5.05365
5.68103
6.1829
6.55318
6.78963
6.8981
6.88796
6.77314
6.59129
6.38159
6.13686
5.81196
5.33534
4.75462
4.16374
3.63831
3.20857
2.87717
2.62302
2.42216
2.24003
2.02763
1.74829
1.41977
1.15435
1.13492
1.84258
2.53823
3.31627
4.03962
4.75772
5.37893
5.89457
6.29032
6.55887
6.70159
6.72947
6.65489
6.51226
6.33841
6.12851
5.82276
5.35817
4.79265
4.21535
3.70109
3.28119
2.96007
2.71982
2.53768
2.37416
2.17772
1.90766
1.57488
1.26534
1.17817
1.74027
2.51098
3.16895
3.82216
4.49737
5.10123
5.62151
6.03584
6.33042
6.50262
6.56173
6.5229
6.41586
6.275
6.09129
5.80564
5.35939
4.81109
4.25148
3.75166
3.34431
3.03602
2.81105
2.64855
2.50411
2.32471
2.06562
1.73287
1.39224
1.23741
1.63221
2.47924
3.05658
3.66672
4.27688
4.85168
5.36493
5.79082
6.10574
6.30257
6.38793
6.38001
6.30445
6.19359
6.03247
5.76492
5.33772
4.80956
4.27247
3.79122
3.39941
3.10644
2.898
2.756
2.63153
2.47004
2.22291
1.89238
1.53124
1.30601
1.54942
2.44569
2.95884
3.55635
4.10333
4.63166
5.12634
5.55608
5.88587
6.10282
6.21059
6.22891
6.18121
6.09683
5.95574
5.7055
5.29917
4.79548
4.28124
3.8211
3.4482
3.173
2.98254
2.86207
2.75872
2.61596
2.38132
2.05348
1.67982
1.39151
1.51012
2.40999
2.85953
3.47103
3.9774
4.44397
4.90922
5.3331
5.6718
5.90465
6.0319
6.07221
6.04964
5.98832
5.86576
5.63228
5.24838
4.77128
4.2815
3.84475
3.49349
3.23814
3.06744
2.96962
2.88878
2.76564
2.54374
2.21809
1.83438
1.49262
1.51529
2.37835
2.74306
3.3957
3.88051
4.29588
4.71607
5.12443
5.46534
5.70973
5.85381
5.91333
5.91351
5.87311
5.76778
5.55131
5.19122
4.74257
4.27983
3.86742
3.53967
3.3054
3.15697
3.08263
3.02589
2.92355
2.7146
2.39005
1.99475
1.6071
1.55192
2.35421
2.60471
3.31889
3.79968
4.17857
4.54914
4.93383
5.26982
5.52114
5.67934
5.75672
5.77741
5.75722
5.66868
5.4701
5.13534
4.71648
4.28157
3.89756
3.59329
3.38038
3.25713
3.20683
3.17583
3.09595
2.90043
2.57506
2.16424
1.73684
1.61352
2.33506
2.4329
3.23219
3.72667
4.08237
4.41423
4.76404
5.0896
5.3439
5.51382
5.60819
5.64849
5.64871
5.57775
5.39847
5.09119
4.70485
4.3019
3.94466
3.66336
3.47197
3.37522
3.35063
3.3474
3.29205
3.11061
2.78183
2.3495
1.88378
1.69421
2.32061
2.25459
3.12938
3.65579
4.00001
4.30393
4.6182
4.93068
5.18489
5.36527
5.47668
5.5376
5.5591
5.50804
5.35051
5.07404
4.72208
4.35239
4.02282
3.76355
3.59476
3.525
3.52886
3.55379
3.52542
3.35877
3.02336
2.5623
2.05262
1.7896
2.31019
2.08589
3.00402
3.58284
3.92695
4.21436
4.5079
4.79952
5.05425
5.24555
5.37538
5.46062
5.50646
5.48009
5.35223
5.10799
4.79285
4.45744
4.15722
3.91876
3.77432
3.73095
3.76446
3.81814
3.81761
3.66513
3.31798
2.81437
2.24771
1.90522
2.30407
1.96427
2.8555
3.5054
3.86184
4.14408
4.42968
4.71041
4.96662
5.17478
5.32645
5.44357
5.52268
5.52683
5.43449
5.23213
4.95914
4.66033
4.38909
4.17571
4.05447
4.0371
4.09973
4.18076
4.20394
4.06134
3.69177
3.12377
2.47753
2.03571
2.29935
1.92915
2.69946
3.42471
3.80658
4.09542
4.38711
4.67116
4.93717
5.17053
5.36906
5.53278
5.65778
5.70993
5.66505
5.5194
5.30022
5.04407
4.80956
4.62487
4.52393
4.52845
4.61451
4.71382
4.74813
4.60034
4.18625
3.51938
2.75457
2.18246
2.31826
2.01129
2.56728
3.34862
3.7668
4.0768
4.39466
4.72925
5.0429
5.32557
5.57963
5.81398
6.01349
6.14571
6.1805
6.11789
5.98128
5.79633
5.60997
5.45401
5.36835
5.37986
5.46756
5.55787
5.57013
5.37744
4.87288
4.0476
3.09874
2.34802
2.35752
2.21209
2.49653
3.29662
3.76037
4.14496
4.54566
4.97261
5.37522
5.75442
6.11893
6.47639
6.80888
7.0867
7.27354
7.37024
7.37688
7.30791
7.19703
7.07541
6.98671
6.96507
6.98803
7.00065
6.90636
6.57639
5.88421
4.79437
3.55316
2.55046
2.43025
2.53612
2.53042
3.31697
3.90261
4.42317
4.96949
5.56519
6.15752
6.73354
7.31865
7.9173
8.51144
9.07681
9.56038
9.96953
10.2539
10.4089
10.4498
10.3762
10.2331
10.0704
9.88443
9.63723
9.24281
8.57257
7.48936
5.93997
4.22084
2.84268
2.59981
3.09922
2.83231
3.63323
4.438
5.2171
6.05615
6.99143
7.98399
8.96612
10.0027
11.0866
12.1808
13.3108
14.3811
15.4213
16.2725
16.8749
17.1984
17.1835
16.8584
16.3229
15.6006
14.6931
13.5599
12.1182
10.2582
7.90636
5.38099
3.38888
3.02622
4.39344
3.86986
4.86793
6.16256
7.52113
9.00234
10.6541
12.498
14.3212
16.2599
18.272
20.3125
22.4208
24.5238
26.6927
28.5221
29.8597
30.5567
30.4617
29.6169
28.2253
26.3694
24.1139
21.5189
18.6037
15.3487
11.6919
7.83418
4.81702
4.24637
8.34263
7.72417
9.36146
11.8182
14.4567
17.2521
20.2113
23.4665
26.6607
30.0236
33.4353
36.8452
40.2898
43.702
47.0268
49.6627
51.2954
51.6763
50.6864
48.5661
45.6943
42.2698
38.3958
34.1591
29.5831
24.6831
19.4591
13.8559
9.35082
8.25274
20.4147
20.4418
23.4917
27.817
32.1953
36.5519
40.8715
45.304
49.5955
53.9174
58.1283
62.1891
65.7626
68.6665
70.5052
70.7934
69.1665
66.3055
62.7058
58.7059
54.668
50.8188
47.2216
43.8333
40.4318
36.6469
32.1086
26.8432
22.0838
20.5254
35.8695
39.2654
43.6953
48.2074
52.4635
56.4767
60.2159
63.8399
67.0777
69.7706
71.982
73.656
74.1385
73.0463
69.9764
65.7884
61.408
56.7442
52.2419
48.2399
44.9068
42.2407
40.2485
38.9787
38.2603
37.7604
37.1324
36.4093
36.0836
37.1257
14.8652
20.6623
23.5164
25.4415
26.4017
26.5121
25.9249
24.8224
23.3507
21.6494
19.7982
17.9127
16.0208
14.194
12.2208
10.0387
7.87928
6.04203
4.59767
3.44818
2.40131
1.4157
1.32469
0.265417
1.35997
1.94386
2.49954
2.78572
2.92261
4.54855
8.54089
10.397
11.6008
12.486
12.9936
13.1582
12.994
12.556
11.9089
11.1146
10.2233
9.27331
8.29478
7.2939
6.2507
5.22149
4.34332
3.6636
3.09322
2.56255
1.96356
1.29803
0.736347
0.486085
0.792358
0.967831
1.15284
1.45582
1.9554
3.42314
7.46307
8.84648
9.78679
10.4179
10.7702
10.8934
10.7957
10.4969
10.032
9.4387
8.75304
8.00737
7.23064
6.41385
5.52943
4.67474
3.97003
3.43724
2.98384
2.54404
2.03899
1.45819
0.884353
0.599584
0.67216
0.808637
1.00783
1.39722
2.00815
3.42516
6.91471
8.1587
9.03029
9.60119
9.92506
10.0585
10.0143
9.79941
9.43679
8.95147
8.37064
7.72503
7.05372
6.32705
5.49858
4.68644
4.00908
3.48842
3.05095
2.63933
2.17498
1.635
1.08111
0.733948
0.667094
0.732855
0.970597
1.41485
2.0912
3.44286
6.47105
7.62537
8.47863
9.05015
9.39554
9.5674
9.58222
9.44036
9.15778
8.7517
8.2442
7.68485
7.09256
6.41592
5.61465
4.81461
4.13247
3.59546
3.15152
2.74986
2.31457
1.80908
1.27896
0.891526
0.72092
0.714465
0.908367
1.41941
2.16198
3.41311
6.03673
7.10822
7.96287
8.55986
8.94993
9.17572
9.25223
9.1818
8.97072
8.6325
8.19771
7.70681
7.17088
6.5334
5.75035
4.95523
4.26318
3.70764
3.25395
2.85915
2.45075
1.97909
1.47263
1.06342
0.817431
0.741047
0.853849
1.39552
2.20243
3.35251
5.59293
6.59156
7.44566
8.08041
8.5243
8.81062
8.94987
8.94922
8.80538
8.53071
8.16414
7.73027
7.2444
6.63825
5.87142
5.08194
4.38213
3.81205
3.35175
2.96522
2.58327
2.14607
1.6616
1.24342
0.944626
0.806236
0.865764
1.34007
2.21191
3.27458
5.14619
6.08201
6.93208
7.60314
8.10281
8.4503
8.65218
8.71529
8.63642
8.42259
8.11397
7.74058
7.29524
6.71779
5.9691
5.18869
4.4854
3.90614
3.44338
3.06798
2.71223
2.30847
1.84617
1.42674
1.09211
0.898911
0.905583
1.28897
2.19303
3.18924
4.71017
5.59414
6.43514
7.13483
7.6849
8.09047
8.35179
8.47271
8.45498
8.29886
8.04263
7.72954
7.32302
6.77
6.04342
5.27613
4.57382
3.99049
3.52926
3.16726
2.83914
2.4662
2.02692
1.60912
1.25159
1.01273
0.961115
1.25692
2.156
3.10767
4.29957
5.14039
5.96675
6.68501
7.27616
7.73286
8.04836
8.22174
8.2583
8.15662
7.95208
7.68578
7.32897
6.79863
6.09787
5.3471
4.6496
4.06682
3.61075
3.26365
2.96381
2.62018
2.20483
1.79092
1.41802
1.14232
1.0307
1.25598
2.10983
3.03055
3.93089
4.73082
5.53763
6.26239
6.88325
7.38176
7.74425
7.96433
8.04743
7.99694
7.84256
7.62062
7.30711
6.80963
6.13682
5.40489
4.71543
4.13719
3.68972
3.35874
3.08707
2.77189
2.38148
1.97321
1.58895
1.28325
1.11919
1.27751
2.0581
2.95416
3.62252
4.3782
5.15884
5.87435
6.51178
7.04159
7.4426
7.70301
7.82588
7.82226
7.71568
7.53761
7.26227
6.8065
6.16387
5.45268
4.77424
4.20411
3.76828
3.45525
3.21168
2.92424
2.55905
2.15756
1.7641
1.43289
1.2211
1.31451
2.00415
2.87937
3.36836
4.09126
4.83223
5.52708
6.16645
6.71601
7.14657
7.4406
7.59844
7.6355
7.57509
7.44088
7.20449
6.78973
6.18211
5.49386
4.82952
4.27093
3.84949
3.55827
3.34171
3.08152
2.74095
2.34787
1.94562
1.59075
1.3343
1.36314
1.95467
2.80905
3.15479
3.85966
4.56203
5.22731
5.85166
6.40867
6.85942
7.18026
7.36883
7.44162
7.42562
7.33567
7.13955
6.76596
6.19591
5.5329
4.88611
4.34269
3.93813
3.67267
3.48282
3.2494
2.93269
2.54829
2.13782
1.75844
1.46005
1.42283
1.91424
2.74554
2.97032
3.67171
4.34282
4.96973
5.5717
6.12396
6.58511
6.92591
7.14128
7.24728
7.27299
7.22872
7.07481
6.74244
6.21127
5.57633
4.95119
4.42695
4.042
3.80606
3.64314
3.43608
3.14251
2.76621
2.34582
1.94137
1.59875
1.49194
1.88899
2.69143
2.80519
3.51745
4.16523
4.75699
5.33025
5.86683
6.32883
6.68299
6.9217
7.05985
7.12538
7.12844
7.01917
6.73114
6.2376
5.63442
5.03589
4.53542
4.17432
3.97164
3.83452
3.65353
3.38207
3.01266
2.57841
2.14207
1.75226
1.57412
1.88591
2.64919
2.6523
3.38823
4.02086
4.58269
5.12327
5.64157
6.09703
6.45911
6.71865
6.88875
6.99532
7.04562
6.98452
6.74334
6.28932
5.72348
5.15802
4.68648
4.35969
4.18913
4.07523
3.91909
3.66813
3.30319
2.84941
2.37035
1.92668
1.67889
1.90596
2.62006
2.50735
3.27696
3.90303
4.44099
4.95342
5.45103
5.89806
6.26442
6.54419
6.74806
6.89799
6.99871
6.99173
6.79529
6.38911
5.86975
5.34642
4.9104
4.62909
4.48857
4.39409
4.25923
4.02519
3.66037
3.17897
2.64082
2.12879
1.80634
1.94763
2.6038
2.37402
3.17825
3.80661
4.32765
4.81835
5.29912
5.73944
6.11324
6.41565
6.65821
6.85694
7.01626
7.06436
6.92154
6.57488
6.11601
5.64775
5.26415
5.03211
4.91683
4.83602
4.71549
4.4906
4.11744
3.59374
2.97407
2.36804
1.95541
2.01658
2.60062
2.26285
3.08817
3.72794
4.23997
4.71776
5.19046
5.63067
6.0227
6.35491
6.63893
6.90833
7.13778
7.25324
7.17464
6.90934
6.53345
6.14089
5.83549
5.6493
5.54989
5.47474
5.35517
5.12373
4.72524
4.13591
3.40064
2.65963
2.12882
2.11034
2.61145
2.18801
3.00579
3.66554
4.17776
4.65418
5.13136
5.58325
6.00148
6.39659
6.76179
7.11294
7.42838
7.63613
7.64935
7.4998
7.24426
6.97483
6.75652
6.61255
6.52158
6.43657
6.29203
6.0222
5.5644
4.87028
3.96681
3.02971
2.34029
2.22413
2.63589
2.17007
2.93685
3.62216
4.14488
4.63418
5.13922
5.66792
6.17381
6.647
7.10528
7.56919
8.00619
8.34808
8.51213
8.54243
8.47633
8.36742
8.25326
8.15688
8.06641
7.9418
7.72264
7.3524
6.7692
5.90054
4.74572
3.51902
2.60094
2.36583
2.6823
2.23888
2.89755
3.61029
4.17263
4.74434
5.35593
5.99698
6.61679
7.22134
7.83027
8.4649
9.08729
9.64426
10.0558
10.3817
10.5817
10.6924
10.7335
10.7074
10.5993
10.3776
9.99112
9.40106
8.56474
7.40019
5.86157
4.20092
2.93674
2.54289
2.76985
2.43449
2.9433
3.70847
4.40386
5.11538
5.88449
6.70909
7.52927
8.35568
9.21683
10.138
11.0697
11.9707
12.7712
13.5534
14.1789
14.6448
14.9322
15.0011
14.8355
14.4026
13.6741
12.6513
11.3324
9.66289
7.53459
5.2199
3.42759
2.81583
2.959
2.8245
3.23392
4.10159
5.01526
5.97816
7.02305
8.16193
9.34088
10.5469
11.8323
13.2227
14.6586
16.1135
17.54
19.0642
20.3738
21.3851
22.0301
22.1806
21.8492
20.9883
19.6184
17.8219
15.6772
13.1581
10.1572
6.87299
4.30427
3.34204
3.41127
3.72001
4.05323
5.19113
6.51262
7.93972
9.49085
11.1767
12.988
14.835
16.8232
18.969
21.2014
23.5166
25.8898
28.5122
30.7639
32.4262
33.4033
33.374
32.2795
30.4911
28.1386
25.3171
22.0999
18.485
14.3962
9.83565
6.13021
4.55879
4.5126
6.12403
6.47366
8.15395
10.267
12.5556
14.9949
17.5877
20.4162
23.2505
26.2857
29.5102
32.8377
36.2864
39.8103
43.6149
46.5666
48.0234
47.8435
46.4026
44.0638
41.2113
37.9965
34.4351
30.4981
26.1081
21.1424
15.3903
10.3185
7.70971
7.38245
13.0091
13.5383
16.1814
19.6189
23.2408
26.945
30.7221
34.7401
38.7083
42.8731
47.1691
51.4912
55.8207
59.912
63.6052
64.5136
63.4147
60.9178
57.6222
53.9438
50.2604
46.7042
43.1919
39.5456
35.5002
30.7383
24.9168
19.2965
15.8022
14.9776
28.494
30.0728
33.9614
38.7583
43.4911
48.0617
52.474
56.9348
61.2841
65.7064
70.0522
74.1573
77.6377
79.554
78.8827
75.4047
70.7582
65.5121
60.3907
55.7503
51.8718
48.7847
46.3704
44.3815
42.4094
39.91
36.4658
32.8373
30.5989
30.8427
40.7487
45.2558
50.6176
55.8251
60.6501
65.1507
69.0635
72.7871
76.2324
79.3432
81.9563
83.6924
83.6153
80.7482
75.5438
68.3691
61.3153
54.6665
48.9762
44.4502
41.2021
39.0973
38.0318
37.8531
38.2913
38.8247
39.0575
39.2509
40.213
42.6119
19.3483
26.8863
30.4597
32.659
33.9518
34.2624
33.6823
32.3902
30.5326
28.2685
25.6794
22.9149
19.9828
17.0095
13.7607
10.5504
8.07413
6.91181
6.57517
6.09565
4.70262
2.61113
1.34825
0.269307
1.52153
2.17772
2.85073
3.29756
3.34502
5.27188
10.8508
12.9888
14.2396
15.0352
15.5741
15.7997
15.6812
15.2429
14.5357
13.6098
12.5166
11.2951
9.98114
8.56099
7.08861
5.85709
5.09501
4.7939
4.52157
4.14436
3.38403
2.16529
0.99622
0.499913
0.805334
1.01901
1.28146
1.72437
2.4514
4.19471
9.67202
11.0869
11.9739
12.5035
12.7913
12.8855
12.7787
12.4686
11.9704
11.3027
10.4956
9.57821
8.57781
7.46089
6.29191
5.35385
4.78659
4.49789
4.15403
3.72827
3.08422
2.10783
1.05677
0.586532
0.685601
0.844008
1.0967
1.66665
2.54883
4.24132
9.12017
10.324
11.1287
11.5945
11.8247
11.8944
11.8123
11.5738
11.181
10.6366
9.95883
9.1737
8.31091
7.32548
6.25715
5.3883
4.82312
4.45769
4.04382
3.56933
2.95935
2.10962
1.20152
0.726301
0.692714
0.796846
1.08775
1.71314
2.66323
4.29169
8.67241
9.76773
10.554
11.021
11.2665
11.3628
11.3269
11.1526
10.8385
10.3773
9.77929
9.08736
8.33202
7.40296
6.37892
5.52793
4.92877
4.48228
4.01741
3.51194
2.91373
2.15913
1.42653
0.917715
0.759135
0.81336
1.09404
1.75706
2.75341
4.30732
8.19836
9.21959
10.0093
10.5116
10.8099
10.9623
10.9879
10.8807
10.6361
10.2416
9.71771
9.10591
8.40514
7.51512
6.51999
5.67817
5.04588
4.54021
4.03019
3.50468
2.9367
2.28541
1.65409
1.13328
0.873811
0.865056
1.1106
1.78807
2.81386
4.29136
7.68116
8.64144
9.44323
10.0002
10.3696
10.5944
10.6887
10.6526
10.4747
10.1415
9.68899
9.13387
8.47783
7.61599
6.64914
5.82003
5.16277
4.61521
4.08649
3.56039
3.0335
2.43303
1.8651
1.34839
1.02026
0.94914
1.14715
1.80811
2.84766
4.24178
7.13101
8.04111
8.85687
9.47604
9.92402
10.2274
10.3939
10.4281
10.3161
10.0426
9.6524
9.15089
8.53296
7.69579
6.76406
5.95375
5.27942
4.70407
4.17176
3.66839
3.16077
2.58393
2.05611
1.55161
1.18071
1.05089
1.2002
1.82352
2.86163
4.16763
6.56869
7.43942
8.26873
8.94764
9.47276
9.85369
10.0926
10.1921
10.1451
9.93001
9.59101
9.15147
8.56678
7.75834
6.8719
6.08474
5.39886
4.80574
4.27764
3.80031
3.30217
2.73824
2.23146
1.74186
1.34422
1.16168
1.26337
1.83812
2.86217
4.07131
6.01539
6.85623
7.69854
8.42861
9.02238
9.47512
9.78208
9.94216
9.95609
9.7983
9.50838
9.12306
8.58151
7.81317
6.98171
6.21895
5.52459
4.92115
4.40367
3.95126
3.45811
2.9006
2.39901
1.91877
1.50527
1.27663
1.33348
1.85392
2.8476
3.95924
5.49003
6.30818
7.16203
7.93104
8.58118
9.09615
9.46453
9.68065
9.74794
9.64651
9.40906
9.07126
8.58458
7.87207
7.1031
6.36166
5.66008
5.05231
4.5539
4.12131
3.6309
3.07804
2.56946
2.08896
1.66223
1.39372
1.40787
1.87079
2.81889
3.84436
5.01466
5.81434
6.67213
7.46525
8.15744
8.72302
9.14416
9.41018
9.52459
9.47834
9.29652
9.00945
8.58643
7.94623
7.24188
6.51699
5.80928
5.20217
4.72997
4.31315
3.82613
3.27875
2.75489
2.26207
1.81785
1.51142
1.48317
1.88708
2.78084
3.73707
4.60271
5.38782
6.24114
7.0408
7.75924
8.36255
8.82659
9.13597
9.29255
9.29953
9.17729
8.94881
8.59838
8.04466
7.40209
6.68924
5.97797
5.37704
4.93552
4.53177
4.05103
3.51134
2.96752
2.45115
1.98058
1.63438
1.55882
1.90303
2.73724
3.63527
4.24076
5.02043
5.86651
6.66613
7.39418
8.02179
8.5183
8.86425
9.06063
9.11715
9.0602
8.89963
8.63036
8.17433
7.58771
6.88477
6.17558
5.58912
5.18153
4.78882
4.31616
3.78264
3.21958
2.67147
2.16349
1.77038
1.63848
1.92509
2.69337
3.54223
3.91957
4.70544
5.54353
6.34012
7.069
7.7078
8.22651
8.60266
8.83716
8.94293
8.956
8.87518
8.69996
8.34221
7.8052
7.11438
6.41703
5.85964
5.48627
5.10183
4.63694
4.10312
3.52446
2.93928
2.3757
1.92511
1.73308
1.95428
2.65368
3.46006
3.63624
4.43778
5.26928
6.05773
6.78703
7.42756
7.9592
8.36041
8.63283
8.79179
8.87809
8.89181
8.82129
8.55725
8.06675
7.39618
6.72485
6.21883
5.87267
5.49463
5.03573
4.49694
3.89782
3.26544
2.63216
2.10594
1.84227
1.99479
2.62256
3.39005
3.38884
4.21252
5.03972
5.81746
6.54106
7.18563
7.72624
8.14905
8.4617
8.67926
8.84765
8.96856
9.01122
8.83391
8.39462
7.75996
7.13567
6.6987
6.37154
6.00142
5.54517
4.99591
4.37049
3.67667
2.95422
2.32561
1.96914
2.05421
2.60443
3.33318
3.17845
4.02525
4.85018
5.61781
6.33465
6.98327
7.5369
7.98429
8.34277
8.63001
8.8913
9.12829
9.29572
9.19959
8.82707
8.25398
7.71625
7.35158
7.03792
6.67426
6.21445
5.64605
4.98286
4.20995
3.36982
2.60221
2.12423
2.13731
2.60782
3.29114
3.00485
3.87263
4.69739
5.45774
6.17
6.82494
7.39799
7.8794
8.2889
8.65416
9.04259
9.40792
9.71103
9.70477
9.4273
8.95541
8.54766
8.24791
7.95259
7.5931
7.11984
6.51732
5.79345
4.91612
3.91953
2.9611
2.32443
2.24602
2.63277
3.26608
2.87191
3.75279
4.57975
5.33781
6.05146
6.71824
7.31907
7.83961
8.33907
8.83091
9.35347
9.86508
10.3187
10.437
10.2975
9.99372
9.73704
9.50348
9.24048
8.88301
8.38106
7.71869
6.89069
5.86654
4.66075
3.43985
2.58756
2.38695
2.69131
3.26847
2.78651
3.66635
4.4985
5.26206
5.98684
6.67519
7.32344
7.97273
8.59415
9.21819
9.90245
10.5927
11.2277
11.5273
11.6123
11.5384
11.4386
11.3059
11.0987
10.7419
10.1878
9.40651
8.39828
7.16107
5.6751
4.0941
2.94116
2.57424
2.78911
3.30341
2.75228
3.61839
4.45959
5.24058
6.00106
6.79413
7.58778
8.3681
9.1344
9.929
10.8249
11.7457
12.6197
13.1888
13.6163
13.8115
13.9232
13.9479
13.8371
13.481
12.7778
11.762
10.4814
8.93708
7.07835
5.00956
3.43847
2.82994
2.94048
3.38676
2.80044
3.63638
4.51584
5.39129
6.29494
7.22571
8.18181
9.1416
10.1189
11.1649
12.3499
13.5836
14.7967
15.7463
16.6334
17.1989
17.6081
17.8737
17.8185
17.3056
16.3505
15.0042
13.3405
11.3743
9.03533
6.33375
4.18572
3.22635
3.20436
3.55791
3.06527
3.86622
4.85439
5.89067
6.98368
8.12217
9.3111
10.553
11.8422
13.247
14.838
16.5084
18.1914
19.6775
21.2155
22.2642
23.0732
23.4329
23.1986
22.3953
21.0807
19.3134
17.1733
14.6864
11.769
8.30381
5.38726
3.9253
3.67134
3.94776
3.65436
4.49062
5.6731
6.99204
8.3874
9.85946
11.4116
13.0851
14.8345
16.7527
18.913
21.1907
23.5187
25.7374
28.1291
29.7106
30.6145
30.6488
29.9587
28.6752
26.9059
24.6925
22.0766
19.0632
15.5513
11.2845
7.42914
5.25947
4.62973
4.80649
5.07125
5.98735
7.54292
9.32477
11.2283
13.23
15.3331
17.6274
20.0284
22.6505
25.5701
28.6417
31.7866
34.8927
38.1809
39.7254
39.9107
39.0343
37.5227
35.5517
33.2886
30.7332
27.8403
24.5202
20.6166
15.7605
10.9899
7.94711
6.76169
6.73003
8.57305
9.64172
11.8061
14.338
17.0102
19.7616
22.6042
25.6764
28.8748
32.33
36.1155
40.0542
44.0156
47.8513
51.4669
51.1871
49.627
47.1309
44.4049
41.6227
38.9612
36.3555
33.6425
30.5842
26.8961
22.1025
16.9637
13.2198
11.4513
11.133
16.8618
18.2068
21.1877
24.6473
28.1923
31.7137
35.2433
38.9667
42.8163
46.9279
51.3357
55.8048
60.0455
63.5524
64.9413
61.2098
56.9411
52.3229
48.2334
44.7276
41.912
39.6653
37.7361
35.7585
33.3177
29.7976
25.5784
22.1256
20.4192
20.3628
31.0582
33.7569
37.6066
41.7377
45.7235
49.4825
53.105
56.8148
60.6404
64.6735
68.8427
72.7765
75.817
76.209
73.4357
65.3493
57.9975
51.3555
46.1831
42.2881
39.614
38.0103
37.2334
36.9528
36.6834
35.7563
34.0807
32.685
32.6119
34.0104
39.2354
44.0285
49.406
54.546
59.0514
62.8595
66.2884
69.6165
72.8975
76.0588
78.9336
80.9213
80.8851
76.9002
69.8746
58.6788
49.6692
42.2852
36.9075
33.1437
30.8588
29.8283
29.8592
30.8263
32.3038
33.6953
34.7914
36.0939
38.191
41.5449
24.3394
33.142
37.3537
39.8877
41.3192
41.7919
41.2244
39.7551
37.5142
34.6654
31.2787
27.5388
23.4254
19.1377
14.5428
10.9333
9.94793
12.5431
14.7189
14.2745
11.9434
8.51811
4.06086
1.18344
1.70104
2.47821
3.25641
3.78632
4.04021
6.05264
13.4217
15.7147
17.0027
17.8001
18.2801
18.5347
18.4456
17.9939
17.2176
16.1493
14.8429
13.3245
11.6405
9.73244
7.89268
6.80404
6.86179
7.95878
8.58368
8.44669
7.51686
6.04676
3.74612
1.08346
1.12165
1.3486
1.64944
2.36103
3.3165
5.15769
12.0635
13.4327
14.2326
14.7009
14.9216
14.9885
14.8719
14.5461
14.0106
13.2652
12.3341
11.2353
9.99719
8.54861
7.18062
6.43022
6.41938
6.89733
7.06144
6.93943
6.34134
5.3406
3.71467
1.41278
1.16158
1.31003
1.59785
2.37919
3.52173
5.33342
11.4947
12.5783
13.2626
13.647
13.8015
13.8221
13.7124
13.454
13.0325
12.4305
11.6578
10.73
9.67187
8.41183
7.19943
6.50241