/*--------------------------------*- C++ -*----------------------------------*\
  =========                 |
  \\      /  F ield         | OpenFOAM: The Open Source CFD Toolbox
   \\    /   O peration     | Website:  https://openfoam.org
    \\  /    A nd           | Version:  12
     \\/     M anipulation  |
\*---------------------------------------------------------------------------*/
FoamFile
{
    format      ascii;
    class       volScalarField;
    location    "700/air";
    object      k;
}
// * * * * * * * * * * * * * * * * * * * * * * * * * * * * * * * * * * * * * //

dimensions      [0 2 -2 0 0 0 0];

internalField   nonuniform List<scalar> 
243000
(
0.111563
0.123205
0.127907
0.128665
0.126698
0.122631
0.117185
0.11104
0.104686
0.0985767
0.092998
0.0884836
0.0852891
0.0836537
0.083011
0.0823941
0.0811081
0.0789381
0.0759102
0.0721413
0.0678181
0.0633138
0.0583486
0.050834
0.0398218
0.0350338
0.0470709
0.0530761
0.0573322
0.0623035
0.169284
0.191919
0.199167
0.198472
0.193608
0.185992
0.176786
0.16685
0.156774
0.147054
0.138049
0.130272
0.123619
0.117969
0.112409
0.106439
0.100256
0.0942696
0.0885965
0.0832131
0.0780415
0.0731158
0.068261
0.0618889
0.0518598
0.0472488
0.0682373
0.0840517
0.0950304
0.106878
0.202906
0.232127
0.243891
0.244569
0.239869
0.231698
0.221458
0.210189
0.198587
0.187228
0.176574
0.16718
0.158814
0.151212
0.143174
0.134272
0.125042
0.116318
0.108343
0.10109
0.0943937
0.0880867
0.0818051
0.0743422
0.0633879
0.0552753
0.0739415
0.0976192
0.114212
0.130796
0.222526
0.256396
0.272064
0.274413
0.270511
0.262633
0.252271
0.240569
0.228305
0.216142
0.204585
0.194231
0.184859
0.176115
0.166591
0.155855
0.144617
0.133972
0.124284
0.115568
0.107614
0.100123
0.0925585
0.0841781
0.0728816
0.0623437
0.0724161
0.102927
0.124378
0.145485
0.233869
0.271311
0.290076
0.294456
0.291881
0.284969
0.275222
0.263822
0.251598
0.239286
0.227422
0.216639
0.206782
0.197405
0.186898
0.174854
0.162112
0.149948
0.138845
0.128874
0.119806
0.111262
0.102552
0.0932498
0.0816488
0.0693574
0.0691916
0.103686
0.130662
0.155653
0.239928
0.278333
0.300746
0.30729
0.30638
0.300843
0.292174
0.281553
0.269836
0.25782
0.246058
0.235239
0.225272
0.215611
0.204482
0.191512
0.177679
0.164331
0.152083
0.141064
0.13105
0.12161
0.111935
0.101794
0.0898972
0.0765108
0.0700824
0.0991275
0.133453
0.162299
0.241624
0.279877
0.305114
0.314585
0.315599
0.311697
0.304408
0.294883
0.283989
0.272572
0.261213
0.250656
0.240849
0.231164
0.219673
0.206084
0.191483
0.177235
0.16408
0.152206
0.141408
0.131224
0.120755
0.109898
0.0976963
0.0837091
0.0734898
0.0914929
0.133678
0.165978
0.24011
0.27787
0.30471
0.317468
0.320657
0.318576
0.312857
0.304634
0.294777
0.284175
0.273443
0.263366
0.25392
0.244398
0.232751
0.218793
0.203683
0.188783
0.174929
0.162375
0.150942
0.140154
0.129032
0.117594
0.105094
0.0907703
0.0779845
0.0845256
0.131469
0.167192
0.236162
0.273401
0.301425
0.316665
0.322322
0.322246
0.318226
0.311439
0.302758
0.293122
0.283182
0.273748
0.264807
0.255582
0.243949
0.22983
0.214417
0.199093
0.184722
0.171645
0.159714
0.148442
0.136788
0.124901
0.112136
0.0976261
0.0831311
0.0799026
0.127164
0.166276
0.230168
0.266999
0.295983
0.313361
0.321327
0.323305
0.321066
0.315792
0.308374
0.299805
0.290774
0.282102
0.273767
0.264936
0.253459
0.239352
0.223818
0.208263
0.193543
0.180084
0.167779
0.156131
0.144046
0.131833
0.118858
0.104248
0.0887376
0.0801856
0.120189
0.163705
0.222531
0.25903
0.288844
0.308066
0.318392
0.322328
0.321881
0.318068
0.311973
0.304538
0.296497
0.288674
0.28101
0.272642
0.261439
0.247495
0.232
0.216372
0.201472
0.18776
0.175191
0.163258
0.150833
0.138407
0.125285
0.110627
0.0945893
0.0830869
0.112332
0.160328
0.214816
0.249872
0.280365
0.301253
0.313811
0.319681
0.321003
0.318756
0.31385
0.307577
0.300579
0.293659
0.286717
0.278853
0.268023
0.254371
0.239059
0.2235
0.208569
0.194729
0.181996
0.169864
0.157185
0.144646
0.131434
0.116717
0.100392
0.0865637
0.105277
0.156385
0.206804
0.240622
0.27088
0.293275
0.30785
0.315682
0.318686
0.318014
0.314423
0.309173
0.303221
0.297225
0.291029
0.283708
0.273331
0.260082
0.245083
0.229725
0.214885
0.201048
0.188241
0.175989
0.163146
0.150577
0.137323
0.122561
0.10607
0.0905614
0.0995935
0.152053
0.19832
0.231599
0.261012
0.284413
0.300754
0.310566
0.315174
0.316022
0.31376
0.309651
0.304611
0.299522
0.294075
0.287326
0.277465
0.264719
0.250151
0.235115
0.220482
0.206754
0.193975
0.181678
0.168768
0.156231
0.142968
0.128196
0.111608
0.0949094
0.0955466
0.147506
0.189184
0.222633
0.251698
0.274976
0.292794
0.304489
0.310668
0.312937
0.312
0.309024
0.304992
0.300684
0.295974
0.289814
0.280525
0.268366
0.254338
0.239737
0.225417
0.211894
0.199242
0.18698
0.17411
0.161636
0.148409
0.133641
0.116994
0.099531
0.0932765
0.14287
0.179218
0.213576
0.242716
0.265852
0.284234
0.29759
0.305323
0.308916
0.30927
0.307415
0.304352
0.300903
0.296829
0.291275
0.282604
0.271111
0.25772
0.243658
0.229752
0.216526
0.204091
0.191943
0.179207
0.166829
0.153663
0.138917
0.122233
0.10424
0.0936023
0.137856
0.168227
0.204294
0.233924
0.257158
0.275332
0.290034
0.299284
0.304113
0.305664
0.304928
0.302825
0.300184
0.29682
0.291817
0.283801
0.273042
0.260376
0.246948
0.233548
0.220709
0.20858
0.196623
0.184076
0.171839
0.158765
0.14406
0.127349
0.108986
0.0958697
0.132622
0.155317
0.194622
0.225221
0.248783
0.26697
0.282
0.292681
0.298654
0.301302
0.301651
0.300489
0.29865
0.295933
0.291542
0.284214
0.274255
0.262393
0.249686
0.236878
0.224512
0.212764
0.201077
0.188762
0.176706
0.163762
0.149119
0.132382
0.113734
0.0989015
0.128004
0.140282
0.184367
0.21655
0.240661
0.258998
0.273705
0.285608
0.292651
0.296309
0.297666
0.297428
0.296384
0.294301
0.290525
0.283936
0.274848
0.26386
0.251956
0.23982
0.228005
0.216707
0.205366
0.193315
0.181482
0.168708
0.154152
0.137389
0.118488
0.102143
0.124133
0.125561
0.172927
0.207882
0.232764
0.251336
0.265857
0.278156
0.286189
0.290769
0.293058
0.293704
0.293438
0.292005
0.288864
0.283057
0.274878
0.264857
0.253841
0.242454
0.231258
0.220461
0.209533
0.197786
0.186216
0.173657
0.159223
0.142437
0.123291
0.105659
0.120912
0.11454
0.159798
0.19921
0.225096
0.243954
0.258397
0.270446
0.27932
0.284737
0.287889
0.28937
0.289855
0.289097
0.286628
0.281652
0.274456
0.265472
0.255407
0.244843
0.234317
0.224066
0.213607
0.202217
0.19095
0.178662
0.164381
0.147582
0.128189
0.109434
0.118378
0.109389
0.146127
0.190455
0.217693
0.236845
0.251266
0.263044
0.272091
0.278208
0.282159
0.284432
0.285637
0.28557
0.283832
0.279742
0.273592
0.265683
0.256662
0.246991
0.237183
0.227518
0.217569
0.206627
0.195712
0.183751
0.169666
0.152875
0.133223
0.11345
0.116691
0.110333
0.134223
0.181501
0.210615
0.230026
0.244425
0.255987
0.264739
0.271217
0.275818
0.278817
0.280717
0.281335
0.280387
0.277241
0.272206
0.265438
0.257543
0.248803
0.239759
0.230713
0.221302
0.210953
0.20053
0.188982
0.175156
0.158375
0.138433
0.117706
0.116021
0.116076
0.12604
0.172977
0.203962
0.223495
0.237823
0.249278
0.257929
0.264157
0.268882
0.272448
0.274959
0.276221
0.276072
0.273903
0.270031
0.264485
0.257727
0.25003
0.241835
0.233466
0.224657
0.215295
0.205542
0.194507
0.181015
0.164223
0.143915
0.122266
0.116505
0.123688
0.12228
0.165759
0.197861
0.21732
0.231595
0.243007
0.251719
0.257823
0.262517
0.266155
0.268858
0.27049
0.270917
0.269703
0.267
0.262832
0.257435
0.251081
0.244041
0.236607
0.228747
0.220381
0.21133
0.200823
0.187652
0.170836
0.149972
0.127273
0.118221
0.132035
0.12242
0.161016
0.192783
0.211986
0.22609
0.237463
0.246405
0.252581
0.257477
0.261432
0.264581
0.266814
0.268031
0.267932
0.266518
0.263792
0.259849
0.254829
0.248946
0.242451
0.235406
0.227753
0.219231
0.20907
0.196054
0.178992
0.157314
0.133154
0.121516
0.141896
0.126674
0.160109
0.189763
0.20851
0.222579
0.234051
0.243582
0.25026
0.255818
0.26057
0.264604
0.267949
0.270421
0.271807
0.271962
0.270834
0.268408
0.264707
0.259893
0.254193
0.247703
0.24038
0.231962
0.22176
0.208466
0.190688
0.167611
0.141305
0.127588
0.157211
0.139414
0.167975
0.194488
0.21308
0.227555
0.239718
0.250616
0.25875
0.26593
0.272376
0.278285
0.283681
0.288226
0.291651
0.293608
0.294019
0.29279
0.289887
0.285498
0.279915
0.273246
0.26542
0.256242
0.245125
0.230852
0.211681
0.186319
0.156864
0.141412
0.207516
0.192588
0.214683
0.23907
0.258268
0.274011
0.287603
0.30044
0.311166
0.321074
0.329881
0.338576
0.347091
0.354208
0.359472
0.362539
0.363419
0.362066
0.358491
0.353049
0.346238
0.338161
0.32839
0.317059
0.303963
0.288096
0.267897
0.241439
0.209864
0.193416
0.439556
0.439157
0.451878
0.468619
0.482639
0.492238
0.498639
0.504307
0.510387
0.516968
0.521436
0.528328
0.537188
0.54314
0.546403
0.547694
0.547051
0.544724
0.54063
0.535743
0.53084
0.525849
0.517513
0.508422
0.49953
0.489709
0.478347
0.462691
0.44249
0.433949
0.157453
0.186664
0.198391
0.203103
0.202241
0.197305
0.189552
0.180107
0.16979
0.159321
0.149106
0.139706
0.131307
0.124216
0.117217
0.108941
0.0990884
0.0881893
0.0768512
0.0654997
0.0543936
0.0440145
0.0370115
0.0321209
0.0325175
0.0414597
0.0512031
0.0566062
0.0596206
0.072963
0.257016
0.306363
0.323986
0.326962
0.319923
0.306672
0.289895
0.27146
0.25238
0.233396
0.214787
0.197017
0.179868
0.162839
0.144834
0.126806
0.110986
0.0980945
0.0875571
0.0786665
0.0702378
0.0619433
0.0541246
0.047737
0.0474449
0.0632841
0.0777047
0.0986869
0.117863
0.152822
0.310885
0.373714
0.401452
0.409869
0.404755
0.39152
0.373218
0.352079
0.329409
0.306218
0.282981
0.260353
0.238122
0.215519
0.19112
0.166772
0.145422
0.128576
0.115417
0.104937
0.0954535
0.0861254
0.0764779
0.0667141
0.0600953
0.0694107
0.0878696
0.118053
0.148773
0.192789
0.336921
0.413029
0.44789
0.461794
0.460149
0.449348
0.432313
0.411315
0.387817
0.363014
0.337589
0.312397
0.287285
0.261293
0.232756
0.204008
0.1785
0.158269
0.142578
0.130354
0.119679
0.109249
0.0982574
0.0854445
0.0725613
0.0726214
0.0904993
0.127613
0.167798
0.218412
0.351983
0.433375
0.475064
0.493847
0.496389
0.488998
0.474547
0.455147
0.432317
0.407375
0.381207
0.354896
0.328309
0.300301
0.268924
0.237041
0.208433
0.185424
0.167556
0.153786
0.142102
0.130873
0.11912
0.104113
0.0861078
0.0771395
0.0882562
0.131486
0.180575
0.236356
0.358996
0.438602
0.488335
0.511842
0.519145
0.515593
0.504415
0.487432
0.466153
0.442001
0.41607
0.389651
0.362545
0.333427
0.300099
0.265989
0.235094
0.209846
0.190172
0.175128
0.162698
0.151042
0.139059
0.122652
0.100838
0.0841607
0.0858142
0.130713
0.18759
0.249105
0.35836
0.435351
0.487892
0.519347
0.531821
0.532459
0.524906
0.5108
0.49161
0.468872
0.443868
0.41804
0.391096
0.361518
0.32695
0.291323
0.258774
0.231755
0.21062
0.194568
0.181652
0.169928
0.158142
0.140948
0.116482
0.0937541
0.0889731
0.123852
0.190304
0.257803
0.354218
0.428072
0.482585
0.517661
0.536654
0.541986
0.538139
0.527141
0.510346
0.489428
0.465838
0.441081
0.414809
0.385242
0.350034
0.313468
0.279763
0.251424
0.229129
0.212319
0.19917
0.187679
0.176414
0.158856
0.132616
0.105364
0.093714
0.11583
0.190144
0.262801
0.347117
0.417971
0.473844
0.512036
0.534963
0.545671
0.545677
0.537879
0.523615
0.504759
0.482912
0.459573
0.434357
0.405118
0.369798
0.332777
0.298325
0.269092
0.245923
0.228584
0.215439
0.204426
0.193907
0.176237
0.148823
0.118287
0.0999758
0.110225
0.186417
0.264606
0.337394
0.405888
0.462739
0.503586
0.530016
0.544506
0.548772
0.544122
0.532396
0.515718
0.495813
0.474151
0.450227
0.42163
0.386624
0.349556
0.314714
0.284951
0.261189
0.243548
0.230603
0.220301
0.210647
0.193016
0.164844
0.131974
0.107827
0.110475
0.179214
0.263982
0.325572
0.392552
0.45007
0.493145
0.522638
0.540638
0.548409
0.546758
0.537469
0.522993
0.505141
0.485346
0.462823
0.435174
0.400835
0.364063
0.329151
0.299167
0.275103
0.257377
0.244793
0.235454
0.226668
0.209181
0.180552
0.146045
0.117039
0.113548
0.17021
0.260369
0.312381
0.378686
0.436556
0.481354
0.513477
0.534514
0.545367
0.547019
0.53974
0.527176
0.511424
0.493551
0.472579
0.446115
0.412715
0.376529
0.341835
0.31189
0.287831
0.270226
0.258129
0.249954
0.242018
0.224768
0.195891
0.160317
0.127543
0.117817
0.161123
0.255184
0.297701
0.36487
0.422842
0.468772
0.503057
0.52663
0.540239
0.544676
0.540152
0.529139
0.515148
0.49921
0.479881
0.454777
0.422531
0.387178
0.352968
0.32331
0.299511
0.282234
0.270754
0.263845
0.256776
0.239857
0.210867
0.174413
0.139054
0.122851
0.154033
0.249287
0.281674
0.350595
0.409451
0.455914
0.49182
0.517444
0.533458
0.540303
0.538235
0.52953
0.516973
0.502731
0.485105
0.461472
0.430544
0.396239
0.362761
0.333626
0.310303
0.293548
0.282838
0.277256
0.271075
0.254594
0.225564
0.188432
0.151234
0.128797
0.150208
0.243125
0.2645
0.335853
0.396066
0.443182
0.480167
0.50739
0.525398
0.534337
0.53473
0.527978
0.517463
0.504574
0.488634
0.466529
0.437046
0.403977
0.37146
0.343062
0.320404
0.304344
0.294595
0.290366
0.285096
0.269186
0.240215
0.20248
0.163653
0.136237
0.149519
0.237509
0.246317
0.320682
0.382652
0.4309
0.468468
0.496885
0.51644
0.527229
0.529798
0.525084
0.516547
0.505306
0.490867
0.47032
0.442383
0.41072
0.379367
0.351899
0.330065
0.314849
0.306304
0.303386
0.299073
0.283899
0.255102
0.216762
0.176348
0.14478
0.151505
0.232872
0.227754
0.3052
0.369208
0.418849
0.457059
0.486308
0.507019
0.519376
0.523855
0.521306
0.514529
0.505313
0.492321
0.473296
0.446992
0.416869
0.386879
0.3605
0.339609
0.32536
0.318262
0.316554
0.313302
0.299047
0.270575
0.231571
0.189493
0.154121
0.155429
0.229208
0.20894
0.289579
0.355848
0.407072
0.446109
0.475997
0.497625
0.511261
0.51742
0.517066
0.512166
0.504775
0.493497
0.476002
0.451426
0.423038
0.39452
0.36936
0.349468
0.336301
0.330681
0.330146
0.328115
0.314998
0.287051
0.247328
0.203431
0.164531
0.160817
0.226525
0.191862
0.274002
0.342735
0.395631
0.435712
0.466448
0.488741
0.503446
0.511169
0.5129
0.510063
0.504691
0.494941
0.479133
0.456411
0.429887
0.402986
0.379155
0.360261
0.348266
0.344012
0.344588
0.343916
0.332163
0.304996
0.264687
0.218649
0.176454
0.167443
0.224779
0.177629
0.258565
0.330061
0.384675
0.425987
0.457828
0.480877
0.49664
0.505864
0.509596
0.509006
0.505526
0.49761
0.483631
0.462919
0.4384
0.413234
0.390846
0.372939
0.362157
0.358953
0.360545
0.361233
0.351036
0.324913
0.284093
0.235631
0.19001
0.175301
0.223942
0.168036
0.243629
0.318105
0.374496
0.417098
0.450402
0.474903
0.491652
0.50257
0.508288
0.510132
0.508645
0.502732
0.490803
0.472322
0.449984
0.426669
0.405706
0.388965
0.379102
0.376672
0.37909
0.380878
0.372283
0.34741
0.305965
0.254757
0.205248
0.183832
0.223815
0.164922
0.230299
0.307335
0.365456
0.409353
0.444459
0.470872
0.489234
0.501928
0.510468
0.515001
0.515843
0.512083
0.502572
0.486703
0.466878
0.445635
0.426193
0.410677
0.4013
0.399233
0.402028
0.404333
0.397007
0.373376
0.331047
0.276721
0.222237
0.193895
0.225475
0.169151
0.220229
0.298447
0.357846
0.403311
0.440412
0.46928
0.491073
0.507256
0.518372
0.525968
0.529841
0.528831
0.522178
0.509684
0.493151
0.474621
0.456905
0.44231
0.43305
0.43053
0.432721
0.434408
0.427335
0.404371
0.360514
0.302039
0.241255
0.205341
0.228573
0.181248
0.215232
0.292252
0.352392
0.399682
0.439117
0.473174
0.500348
0.520795
0.53592
0.547456
0.555428
0.558656
0.556205
0.548543
0.536557
0.521431
0.505984
0.492238
0.48245
0.4781
0.477553
0.476451
0.46764
0.443526
0.396784
0.33229
0.263187
0.218508
0.233736
0.198914
0.216426
0.289682
0.350395
0.401029
0.446825
0.487708
0.521165
0.547017
0.568211
0.586033
0.600513
0.610698
0.615134
0.614357
0.608992
0.599544
0.587906
0.575162
0.563657
0.555128
0.548659
0.541105
0.526707
0.497696
0.445028
0.371277
0.290663
0.234848
0.242631
0.226082
0.23206
0.29736
0.362272
0.420117
0.472934
0.522197
0.564441
0.598864
0.629495
0.656956
0.680667
0.701461
0.716738
0.727497
0.732528
0.73222
0.726705
0.715517
0.700912
0.685289
0.668333
0.64822
0.620956
0.579999
0.51623
0.428251
0.331068
0.259193
0.261241
0.277264
0.271185
0.335062
0.40779
0.476328
0.540401
0.602029
0.659121
0.707417
0.752367
0.79359
0.830587
0.864648
0.894314
0.921444
0.940686
0.951465
0.952645
0.941634
0.920925
0.893899
0.860923
0.821199
0.772827
0.71151
0.630173
0.523287
0.403676
0.309111
0.304053
0.397777
0.384709
0.452816
0.540722
0.625453
0.705756
0.782203
0.855027
0.918224
0.978309
1.03349
1.08352
1.12985
1.17186
1.20946
1.23583
1.24778
1.24424
1.22402
1.19087
1.14939
1.10117
1.04578
0.981911
0.905845
0.811503
0.692423
0.554194
0.43727
0.418351
0.679763
0.676715
0.750209
0.847368
0.938984
1.02389
1.10232
1.17495
1.23897
1.29858
1.35209
1.39976
1.43791
1.46545
1.47884
1.4749
1.45086
1.41384
1.3687
1.31905
1.26899
1.22079
1.17441
1.12824
1.07721
1.01307
0.927279
0.820732
0.722309
0.69725
0.992094
1.03808
1.10607
1.17554
1.23935
1.29769
1.34998
1.3973
1.43748
1.46881
1.49256
1.50933
1.51326
1.49869
1.461
1.41045
1.3576
1.30106
1.24576
1.19599
1.15402
1.12002
1.09413
1.07729
1.06652
1.05611
1.04091
1.01963
1.00555
1.01784
0.195866
0.238065
0.253318
0.260759
0.261294
0.256434
0.247575
0.236055
0.222828
0.208734
0.194174
0.179768
0.165572
0.151949
0.137202
0.120398
0.102762
0.0865658
0.0727317
0.0606649
0.0482892
0.0344774
0.0309855
0.0306125
0.0352158
0.0457322
0.0554047
0.061237
0.0646723
0.0888726
0.319736
0.388601
0.416756
0.423465
0.416518
0.401225
0.380991
0.357952
0.333261
0.307689
0.281421
0.2549
0.227506
0.19844
0.168951
0.144369
0.127569
0.118099
0.111206
0.103623
0.0905284
0.0726926
0.0539779
0.0411181
0.0460452
0.0658135
0.085747
0.110913
0.13831
0.183509
0.387522
0.471535
0.512805
0.52656
0.521963
0.506877
0.485145
0.459157
0.430238
0.399347
0.36689
0.333501
0.298454
0.260676
0.221912
0.190356
0.169522
0.158012
0.149843
0.14104
0.12606
0.105447
0.0807336
0.0579626
0.0549404
0.0724932
0.0977392
0.135452
0.179847
0.239459
0.425513
0.521393
0.570831
0.590883
0.590082
0.577679
0.557414
0.531653
0.501764
0.468798
0.433377
0.396259
0.356706
0.313529
0.268823
0.232473
0.207933
0.193502
0.183163
0.172756
0.156703
0.134764
0.10665
0.0773596
0.0646512
0.0749297
0.102525
0.149722
0.2075
0.277893
0.448703
0.549259
0.605653
0.631025
0.634971
0.626357
0.608979
0.585
0.55578
0.522464
0.485876
0.44685
0.404673
0.358034
0.309391
0.26978
0.242181
0.224902
0.21239
0.200636
0.184249
0.161885
0.132064
0.0984674
0.0768134
0.078149
0.102793
0.15786
0.228796
0.305661
0.460872
0.558343
0.622902
0.653798
0.663423
0.659312
0.645696
0.624444
0.596887
0.564299
0.527672
0.487998
0.444511
0.395657
0.344536
0.302746
0.272745
0.252899
0.238463
0.225744
0.209609
0.187565
0.156971
0.120651
0.0918151
0.0842985
0.101904
0.161211
0.243551
0.326105
0.4624
0.555534
0.622468
0.663124
0.679364
0.680439
0.671128
0.65321
0.627968
0.596829
0.561006
0.521608
0.477796
0.427638
0.375268
0.332151
0.300263
0.278152
0.262067
0.248745
0.233303
0.212365
0.181321
0.143358
0.109185
0.093832
0.104886
0.161184
0.252734
0.340536
0.458262
0.547675
0.616184
0.660894
0.685457
0.692511
0.687735
0.673513
0.651
0.621816
0.587441
0.549026
0.505615
0.45504
0.402456
0.358666
0.325288
0.301196
0.283707
0.270092
0.255709
0.236183
0.205007
0.166082
0.128056
0.105839
0.110609
0.160241
0.257563
0.350213
0.450241
0.5361
0.605608
0.653911
0.683314
0.697292
0.697339
0.687006
0.667453
0.64058
0.608142
0.571315
0.528816
0.478764
0.426821
0.382839
0.348271
0.322447
0.303781
0.2901
0.277216
0.258931
0.227914
0.18835
0.147639
0.119575
0.118013
0.160224
0.259511
0.356436
0.438905
0.521793
0.59203
0.643435
0.677243
0.695938
0.701453
0.695002
0.678477
0.65416
0.624053
0.589267
0.548199
0.499567
0.44895
0.405105
0.369549
0.342257
0.322607
0.309017
0.2978
0.280554
0.249956
0.210026
0.167391
0.134592
0.126363
0.161778
0.259605
0.359775
0.424862
0.50563
0.576479
0.630543
0.668241
0.691259
0.701213
0.698587
0.685
0.663407
0.635925
0.60353
0.564536
0.518099
0.469302
0.425796
0.389396
0.360901
0.340453
0.327099
0.317441
0.301025
0.271098
0.23104
0.18698
0.150365
0.135976
0.164693
0.258156
0.36081
0.409301
0.488548
0.559862
0.616129
0.65716
0.683933
0.69775
0.699296
0.688221
0.669051
0.644503
0.614843
0.578506
0.534887
0.488213
0.445164
0.408066
0.378605
0.357546
0.344632
0.336265
0.320482
0.291371
0.251367
0.206254
0.166547
0.146722
0.168604
0.255588
0.360044
0.392767
0.471549
0.54305
0.600969
0.644733
0.674574
0.691776
0.696831
0.689189
0.672255
0.650536
0.623891
0.590711
0.550351
0.505936
0.463428
0.425805
0.395605
0.37413
0.361974
0.354473
0.339183
0.3109
0.271137
0.225235
0.182946
0.15821
0.173332
0.252653
0.357382
0.375012
0.454782
0.526826
0.585744
0.631583
0.66392
0.683935
0.692027
0.68783
0.673661
0.654674
0.631322
0.60169
0.564818
0.522689
0.480817
0.442885
0.412195
0.390507
0.379289
0.372305
0.357406
0.329936
0.290489
0.244056
0.199606
0.170235
0.178936
0.249865
0.353696
0.356077
0.438112
0.511427
0.571019
0.618296
0.652639
0.674855
0.68549
0.684506
0.673826
0.657709
0.637765
0.611927
0.578593
0.538726
0.497632
0.459664
0.428751
0.407105
0.396805
0.390056
0.375504
0.348862
0.309744
0.262896
0.216767
0.182676
0.185514
0.247772
0.349658
0.336211
0.421525
0.49675
0.557318
0.60538
0.641361
0.665207
0.678
0.680108
0.672714
0.660127
0.643814
0.62189
0.592026
0.554413
0.514315
0.476644
0.445786
0.424546
0.414959
0.408112
0.393928
0.368159
0.32947
0.282102
0.234221
0.195857
0.193255
0.246995
0.345792
0.315915
0.40511
0.482726
0.54461
0.593277
0.630474
0.655716
0.67036
0.675242
0.671217
0.662471
0.650104
0.63211
0.60561
0.570311
0.531518
0.494546
0.464036
0.443778
0.434384
0.427049
0.41324
0.388414
0.350308
0.302274
0.252207
0.21018
0.201969
0.248052
0.342465
0.295915
0.38906
0.469372
0.532854
0.582325
0.620388
0.646982
0.663376
0.670847
0.670609
0.665777
0.657388
0.643257
0.620062
0.587258
0.550196
0.514405
0.484624
0.465555
0.455886
0.447743
0.434188
0.410334
0.372997
0.324181
0.271559
0.225846
0.211642
0.250703
0.339915
0.277294
0.37366
0.456784
0.522069
0.572592
0.611619
0.639711
0.65794
0.668153
0.671731
0.67103
0.666644
0.656237
0.636431
0.60649
0.571728
0.537698
0.509354
0.491103
0.480584
0.471342
0.45781
0.434839
0.398401
0.348578
0.293114
0.243241
0.22305
0.255547
0.338255
0.261494
0.35926
0.445125
0.512322
0.564195
0.604522
0.634168
0.654618
0.667636
0.675835
0.679572
0.679273
0.672497
0.656251
0.629808
0.59812
0.566623
0.540306
0.522229
0.51013
0.49955
0.485634
0.463241
0.427602
0.376572
0.317475
0.262698
0.236214
0.262569
0.338052
0.250044
0.346328
0.434649
0.503775
0.55733
0.599419
0.631191
0.653857
0.672104
0.684516
0.692982
0.697244
0.694295
0.681793
0.659916
0.632383
0.604632
0.580112
0.561483
0.547456
0.535083
0.520077
0.497551
0.462188
0.409626
0.345747
0.284666
0.251381
0.271702
0.339199
0.244127
0.335562
0.425778
0.496728
0.55229
0.59668
0.631271
0.660682
0.683336
0.700185
0.713832
0.723191
0.724876
0.716884
0.70108
0.67938
0.655436
0.632591
0.61324
0.597134
0.582277
0.565029
0.541039
0.504782
0.449843
0.379546
0.30993
0.268318
0.282376
0.341637
0.243804
0.328036
0.419279
0.491627
0.54948
0.597663
0.640616
0.676148
0.704226
0.726677
0.746212
0.761389
0.769467
0.76779
0.759302
0.744061
0.724712
0.70437
0.684794
0.666338
0.64795
0.626729
0.598979
0.559532
0.500626
0.42162
0.340318
0.287125
0.294235
0.345717
0.250966
0.325235
0.415245
0.489524
0.552514
0.610211
0.661578
0.704223
0.738855
0.768636
0.796018
0.818851
0.834938
0.841682
0.841727
0.834715
0.822459
0.806159
0.786847
0.765571
0.742038
0.714222
0.679372
0.633039
0.567397
0.476791
0.379659
0.310216
0.309126
0.352902
0.269933
0.330551
0.418263
0.500076
0.573836
0.640244
0.701061
0.752464
0.796035
0.835515
0.872825
0.905416
0.931631
0.949498
0.961931
0.965589
0.962427
0.951203
0.931788
0.906474
0.875457
0.837699
0.791761
0.734381
0.657871
0.553136
0.43562
0.345471
0.332426
0.367248
0.307813
0.361257
0.44954
0.53921
0.623124
0.701388
0.773103
0.836828
0.892305
0.944311
0.993968
1.03858
1.07714
1.10844
1.13599
1.15117
1.15526
1.14618
1.12234
1.08618
1.04325
0.993808
0.936375
0.867498
0.779798
0.662827
0.523858
0.408577
0.376429
0.402073
0.392217
0.4368
0.529811
0.632296
0.730185
0.821709
0.906693
0.985372
1.05442
1.12009
1.18252
1.23909
1.2894
1.33216
1.37046
1.38806
1.38369
1.35593
1.31428
1.26446
1.21128
1.15546
1.09447
1.02366
0.934949
0.817113
0.66799
0.531592
0.47271
0.487958
0.58868
0.62226
0.720514
0.8347
0.944317
1.04648
1.14086
1.22887
1.30641
1.37981
1.44816
1.50919
1.56187
1.60227
1.6274
1.61257
1.57231
1.51674
1.45516
1.39341
1.33528
1.28197
1.23032
1.17467
1.10529
1.00991
0.880779
0.752221
0.680787
0.683417
0.934195
0.972366
1.06705
1.17723
1.28081
1.37572
1.46182
1.54043
1.60961
1.67355
1.73037
1.77756
1.80863
1.81143
1.78063
1.7124
1.63218
1.54768
1.46859
1.39943
1.34465
1.30294
1.2722
1.24775
1.21912
1.17413
1.10519
1.03213
0.994238
1.01113
1.17398
1.24412
1.33446
1.42375
1.50614
1.58202
1.64693
1.70437
1.75298
1.79279
1.82266
1.83778
1.82541
1.77481
1.69352
1.58542
1.47937
1.38002
1.29527
1.22853
1.18225
1.15462
1.14394
1.14786
1.15956
1.1682
1.16798
1.16586
1.17963
1.22181
0.233551
0.283765
0.301011
0.307993
0.308984
0.304236
0.294771
0.281874
0.266451
0.249373
0.230958
0.211879
0.191906
0.171504
0.148588
0.124512
0.104406
0.0944761
0.0920066
0.0883399
0.0752878
0.051717
0.0324137
0.0313664
0.0379554
0.0493155
0.0604651
0.0684856
0.070832
0.0983058
0.387749
0.466723
0.495982
0.503817
0.496321
0.479268
0.456286
0.429601
0.400298
0.369076
0.335853
0.300905
0.263093
0.221957
0.183046
0.15966
0.153819
0.161669
0.16743
0.16435
0.1417
0.0992887
0.0584871
0.0428901
0.0513025
0.0742908
0.0997339
0.132925
0.165526
0.206271
0.475791
0.569153
0.612538
0.627466
0.621439
0.603737
0.578661
0.548459
0.514177
0.47653
0.435587
0.3917
0.343503
0.29019
0.240481
0.212658
0.206759
0.214061
0.217775
0.211364
0.184495
0.137546
0.0889072
0.0619688
0.0641406
0.0869221
0.119249
0.168137
0.219418
0.276799
0.531946
0.632772
0.685838
0.706885
0.70388
0.688134
0.663978
0.633543
0.597778
0.557307
0.512358
0.463304
0.408722
0.347705
0.291308
0.260264
0.252135
0.255918
0.256079
0.246373
0.217754
0.171477
0.120893
0.0859063
0.0780253
0.0962326
0.132335
0.191531
0.256172
0.32605
0.567783
0.674793
0.733099
0.759173
0.76022
0.747847
0.726114
0.697013
0.661427
0.619947
0.572952
0.5208
0.462067
0.395776
0.335391
0.302336
0.291528
0.291411
0.28813
0.275992
0.247509
0.203079
0.15534
0.113747
0.0952791
0.106383
0.143136
0.210017
0.285112
0.363775
0.590112
0.694408
0.761212
0.791573
0.798011
0.789976
0.771727
0.744978
0.710597
0.669237
0.621424
0.567581
0.50628
0.436211
0.373969
0.339926
0.326541
0.322693
0.316552
0.303048
0.276347
0.234463
0.188806
0.143377
0.115947
0.1196
0.153248
0.224384
0.308736
0.393533
0.600358
0.698768
0.769548
0.808683
0.821517
0.818652
0.804651
0.780983
0.748533
0.708089
0.660399
0.605955
0.543131
0.470787
0.408492
0.374233
0.35843
0.351155
0.342696
0.328815
0.304284
0.263906
0.219939
0.172786
0.138706
0.135422
0.164031
0.236081
0.32749
0.417275
0.599881
0.694085
0.766094
0.811486
0.833669
0.836801
0.82749
0.807393
0.777395
0.738488
0.691707
0.637571
0.574007
0.501068
0.440292
0.406299
0.388153
0.377712
0.367401
0.354127
0.330476
0.290993
0.248321
0.200772
0.162168
0.152306
0.175554
0.246086
0.342409
0.435801
0.594497
0.684517
0.757382
0.807033
0.836035
0.846582
0.842198
0.825967
0.798782
0.761927
0.716735
0.663636
0.600265
0.528509
0.470528
0.436957
0.416449
0.402998
0.391182
0.378529
0.354787
0.315954
0.274041
0.226876
0.185166
0.169377
0.187408
0.254967
0.354219
0.449511
0.584838
0.67116
0.744787
0.798298
0.832431
0.849548
0.850352
0.83811
0.813967
0.779618
0.736637
0.68515
0.623231
0.554445
0.500133
0.466824
0.443876
0.427493
0.414463
0.401917
0.377501
0.339145
0.297436
0.250715
0.207022
0.186047
0.199238
0.262994
0.363402
0.459228
0.571234
0.654863
0.729446
0.7864
0.825196
0.847054
0.853314
0.845018
0.824027
0.792567
0.752266
0.703282
0.644171
0.580029
0.529817
0.496361
0.470805
0.451572
0.43772
0.424425
0.398942
0.361
0.319005
0.272464
0.227383
0.201974
0.210708
0.270222
0.370311
0.466077
0.554515
0.636479
0.712287
0.77232
0.815273
0.841476
0.852355
0.848057
0.829999
0.801735
0.76472
0.719157
0.66428
0.606134
0.559958
0.525843
0.497536
0.475556
0.461041
0.446273
0.419596
0.381995
0.339272
0.292492
0.246255
0.216841
0.221623
0.276569
0.375262
0.470793
0.536049
0.617111
0.694166
0.756948
0.80353
0.833549
0.848315
0.848651
0.833358
0.808252
0.775067
0.733866
0.68461
0.633293
0.59071
0.555445
0.524362
0.499822
0.484539
0.467725
0.43996
0.4026
0.358832
0.311344
0.264063
0.230835
0.232094
0.282131
0.378596
0.473662
0.515875
0.597537
0.675931
0.741078
0.790755
0.82408
0.84217
0.846125
0.83475
0.813272
0.784344
0.748448
0.705986
0.661733
0.622097
0.585337
0.551635
0.524916
0.50857
0.489355
0.460571
0.423194
0.378326
0.329724
0.281443
0.244553
0.242116
0.287434
0.380721
0.475156
0.49422
0.577959
0.658178
0.725369
0.777632
0.813944
0.83478
0.84206
0.834953
0.817486
0.793531
0.763828
0.728939
0.691492
0.654133
0.61578
0.579831
0.55164
0.533637
0.511867
0.482046
0.444223
0.398519
0.34841
0.29843
0.258416
0.251947
0.292498
0.381991
0.475682
0.471547
0.558671
0.641218
0.710381
0.764725
0.803618
0.827006
0.837206
0.834418
0.821603
0.803603
0.780788
0.753762
0.722551
0.686963
0.647235
0.609624
0.580786
0.560328
0.535997
0.505107
0.466684
0.4201
0.367902
0.315284
0.272495
0.261743
0.297531
0.38271
0.475535
0.448519
0.539976
0.625268
0.696367
0.75253
0.793628
0.819636
0.832616
0.834428
0.826993
0.815457
0.799969
0.780752
0.755
0.721014
0.68046
0.642067
0.612843
0.58925
0.562613
0.530618
0.491567
0.444226
0.389525
0.333558
0.287305
0.272021
0.302882
0.383106
0.474577
0.42614
0.522199
0.610448
0.683528
0.741386
0.784495
0.813257
0.829477
0.835837
0.834494
0.829971
0.822099
0.81037
0.789288
0.757134
0.716648
0.678918
0.64874
0.621745
0.592889
0.559699
0.520007
0.472026
0.414692
0.354685
0.303763
0.283479
0.309218
0.383511
0.473163
0.405309
0.505719
0.596916
0.67202
0.731576
0.77679
0.808186
0.827854
0.839998
0.845295
0.848242
0.848083
0.843359
0.826387
0.796743
0.757607
0.72157
0.689548
0.659461
0.628424
0.593897
0.553462
0.504713
0.44491
0.3798
0.322935
0.29676
0.317649
0.384714
0.471564
0.387152
0.49096
0.58487
0.662004
0.723393
0.770846
0.80517
0.828913
0.848258
0.860525
0.871361
0.879249
0.881051
0.867958
0.842038
0.806173
0.771353
0.737204
0.704616
0.671445
0.635376
0.593938
0.544004
0.481776
0.410557
0.345893
0.3121
0.327948