/*--------------------------------*- C++ -*----------------------------------*\
  =========                 |
  \\      /  F ield         | OpenFOAM: The Open Source CFD Toolbox
   \\    /   O peration     | Website:  https://openfoam.org
    \\  /    A nd           | Version:  12
     \\/     M anipulation  |
\*---------------------------------------------------------------------------*/
FoamFile
{
    format      ascii;
    class       volScalarField;
    location    "700/air";
    object      nut;
}
// * * * * * * * * * * * * * * * * * * * * * * * * * * * * * * * * * * * * * //

dimensions      [0 2 -1 0 0 0 0];

internalField   nonuniform List<scalar> 
243000
(
0.000175373
0.00017764
0.000174538
0.00016896
0.00016204
0.000154324
0.000146329
0.000138483
0.00013107
0.00012435
0.000118465
0.000113731
0.000110305
0.000108348
0.000107497
0.000107123
0.000106758
0.000106222
0.000105477
0.000104517
0.000103368
0.000102203
0.000100817
9.71365e-05
8.93714e-05
8.37429e-05
0.00010109
0.000111931
0.000120474
0.000130278
0.000648653
0.000665689
0.00065419
0.000630478
0.00060194
0.000571234
0.000540287
0.000510388
0.00048235
0.000456804
0.000434189
0.000415222
0.0003997
0.00038738
0.000376716
0.000366669
0.000357378
0.0003494
0.000342847
0.000337587
0.000333353
0.000330105
0.0003275
0.000321523
0.000304837
0.000294095
0.00036406
0.000422308
0.000466187
0.00051322
0.000838309
0.000897642
0.000921202
0.000923215
0.000914813
0.000899505
0.000879733
0.000857332
0.00083357
0.000809584
0.000786382
0.000765339
0.000746123
0.000728279
0.000708943
0.000686767
0.000662839
0.000639304
0.000616972
0.000595941
0.000575881
0.000556422
0.000536559
0.000512471
0.000474826
0.000439611
0.000497286
0.000577618
0.000626204
0.000670203
0.000877594
0.000943345
0.000972924
0.000977948
0.000971528
0.00095772
0.000938999
0.000917263
0.000893839
0.000869933
0.000846556
0.000825048
0.000805104
0.0007861
0.000764871
0.000740063
0.000712994
0.000686261
0.000660946
0.000637314
0.000615003
0.000593347
0.000570844
0.000545181
0.000508754
0.000468787
0.000491933
0.000591835
0.000653123
0.000706962
0.00089944
0.000970241
0.00100456
0.00101303
0.0010092
0.000997643
0.000980815
0.000960609
0.000938372
0.000915377
0.00089262
0.000871418
0.000851588
0.00083234
0.000810234
0.000783959
0.000754981
0.000726121
0.000698687
0.000673095
0.000648992
0.000625571
0.000600971
0.000573723
0.000538197
0.000495481
0.000483538
0.000592111
0.000669067
0.000731468
0.000910715
0.000982469
0.00102274
0.00103485
0.00103397
0.00102507
0.00101059
0.000992386
0.000971816
0.000950203
0.000928522
0.000908115
0.000888905
0.000869932
0.000847542
0.0008205
0.000790452
0.00076021
0.000731301
0.000704274
0.000678824
0.000654069
0.000627933
0.000599372
0.000564454
0.00052118
0.000495166
0.000574628
0.000675608
0.000746931
0.00091355
0.000984936
0.00102991
0.001047
0.0010494
0.0010434
0.00103153
0.00101562
0.000996993
0.000977038
0.000956728
0.000937446
0.000919167
0.000900802
0.000878494
0.000851171
0.000820615
0.000789534
0.000759646
0.000731609
0.000705185
0.00067947
0.000652242
0.000622718
0.000588168
0.000545343
0.000508241
0.000551204
0.000675532
0.000755183
0.000910316
0.000981173
0.00102904
0.0010517
0.00105775
0.00105483
0.00104575
0.00103228
0.00101577
0.000997638
0.000978899
0.000960957
0.000943817
0.000926264
0.000904289
0.000877043
0.000846375
0.000814878
0.000784392
0.00075569
0.000728602
0.000702229
0.000674247
0.0006441
0.000609816
0.000567863
0.000525093
0.000531005
0.00066876
0.000757585
0.0009024
0.000972994
0.0010233
0.00105023
0.00106043
0.00106086
0.00105466
0.00104374
0.00102943
0.00101324
0.000996204
0.000979746
0.000963871
0.00094725
0.000925805
0.000898903
0.000868406
0.000836856
0.000806079
0.00077699
0.000749497
0.000722707
0.000694227
0.000663755
0.000629737
0.000588772
0.000543102
0.000520012
0.000655995
0.000754993
0.000890445
0.000961239
0.0010138
0.00104456
0.00105868
0.00106254
0.00105933
0.00105099
0.00103894
0.00102474
0.00100949
0.000994613
0.000980074
0.000964457
0.000943696
0.000917348
0.00088725
0.00085593
0.000825123
0.000795886
0.000768205
0.000741199
0.00071241
0.000681865
0.00064818
0.000608192
0.000561754
0.000529811
0.000634317
0.000748775
0.00087512
0.000946449
0.00100125
0.00103548
0.00105371
0.00106084
0.00106062
0.00105476
0.00104498
0.0010328
0.0010194
0.00100616
0.000992983
0.000978413
0.000958456
0.000932833
0.000903332
0.000872448
0.000841873
0.000812688
0.000785009
0.000757943
0.000728993
0.000698591
0.000665329
0.000626296
0.000580129
0.000541188
0.000612816
0.000740789
0.000859906
0.00092924
0.000986174
0.00102374
0.00104594
0.00105638
0.00105911
0.00105587
0.00104812
0.00103796
0.00102641
0.00101484
0.00100305
0.000989527
0.000970472
0.000945717
0.000916984
0.000886717
0.000856589
0.00082765
0.000800124
0.00077314
0.000744156
0.000714081
0.000681324
0.000643086
0.000597552
0.000552999
0.000594007
0.000731314
0.000843601
0.000911947
0.000969078
0.00100985
0.00103577
0.00104965
0.0010552
0.00105458
0.00104906
0.00104066
0.00103094
0.00102101
0.0010106
0.000998138
0.000980057
0.00095629
0.000928478
0.00089899
0.000869475
0.000840984
0.000813747
0.00078697
0.000758073
0.000728477
0.000696294
0.000658784
0.000614052
0.000566561
0.00057927
0.000720783
0.000825784
0.000894618
0.000951289
0.000994233
0.00102355
0.00104099
0.00104929
0.00105122
0.00104793
0.00104146
0.00103332
0.00102498
0.00101591
0.00100452
0.000987469
0.000964793
0.00093804
0.000909486
0.000880734
0.000852841
0.000826053
0.000799599
0.00077091
0.000741926
0.000710341
0.000673582
0.000629697
0.000580513
0.000569133
0.000709542
0.000805945
0.000876934
0.000934083
0.000977389
0.00100971
0.00103061
0.00104168
0.00104602
0.00104497
0.00104041
0.00103398
0.001027
0.00101922
0.0010089
0.000992927
0.000971435
0.000945869
0.000918389
0.000890542
0.000863381
0.000837192
0.000811183
0.000782842
0.000754565
0.000723632
0.000687598
0.000644549
0.000594946
0.000564586
0.000697687
0.000783596
0.000858592
0.00091714
0.000961086
0.000994641
0.0010187
0.0010326
0.00103924
0.00104036
0.00103771
0.00103291
0.0010274
0.00102074
0.00101148
0.000996632
0.00097641
0.000952147
0.000925874
0.000899065
0.000872761
0.000847307
0.000821878
0.000794172
0.000766543
0.000736264
0.00070093
0.000658674
0.000609
0.000571464
0.000682065
0.000757989
0.000839269
0.000900205
0.00094521
0.000978786
0.00100553
0.00102226
0.00103108
0.00103426
0.00103351
0.00103034
0.00102621
0.00102076
0.00101246
0.000998772
0.000979898
0.000957049
0.000932105
0.000906458
0.000881143
0.000856562
0.000831832
0.000804869
0.000777932
0.000748329
0.000713692
0.00067218
0.000622822
0.000580756
0.000667878
0.00072589
0.000818498
0.000883067
0.000929613
0.000963859
0.000991351
0.00101084
0.00102175
0.00102684
0.00102794
0.00102639
0.00102362
0.00101928
0.00101203
0.000999527
0.000982088
0.000960753
0.000937255
0.000912889
0.000888684
0.000865098
0.000841194
0.000815032
0.00078884
0.00075996
0.000726026
0.000685204
0.000636241
0.000591123
0.000656317
0.000687701
0.000795681
0.000865589
0.000914198
0.000949371
0.000976555
0.000998456
0.0010114
0.00101829
0.00102114
0.00102118
0.00101977
0.00101651
0.0010103
0.000999064
0.000983161
0.000963434
0.000941496
0.000918523
0.00089555
0.000873059
0.000850101
0.000824781
0.000799392
0.000771294
0.000738097
0.000697921
0.000649333
0.000601114
0.000646958
0.000650622
0.000768681
0.000847672
0.000898931
0.000935209
0.000962532
0.000985265
0.00100015
0.00100873
0.00101323
0.0010148
0.00101472
0.00101258
0.00100744
0.000997539
0.000983222
0.000965247
0.000944996
0.000923536
0.000901892
0.000880571
0.000858661
0.000834239
0.000809708
0.000782469
0.000750055
0.000710514
0.000662275
0.000612027
0.000639381
0.000623854
0.000736646
0.000829257
0.000883833
0.000921343
0.000948981
0.00097145
0.000988056
0.000998214
0.00100427
0.00100732
0.00100854
0.00100757
0.00100357
0.000995078
0.000982469
0.000966356
0.00094789
0.000928053
0.00090782
0.000887727
0.00086695
0.000843532
0.000819891
0.000793591
0.000762014
0.000723114
0.000675193
0.000623208
0.000633791
0.000614576
0.000703088
0.000809788
0.000868996
0.000907783
0.000935822
0.000958119
0.00097518
0.000986714
0.000994252
0.000998719
0.00100121
0.00100144
0.000998693
0.000991714
0.000980923
0.000966729
0.000950203
0.000932103
0.000913349
0.000894538
0.000874944
0.000852728
0.000830015
0.000804737
0.000774064
0.000735846
0.000688198
0.000634801
0.000630718
0.000622798
0.000673883
0.00078931
0.000854571
0.000894584
0.000923016
0.000945219
0.000961941
0.00097425
0.00098304
0.000988845
0.000992592
0.000994014
0.00099264
0.000987284
0.000978435
0.000966281
0.00095183
0.000935521
0.000918312
0.000900821
0.000882429
0.000861503
0.000840105
0.000816019
0.000786384
0.000748839
0.000701403
0.000646745
0.00063068
0.000642374
0.000655099
0.000769393
0.000840812
0.000881768
0.000910481
0.000932771
0.00094951
0.000961477
0.000970616
0.000977505
0.000982378
0.000984948
0.000984974
0.000981315
0.000974505
0.00096453
0.000952158
0.000937833
0.000922302
0.000906214
0.000889095
0.00087027
0.000850458
0.000827748
0.000799293
0.000762399
0.000715022
0.000659338
0.000633473
0.000664686
0.000648446
0.000752358
0.000828044
0.000869491
0.00089849
0.000920969
0.000938039
0.00094987
0.000958992
0.000966044
0.000971289
0.000974523
0.00097555
0.000973563
0.000968816
0.000961309
0.000951436
0.000939619
0.000926325
0.000912097
0.000896873
0.000880329
0.000862215
0.00084093
0.000813653
0.00077745
0.000729784
0.000672669
0.000639491
0.000687165
0.000651977
0.000741265
0.000817337
0.000858787
0.000887781
0.00091042
0.000928113
0.000940167
0.000949686
0.000957338
0.000963416
0.00096773
0.000970162
0.00097016
0.000967726
0.000962844
0.000955666
0.000946398
0.000935391
0.000923097
0.000909608
0.000894747
0.000878018
0.000857851
0.000831481
0.000795601
0.00074731
0.00068809
0.0006494
0.000712563
0.000665739
0.00073965
0.000811038
0.000851799
0.000880931
0.000903935
0.000922818
0.000935862
0.000946591
0.000955678
0.000963324
0.000969628
0.00097428
0.000976921
0.000977301
0.00097534
0.000971002
0.000964301
0.000955488
0.000944954
0.000932839
0.00091902
0.000902974
0.000883303
0.000857181
0.000820958
0.000771218
0.000708827
0.000666333
0.000749773
0.000698437
0.000760109
0.000821578
0.000861393
0.000890983
0.000915037
0.000936176
0.000951699
0.000965136
0.000977034
0.000987776
0.00099747
0.00100556
0.00101161
0.00101507
0.00101583
0.00101375
0.00100874
0.00100109
0.000991286
0.000979465
0.000965452
0.000948822
0.000928411
0.000901695
0.000864597
0.000812727
0.000746657
0.000701895
0.000858921
0.00082136
0.000862857
0.000912286
0.000949286
0.000978448
0.00100286
0.00102536
0.00104383
0.00106052
0.00107514
0.00108925
0.00110291
0.0011142
0.00112248
0.0011273
0.00112872
0.00112667
0.00112115
0.00111266
0.00110194
0.00108911
0.00107344
0.00105496
0.00103327
0.00100649
0.000971485
0.000923526
0.000861894
0.00082146
0.00124249
0.00124006
0.00125662
0.00127995
0.0012994
0.00131268
0.00132137
0.00132888
0.00133691
0.00134557
0.00135145
0.00136009
0.00137143
0.001379
0.00138316
0.00138484
0.00138411
0.00138126
0.00137615
0.00136999
0.00136375
0.00135738
0.00134694
0.00133509
0.00132339
0.00131044
0.00129543
0.00127452
0.00124633
0.00123206
0.000208258
0.000218588
0.000217331
0.000212278
0.000204748
0.000195795
0.000186168
0.000176449
0.00016702
0.000158201
0.00015014
0.00014307
0.000137054
0.000132246
0.000127985
0.000123446
0.000118284
0.000112565
0.000106425
9.98935e-05
9.28981e-05
8.54892e-05
8.04046e-05
7.70188e-05
7.90904e-05
9.18439e-05
0.000105964
0.000116212
0.000123267
0.000140795
0.000866321
0.00101889
0.00100967
0.000957225
0.000888121
0.000815514
0.000747579
0.000686777
0.000632353
0.000583561
0.000538574
0.000497091
0.000456422
0.000412754
0.000365074
0.000320871
0.000287025
0.000265473
0.000253018
0.000247241
0.000243924
0.000243802
0.000242958
0.000237015
0.00023637
0.000358085
0.000484144
0.000619908
0.000716623
0.000781615
0.00146697
0.00176672
0.00181688
0.00176482
0.00166286
0.00154524
0.00142906
0.00132127
0.00122208
0.00113132
0.0010466
0.000966946
0.000887453
0.000801091
0.000706428
0.000618969
0.000550767
0.000506421
0.00048002
0.000466606
0.000459329
0.000456798
0.00045001
0.000431239
0.000400156
0.000498155
0.000674522
0.00089325
0.00110962
0.00126994
0.00189102
0.00234589
0.00245518
0.00242604
0.00231652
0.00217964
0.00203638
0.00189818
0.00176689
0.00164408
0.0015285
0.00141553
0.00130063
0.00117578
0.00104219
0.000919108
0.000821794
0.000756872
0.000716515
0.000694149
0.00068047
0.000671741
0.000656927
0.00061513
0.000541043
0.000571673
0.000729323
0.00101875
0.00135146
0.00164753
0.00222641
0.00277023
0.00294465
0.00294259
0.00284152
0.00270193
0.00254722
0.0023923
0.00224055
0.00209599
0.00195443
0.00181494
0.00167217
0.00151662
0.00135112
0.00120018
0.00108019
0.000997849
0.000945275
0.000914872
0.000895449
0.000880689
0.000859218
0.000795449
0.000677558
0.000630295
0.000737791
0.00107388
0.00151723
0.00194887
0.00248463
0.00303972
0.00330543
0.00333531
0.00325597
0.00312376
0.0029694
0.00280751
0.00264425
0.0024837
0.00232475
0.00216665
0.00200152
0.00182196
0.00163145
0.0014594
0.00132226
0.00122534
0.00116219
0.00112481
0.00110097
0.00108158
0.00105612
0.000974276
0.000817704
0.000699702
0.000736432
0.00108917
0.00161277
0.00217738
0.00265516
0.00321264
0.00350979
0.00362217
0.00357601
0.00346015
0.00331479
0.00315304
0.00298479
0.00281543
0.00264384
0.00247405
0.00229222
0.00209486
0.00188578
0.0016983
0.00154838
0.00143923
0.00136684
0.00132336
0.00129637
0.00127408
0.0012473
0.00115099
0.00096239
0.000784701
0.000761915
0.00105299
0.00165409
0.00233315
0.00278382
0.00333499
0.00365783
0.00380051
0.00381319
0.00372539
0.00359426
0.00343852
0.00327026
0.00309762
0.00291811
0.00274085
0.00254847
0.00233884
0.00211716
0.00191897
0.00175948
0.00164047
0.00155976
0.00151085
0.00148181
0.00145826
0.00143236
0.00132408
0.00110932
0.000883516
0.000798318
0.00100382
0.00166241
0.00242452
0.00286954
0.00341162
0.00375634
0.00392988
0.00397189
0.0039278
0.00381693
0.00367275
0.00350775
0.00333523
0.00315519
0.00297077
0.00277468
0.00255703
0.00232827
0.00212332
0.0019566
0.00183004
0.00174176
0.00168794
0.00165777
0.00163443
0.00161094
0.00149199
0.00125554
0.000991346
0.00084621
0.000966876
0.00163015
0.0024649
0.00290372
0.00344421
0.00381337
0.00401756
0.00408911
0.00407189
0.0039919
0.00386283
0.00370358
0.00353409
0.00335667
0.00317064
0.00297275
0.00275285
0.00252149
0.00231292
0.00214087
0.00200856
0.00191355
0.00185543
0.00182461
0.00180332
0.00178278
0.00165363
0.00139887
0.00110408
0.000906487
0.000967836
0.00156877
0.00247093
0.00287666
0.00343318
0.00383181
0.00406907
0.00417054
0.00418199
0.00412689
0.00401472
0.00386339
0.00369908
0.00352644
0.00334477
0.0031457
0.00292712
0.00269872
0.00248897
0.00231312
0.0021764
0.00207588
0.00201409
0.00198289
0.00196615
0.00194765
0.00180837
0.00153796
0.00121889
0.000974298
0.000984903
0.00149829
0.00242985
0.00277137
0.0033767
0.00381385
0.00408786
0.00422116
0.00426014
0.00422851
0.00414151
0.0039957
0.00383454
0.00366902
0.00349376
0.00329976
0.00308522
0.00286041
0.00265213
0.00247363
0.00233358
0.00222951
0.00216467
0.00213328
0.00212303
0.00210515
0.00195589
0.00167193
0.00133486
0.00105157
0.0010096
0.00143147
0.00236391
0.00260956
0.00326769
0.00376247
0.00407637
0.00424535
0.00431036
0.00430206
0.00423644
0.00411069
0.00394967
0.00378843
0.00362131
0.00343569
0.00322884
0.00301026
0.00280516
0.00262443
0.00248143
0.002375
0.00230781
0.00227664
0.00227332
0.00225499
0.00209626
0.00180026
0.00144674
0.00113649
0.00104005
0.00137817
0.00228687
0.00241331
0.00311064
0.00367713
0.00403898
0.00424666
0.0043371
0.00435144
0.00430514
0.00419811
0.00405146
0.00389139
0.00373087
0.00355614
0.00335923
0.00314826
0.00294662
0.0027664
0.00262165
0.00251318
0.00244416
0.00241397
0.00241726
0.00239725
0.00223002
0.00192293
0.00155619
0.0012254
0.00107293
0.00134468
0.00220743
0.0022019
0.00292471
0.00354959
0.00397774
0.00422683
0.00434457
0.00438024
0.0043519
0.00426636
0.00413168
0.00398355
0.00382637
0.00366341
0.00347789
0.00327545
0.00307837
0.00290048
0.00275499
0.00264472
0.0025744
0.00254635
0.00255525
0.00253228
0.00235804
0.00204159
0.00166352
0.00131401
0.00111914
0.00132782
0.00213465
0.00199065
0.00272559
0.00339595
0.00388995
0.00418815
0.0043362
0.00439203
0.00438152
0.00431544
0.00419632
0.00406086
0.00391276
0.00375977
0.0035862
0.0033929
0.00320125
0.00302647
0.00288176
0.00277
0.00269912
0.00267471
0.00268728
0.00266038
0.00248118
0.00215756
0.0017693
0.00140312
0.00117387
0.00133116
0.00207316
0.00179231
0.00252591
0.00322877
0.00377858
0.00413293
0.00431402
0.0043903
0.00439721
0.00434877
0.00424867
0.0041241
0.00399163
0.0038482
0.00368564
0.00350164
0.00331608
0.00314623
0.00300096
0.00288874
0.00281842
0.00279882
0.00281231
0.0027817
0.00259973
0.00227173
0.00187423
0.00149323
0.00123086
0.00134752
0.0020249
0.00161495
0.00233495
0.0030581
0.00365319
0.00405761
0.00428031
0.00437888
0.00440219
0.00436994
0.00429054
0.00417956
0.00405964
0.00392964
0.00377737
0.00360244
0.00342338
0.00325627
0.00311268
0.00300039
0.00293171
0.00291581
0.00292771
0.00289459
0.00271264
0.00238405
0.00197907
0.00158526
0.00129333
0.00137386
0.00199009
0.00146944
0.00215919
0.00289186
0.00352178
0.00396987
0.0042401
0.00436007
0.00439955
0.00438308
0.00432306
0.00422832
0.00412372
0.0040027
0.00386153
0.00369488
0.00352223
0.00335811
0.00321622
0.00310369
0.00303666
0.00302156
0.00302836
0.00299541
0.00281666
0.00249259
0.00208554
0.00167922
0.0013652
0.00141001
0.00196837
0.00136138
0.00200299
0.00273655
0.00339137
0.00387528
0.00418478
0.00433624
0.00439208
0.00439056
0.00434795
0.00427019
0.00417693
0.00406662
0.00393311
0.00377575
0.00360902
0.00344786
0.00330712
0.00319425
0.0031275
0.00310812
0.00310785
0.00307585
0.00290506
0.00259231
0.00218922
0.00177551
0.00144562
0.00145167
0.00195892
0.00129375
0.00187076
0.00259804
0.00326845
0.00377825
0.00412165
0.00430918
0.00438024
0.00439283
0.00436541
0.00430253
0.0042162
0.00411567
0.00398932
0.00383742
0.00367477
0.00351567
0.00337512
0.00326087
0.00319023
0.003163
0.0031548
0.00312292
0.0029671
0.0026746
0.00228218
0.00186988
0.00153032
0.00149406
0.00196072
0.00126892
0.00176827
0.00248223
0.00315775
0.00368248
0.00405254
0.00427192
0.00436313
0.00438522
0.00436798
0.00431434
0.00423283
0.00413325
0.00401269
0.00386259
0.0037013
0.0035434
0.00339899
0.00328204
0.0032038
0.00316771
0.00315231
0.00312138
0.00298756
0.00272737
0.00235612
0.00195822
0.0016137
0.00155036
0.00197369
0.00128032
0.00170027
0.00239392
0.00305958
0.00359089
0.00397224
0.00419096
0.00430382
0.00434841
0.00433431
0.00428241
0.00420153
0.00409548
0.0039706
0.00382159
0.00365939
0.0034977
0.00334915
0.00322835
0.00314397
0.00310084
0.00308222
0.00305584
0.00295063
0.0027367
0.00240049
0.00202849
0.00169048
0.0016162
0.00199451
0.00133655
0.00167
0.00233179
0.0029721
0.00346857
0.00381774
0.00405228
0.0041917
0.00424203
0.00422441
0.00416493
0.00407778
0.00396357
0.00382795
0.00367436
0.00351238
0.00334845
0.00320156
0.00308206
0.00299829
0.00295362
0.00293719
0.00291837
0.00284981
0.00269211
0.00240803
0.00207274
0.00175452
0.00168485
0.00202322
0.00140411
0.00166597
0.0022769
0.00283142
0.00327235
0.0036158
0.00384665
0.00396997
0.00399946
0.00397037
0.003904
0.00381316
0.00369796
0.00356211
0.0034073
0.00325521
0.00310798
0.00297681
0.00286936
0.00279426
0.0027541
0.00274092
0.00273435
0.00270132
0.00260051
0.00237998
0.0020886
0.00180146
0.00174619
0.00203795
0.0014843
0.0017112
0.00219035
0.00266149
0.00304477
0.0033239
0.0035103
0.00359137
0.00359993
0.00356541
0.00350362
0.00342324
0.00332694
0.00321493
0.00308876
0.0029678
0.00285946
0.00276356
0.00268146
0.00262274
0.00258936
0.00257684
0.00257381
0.00255921
0.00249838
0.00233808
0.00208767
0.00183322
0.00178415
0.00202966
0.00157479
0.00171032
0.00207563
0.00242859
0.00271501
0.00291957
0.0030617
0.00312848
0.00314495
0.00313316
0.00310206
0.00305667
0.00300103
0.00293518
0.00286278
0.00279223
0.00272862
0.00267299
0.0026197
0.00257722
0.00254789
0.00252972
0.00251694
0.00249797
0.0024491
0.00232857
0.00210783
0.00187204
0.00178522
0.0019594
0.00170695
0.00172447
0.00197126
0.00222659
0.00243536
0.00259842
0.0027245
0.00280385
0.00284621
0.00286901
0.00287505
0.00286773
0.0028516
0.00282807
0.0027995
0.00276779
0.00273174
0.00269626
0.00266028
0.00262806
0.00260204
0.00258178
0.00256353
0.00254027
0.00249635
0.00240117
0.00221749
0.00199494
0.00184032
0.00190865
0.00203711
0.0020162
0.00215622
0.00232315
0.00246471
0.00258131
0.00267569
0.0027425
0.00278563
0.00281484
0.0028305
0.00283554
0.00282963
0.00281473
0.00279166
0.00276552
0.00273905
0.00271329
0.00268874
0.00266737
0.00265109
0.00263937
0.00262871
0.0026136
0.00258298
0.0025205
0.00241014
0.00225845
0.00212625
0.00213171
0.00246958
0.00247
0.00251983
0.00257989
0.00263496
0.00268357
0.00272385
0.00275251
0.00277248
0.00278292
0.00278536
0.00278357
0.00277988
0.00276738
0.00274532
0.0027215
0.00270124
0.00268482
0.00267359
0.00266865
0.00266904
0.00267277
0.00267689
0.00267968
0.00267569
0.00265841
0.00262614
0.00256989
0.00252198
0.00251145
0.000232269
0.000246863
0.000245586
0.000240535
0.000232739
0.000223229
0.000212784
0.000202034
0.000191373
0.000181127
0.000171394
0.000162371
0.000154004
0.000146397
0.000138631
0.000129958
0.00012062
0.000111623
0.000103551
9.60568e-05
8.73964e-05
7.55682e-05
6.52297e-05
0.000317768
8.2071e-05
9.68325e-05
0.000110529
0.000121153
0.000128798
0.000156281
0.00107727
0.00130721
0.00134747
0.00129258
0.00120165
0.00110109
0.00100538
0.000918418
0.000839343
0.000766605
0.000697214
0.000630589
0.000561595
0.000485891
0.000410993
0.000359251
0.000337217
0.000342633
0.000359822
0.000377124
0.000375637
0.000366387
0.000356116
0.000313038
0.000240819
0.000402785
0.000574002
0.000760496
0.000880467
0.000885388
0.001811
0.00226204
0.00241828
0.0023953
0.00227666
0.00212268
0.00196216
0.00180761
0.00166063
0.00152066
0.00138406
0.00125011
0.00110872
0.000953508
0.000801539
0.000697621
0.000651477
0.000653752
0.000677239
0.000703723
0.000701421
0.000686268
0.000663324
0.000504299
0.00040416
0.000584902
0.000853083
0.00118181
0.00144962
0.00150669
0.00235664
0.00299883
0.00324755
0.00327281
0.00315743
0.00298594
0.00279241
0.00259597
0.00240113
0.00220963
0.00201937
0.00182936
0.00162348
0.00139829
0.00118284
0.00103787
0.000970613
0.000966015
0.00098965
0.00101769
0.00101611
0.000999707
0.00094687
0.000733848
0.000563907
0.000689498
0.000974689
0.00142594
0.00185303
0.00201873
0.00280017
0.0035607
0.00389372
0.00395986
0.00386215
0.00369057
0.00348322
0.00326262
0.00303569
0.00280714
0.00257718
0.00233846
0.00207801
0.00179817
0.00153438
0.00136051
0.00127736
0.00126612
0.00128822
0.0013175
0.00132002
0.00130375
0.0012273
0.0009788
0.000736595
0.000769323
0.00104691
0.00158008
0.00217917
0.00246362
0.00316666
0.00394715
0.00438544
0.00449431
0.00442592
0.00426368
0.00405557
0.0038221
0.00357437
0.00331989
0.00305688
0.00278101
0.00247991
0.00215646
0.00185788
0.0016647
0.00157045
0.00155253
0.0015728
0.00160413
0.00161348
0.00159985
0.00150587
0.00123197
0.000928152
0.000863051
0.00109457
0.00167608
0.00242392
0.00285488
0.00344064
0.00421381
0.00468353
0.00489777
0.00487291
0.00472949
0.00452936
0.00429105
0.0040306
0.003758
0.00346951
0.00316764
0.00283613
0.00247937
0.00215865
0.00195381
0.00185166
0.00182663
0.00184415
0.00187799
0.00189632
0.00189131
0.00178078
0.00148755
0.00113581
0.000982839
0.00114362
0.00174487
0.00259898
0.00318723
0.0036727
0.00443854
0.00492947
0.00517027
0.00521875
0.00510768
0.00491994
0.00468438
0.00441643
0.00413162
0.00382769
0.00350473
0.00315387
0.00277406
0.00244214
0.00223133
0.00212313
0.00209023
0.00210377
0.00214
0.00216975
0.00217478
0.00204884
0.00173997
0.00135137
0.00112155
0.00121589
0.00179287
0.00272247
0.00346115
0.00387343
0.00462382
0.00512941
0.00539382
0.00546822
0.00540877
0.00524024
0.0050135
0.0047421
0.0044501
0.00413861
0.00380049
0.00343685
0.00304717
0.00271301
0.00250012
0.0023867
0.00234495
0.00235332
0.0023914
0.00243609
0.0024467
0.00230648
0.00198421
0.00156741
0.00127067
0.00130414
0.00183819
0.00281129
0.00367935
0.00403235
0.00476697
0.00528679
0.00557377
0.00567321
0.00563694
0.00550215
0.0052875
0.00501675
0.00472172
0.00440762
0.00406611
0.00369043
0.00330376
0.00297481
0.00276223
0.00264345
0.00259234
0.00259413
0.00263332
0.00269302
0.00270361
0.00255032
0.00221673
0.00177838
0.00142722
0.00139428
0.00187542
0.00287489
0.00384399
0.00413283
0.00486375
0.00540115
0.00571388
0.00583869
0.00582592
0.00571431
0.00551485
0.00524767
0.00495313
0.00464083
0.00430181
0.00392536
0.00354768
0.00323
0.00301897
0.00289403
0.00283344
0.00282725
0.00286698
0.0029378
0.0029422
0.00277747
0.00243468
0.00198026
0.00158572
0.00148684
0.00191085
0.00291433
0.00396612
0.00416216
0.00490639
0.0054683
0.00581601
0.00596877
0.00597859
0.00588732
0.00571353
0.00544709
0.00515026
0.00484527
0.00451374
0.00414749
0.00378306
0.00348023
0.00327094
0.00313906
0.00306861
0.00305325
0.00309368
0.00316864
0.00316108
0.00298577
0.00263571
0.00217033
0.00174222
0.00158665
0.00194632
0.00293355
0.00405188
0.00412187
0.00489146
0.00549255
0.005881
0.0060669
0.00609805
0.00602665
0.0058734
0.00562593
0.00532689
0.00502803
0.00470799
0.00435902
0.00401485
0.00372646
0.00351828
0.00337878
0.00329795
0.00327252
0.00331404
0.00338408
0.00336005
0.00317381
0.00281804
0.0023467
0.00189358
0.00168832
0.00198363
0.00293913
0.00409211
0.004012
0.00482281
0.00547545
0.00590717
0.00613512
0.00619022
0.0061374
0.00600272
0.00577837
0.00548854
0.00519469
0.00488996
0.0045637
0.00424356
0.00396847
0.00376053
0.00361294
0.0035212
0.00348506
0.00352534
0.00358186
0.00353804
0.00334068
0.00298026
0.00250757
0.0020392
0.00178638
0.00202528
0.00293532
0.00410086
0.00384172
0.00470483
0.00542048
0.00590488
0.00617515
0.00625973
0.00622443
0.00610615
0.00590502
0.0056385
0.005353
0.00506411
0.00476351
0.0044686
0.00420531
0.00399678
0.00384074
0.00373722
0.00369027
0.00372324
0.00375856
0.00369324
0.00348556
0.0031215
0.00265164
0.00217831
0.00187855
0.00207608
0.00292495
0.00408833
0.00362663
0.00454634
0.00533188
0.00587646
0.00618801
0.0063102
0.00629265
0.00619056
0.00601431
0.0057691
0.00550414
0.00523323
0.00495888
0.00468635
0.00443498
0.00422524
0.00406027
0.00394346
0.00388603
0.00390197
0.00390921
0.00382265
0.00360688
0.00324283
0.0027778
0.00230495
0.00197025
0.00213534
0.00291136
0.00406218
0.00338658
0.00435928
0.00521585
0.00582496
0.00618315
0.00634129
0.00634682
0.0062616
0.00610773
0.0058861
0.00564636
0.0053987
0.00514862
0.00489501
0.00465438
0.00444241
0.00426749
0.00413522
0.00406554
0.00405383
0.0040276
0.00392159
0.00370159
0.00334356
0.00288596
0.00241514
0.00206355
0.00218672
0.00290547
0.00402869
0.00314312
0.00415723
0.00508013
0.00575413
0.00616126
0.00635464
0.00638731
0.0063224
0.00618918
0.00599795
0.00578333
0.00555736
0.00532632
0.0050922
0.00485803
0.00464149
0.00445441
0.00430462
0.00421394
0.00416723
0.00410612
0.00398351
0.00376471
0.0034208
0.0029753
0.00251322
0.00215642
0.00223175
0.0029044
0.0039937
0.002915
0.00395375
0.00493316
0.00566821
0.006124
0.00635332
0.00641712
0.006373
0.00626258
0.00609924
0.00591011
0.00570065
0.00548644
0.00526674
0.00503502
0.00481008
0.00460728
0.00443562
0.00431357
0.00422762
0.00413454
0.00400023
0.00378962
0.00346942
0.00304295
0.00259994
0.00224868
0.00228986
0.00291454
0.00395961
0.00271964
0.00376147
0.00478341
0.00557143
0.00607247
0.00633666
0.00642823
0.00640364
0.00631265
0.00619193
0.00601645
0.00581791
0.00561165
0.00540234
0.00516682
0.00492806
0.00470543
0.00450241
0.0043448
0.00422007
0.00410238
0.00396357
0.00376938
0.00348256
0.00308579
0.00266749
0.00233526
0.00235894
0.0029402
0.00393846
0.00257173
0.00359137
0.00463855
0.0054673
0.00600653
0.00630188
0.00642209
0.00641136
0.00635574
0.00623661
0.00607628
0.00589003
0.00568143
0.00546919
0.005226
0.00496831
0.00471727
0.00448273
0.00429088
0.00413607
0.00400342
0.0038689
0.00369966
0.00345511
0.00310073
0.00271218
0.00240719
0.00243017
0.00298723
0.00392847
0.00247172
0.00345069
0.00450444
0.00535758
0.00592383
0.00623489
0.00632776
0.00636318
0.00632245
0.00620994
0.00605879
0.00587925
0.00566478
0.00543379
0.0051784
0.00490071
0.00462074
0.00436378
0.00414934
0.00397838
0.00384223
0.00372065
0.00358319
0.00338776
0.00308655
0.00273193
0.00245668
0.00249122
0.00303328
0.00391621
0.00238943
0.00334237
0.00438235
0.0052132
0.00572757
0.00600235
0.00615894
0.0062184
0.00618086
0.00606944
0.00592032
0.00574145
0.00552528
0.00527608
0.00499806
0.00470875
0.00442076
0.00416008
0.00394167
0.00377012
0.00364107
0.00353825
0.00343469
0.00328986
0.00304808
0.00272943
0.00248123
0.00252649
0.00306411
0.00388353
0.00232844
0.00323447
0.00418462
0.0048973
0.00537096
0.00569501
0.00587139
0.00592802
0.00588002
0.00576903
0.00562517
0.00545151
0.0052412
0.00499236
0.00470476
0.00442257
0.00415706
0.00391704
0.00371449
0.0035556
0.00344075
0.00335745
0.0032834
0.0031826
0.00299854
0.00271544
0.00248524
0.00252686
0.00305427
0.00378796
0.00232173
0.00304081
0.00383875
0.00448767
0.00495736
0.00525301
0.00541952
0.00545539
0.00540732
0.00530985
0.00518534
0.00503324
0.00484776
0.00462596
0.0043683
0.00411864
0.00389823
0.00369634
0.00352292
0.00338469
0.00328651
0.00321925
0.00316575
0.00309611
0.00296027
0.00271103
0.00248492
0.00249555
0.00297592
0.00355832
0.00229231
0.00289784
0.00350362
0.00401793
0.00440136
0.00466502
0.00481287
0.00485259
0.0048304
0.00477048
0.00468753
0.00457884
0.00444033
0.0042711
0.00407345
0.0038769
0.0037043
0.00353961
0.0033969
0.00328945
0.00321249
0.00315897
0.00311694
0.00306471
0.00296065
0.0027466
0.00251111
0.00245084
0.00279743
0.00322423
0.00226078
0.00265251
0.00309825
0.0035046
0.00382183
0.00405263
0.00420682
0.00428024
0.00430362
0.00429567
0.00426466
0.00420802
0.00412358
0.004012
0.00387562
0.00372376
0.00358814
0.00345855
0.00335024
0.00326564
0.00320416
0.00316236
0.00313075
0.00309227
0.0030133
0.00284219
0.00260938
0.0024648
0.00260852
0.00290273
0.00239747
0.00257408
0.00288743