/*--------------------------------*- C++ -*----------------------------------*\
  =========                 |
  \\      /  F ield         | OpenFOAM: The Open Source CFD Toolbox
   \\    /   O peration     | Website:  https://openfoam.org
    \\  /    A nd           | Version:  12
     \\/     M anipulation  |
\*---------------------------------------------------------------------------*/
FoamFile
{
    format      ascii;
    class       volScalarField;
    location    "700/air";
    object      p_rgh;
}
// * * * * * * * * * * * * * * * * * * * * * * * * * * * * * * * * * * * * * //

dimensions      [1 -1 -2 0 0 0 0];

internalField   nonuniform List<scalar> 
243000
(
28.3949
28.6736
28.9029
29.0517
29.1636
29.2509
29.3199
29.379
29.4279
29.4671
29.489
29.4913
29.4459
29.3433
29.1322
28.8243
28.4736
28.1694
27.9496
27.822
27.7669
27.7775
27.8538
28.0262
28.3818
28.5843
28.655
28.639
28.6322
28.8416
28.3956
28.6638
28.9093
29.0842
29.2091
29.2961
29.3641
29.4205
29.4655
29.5002
29.5177
29.5158
29.4661
29.3619
29.1517
28.848
28.5017
28.1989
27.9765
27.8435
27.7814
27.7848
27.8596
28.0311
28.3661
28.5579
28.6346
28.6146
28.5723
28.7447
28.3292
28.5878
28.8412
29.0315
29.1705
29.2703
29.349
29.4136
29.4648
29.5078
29.5288
29.5299
29.4799
29.3766
29.1675
28.8674
28.5246
28.2232
27.9978
27.8608
27.7931
27.79
27.8611
28.0232
28.3111
28.558
28.62
28.6169
28.5552
28.6778
28.2264
28.4727
28.7288
28.9265
29.0806
29.1979
29.2943
29.3742
29.438
29.4899
29.5182
29.5257
29.4804
29.3783
29.1688
28.8697
28.5268
28.2281
28.0051
27.8697
27.8022
27.7943
27.8622
28.0144
28.2649
28.5321
28.6063
28.6461
28.5502
28.6246
28.1186
28.3467
28.5941
28.7959
28.966
29.1015
29.2168
29.3137
29.3919
29.4549
29.4921
29.5068
29.4646
29.3633
29.1547
28.8605
28.5199
28.2237
28.0031
27.8699
27.8066
27.7973
27.863
28.006
28.2305
28.4814
28.6133
28.678
28.5684
28.5877
28.0144
28.2216
28.4534
28.6573
28.8422
28.9955
29.1296
29.2437
29.3369
29.4116
29.4582
29.4801
29.4418
29.3406
29.1326
28.8436
28.5084
28.2159
27.999
27.8685
27.8082
27.8004
27.8652
28.0029
28.2102
28.435
28.6265
28.6994
28.6115
28.5715
27.9199
28.1019
28.3156
28.5185
28.7151
28.8838
29.0353
29.1658
29.2735
29.3599
29.4155
29.4445
29.4101
29.3085
29.1008
28.8173
28.4912
28.2036
27.9914
27.8646
27.8071
27.8033
27.868
28.0038
28.2012
28.4172
28.6318
28.711
28.6749
28.5706
27.8445
27.9946
28.1889
28.3875
28.5908
28.7719
28.938
29.0831
29.204
29.3013
29.3654
29.4008
29.3697
29.2671
29.0596
28.7822
28.466
28.1867
27.9803
27.8581
27.8048
27.8056
27.8712
28.0061
28.1967
28.4055
28.6197
28.7301
28.7402
28.5864
27.7934
27.9085
28.0808
28.271
28.4749
28.6646
28.842
28.999
29.1313
29.2381
29.3094
29.3501
29.3214
29.2173
29.01
28.739
28.4333
28.1654
27.9656
27.8492
27.8011
27.8072
27.8746
28.0097
28.197
28.4033
28.6076
28.7587
28.7967
28.6198
27.7686
27.8469
27.9965
28.1732
28.372
28.566
28.7504
28.9164
29.0577
29.1722
29.2493
29.2939
29.2661
29.1601
28.9531
28.6889
28.3941
28.1387
27.9474
27.838
27.7954
27.808
27.878
28.0143
28.1994
28.4064
28.6094
28.788
28.842
28.6704
27.771
27.8111
27.9366
28.0951
28.2858
28.4787
28.6663
28.8377
28.9854
29.1053
29.1865
29.2335
29.2052
29.0968
28.8903
28.633
28.3493
28.1065
27.9257
27.8243
27.7874
27.8079
27.8815
28.0198
28.2035
28.4112
28.6156
28.8113
28.8801
28.7293
27.8071
27.8007
27.8993
28.0365
28.2157
28.4052
28.5917
28.7652
28.9163
29.0395
29.1226
29.1704
29.14
29.0288
28.823
28.5728
28.2999
28.0696
27.8996
27.8071
27.7766
27.8057
27.8847
28.0258
28.2089
28.4171
28.6233
28.8277
28.9169
28.7918
27.8528
27.8255
27.8835
27.9979
28.1606
28.3429
28.5286
28.7007
28.8524
28.9763
29.0594
29.106
29.0719
28.9577
28.7528
28.5094
28.247
28.0283
27.8694
27.7863
27.7627
27.8016
27.8875
28.032
28.2155
28.4241
28.6321
28.8393
28.9522
28.8564
27.9104
27.869
27.889
27.9777
28.1216
28.2926
28.4748
28.6451
28.7951
28.9174
28.9982
29.042
29.0027
28.8852
28.6811
28.4441
28.1915
27.9834
27.8353
27.7617
27.7452
27.7952
27.8898
28.0382
28.2229
28.4319
28.6421
28.8481
28.9838
28.9208
27.9829
27.9256
27.9242
27.9742
28.0985
28.255
28.4303
28.5989
28.745
28.864
28.9407
28.9798
28.9339
28.8129
28.6096
28.3782
28.1342
27.9356
27.7976
27.7328
27.7239
27.7862
27.8911
28.044
28.2307
28.4405
28.6532
28.8562
29.0111
28.9827
28.0688
27.9914
27.9746
27.9939
28.0894
28.2306
28.3957
28.5606
28.703
28.8172
28.888
28.9208
28.8673
28.7425
28.5395
28.3128
28.0755
27.8852
27.7562
27.6991
27.6978
27.7736
27.8913
28.049
28.2387
28.4499
28.6655
28.8666
29.0376
29.0401
28.1647
28.0665
28.0353
28.0311
28.0944
28.2188
28.3714
28.5308
28.6706
28.7778
28.8416
28.8666
28.8047
28.6756
28.4723
28.2482
28.0159
27.8324
27.7107
27.6601
27.6664
27.7553
27.8877
28.0527
28.2463
28.4597
28.6789
28.8816
29.0643
29.0881
28.263
28.1487
28.1029
28.0795
28.12
28.217
28.3577
28.5096
28.6459
28.7468
28.8024
28.8183
28.7477
28.6137
28.4088
28.1852
27.9562
27.7771
27.6606
27.6152
27.6278
27.7289
27.8784
28.0545
28.2528
28.4694
28.6925
28.899
29.0907
29.1295
28.3475
28.236
28.1748
28.1343
28.155
28.2314
28.3543
28.4973
28.6289
28.725
28.7716
28.7772
28.698
28.5581
28.3496
28.1249
27.8967
27.7194
27.6056
27.5632
27.5808
27.6922
27.8611
28.0525
28.2574
28.4783
28.7056
28.9167
29.1156
29.1679
28.4088
28.324
28.2466
28.1926
28.196
28.262
28.3661
28.4946
28.6205
28.7122
28.7496
28.744
28.656
28.5092
28.2956
28.0675
27.8373
27.6585
27.5448
27.5028
27.524
27.6454
27.8325
28.0417
28.2591
28.4855
28.7175
28.9333
29.1376
29.2045
28.4487
28.4026
28.3141
28.2509
28.2425
28.3001
28.3962
28.5108
28.6245
28.7082
28.7377
28.7198
28.6226
28.4678
28.2478
28.0138
27.7788
27.5939
27.4768
27.4332
27.4559
27.586
27.7886
28.0184
28.2538
28.4898
28.7274
28.9483
29.1566
29.2376
28.4574
28.4604
28.3735
28.3056
28.2919
28.345
28.4382
28.5462
28.6521
28.7226
28.7383
28.7083
28.6007
28.4368
28.2083
27.9656
27.7218
27.5262
27.4011
27.3538
27.3756
27.512
27.7236
27.9777
28.235
28.4897
28.734
28.9605
29.1722
29.2661
28.4428
28.4965
28.4232
28.3539
28.3421
28.3972
28.4894
28.5935
28.6931
28.7519
28.7542
28.7149
28.6008
28.4198
28.1802
27.9246
27.6665
27.4566
27.3192
27.2656
27.2828
27.4224
27.6416
27.9136
28.1971
28.4745
28.7357
28.9689
29.1838
29.2888
28.4158
28.5047
28.4568
28.3946
28.3932
28.4565
28.5511
28.6545
28.7494
28.7957
28.7874
28.7378
28.6129
28.4221
28.1641
27.8922
27.6167
27.3884
27.2342
27.1702
27.1792
27.3169
27.5401
27.821
28.1319
28.4367
28.7234
28.9713
29.19
29.3027
28.3784
28.4888
28.4724
28.4279
28.4488
28.5248
28.6254
28.7306
28.8217
28.8572
28.8396
28.7801
28.6432
28.438
28.1659
27.8749
27.5805
27.3292
27.1531
27.0733
27.0701
27.1978
27.42
27.7078
28.0345
28.3711
28.6887
28.9599
29.1899
29.3082
28.322
28.4475
28.4678
28.4558
28.5098
28.604
28.7142
28.8239
28.9117
28.9384
28.9133
28.844
28.6946
28.4738
28.1841
27.872
27.5572
27.2787
27.075
26.971
26.9511
27.06
27.2743
27.5643
27.9019
28.2568
28.6058
28.9078
29.1592
29.2862
28.2687
28.4021
28.4629
28.4928
28.5862
28.7022
28.8242
28.9385
29.0245
29.0449
29.0131
28.9336
28.771
28.5342
28.2263
27.8941
27.5528
27.253
27.0213
26.8911
26.8519
26.9358
27.1341
27.4185
27.7613
28.1312
28.5036
28.8354
29.1152
29.2515
28.126
28.2955
28.424
28.5176
28.6611
28.8074
28.9482
29.0659
29.1488
29.1637
29.1239
29.031
28.8528
28.5973
28.2682
27.9124
27.5413
27.2101
26.9409
26.7719
26.7018
26.7529
26.9217
27.1875
27.5249
27.9035
28.2942
28.6525
28.9716
29.1203
28.1962
28.3854
28.5685
28.7241
28.8907
29.0422
29.1758
29.2806
29.3542
29.3665
29.3196
29.2138
29.0198
28.7477
28.404
28.0361
27.6576
27.3188
27.0402
26.8641
26.7837
26.8126
26.9601
27.219
27.5503
27.9244
28.3128
28.6678
28.9954
29.1696
27.2009
27.5387
27.9026
28.188
28.463
28.6942
28.8888
29.0345
29.123
29.1238
29.0634
28.9372
28.7226
28.4232
28.0436
27.6341
27.2081
26.8146
26.471
26.2198
26.0751
26.0548
26.1446
26.3457
26.6282
26.9704
27.3414
27.6993
28.027
28.2189
27.489
27.6364
27.8203
27.9371
28.0712
28.2125
28.363
28.5158
28.6563
28.7814
28.8737
28.9334
28.9222
28.8412
28.633
28.3402
28.0337
27.805
27.6668
27.614
27.6117
27.6277
27.6767
27.8156
28.0764
28.3234
28.4192
28.3734
28.252
28.3148
27.4711
27.6166
27.8063
27.9364
28.0934
28.2498
28.4094
28.5619
28.6986
28.8183
28.9044
28.9577
28.9413
28.8569
28.6489
28.3608
28.0591
27.831
27.689
27.6297
27.6209
27.6339
27.6831
27.8195
28.0695
28.2904
28.3919
28.3605
28.2428
28.2787
27.4421
27.5794
27.766
27.9071
28.0717
28.234
28.3985
28.5549
28.6945
28.8168
28.9044
28.9602
28.9426
28.8568
28.6432
28.3566
28.0544
27.8272
27.6862
27.6285
27.621
27.6368
27.6887
27.8178
28.0512
28.2762
28.388
28.3601
28.2414
28.2532
27.4041
27.5322
27.7108
27.8625
28.0353
28.2052
28.3765
28.5386
28.6826
28.8087
28.8987
28.956
28.9367
28.8479
28.6331
28.3496
28.0482
27.823
27.6835
27.6272
27.6206
27.6398
27.6955
27.8193
28.0292
28.2606
28.378
28.3836
28.2482
28.2373
27.3637
27.482
27.6499
27.8083
27.9877
28.165
28.3434
28.5117
28.6607
28.7913
28.8836
28.9403
28.92
28.8281
28.6115
28.3318
28.0355
27.8134
27.6769
27.6233
27.6171
27.6419
27.7024
27.8218
28.013
28.24
28.3764
28.4205
28.2736
28.2342
27.3252
27.4333
27.5886
27.7503
27.9345
28.1184
28.3035
28.4779
28.632
28.767
28.8594
28.9166
28.8952
28.8
28.5815
28.3062
28.0168
27.8002
27.6675
27.6173
27.612
27.6439
27.7101
27.8259
28.005
28.2179
28.3845
28.4567
28.316
28.2403
27.293
27.3898
27.5314
27.6929
27.8802
28.0693
28.2601
28.44
28.5988
28.7363
28.8291
28.8868
28.8636
28.765
28.5447
28.2743
27.9928
27.7841
27.6561
27.6094
27.6058
27.6461
27.7183
27.8317
28.0053
28.2095
28.3937
28.4861
28.377
28.2564
27.2701
27.3544
27.482
27.6404
27.8282
28.0209
28.2159
28.4003
28.563
28.7017
28.7947
28.8524
28.8267
28.7246
28.5026
28.2377
27.9645
27.7646
27.6423
27.6
27.599
27.6488
27.7268
27.8389
28.0078
28.2089
28.3974
28.5115
28.4453
28.2848
27.2577
27.3295
27.443
27.5955
27.7812
27.9756
28.1733
28.3609
28.5266
28.6653
28.758
28.8147
28.7857
28.6798
28.4566
28.1976
27.933
27.7423
27.6265
27.5895
27.592
27.6521
27.7357
27.8472
28.0123
28.211
28.4
28.5334
28.5121
28.326
27.2569
27.3164
27.4158
27.5603
27.7413
27.9352
28.1339
28.3233
28.4908
28.6289
28.7204
28.7751
28.7418
28.6319
28.408
28.1552
27.8993
27.7181
27.6092
27.5779
27.5859
27.6562
27.7447
27.8565
28.019
28.2159
28.4057
28.5554
28.5716
28.377
27.2784
27.3149
27.4011
27.5359
27.7101
27.9012
28.0992
28.289
28.4572
28.5939
28.6833
28.7349
28.6963
28.5822
28.3581
28.1117
27.8644
27.6926
27.5909
27.5655
27.5814
27.6609
27.7535
27.8666
28.0274
28.2229
28.4147
28.5768
28.6238
28.4352
27.3206
27.3344
27.398
27.5228
27.6884
27.8749
28.0704
28.2592
28.4269
28.5618
28.6478
28.6951
28.6506
28.532
28.3083
28.0682
27.8292
27.6662
27.5719
27.5526
27.5781
27.6659
27.7622
27.8773
28.0376
28.2317
28.4258
28.5966
28.6717
28.4968
27.3832
27.3746
27.4139
27.52
27.6768
27.8567
28.0482
28.2348
28.4008
28.5338
28.6151
28.6568
28.6058
28.4828
28.2597
28.0258
27.7942
27.6394
27.5521
27.539
27.5754
27.6707
27.7707
27.8886
28.0492
28.2419
28.4382
28.6146
28.7147
28.5614
27.4635
27.4344
27.4514
27.5354
27.6751
27.8471
28.0332
28.2163
28.3797
28.5111
28.5862
28.6215
28.5631
28.4359
28.2138
27.9854
27.7604
27.6126
27.5318
27.5248
27.5728
27.6751
27.7789
27.9005
28.062
28.2538
28.4517
28.6319
28.7516
28.6284
27.5584
27.5125
27.5061
27.5696
27.6898
27.846
28.0257
28.2043
28.3642
28.4932
28.562
28.5899
28.5242
28.3929
28.1716
27.948
27.7284
27.5862
27.5109
27.51
27.57
27.6787
27.7869
27.913
28.076
28.2671
28.4663
28.6487
28.7834
28.6967
27.6628
27.6033
27.5797
27.6196
27.7205
27.8616
28.0257
28.1991
28.355
28.4806
28.5436
28.5631
28.4903
28.355
28.1342
27.9138
27.6986
27.5603
27.4892
27.4946
27.5666
27.6814
27.7944
27.9257
28.091
28.2817
28.4821
28.6658
28.8095
28.7646
27.7713
27.7023
27.6667
27.6825
27.7665
27.8929
28.0424
28.2033
28.3526
28.4741
28.5321
28.5425
28.4628
28.3235
28.1027
27.8839
27.6716
27.5353
27.4666
27.4782
27.5627
27.6834
27.801
27.9384
28.1068
28.2978
28.4991
28.6842
28.8327
28.8278
27.8821
27.8066
27.7627
27.7579
27.8226
27.9387
28.0757
28.2244
28.364
28.4749
28.528
28.5292
28.4428
28.2993
28.078
27.8606
27.6481
27.5113
27.4431
27.4614
27.557
27.6835
27.8063
27.9505
28.1229
28.3151
28.5171
28.7044
28.8576
28.8823
27.9914
27.9132
27.8634
27.8438
27.8893
27.9934
28.1238
28.2629
28.3932
28.4927
28.5336
28.5259
28.4319
28.2836
28.0607
27.8429
27.6282
27.489
27.4206
27.4446
27.5459
27.6768
27.8097
27.9614
28.139
28.3332
28.5364
28.7264
28.884
28.9302
28.0897
28.0187
27.9654
27.9355
27.965
28.0562
28.1799
28.3111
28.432
28.5198
28.5482
28.5315
28.4344
28.281
28.0515
27.8309
27.6123
27.4707
27.4022
27.4259
27.5244
27.6633
27.8104
27.9704
28.1542
28.3518
28.5566
28.7495
28.9098
28.9751
28.1685
28.1206
28.0648
28.0301
28.0472
28.1283
28.244
28.3686
28.4806
28.5569
28.5725
28.5468
28.4443
28.2867
28.0523
27.8254
27.6022
27.4584
27.3853
27.4007
27.4929
27.6409
27.8044
27.9763
28.1677
28.3704
28.5776
28.7732
28.9341
29.0167
28.2217
28.2134
28.1589
28.1257
28.1358
28.2105
28.3167
28.4364
28.5406
28.6041
28.6081
28.5739
28.4649
28.3007
28.0607
27.8277
27.5995
27.4487
27.3629
27.3653
27.4535
27.6074
27.7882
27.978
28.1782
28.3879
28.5989
28.7972
28.9569
29.0533
28.249
28.2936
28.2479
28.2204
28.2312
28.3024
28.4011
28.5143
28.611
28.6629
28.657
28.6146
28.4993
28.3279
28.0811
27.8412
27.6009
27.4358
27.3316
27.3222
27.4056
27.5619
27.7595
27.9699
28.1841
28.403
28.6203
28.8218
28.9792
29.0857
28.2556
28.3493
28.3295
28.3132
28.3341
28.4048
28.4993
28.6051
28.6941
28.7344
28.7206
28.6703
28.5488
28.3703
28.1149
27.8629
27.6005
27.4205
27.2965
27.275
27.3504
27.5067
27.7174
27.9478
28.1834
28.4136
28.6407
28.8473
29.002
29.1149
28.2581
28.3887
28.4087
28.4102
28.4456
28.5206
28.6147
28.7154
28.7971
28.8258
28.804
28.7453
28.6151
28.4268
28.1604
27.894
27.6145
27.411
27.2667
27.2301
27.2953
27.4451
27.658
27.9109
28.1709
28.4191
28.6594
28.8742
29.0277
29.1444
28.2657
28.4288
28.4899
28.518
28.5708
28.656
28.7515
28.8486
28.9243
28.9432
28.913
28.8448
28.7041
28.5041
28.2243
27.9422
27.6465
27.4135
27.2495
27.1945
27.2466
27.3847
27.5924
27.8543
28.1391
28.4187
28.6766
28.9021
29.0573
29.1752
28.319
28.5026
28.5888
28.6437
28.7183
28.8165
28.9146
29.008
29.0768
29.0855
29.0471
28.9681
28.817
28.6039
28.3106
28.0115
27.7023
27.4521
27.2658
27.1921
27.2302
27.3547
27.556
27.819
28.1145
28.4164
28.6957
28.9379
29.1058
29.2296
28.3799
28.5817
28.6956
28.7805
28.8801
28.9907
29.0937
29.186
29.2497
29.2506
29.2052
29.1161
28.9591
28.7384
28.4365
28.1302
27.8062
27.5334
27.3199
27.2229
27.2477
27.3624
27.5574
27.8157
28.1142
28.4223
28.7162
28.9711
29.1541
29.2782
28.615
28.8288
28.9487
29.0508
29.1635
29.2831
29.3933
29.4849
29.5431
29.5404
29.4906
29.3966
29.2341
29.0102
28.7094
28.4001
28.0669
27.784
27.5512
27.4429
27.4592
27.5644
27.746
27.9892
28.2762
28.5824
28.8864
29.1567
29.3672
29.4877
29.2058
29.3838
29.5011
29.6203
29.7425
29.8588
29.9605
30.0372
30.078
30.0636
30.0034
29.8992
29.7278
29.5078
29.218
28.9314
28.629
28.3782
28.1688
28.0743
28.098
28.2072
28.3826
28.6114
28.8824
29.1714
29.4555
29.7082
29.914
30.055
27.695
27.6209
27.7182
27.7346
27.7905
27.8728
27.9888
28.1236
28.2601
28.3926
28.4977
28.5841
28.5876
28.5336
28.3179
28.0356
27.7653
27.6058
27.5404
27.552
27.5762
27.5884
27.5965
27.6702
27.8409
28.0052
28.1197
28.107
28.0364
28.0688
27.6534
27.5797
27.6932
27.7261
27.8036
27.9065
28.0331
28.1704
28.3057
28.4342
28.5342
28.6151
28.6137
28.5572
28.343
28.0652
27.7958
27.6311
27.5559
27.5613
27.5843
27.5985
27.6014
27.6755
27.8368
27.984
28.0863
28.0983
28.0468
28.0717
27.6106
27.5444
27.6625
27.7067
27.7942
27.9031
28.036
28.1809
28.3208
28.452
28.5506
28.6275
28.6218
28.5623
28.3448
28.0674
27.7975
27.635
27.5598
27.5638
27.5875
27.6044
27.605
27.6766
27.8375
27.9828
28.0831
28.0975
28.056
28.0747
27.5579
27.5035
27.6201
27.675
27.7734
27.89
28.0291
28.1783
28.3211
28.4568
28.557
28.6349
28.627
28.5661
28.3453
28.0689
27.7983
27.6362
27.5589
27.5619
27.5875
27.6074
27.6103
27.6808
27.839
27.9837
28.0856
28.1091
28.0654
28.0788
27.5021
27.4627
27.5725
27.6361
27.7442
27.868
28.0133
28.1671
28.3131
28.4509
28.5519
28.6316
28.6219
28.5579
28.3338
28.063
27.7934
27.6331
27.5552
27.5564
27.5832
27.6088
27.6164
27.6873
27.8415
27.9881
28.0889
28.1275
28.0803
28.0882
27.4447
27.423
27.5231
27.5946
27.7101
27.8407
27.9919
28.1502
28.2994
28.4394
28.5412
28.6212
28.6092
28.5422
28.3149
28.0506
27.785
27.6273
27.5497
27.5493
27.5776
27.6095
27.6228
27.6959
27.8457
27.9943
28.0972
28.1501
28.1027
28.1013
27.3909
27.3869
27.4764
27.5537
27.6743
27.811
27.9674
28.1298
28.2819
28.424
28.5265
28.6052
28.5903
28.5202
28.2901
28.0333
27.7737
27.6198
27.5426
27.5417
27.5729
27.6098
27.6294
27.7065
27.8523
28.0021
28.1111
28.1733
28.1351
28.1166
27.3454
27.3557
27.4346
27.5152
27.6396
27.7813
27.9418
28.1076
28.2621
28.4058
28.5079
28.5847
28.5665
28.493
28.2607
28.0123
27.7597
27.6109
27.5346
27.5343
27.5696
27.6101
27.6366
27.7189
27.8611
28.011
28.1263
28.1958
28.1742
28.1379
27.3108
27.3319
27.3993
27.4816
27.608
27.7533
27.9168
28.0851
28.2413
28.3861
28.4867
28.5612
28.5386
28.4617
28.2281
27.9889
27.7436
27.6011
27.5261
27.5277
27.568
27.6102
27.6446
27.7325
27.8719
28.0215
28.1412
28.218
28.2156
28.1652
27.2878
27.3151
27.3719
27.4552
27.5814
27.7287
27.8938
28.0637
28.2207
28.366
28.4641
28.5359
28.5079
28.4276
28.1936
27.9642
27.7264
27.591
27.5172
27.5222
27.5671
27.6106
27.6535
27.7473
27.8847
28.0337
28.1565
28.2401
28.2555
28.1988
27.2756
27.3069
27.3537
27.4365
27.561
27.7085
27.874
28.0444
28.2014
28.3464
28.4412
28.5096
28.4755
28.3919
28.1582
27.9392
27.7088
27.5806
27.5082
27.5183
27.5664
27.6114
27.6637
27.7631
27.8993
28.0477
28.1727
28.263
28.2924
28.2376
27.2841
27.3071
27.3445
27.4256
27.5471
27.6936
27.8581
28.0282
28.1843
28.3283
28.419
28.4834
28.4426
28.3559
28.1232
27.9151
27.6915
27.5703
27.4995
27.5164
27.5653
27.6131
27.6751
27.7799
27.9156
28.0632
28.1903
28.2865
28.3262
28.2797
27.3101
27.327
27.3432
27.422
27.5402
27.6844
27.847
28.0158
28.1703
28.3125
28.3987
28.4581
28.4103
28.3208
28.0897
27.8926
27.6753
27.5604
27.4914
27.5154
27.5633
27.6156
27.6874
27.7978
27.9335
28.0806
28.2093
28.3108
28.3572
28.3232
27.3494
27.361
27.3618
27.4293
27.5401
27.6812
27.841
28.0076
28.1599
28.2998
28.3813
28.4348
28.38
28.2878
28.0589
27.8727
27.6606
27.5512
27.4837
27.513
27.5601
27.619
27.7005
27.8168
27.9533
28.0998
28.2297
28.3363
28.3856
28.3676
27.4005
27.4055
27.396
27.4515
27.5546
27.6876
27.8404
28.0042
28.1536
28.2908
28.3679
28.4144
28.3527
28.2581
28.0319
27.856
27.6481
27.5426
27.4766
27.5082
27.5553
27.6228
27.7144
27.8367
27.9751
28.1208
28.2521
28.362
28.4124
28.4114
27.4608
27.46
27.4431
27.4901
27.5822
27.7074
27.8512
28.0074
28.1519
28.2861
28.3589
28.398
28.3294
28.2331
28.0095
27.8431
27.638
27.5349
27.4702
27.5003
27.5493
27.627
27.7287
27.8573
27.9983
28.1441
28.2766
28.3865
28.4395
28.4538
27.5271
27.5225
27.5009
27.5392
27.6209
27.7395
27.8744
28.0229
28.1596
28.2861
28.3543
28.3868
28.3112
28.214
27.9928
27.8352
27.6302
27.5286
27.4635
27.4895
27.5427
27.631
27.7428
27.8784
28.0228
28.1694
28.302
28.4113
28.468
28.4948
27.5976
27.5902
27.5669
27.5964
27.6686
27.7831
27.9098
28.0508
28.1804
28.2993
28.3555
28.3819
28.2991
28.2018
27.9823
27.8322
27.6245
27.5239
27.455
27.476
27.5352
27.6344
27.7563
27.8997
28.0486
28.1967
28.3291
28.4383
28.4974
28.5341
27.6691
27.6611
27.6384
27.6603
27.7242
27.8338
27.956
28.091
28.2133
28.3226
28.367
28.3848
28.2983
28.2017
27.9797
27.8346
27.6217
27.5204
27.4443
27.4601
27.526
27.6365
27.7687
27.9208
28.0754
28.2259
28.3582
28.4677
28.5283
28.5721
27.7369
27.7331
27.713
27.7297
27.7873
27.8909
28.0085
28.1377
28.2532
28.3534
28.3862
28.3947
28.3039
28.2076
27.9844
27.844
27.6251
27.5176
27.4322
27.4435
27.5146
27.6372
27.7793
27.9411
28.1028
28.2563
28.3895
28.4991
28.561
28.61
27.7973
27.8052
27.788
27.8026
27.8568
27.955
28.0679
28.1922
28.3013
28.3928
28.414
28.4136
28.3181
28.2225
27.9988
27.863
27.6362
27.5156
27.4215
27.4282
27.501
27.6349
27.7871
27.9597
28.1297
28.288
28.4236
28.5318
28.5927
28.6497
27.848
27.8755
27.8611
27.8776
27.9327
28.0272
28.1356
28.2553
28.3589
28.4418
28.4522
28.444
28.3449
28.2506
28.0257
27.8911
27.6521
27.5196
27.4152
27.4143
27.486
27.6261
27.7919
27.9759
28.1555
28.3204
28.46
28.5656
28.6258
28.6907
27.8885
27.9398
27.9318
27.9558
28.0151
28.1087
28.2138
28.3296
28.4277
28.5016
28.5035
28.4887
28.387
28.2928
28.0645
27.9286
27.6795
27.5362
27.4134
27.4043
27.4724
27.6161
27.7931
27.9884
28.1795
28.3531
28.4982
28.6019
28.6629
28.7321
27.9215
27.9934
27.9972
28.0382
28.104
28.1999
28.3048
28.418
28.511
28.5761
28.5716
28.5507
28.4457
28.3503
28.1179
27.9811
27.7205
27.5647
27.4249
27.4032
27.4641
27.6064
27.7918
27.9963
28.2002
28.3858
28.5376
28.6417
28.7024
28.7734
27.9509
28.0414
28.0641
28.1239
28.2003
28.3035
28.4117
28.5235
28.6125
28.6694
28.6595
28.6328
28.5241
28.426
28.1894
28.0499
27.7775
27.6102
27.4523
27.4116
27.4652
27.6011
27.7897
28.0019
28.2156
28.4157
28.5781
28.6851
28.7456
28.8177
27.9893
28.0902
28.1378
28.2167
28.3089
28.4237
28.5363
28.6468
28.7317
28.7807
28.7659
28.7336
28.6214
28.5189
28.2777
28.1382
27.8555
27.6705
27.4892
27.427
27.4697
27.6013
27.7895
28.0066
28.2287
28.4416
28.6152
28.7298
28.7925
28.8636
28.0476
28.1551
28.2239
28.3222
28.4328
28.5587
28.6765
28.7853
28.8658
28.9073
28.8878
28.8494
28.7341
28.6277
28.385
28.2465
27.949
27.7479
27.545
27.4639
27.4919
27.6152
27.8004
28.0194
28.2466
28.4686
28.6529
28.7786
28.8489
28.9186
28.1121
28.228
28.3201
28.4401
28.5679
28.7036
28.8264
28.9338
29.0099
29.0456
29.0222
28.9791
28.8624
28.7571
28.5121
28.3762
28.0754
27.8753
27.6615
27.5643
27.5776
27.679
27.8442
28.0557
28.2788
28.5012
28.6915
28.8271
28.9062
28.9761
28.2027
28.3286
28.4424
28.581
28.7214
28.8628
28.988
29.0919
29.1627
29.1937
29.1672
29.1217
29.0064
28.9042
28.6653
28.5563
28.2624
28.0651
27.8425
27.7293
27.7227
27.8037
27.9456
28.1406
28.3555
28.5717
28.7609
28.8999
28.9882
29.0605
28.3831
28.5186
28.6408
28.7845
28.9297
29.0674
29.1854
29.2806
29.3428
29.3673
29.3383
29.2916
29.168
29.0703
28.8466
28.7695
28.4906
28.3061
28.0846
27.9609
27.931
27.9904
28.1067
28.2806
28.4816
28.6891
28.8785
29.0329
29.1516
29.255
28.0392
27.6907
27.6961
27.5668
27.5039
27.5066
27.5683
27.675
27.8026
27.9451
28.0651
28.1778
28.1915
28.1649
27.9207
27.6414
27.4164
27.3455
27.3539
27.4153
27.5064
27.61
27.672
27.7238
27.8366
27.9189
27.9603
27.8967
27.87
27.8172
27.9579
27.5659
27.6135
27.5107
27.4866
27.5105
27.5929
27.7105
27.8418
27.9838
28.1013
28.21
28.2196
28.1909
27.948
27.6686
27.4376
27.3583
27.3596
27.421
27.5124
27.6166
27.6738
27.7225
27.8371
27.9033
27.9461
27.8915
27.8929
27.8349
27.8677
27.4765
27.5469
27.463
27.4671
27.5058
27.5991
27.7271
27.8644
28.0102
28.1242
28.2277
28.2314
28.197
27.9488
27.6678
27.4358
27.3579
27.3617
27.4248
27.5157
27.6184
27.6734
27.7187
27.834
27.9044
27.9437
27.8927
27.9084
27.8464
27.758
27.3956
27.4743
27.4112
27.4401
27.4948
27.597
27.7349
27.8794
28.03
28.1435
28.2428
28.2417
28.2031
27.9493
27.6656
27.4305
27.352
27.3556
27.4246
27.5145
27.6138
27.6695
27.7172
27.8296
27.9059
27.948
27.9069
27.9188
27.8591
27.6425
27.33
27.4061
27.3635
27.4115
27.4794
27.5904
27.7333
27.8822
28.037
28.1504
28.25
28.244
28.2029
27.9383
27.6562
27.4199
27.3416
27.3453
27.4195
27.5088
27.6013
27.6622
27.7175
27.8277
27.9081
27.9555
27.9276
27.9303
27.8768
27.5268
27.273
27.342
27.3196
27.3831
27.4617
27.5811
27.7289
27.8803
28.0367
28.1498
28.2497
28.2404
28.1928
27.9208
27.6411
27.4049
27.3284
27.3328
27.4122
27.4994
27.5853
27.6548
27.7187
27.8274
27.9116
27.9655
27.9528
27.9436
27.899
27.4199
27.227
27.2857
27.2811
27.3556
27.4437
27.5706
27.7229
27.8767
28.0347
28.1472
28.2469
28.2326
28.1779
27.8985
27.6221
27.387
27.3137
27.3191
27.4043
27.4854
27.5692
27.6482
27.7208
27.8286
27.9169
27.9752
27.9803
27.9612
27.9243
27.3252
27.1906
27.2383
27.2486
27.3301
27.4268
27.5601
27.7165
27.8724
28.0318
28.1434
28.2426
28.2216
28.1595
27.873
27.6008
27.3674
27.2981
27.3051
27.3948
27.4681
27.5543
27.6432
27.7242
27.8315
27.9227
27.9861
28.0073
27.9827
27.9549
27.2425
27.1627
27.1993
27.223
27.3083
27.4123
27.5508
27.7105
27.8681
28.0287
28.1393
28.2372
28.2085
28.1388
27.8457
27.5784
27.3473
27.2824
27.2914
27.3816
27.4513
27.543
27.6403
27.7284
27.8361
27.9293
27.9972
28.0323
28.0064
27.9895
27.1733
27.1438
27.1695
27.2031
27.2909
27.4008
27.5433
27.7058
27.8646
28.0261
28.1355
28.2313
28.1945
28.117
27.8177
27.556
27.3273
27.267
27.2789
27.3671
27.4373
27.5358
27.6399
27.7339
27.8423
27.9379
28.01
28.0547
28.0308
28.0245
27.1204
27.1331
27.1487
27.1894
27.2787
27.3932
27.5384
27.703
27.8626
28.0247
28.1325
28.226
28.1805
28.0951
27.7903
27.5346
27.308
27.2522
27.2671
27.3518
27.4252
27.5327
27.6418
27.7411
27.8497
27.948
28.0243
28.0757
28.0553
28.058
27.0904
27.1288
27.1368
27.1825
27.2721
27.3896
27.5365
27.7026
27.8626
28.0252
28.131
28.2221
28.1675
28.074
27.7647
27.5153
27.2901
27.2385
27.2545
27.336
27.4156
27.533
27.646
27.7508
27.8592
27.9595
28.0379
28.0954
28.0799
28.0916
27.0926
27.1382
27.133
27.1819
27.2711
27.3916
27.5407
27.7093
27.8692
28.0318
28.1323
28.2203
28.1565
28.0545
27.7415
27.4987
27.2739
27.2263
27.2403
27.3201
27.4093
27.5352
27.6523
27.7628
27.8715
27.9737
28.0516
28.1146
28.105
28.1269
27.1094
27.1597
27.1436
27.1945
27.2825
27.4058
27.5553
27.7248
27.8836
28.0455
28.1401
28.2215
28.1483
28.0377
27.7219
27.4857
27.2599
27.2162
27.2247
27.3049
27.4054
27.5382
27.6608
27.7769
27.8872
27.9909
28.0669
28.1348
28.1302
28.1611
27.1393
27.191
27.1664
27.2198
27.3071
27.4319
27.5805
27.7496
27.9065
28.0674
28.1553
28.2264
28.1467
28.0245
27.7067
27.477
27.2485
27.2085
27.2078
27.2909
27.4023
27.5412
27.6709
27.793
27.9051
28.009
28.0845
28.1567
28.1559
28.1946
27.1789
27.2334
27.2035
27.2573
27.3436
27.4694
27.6164
27.7842
27.9386
28.0964
28.1744
28.2353
28.1491
28.0197
27.6965
27.4729
27.2404
27.2006
27.1895
27.2775
27.3986
27.5444
27.6819
27.8104
27.9239
28.0278
28.1039
28.1799
28.1821
28.2274
27.2292
27.2845
27.2528
27.3059
27.3906
27.5181
27.6633
27.8291
27.9794
28.13
28.1978
28.2488
28.1549
28.0218
27.6929
27.4729
27.2355
27.1911
27.1711
27.2647
27.3939
27.5475
27.693
27.8287
27.9444
28.0495
28.1244
28.2036
28.2086
28.2601
27.2876
27.3416
27.3105
27.3634
27.4454
27.5743
27.7185
27.8805
28.0253
28.1687
28.2258
28.2672
28.1645
28.0285
27.6957
27.4815
27.2337
27.1806
27.154
27.2518
27.3879
27.5503
27.7047
27.8482
27.9683
28.0742
28.1468
28.2259
28.2346
28.2932
27.3504
27.4031
27.375
27.4283
27.5082
27.6366
27.7792
27.9371
28.0767
28.2131
28.2591
28.2907
28.1789
28.0406
27.7045
27.4981
27.2324
27.1712
27.1391
27.2391
27.3808
27.5525
27.7164
27.8685
27.9948
28.1015
28.1715
28.2468
28.2597
28.3276
27.4132
27.4672
27.4445
27.4998
27.5783
27.7054
27.8449
27.9992
28.1337
28.2633
28.2982
28.3201
28.1999
28.061
27.7219
27.5229
27.2316
27.1665
27.1277
27.2278
27.3738
27.5543
27.7275
27.8889
28.023
28.1316
28.1999
28.2721
28.2875
28.3624
27.4739
27.5326
27.5168
27.5764
27.6553
27.7813
27.9171
28.0669
28.1967
28.3196
28.3438
28.3567
28.2285
28.0922
27.7488
27.5526
27.2412
27.1689
27.1221
27.2219
27.3681
27.5556
27.737
27.9089
28.0527
28.1655
28.2332
28.3027
28.3215
28.3998
27.5306
27.5976
27.5901
27.658
27.7396
27.8648
27.9975
28.1421
28.2665
28.3821
28.3966
28.4016
28.2659
28.1347
27.7852
27.5905
27.263
27.1838
27.1244
27.2208
27.3631
27.5558
27.745
27.9276
28.0829
28.2031
28.2715
28.338
28.3613
28.4413
27.5823
27.6598
27.6665
27.7443
27.8317
27.9564
28.087
28.2275
28.3464
28.4538
28.4592
28.4574
28.3154
28.1909
27.8348
27.6449
27.3004
27.2107
27.1324
27.2218
27.3587
27.5543
27.7513
27.9432
28.112
28.2434
28.3154
28.3792
28.4071
28.4872
27.6317
27.7203
27.7487
27.8362
27.9303
28.057
28.1873
28.3252
28.4395
28.5387
28.5367
28.5292
28.3823
28.2646
27.901
27.7189
27.3524
27.2472
27.1467
27.2264
27.3586
27.5539
27.7562
27.9571
28.1382
28.281
28.3627
28.4252
28.4571
28.5374
27.6837
27.7829
27.834
27.9324
28.0374
28.1691
28.3012
28.4368
28.5473
28.639
28.632
28.6198
28.4683
28.3565
27.9843
27.8116
27.4163
27.2972
27.1742
27.2389
27.3648
27.5575
27.7631
27.9709
28.1632
28.3169
28.4093
28.4743
28.5109
28.5922
27.742
27.8514
27.9252
28.0374
28.1559
28.2944
28.4296
28.563
28.6695
28.7546
28.7438
28.7277
28.5719
28.4657
28.0859
27.9203
27.4997
27.3726
27.2275
27.2739
27.3842
27.5708
27.7754
27.9872
28.1878
28.3518
28.4559
28.5281
28.5721
28.6555
27.8142
27.9317
28.0266
28.1544
28.2864
28.432
28.5697
28.7007
28.803
28.8823
28.8683
28.8489
28.6903
28.591
28.202
28.0539
27.6144
27.4785
27.3074
27.3362
27.4226
27.5963
27.7959
28.0083
28.2139
28.3868
28.5036
28.5864
28.6421
28.727
27.9001
28.0271
28.1417
28.2827
28.4268
28.5781
28.717
28.8446
28.9427
29.0168
29.0001
28.9783
28.8188
28.7272
28.3351
28.214
27.7545
27.6172
27.4218
27.4317
27.493
27.6421
27.8294
28.038
28.2438
28.4218
28.5524
28.6506
28.722
28.8075
28.0047
28.1335
28.2641
28.419
28.5714
28.7253
28.8635
28.9858
29.0791
29.1482
29.1295
29.1072
28.9486
28.8691
28.4775
28.3965
27.9253
27.7927
27.5763
27.5657
27.6027
27.7241
27.8883
28.0832
28.2839
28.4645
28.6074
28.7241
28.8182
28.9156
28.1357
28.2788
28.4193
28.573
28.725
28.8732
29.0055
29.1191
29.2038
29.2669
29.2463
29.2252
29.0636
28.9954
28.6176
28.6005
28.1302
28.0049
27.7738
27.7408
27.7542
27.8488
27.9866
28.1624
28.3496
28.5267
28.6786
28.8118
28.9299
29.0488
28.4582
27.9079
27.8713
27.6336
27.4678
27.3762
27.3694
27.4306
27.5281
27.666
27.7883
27.9341
27.9689
28.0055
27.749
27.5092
27.3349
27.3204
27.3328
27.4323
27.5222
27.6603
27.8482
27.9645
27.9467
27.9197
27.8949
27.8128
27.8685
27.7772
28.3409
27.7269
27.7566
27.5422
27.422
27.3646
27.3828
27.4587
27.5643
27.7052
27.8281
27.9728
28.0041
28.0402
27.7826
27.5394
27.3567
27.3305
27.3339
27.4354
27.528
27.668
27.8571
27.962
27.9514
27.9209
27.8939
27.8193
27.8983
27.8041
28.2137
27.6032
27.663
27.4675
27.3843
27.3543
27.3903
27.4798
27.5932
27.7361
27.8567
27.9971
28.0216
28.0528
27.7897
27.5533
27.3691
27.3373
27.3353
27.4383
27.5331
27.6723
27.8534
27.9456
27.9481
27.9232
27.8993
27.8246
27.9152
27.8215
28.0594
27.4957
27.564
27.391
27.3436
27.3399
27.3894
27.4936
27.6153
27.7641
27.8826
28.02
28.0384
28.0671
27.7964
27.5639
27.3712
27.3365
27.3342
27.4388
27.5343
27.6692
27.8333
27.9242
27.9401
27.9237