/*--------------------------------*- C++ -*----------------------------------*\
  =========                 |
  \\      /  F ield         | OpenFOAM: The Open Source CFD Toolbox
   \\    /   O peration     | Website:  https://openfoam.org
    \\  /    A nd           | Version:  12
     \\/     M anipulation  |
\*---------------------------------------------------------------------------*/
FoamFile
{
    format      ascii;
    class       volScalarField;
    location    "850/porous";
    object      rho;
}
// * * * * * * * * * * * * * * * * * * * * * * * * * * * * * * * * * * * * * //

dimensions      [1 -3 0 0 0 0 0];

internalField   nonuniform List<scalar> 
140000
(
933.891
933.891
933.891
933.891
933.891
933.891
933.891
933.891
933.892
933.899
934.188
934.413
934.612
934.798
934.977
935.149
935.319
935.484
935.648
935.809
935.968
936.126
936.282
936.436
936.589
936.741
936.891
937.039
937.186
937.331
937.474
937.615
937.755
937.892
938.028
938.161
938.293
938.423
938.553
938.681
938.809
938.937
939.064
939.19
939.315
939.439
939.561
939.682
939.801
939.919
940.035
940.149
940.262
940.373
940.48
940.587
940.691
940.793
940.892
940.965
940.567
940.314
940.118
939.956
939.816
939.693
939.583
939.484
939.393
939.314
933.891
933.891
933.891
933.891
933.891
933.891
933.891
933.891
933.891
933.896
934.118
934.296
934.455
934.605
934.75
934.89
935.028
935.164
935.298
935.431
935.562
935.692
935.822
935.95
936.078
936.205
936.331
936.456
936.581
936.704
936.827
936.949
937.07
937.19
937.308
937.426
937.543
937.659
937.775
937.89
938.006
938.122
938.237
938.353
938.467
938.581
938.694
938.806
938.917
939.027
939.135
939.243
939.35
939.454
939.558
939.659
939.76
939.857
939.953
940.032
939.794
939.638
939.515
939.411
939.32
939.237
939.162
939.093
939.029
938.971
933.891
933.891
933.891
933.891
933.891
933.891
933.891
933.891
933.891
933.895
934.099
934.259
934.401
934.533
934.659
934.781
934.899
935.015
935.129
935.241
935.352
935.462
935.57
935.678
935.784
935.89
935.995
936.1
936.203
936.306
936.409
936.51
936.611
936.711
936.811
936.909
937.007
937.105
937.202
937.3
937.398
937.496
937.595
937.693
937.792
937.889
937.986
938.083
938.179
938.274
938.368
938.462
938.555
938.646
938.737
938.826
938.913
939
939.083
939.156
938.966
938.846
938.755
938.68
938.616
938.559
938.507
938.46
938.417
938.379
933.891
933.891
933.891
933.891
933.891
933.891
933.891
933.891
933.891
933.895
934.095
934.251
934.387
934.513
934.633
934.747
934.858
934.965
935.071
935.174
935.275
935.375
935.474
935.571
935.668
935.763
935.857
935.95
936.043
936.134
936.225
936.315
936.404
936.492
936.579
936.666
936.751
936.837
936.922
937.007
937.093
937.179
937.266
937.352
937.438
937.523
937.608
937.692
937.776
937.859
937.941
938.023
938.104
938.183
938.262
938.339
938.415
938.489
938.562
938.624
938.445
938.333
938.249
938.179
938.12
938.069
938.023
937.981
937.944
937.909
933.891
933.891
933.891
933.891
933.891
933.891
933.891
933.891
933.891
933.895
934.094
934.249
934.384
934.508
934.626
934.738
934.846
934.951
935.053
935.153
935.251
935.347
935.442
935.535
935.627
935.718
935.807
935.896
935.983
936.07
936.155
936.24
936.323
936.405
936.487
936.567
936.647
936.726
936.805
936.884
936.963
937.043
937.123
937.203
937.282
937.36
937.438
937.516
937.592
937.668
937.744
937.818
937.891
937.964
938.035
938.105
938.173
938.24
938.304
938.359
938.184
938.072
937.987
937.917
937.858
937.806
937.759
937.716
937.678
937.643
933.891
933.891
933.891
933.891
933.891
933.891
933.891
933.891
933.891
933.895
934.094
934.249
934.384
934.509
934.626
934.737
934.845
934.949
935.051
935.15
935.246
935.341
935.435
935.527
935.617
935.706
935.794
935.88
935.965
936.05
936.133
936.215
936.296
936.376
936.455
936.532
936.609
936.685
936.76
936.837
936.914
936.991
937.067
937.144
937.22
937.295
937.37
937.444
937.517
937.589
937.661
937.732
937.801
937.87
937.937
938.003
938.067
938.129
938.189
938.241
938.066
937.954
937.868
937.797
937.737
937.683
937.635
937.591
937.552
937.516
933.891
933.891
933.891
933.891
933.891
933.891
933.891
933.891
933.891
933.895
934.095
934.25
934.385
934.51
934.627
934.739
934.846
934.95
935.052
935.15
935.247
935.342
935.435
935.526
935.616
935.704
935.791
935.877
935.962
936.045
936.128
936.209
936.289
936.367
936.445
936.521
936.596
936.671
936.745
936.82
936.896
936.972
937.047
937.122
937.197
937.271
937.344
937.416
937.488
937.559
937.629
937.698
937.766
937.832
937.898
937.961
938.023
938.083
938.142
938.19
938.016
937.903
937.817
937.746
937.684
937.63
937.581
937.537
937.496
937.46
933.891
933.891
933.891
933.891
933.891
933.891
933.891
933.891
933.891
933.895
934.095
934.251
934.386
934.511
934.628
934.74
934.848
934.953
935.054
935.153
935.25
935.344
935.437
935.529
935.618
935.707
935.794
935.879
935.964
936.047
936.129
936.21
936.289
936.367
936.444
936.519
936.593
936.667
936.742
936.816
936.892
936.967
937.042
937.117
937.19
937.264
937.336
937.408
937.479
937.549
937.618
937.687
937.754
937.819
937.884
937.946
938.007
938.067
938.123
938.171
937.996
937.884
937.797
937.726
937.664
937.609
937.56
937.515
937.474
937.437
933.891
933.891
933.891
933.891
933.891
933.891
933.891
933.891
933.891
933.895
934.096
934.251
934.387
934.512
934.629
934.742
934.85
934.954
935.056
935.155
935.252
935.347
935.44
935.531
935.621
935.709
935.796
935.882
935.966
936.05
936.131
936.212
936.291
936.369
936.445
936.52
936.594
936.667
936.742
936.816
936.892
936.967
937.042
937.116
937.19
937.263
937.335
937.407
937.477
937.547
937.616
937.684
937.751
937.816
937.88
937.942
938.003
938.061
938.117
938.164
937.99
937.877
937.791
937.719
937.657
937.602
937.553
937.508
937.466
937.429
933.891
933.891
933.891
933.891
933.891
933.891
933.891
933.891
933.891
933.895
934.096
934.252
934.388
934.513
934.631
934.743
934.851
934.956
935.058
935.157
935.254
935.349
935.443
935.534
935.624
935.712
935.799
935.885
935.969
936.052
936.134
936.214
936.293
936.371
936.446
936.521
936.595
936.668
936.743
936.817
936.893
936.968
937.043
937.117
937.191
937.264
937.336
937.408
937.478
937.548
937.617
937.685
937.751
937.817
937.88
937.943
938.003
938.061
938.116
938.163
937.989
937.876
937.789
937.718
937.655
937.601
937.551
937.506
937.465
937.427
933.891
933.891
933.891
933.891
933.891
933.891
933.891
933.891
933.891
933.895
934.096
934.252
934.388
934.513
934.631
934.744
934.852
934.957
935.059
935.159
935.256
935.351
935.444
935.536
935.626
935.714
935.801
935.887
935.972
936.055
936.136
936.216
936.295
936.372
936.447
936.522
936.595
936.669
936.743
936.818
936.894
936.969
937.044
937.119
937.192
937.265
937.338
937.409
937.48
937.55
937.619
937.686
937.753
937.818
937.882
937.944
938.004
938.062
938.117
938.163
937.989
937.877
937.79
937.718
937.656
937.601
937.552
937.506
937.465
937.428
933.891
933.891
933.891
933.891
933.891
933.891
933.891
933.891
933.891
933.895
934.096
934.252
934.388
934.513
934.632
934.745
934.853
934.958
935.061
935.16
935.257
935.353
935.446
935.538
935.628
935.716
935.803
935.889
935.973
936.056
936.138
936.217
936.296
936.372
936.448
936.522
936.595
936.669
936.744
936.819
936.895
936.97
937.045
937.12
937.194
937.267
937.339
937.411
937.481
937.551
937.62
937.688
937.755
937.82
937.884
937.946
938.006
938.063
938.119
938.164
937.991
937.878
937.791
937.719
937.657
937.602
937.553
937.508
937.466
937.429
933.891
933.891
933.891
933.891
933.891
933.891
933.891
933.891
933.891
933.895
934.096
934.252
934.388
934.514
934.632
934.745
934.853
934.959
935.061
935.161
935.258
935.353
935.447
935.538
935.628
935.717
935.804
935.89
935.974
936.057
936.138
936.218
936.296
936.372
936.447
936.521
936.595
936.669
936.744
936.819
936.895
936.971
937.046
937.12
937.194
937.267
937.34
937.411
937.482
937.552
937.621
937.689
937.756
937.821
937.885
937.947
938.007
938.065
938.12
938.165
937.992
937.879
937.793
937.721
937.659
937.604
937.554
937.509
937.468
937.43
933.891
933.891
933.891
933.891
933.891
933.891
933.891
933.891
933.891
933.895
934.096
934.252
934.388
934.513
934.632
934.745
934.854
934.959
935.061
935.161
935.259
935.354
935.447
935.539
935.629
935.717
935.804
935.89
935.974
936.057
936.138
936.217
936.295
936.371
936.446
936.52
936.594
936.668
936.743
936.819
936.895
936.97
937.046
937.12
937.194
937.267
937.34
937.412
937.482
937.553
937.622
937.69
937.757
937.822
937.886
937.948
938.008
938.066
938.121
938.167
937.993
937.88
937.794
937.722
937.66
937.605
937.556
937.511
937.469
937.432
933.891
933.891
933.891
933.891
933.891
933.891
933.891
933.891
933.891
933.895
934.096
934.251
934.388
934.513
934.631
934.744
934.853
934.959
935.061
935.161
935.258
935.354
935.447
935.539
935.629
935.717
935.804
935.889
935.973
936.056
936.136
936.215
936.293
936.369
936.444
936.518
936.593
936.667
936.742
936.818
936.894
936.97
937.045
937.12
937.194
937.267
937.339
937.411
937.482
937.553
937.622
937.69
937.757
937.823
937.887
937.949
938.009
938.067
938.122
938.168
937.994
937.881
937.795
937.723
937.661
937.607
937.557
937.512
937.471
937.434
933.891
933.891
933.891
933.891
933.891
933.891
933.891
933.891
933.891
933.895
934.095
934.251
934.387
934.512
934.63
934.743
934.852
934.958
935.061
935.16
935.258
935.353
935.447
935.538
935.628
935.716
935.803
935.888
935.972
936.054
936.134
936.213
936.29
936.366
936.442
936.517
936.591
936.666
936.741
936.817
936.893
936.969
937.044
937.119
937.193
937.266
937.339
937.411
937.482
937.552
937.622
937.69
937.757
937.823
937.888
937.95
938.01
938.068
938.123
938.168
937.995
937.882
937.796
937.725
937.663
937.608
937.559
937.514
937.472
937.435
933.891
933.891
933.891
933.891
933.891
933.891
933.891
933.891
933.891
933.895
934.095
934.251
934.386
934.511
934.63
934.743
934.852
934.957
935.06
935.16
935.257
935.353
935.446
935.537
935.627
935.715
935.802
935.887
935.97
936.052
936.132
936.21
936.287
936.363
936.439
936.515
936.59
936.665
936.74
936.816
936.892
936.967
937.043
937.118
937.192
937.265
937.338
937.41
937.482
937.552
937.622
937.69
937.758
937.824
937.888
937.951
938.011
938.069
938.124
938.169
937.996
937.884
937.797
937.726
937.664
937.609
937.56
937.515
937.474
937.437
933.891
933.891
933.891
933.891
933.891
933.891
933.891
933.891
933.891
933.895
934.094
934.249
934.385
934.51
934.629
934.742
934.851
934.956
935.059
935.159
935.256
935.352
935.445
935.536
935.626
935.714
935.8
935.885
935.968
936.049
936.128
936.207
936.284
936.361
936.438
936.514
936.589
936.664
936.74
936.815
936.891
936.966
937.042
937.116
937.191
937.264
937.337
937.409
937.481
937.552
937.621
937.69
937.758
937.824
937.888
937.951
938.012
938.07
938.124
938.17
937.997
937.884
937.798
937.727
937.665
937.611
937.561
937.517
937.476
937.438
933.891
933.891
933.891
933.891
933.891
933.891
933.891
933.891
933.891
933.895
934.094
934.249
934.384
934.509
934.627
934.741
934.85
934.955
935.058
935.158
935.256
935.351
935.444
935.535
935.625
935.712
935.798
935.883
935.965
936.046
936.125
936.203
936.281
936.359
936.436
936.513
936.589
936.664
936.739
936.814
936.889
936.965
937.04
937.115
937.189
937.263
937.336
937.408
937.48
937.551
937.621
937.69
937.757
937.824
937.888
937.951
938.012
938.07
938.125
938.171
937.997
937.885
937.799
937.728
937.666
937.612
937.562
937.518
937.477
937.44
933.891
933.891
933.891
933.891
933.891
933.891
933.891
933.891
933.891
933.895
934.094
934.248
934.384
934.508
934.626
934.74
934.849
934.954
935.057
935.157
935.255
935.35
935.443
935.535
935.624
935.711
935.797
935.881
935.963
936.043
936.122
936.201
936.279
936.357
936.435
936.512
936.588
936.663
936.738
936.813
936.888
936.963
937.038
937.113
937.187
937.261
937.334
937.407
937.479
937.55
937.62
937.689
937.756
937.823
937.888
937.951
938.012
938.07
938.125
938.171
937.998
937.885
937.799
937.728
937.667
937.612
937.563
937.518
937.477
937.44
933.891
933.891
933.891
933.891
933.891
933.891
933.891
933.891
933.891
933.895
934.093
934.247
934.382
934.507
934.625
934.738
934.847
934.953
935.056
935.156
935.254
935.349
935.443
935.534
935.623
935.71
935.795
935.879
935.961
936.041
936.12
936.199
936.278
936.356
936.434
936.512
936.588
936.663
936.738
936.812
936.887
936.962
937.036
937.111
937.185
937.259
937.332
937.405
937.477
937.548
937.618
937.687
937.755
937.822
937.887
937.95
938.011
938.069
938.125
938.17
937.997
937.885
937.799
937.728
937.667
937.612
937.563
937.519
937.478
937.441
933.891
933.891
933.891
933.891
933.891
933.891
933.891
933.891
933.891
933.895
934.093
934.246
934.381
934.506
934.624
934.737
934.847
934.952
935.055
935.156
935.253
935.349
935.442
935.533
935.622
935.71
935.795
935.878
935.959
936.039
936.119
936.198
936.277
936.356
936.434
936.511
936.588
936.663
936.738
936.812
936.886
936.96
937.035
937.109
937.183
937.257
937.33
937.403
937.475
937.546
937.616
937.685
937.753
937.82
937.885
937.949
938.01
938.068
938.124
938.17
937.997
937.885
937.799
937.728
937.666
937.612
937.563
937.519
937.478
937.441
933.891
933.891
933.891
933.891
933.891
933.891
933.891
933.891
933.891
933.895
934.091
934.245
934.38
934.505
934.623
934.736
934.846
934.952
935.055
935.155
935.253
935.348
935.442
935.533
935.622
935.709
935.794
935.878
935.959
936.039
936.118
936.198
936.277
936.356
936.434
936.512
936.588
936.664
936.738
936.811
936.885
936.959
937.033
937.107
937.181
937.255
937.328
937.401
937.473
937.544
937.614
937.683
937.752
937.819
937.884
937.947
938.009
938.068
938.124
938.17
937.997
937.885
937.799
937.728
937.666
937.612
937.563
937.519
937.478
937.441
933.891
933.891
933.891
933.891
933.891
933.891
933.891
933.891
933.891
933.895
934.091
934.244
934.379
934.503
934.622
934.735
934.844
934.951
935.054
935.154
935.252
935.348
935.441
935.533
935.622
935.709
935.795
935.878
935.959
936.039
936.119
936.198
936.278
936.357
936.435
936.513
936.589
936.665
936.739
936.812
936.885
936.958
937.032
937.106
937.18
937.253
937.326
937.399
937.471
937.542
937.613
937.682
937.75
937.817
937.883
937.946
938.008
938.067
938.123
938.17
937.997
937.885
937.799
937.728
937.666
937.612
937.563
937.519
937.478
937.441
933.891
933.891
933.891
933.891
933.891
933.891
933.891
933.891
933.891
933.895
934.091
934.244
934.378
934.503
934.621
934.735
934.844
934.95
935.053
935.154
935.252
935.348
935.441
935.533
935.622
935.71
935.795
935.878
935.96
936.04
936.12
936.199
936.279
936.358
936.436
936.514
936.59
936.665
936.739
936.812
936.885
936.958
937.031
937.105
937.179
937.252
937.325
937.398
937.47
937.541
937.611
937.681
937.749
937.816
937.882
937.945
938.007
938.067
938.123
938.17
937.997
937.885
937.799
937.728
937.666
937.612
937.563
937.519
937.478
937.441
933.891
933.891
933.891
933.891
933.891
933.891
933.891
933.891
933.891
933.895
934.089
934.241
934.376
934.501
934.619
934.733
934.842
934.949
935.052
935.153
935.251
935.347
935.441
935.533
935.623
935.71
935.796
935.879
935.961
936.041
936.121
936.201
936.28
936.359
936.438
936.515
936.591
936.666
936.74
936.813
936.885
936.958
937.031
937.104
937.178
937.251
937.324
937.397
937.469
937.54
937.61
937.68
937.748
937.815
937.881
937.945
938.007
938.067
938.124
938.173
937.999
937.886
937.8
937.729
937.667
937.613
937.564
937.519
937.478
937.441
933.891
933.891
933.891
933.891
933.891
933.891
933.891
933.891
933.891
933.895
934.088
934.241
934.376
934.5
934.619
934.732
934.842
934.948
935.052
935.152
935.251
935.347
935.441
935.533
935.623
935.711
935.797
935.881
935.962
936.043
936.123
936.202
936.282
936.361
936.439
936.516
936.592
936.667
936.741
936.814
936.886
936.958
937.031
937.105
937.178
937.251
937.324
937.397
937.469
937.54
937.61
937.68
937.748
937.815
937.881
937.945
938.007
938.067
938.125
938.174
937.999
937.887
937.801
937.73
937.668
937.614
937.565
937.52
937.479
937.442
933.891
933.891
933.891
933.891
933.891
933.891
933.891
933.891
933.891
933.895
934.088
934.24
934.375
934.499
934.618
934.731
934.841
934.947
935.051
935.152
935.25
935.346
935.441
935.533
935.623
935.711
935.797
935.882
935.964
936.045
936.124
936.204
936.283
936.362
936.44
936.517
936.593
936.668
936.742
936.814
936.887
936.959
937.032
937.105
937.179
937.252
937.325
937.397
937.469
937.54
937.61
937.68
937.748
937.816
937.882
937.946
938.008
938.069
938.126
938.176
938.001
937.889
937.802
937.731
937.669
937.615
937.566
937.521
937.48
937.443
933.891
933.891
933.891
933.891
933.891
933.891
933.891
933.891
933.891
933.895
934.087
934.239
934.374
934.498
934.616
934.73
934.84
934.946
935.05
935.151
935.249
935.346
935.44
935.532
935.623
935.711
935.798
935.882
935.965
936.046
936.126
936.205
936.284
936.363
936.441
936.518
936.594
936.669
936.742
936.815
936.887
936.96
937.033
937.107
937.18
937.253
937.326
937.398
937.47
937.541
937.611
937.681
937.749
937.816
937.882
937.947
938.009
938.07
938.128
938.179
938.004
937.891
937.804
937.733
937.671
937.616
937.567
937.522
937.481
937.444
933.891
933.891
933.891
933.891
933.891
933.891
933.891
933.891
933.891
933.895
934.087
934.239
934.373
934.498
934.616
934.729
934.839
934.945
935.049
935.15
935.249
935.345
935.44
935.532
935.623
935.711
935.798
935.883
935.966
936.048
936.127
936.207
936.285
936.364
936.441
936.518
936.594
936.669
936.742
936.815
936.888
936.962
937.035
937.108
937.181
937.254
937.327
937.399
937.471
937.542
937.612
937.682
937.75
937.817
937.884
937.948
938.011
938.071
938.13
938.18
938.005
937.892
937.805
937.734
937.672
937.617
937.568
937.523
937.482
937.445
933.891
933.891
933.891
933.891
933.891
933.891
933.891
933.891
933.891
933.895
934.087
934.239
934.373
934.497
934.615
934.729
934.838
934.945
935.048
935.149
935.248
935.345
935.439
935.532
935.622
935.711
935.798
935.884
935.967
936.049
936.129
936.208
936.286
936.364
936.442
936.518
936.594
936.668
936.742
936.816
936.889
936.963
937.037
937.11
937.183
937.256
937.329
937.401
937.472
937.543
937.613
937.683
937.751
937.819
937.885
937.949
938.012
938.073
938.133
938.184
938.008
937.894
937.807
937.735
937.673
937.619
937.569
937.524
937.483
937.446
933.891
933.891
933.891
933.891
933.891
933.891
933.891
933.891
933.891
933.895
934.087
934.239
934.372
934.497
934.615
934.728
934.838
934.944
935.048
935.149
935.247
935.344
935.438
935.531
935.622
935.711
935.798
935.884
935.968
936.05
936.13
936.209
936.287
936.364
936.441
936.518
936.593
936.668
936.742
936.816
936.89
936.964
937.038
937.111
937.185
937.258
937.33
937.402
937.473
937.544
937.614
937.684
937.752
937.819
937.886
937.95
938.013
938.074
938.134
938.186
938.009
937.895
937.808
937.736
937.674
937.619
937.57
937.525
937.484
937.446
933.891
933.891
933.891
933.891
933.891
933.891
933.891
933.891
933.891
933.895
934.087
934.238
934.372
934.496
934.614
934.727
934.837
934.943
935.047
935.148
935.246
935.343
935.438
935.53
935.621
935.711
935.798
935.884
935.968
936.05
936.131
936.209
936.287
936.364
936.441
936.517
936.592
936.666
936.741
936.815
936.89
936.965
937.039
937.113
937.186
937.259
937.331
937.403
937.474
937.545
937.615
937.684
937.753
937.82
937.886
937.951
938.014
938.076
938.135
938.187
938.01
937.896
937.809
937.737
937.675
937.62
937.57
937.525
937.484
937.446
933.891
933.891
933.891
933.891
933.891
933.891
933.891
933.891
933.891
933.895
934.087
934.238
934.372
934.496
934.614
934.727
934.836
934.942
935.046
935.147
935.246
935.342
935.437
935.529
935.621
935.71
935.798
935.884
935.968
936.05
936.131
936.209
936.287
936.363
936.44
936.515
936.59
936.665
936.74
936.815
936.89
936.965
937.039
937.113
937.187
937.259
937.332
937.403
937.475
937.545
937.615
937.685
937.753
937.82
937.887
937.951
938.015
938.076
938.136
938.189
938.012
937.897
937.81
937.738
937.675
937.62
937.57
937.525
937.483
937.446
933.891
933.891
933.891
933.891
933.891
933.891
933.891
933.891
933.891
933.895
934.087
934.238
934.371
934.495
934.613
934.726
934.835
934.942
935.045
935.146
935.244
935.341
935.436
935.528
935.62
935.709
935.797
935.883
935.967
936.05
936.13
936.209
936.286
936.362
936.438
936.514
936.589
936.664
936.739
936.815
936.89
936.965
937.04
937.114
937.187
937.26
937.332
937.404
937.475
937.546
937.616
937.685
937.753
937.82
937.887
937.952
938.015
938.077
938.137
938.19
938.012
937.897
937.81
937.737
937.675
937.62
937.57
937.524
937.483
937.445
933.891
933.891
933.891
933.891
933.891
933.891
933.891
933.891
933.891
933.895
934.087
934.238
934.371
934.495
934.612
934.725
934.834
934.941
935.044
935.145
935.243
935.34
935.434
935.527
935.618
935.708
935.796
935.882
935.966
936.049
936.13
936.208
936.285
936.361
936.437
936.512
936.587
936.663
936.739
936.814
936.89
936.965
937.04
937.114
937.187
937.26
937.332
937.404
937.475
937.546
937.615
937.685
937.753
937.82
937.887
937.952
938.015
938.078
938.138
938.19
938.012
937.898
937.81
937.737
937.675
937.619
937.569
937.524
937.482
937.445
933.891
933.891
933.891
933.891
933.891
933.891
933.891
933.891
933.891
933.895
934.087
934.238
934.371
934.494
934.612
934.724
934.834
934.939
935.043
935.143
935.242
935.338
935.433
935.526
935.617
935.706
935.794
935.88
935.965
936.048
936.128
936.207
936.284
936.359
936.435
936.51
936.586
936.662
936.738
936.814
936.89
936.965
937.04
937.114
937.187
937.26
937.332
937.404
937.475
937.545
937.615
937.684
937.752
937.82
937.886
937.951
938.015
938.077
938.138
938.191
938.013
937.898
937.81
937.737
937.674
937.619
937.569
937.523
937.482
937.444
933.891
933.891
933.891
933.891
933.891
933.891
933.891
933.891
933.891
933.895
934.086
934.237
934.37
934.494
934.611
934.724
934.832
934.938
935.041
935.142
935.24
935.337
935.431
935.524
935.615
935.704
935.792
935.879
935.963
936.046
936.126
936.205
936.281
936.357
936.433
936.509
936.585
936.661
936.737
936.814
936.889
936.964
937.039
937.113
937.187
937.259
937.332
937.403
937.474
937.545
937.614
937.683
937.752
937.819
937.886
937.951
938.015
938.077
938.138
938.191
938.012
937.897
937.809
937.736
937.674
937.618
937.568
937.522
937.481
937.443
933.891
933.891
933.891
933.891
933.891
933.891
933.891
933.891
933.891
933.895
934.086
934.237
934.37
934.493
934.61
934.723
934.831
934.937
935.04
935.14
935.239
935.335
935.429
935.522
935.613
935.702
935.79
935.876
935.961
936.044
936.124
936.202
936.279
936.355
936.431
936.507
936.584
936.66
936.737
936.813
936.888
936.964
937.038
937.112
937.186
937.258
937.33
937.402
937.473
937.543
937.613
937.682
937.75
937.818
937.884
937.95
938.014
938.076
938.137
938.191
938.012
937.897
937.808
937.736
937.673
937.617
937.567
937.521
937.479
937.441
933.891
933.891
933.891
933.891
933.891
933.891
933.891
933.891
933.891
933.895
934.086
934.237
934.37
934.493
934.609
934.722
934.83
934.936
935.038
935.139
935.237
935.333
935.427
935.52
935.611
935.7
935.788
935.874
935.958
936.041
936.121
936.199
936.276
936.352
936.429
936.505
936.582
936.659
936.735
936.811
936.887
936.962
937.037
937.111
937.184
937.257
937.329
937.4
937.471
937.542
937.611
937.68
937.749
937.816
937.883
937.948
938.012
938.075
938.136
938.19
938.011
937.895
937.807
937.734
937.671
937.616
937.566
937.52
937.478
937.44
933.891
933.891
933.891
933.891
933.891
933.891
933.891
933.891
933.891
933.895
934.086
934.237
934.369
934.492
934.609
934.721
934.829
934.934
935.037
935.137
935.235
935.331
935.425
935.518
935.608
935.698
935.785
935.871
935.956
936.038
936.118
936.197
936.273
936.35
936.427
936.503
936.58
936.657
936.734
936.81
936.886
936.961
937.035
937.109
937.182
937.255
937.327
937.399
937.47
937.54
937.61
937.679
937.747
937.815
937.881
937.947
938.011
938.074
938.135
938.189
938.01
937.895
937.807
937.734
937.671
937.615
937.565
937.519
937.477
937.44
933.891
933.891
933.891
933.891
933.891
933.891
933.891
933.891
933.891
933.895
934.086
934.237
934.369
934.492
934.608
934.72
934.828
934.933
935.035
935.135
935.233
935.329
935.423
935.515
935.606
935.695
935.782
935.868
935.952
936.035
936.115
936.193
936.271
936.348
936.424
936.502
936.579
936.656
936.732
936.809
936.884
936.959
937.034
937.108
937.181
937.254
937.326
937.398
937.469
937.539
937.609
937.678
937.746
937.814
937.881
937.946
938.011
938.074
938.136
938.19
938.011
937.896
937.808
937.735
937.672
937.616
937.566
937.521
937.479
937.441
933.891
933.891
933.891
933.891
933.891
933.891
933.891
933.891
933.891
933.895
934.086
934.236
934.369
934.491
934.607
934.719
934.827
934.931
935.033
935.133
935.231
935.327
935.421
935.513
935.603
935.692
935.78
935.866
935.95
936.032
936.113
936.191
936.269
936.346
936.424
936.501
936.578
936.656
936.732
936.809
936.885
936.96
937.034
937.109
937.182
937.255
937.327
937.399
937.47
937.541
937.611
937.68
937.749
937.817
937.884
937.95
938.015
938.079
938.141
938.196
938.017
937.902
937.814
937.741
937.678
937.623
937.573
937.528
937.486
937.449
933.891
933.891
933.891
933.891
933.891
933.891
933.891
933.891
933.891
933.895
934.086
934.236
934.368
934.491
934.607
934.718
934.825
934.93
935.032
935.132
935.229
935.325
935.419
935.511
935.602
935.691
935.779
935.865
935.949
936.031
936.112
936.191
936.269
936.347
936.426
936.504
936.582
936.659
936.736
936.813
936.889
936.965
937.04
937.115
937.189
937.262
937.335
937.408
937.48
937.551
937.622
937.692
937.761
937.83
937.898
937.965
938.031
938.096
938.159
938.214
938.035
937.92
937.833
937.76
937.698
937.643
937.594
937.549
937.508
937.471
933.891
933.891
933.891
933.891
933.891
933.891
933.891
933.891
933.891
933.895
934.086
934.237
934.369
934.491
934.607
934.718
934.826
934.93
935.032
935.132
935.23
935.326
935.42
935.513
935.604
935.694
935.782
935.869
935.954
936.037
936.118
936.199
936.278
936.357
936.437
936.516
936.595
936.674
936.752
936.83
936.908
936.985
937.061
937.137
937.212
937.287
937.362
937.435
937.509
937.582
937.654
937.726
937.797
937.867
937.937
938.006
938.074
938.141
938.206
938.264
938.084
937.97
937.883
937.811
937.749
937.695
937.647
937.603
937.562
937.526
933.891
933.891
933.891
933.891
933.891
933.891
933.891
933.891
933.891
933.895
934.086
934.237
934.37
934.492
934.608
934.72
934.828
934.934
935.037
935.138
935.237
935.334
935.429
935.524
935.616
935.708
935.798
935.886
935.973
936.058
936.142
936.225
936.307
936.389
936.471
936.553
936.635
936.716
936.797
936.878
936.958
937.038
937.118
937.197
937.275
937.353
937.431
937.508
937.585
937.661
937.737
937.812
937.887
937.961
938.035
938.108
938.18
938.251
938.32
938.381
938.201
938.087
938.001
937.93
937.87
937.817
937.77
937.727
937.688
937.653
933.891
933.891
933.891
933.891
933.891
933.891
933.891
933.891
933.891
933.895
934.088
934.24
934.374
934.499
934.617
934.731
934.842
934.95
935.056
935.16
935.263
935.364
935.463
935.562
935.659
935.755
935.849
935.943
936.034
936.125
936.214
936.302
936.39
936.478
936.566
936.654
936.741
936.829
936.916
937.003
937.09
937.176
937.262
937.347
937.433
937.517
937.602
937.686
937.769
937.852
937.935
938.018
938.1
938.181
938.262
938.342
938.421
938.499
938.576
938.644
938.462
938.347
938.262
938.191
938.132
938.079
938.033
937.991
937.953
937.918
933.891
933.891
933.891
933.891
933.891
933.891
933.891
933.891
933.891
933.895
934.094
934.25
934.39
934.521
934.646
934.767
934.886
935.002
935.117
935.23
935.342
935.453
935.562
935.671
935.778
935.885
935.99
936.095
936.198
936.3
936.4
936.5
936.6
936.7
936.8
936.9
936.999
937.099
937.198
937.298
937.396
937.495
937.593
937.69
937.788
937.885
937.981
938.077
938.173
938.268
938.363
938.457
938.551
938.644
938.736
938.828
938.919
939.009
939.096
939.175
938.98
938.859
938.767
938.691
938.626
938.568
938.517
938.469
938.426
938.387
933.891
933.891
933.891
933.891
933.891
933.891
933.891
933.891
933.891
933.896
934.112
934.288
934.446
934.595
934.738
934.879
935.017
935.153
935.288
935.422
935.554
935.686
935.817
935.946
936.075
936.203
936.329
936.454
936.578
936.7
936.822
936.942
937.061
937.181
937.3
937.419
937.537
937.655
937.773
937.89
938.006
938.122
938.237
938.351
938.465
938.577
938.689
938.8
938.911
939.02
939.129
939.238
939.345
939.451
939.557
939.661
939.765
939.866
939.965
940.05
939.808
939.65
939.526
939.421
939.329
939.246
939.171
939.101
939.036
938.979
933.891
933.891
933.891
933.891
933.891
933.891
933.891
933.891
933.892
933.898
934.185
934.407
934.604
934.789
934.966
935.139
935.309
935.475
935.64
935.803
935.964
936.123
936.28
936.436
936.59
936.743
936.893
937.041
937.186
937.329
937.47
937.61
937.748
937.884
938.02
938.155
938.289
938.422
938.553
938.683
938.812
938.939
939.065
939.19
939.313
939.435
939.556
939.675
939.794
939.911
940.027
940.142
940.255
940.368
940.479
940.589
940.697
940.802
940.904
940.981
940.58
940.324
940.128
939.965
939.824
939.701
939.59
939.491
939.4
939.32
933.891
933.891
933.891
933.891
933.891
933.891
933.891
933.891
933.891
933.896
934.115
934.32
934.511
934.694
934.87
935.042
935.211
935.376
935.54
935.701
935.861
936.019
936.176
936.331
936.484
936.637
936.787
936.936
937.084
937.229
937.373
937.516
937.656
937.794
937.931
938.065
938.198
938.329
938.458
938.587
938.716
938.844
938.971
939.098
939.223
939.347
939.47
939.591
939.711
939.829
939.946
940.06
940.173
940.285
940.394
940.501
940.606
940.708
940.809
940.887
940.559
940.317
940.124
939.963
939.824
939.701
939.591
939.491
939.4
939.32
933.891
933.891
933.891
933.891
933.891
933.891
933.891
933.891
933.891
933.894
934.051
934.205
934.354
934.497
934.638
934.775
934.91
935.044
935.177
935.308
935.438
935.568
935.696
935.824
935.951
936.077
936.203
936.328
936.452
936.576
936.698
936.82
936.941
937.061
937.18
937.298
937.415
937.531
937.647
937.763
937.878
937.994
938.109
938.225
938.339
938.453
938.566
938.678
938.79
938.9
939.009
939.117
939.224
939.33
939.434
939.536
939.637
939.736
939.833
939.917
939.75
939.613
939.499
939.4
939.312
939.232
939.159
939.091
939.028
938.971
933.891
933.891
933.891
933.891
933.891
933.891
933.891
933.891
933.891
933.894
934.035
934.172
934.303
934.429
934.55
934.669
934.785
934.898
935.011
935.121
935.231
935.339
935.447
935.553
935.659
935.764
935.868
935.972
936.075
936.178
936.28
936.381
936.481
936.581
936.68
936.779
936.877
936.974
937.071
937.168
937.266
937.364
937.462
937.56
937.657
937.755
937.852
937.948
938.044
938.139
938.234
938.327
938.42
938.512
938.603
938.692
938.78
938.868
938.952
939.029
938.905
938.805
938.722
938.653
938.592
938.537
938.488
938.442
938.401