/*--------------------------------*- C++ -*----------------------------------*\
  =========                 |
  \\      /  F ield         | OpenFOAM: The Open Source CFD Toolbox
   \\    /   O peration     | Website:  https://openfoam.org
    \\  /    A nd           | Version:  12
     \\/     M anipulation  |
\*---------------------------------------------------------------------------*/
FoamFile
{
    format      ascii;
    class       volScalarField;
    location    "850/porous";
    object      T;
}
// * * * * * * * * * * * * * * * * * * * * * * * * * * * * * * * * * * * * * //

dimensions      [0 0 0 1 0 0 0];

internalField   nonuniform List<scalar> 
140000
(
400
400
400
400
400
400
400
400
400
399.992
399.682
399.44
399.226
399.026
398.833
398.647
398.464
398.284
398.108
397.933
397.76
397.589
397.419
397.251
397.085
396.92
396.756
396.594
396.434
396.275
396.119
395.964
395.811
395.66
395.511
395.364
395.219
395.075
394.933
394.791
394.65
394.509
394.368
394.228
394.09
393.953
393.817
393.683
393.551
393.42
393.291
393.163
393.038
392.914
392.794
392.675
392.558
392.445
392.333
392.252
392.697
392.98
393.198
393.379
393.534
393.67
393.793
393.903
394.004
394.091
400
400
400
400
400
400
400
400
400
399.995
399.757
399.566
399.395
399.233
399.078
398.926
398.777
398.631
398.486
398.343
398.2
398.059
397.919
397.78
397.641
397.503
397.366
397.23
397.094
396.96
396.826
396.693
396.561
396.43
396.3
396.171
396.043
395.916
395.789
395.662
395.535
395.407
395.28
395.154
395.027
394.902
394.777
394.654
394.531
394.41
394.289
394.17
394.052
393.936
393.821
393.708
393.597
393.489
393.381
393.294
393.559
393.732
393.868
393.983
394.085
394.176
394.259
394.336
394.407
394.471
400
400
400
400
400
400
400
400
400
399.996
399.777
399.605
399.452
399.311
399.175
399.044
398.917
398.792
398.669
398.547
398.428
398.309
398.192
398.075
397.96
397.845
397.731
397.618
397.505
397.393
397.282
397.171
397.061
396.952
396.843
396.736
396.629
396.522
396.416
396.309
396.202
396.094
395.986
395.878
395.77
395.663
395.556
395.45
395.345
395.24
395.136
395.033
394.931
394.83
394.73
394.631
394.535
394.439
394.348
394.266
394.477
394.609
394.71
394.792
394.863
394.926
394.983
395.035
395.082
395.125
400
400
400
400
400
400
400
400
400
399.996
399.782
399.614
399.468
399.332
399.204
399.081
398.961
398.845
398.731
398.62
398.51
398.402
398.296
398.19
398.086
397.983
397.881
397.78
397.679
397.58
397.481
397.384
397.287
397.191
397.096
397.002
396.908
396.815
396.722
396.629
396.535
396.441
396.346
396.252
396.158
396.065
395.972
395.879
395.787
395.696
395.606
395.516
395.428
395.34
395.253
395.168
395.084
395.003
394.923
394.854
395.051
395.175
395.268
395.344
395.409
395.466
395.516
395.562
395.603
395.641
400
400
400
400
400
400
400
400
400
399.996
399.783
399.617
399.471
399.337
399.211
399.09
398.974
398.861
398.75
398.642
398.536
398.432
398.33
398.229
398.13
398.032
397.935
397.839
397.744
397.65
397.557
397.465
397.375
397.285
397.196
397.109
397.022
396.936
396.85
396.764
396.677
396.59
396.502
396.415
396.329
396.243
396.158
396.073
395.989
395.905
395.823
395.741
395.661
395.581
395.503
395.426
395.351
395.278
395.207
395.146
395.339
395.462
395.556
395.632
395.698
395.755
395.806
395.853
395.895
395.933
400
400
400
400
400
400
400
400
400
399.996
399.782
399.616
399.471
399.337
399.211
399.091
398.975
398.863
398.753
398.646
398.542
398.439
398.338
398.239
398.141
398.045
397.95
397.856
397.763
397.672
397.581
397.492
397.404
397.317
397.232
397.147
397.064
396.981
396.898
396.815
396.731
396.647
396.563
396.48
396.397
396.314
396.233
396.152
396.072
395.992
395.914
395.836
395.76
395.685
395.611
395.539
395.468
395.399
395.333
395.277
395.469
395.592
395.686
395.764
395.831
395.889
395.942
395.99
396.033
396.073
400
400
400
400
400
400
400
400
400
399.996
399.782
399.615
399.47
399.336
399.21
399.09
398.974
398.861
398.752
398.645
398.541
398.439
398.338
398.239
398.142
398.046
397.952
397.859
397.767
397.676
397.587
397.499
397.412
397.326
397.242
397.159
397.078
396.996
396.915
396.833
396.75
396.668
396.585
396.503
396.422
396.341
396.261
396.181
396.103
396.025
395.949
395.873
395.799
395.726
395.654
395.584
395.516
395.45
395.386
395.332
395.524
395.648
395.742
395.82
395.888
395.947
396.001
396.049
396.094
396.134
400
400
400
400
400
400
400
400
400
399.996
399.781
399.615
399.469
399.335
399.208
399.088
398.972
398.859
398.75
398.643
398.538
398.436
398.335
398.237
398.139
398.044
397.95
397.857
397.765
397.675
397.586
397.498
397.412
397.327
397.243
397.161
397.08
397
396.919
396.837
396.755
396.673
396.591
396.51
396.429
396.349
396.269
396.191
396.113
396.036
395.96
395.885
395.812
395.74
395.669
395.6
395.533
395.468
395.406
395.354
395.545
395.669
395.764
395.842
395.91
395.97
396.024
396.073
396.118
396.159
400
400
400
400
400
400
400
400
400
399.996
399.781
399.614
399.468
399.334
399.207
399.086
398.97
398.857
398.747
398.64
398.536
398.433
398.333
398.234
398.136
398.041
397.947
397.854
397.762
397.672
397.583
397.496
397.41
397.325
397.242
397.161
397.08
397
396.919
396.837
396.755
396.673
396.591
396.51
396.429
396.35
396.27
396.192
396.115
396.038
395.963
395.888
395.815
395.743
395.673
395.605
395.538
395.474
395.413
395.361
395.552
395.676
395.771
395.85
395.918
395.978
396.032
396.081
396.127
396.168
400
400
400
400
400
400
400
400
400
399.996
399.781
399.613
399.467
399.333
399.206
399.085
398.968
398.855
398.745
398.638
398.533
398.43
398.33
398.231
398.133
398.038
397.943
397.85
397.759
397.669
397.58
397.493
397.407
397.323
397.24
397.159
397.079
396.999
396.918
396.836
396.754
396.672
396.59
396.509
396.428
396.348
396.269
396.191
396.114
396.037
395.962
395.887
395.814
395.743
395.673
395.604
395.538
395.474
395.413
395.363
395.554
395.678
395.773
395.852
395.92
395.98
396.034
396.083
396.129
396.17
400
400
400
400
400
400
400
400
400
399.996
399.78
399.613
399.467
399.332
399.205
399.084
398.967
398.854
398.744
398.636
398.531
398.428
398.328
398.229
398.131
398.035
397.941
397.848
397.756
397.666
397.578
397.491
397.405
397.322
397.239
397.158
397.078
396.998
396.917
396.835
396.753
396.67
396.588
396.507
396.427
396.347
396.268
396.189
396.112
396.035
395.96
395.886
395.813
395.741
395.671
395.603
395.537
395.473
395.413
395.362
395.553
395.677
395.772
395.851
395.919
395.979
396.033
396.083
396.128
396.169
400
400
400
400
400
400
400
400
400
399.996
399.78
399.613
399.467
399.332
399.205
399.083
398.966
398.853
398.742
398.635
398.53
398.427
398.326
398.227
398.129
398.034
397.939
397.846
397.755
397.665
397.576
397.489
397.404
397.321
397.239
397.158
397.078
396.998
396.916
396.834
396.752
396.669
396.587
396.506
396.425
396.345
396.266
396.188
396.11
396.034
395.958
395.884
395.811
395.739
395.669
395.601
395.535
395.472
395.411
395.36
395.552
395.676
395.771
395.849
395.917
395.978
396.032
396.081
396.127
396.168
400
400
400
400
400
400
400
400
400
399.996
399.78
399.613
399.467
399.332
399.205
399.083
398.966
398.852
398.742
398.634
398.529
398.426
398.325
398.226
398.128
398.033
397.938
397.845
397.754
397.664
397.576
397.489
397.404
397.321
397.24
397.159
397.079
396.998
396.917
396.834
396.752
396.669
396.587
396.506
396.425
396.345
396.266
396.187
396.11
396.033
395.957
395.883
395.809
395.738
395.668
395.599
395.534
395.47
395.41
395.359
395.551
395.674
395.769
395.848
395.916
395.976
396.03
396.08
396.125
396.166
400
400
400
400
400
400
400
400
400
399.996
399.78
399.613
399.467
399.332
399.205
399.083
398.966
398.852
398.742
398.634
398.529
398.426
398.325
398.225
398.128
398.032
397.938
397.845
397.754
397.664
397.576
397.49
397.406
397.323
397.241
397.16
397.08
396.999
396.917
396.835
396.752
396.669
396.587
396.506
396.425
396.345
396.265
396.187
396.109
396.032
395.957
395.882
395.809
395.737
395.666
395.598
395.532
395.469
395.409
395.358
395.549
395.673
395.768
395.846
395.914
395.975
396.029
396.078
396.124
396.165
400
400
400
400
400
400
400
400
400
399.996
399.781
399.614
399.467
399.333
399.205
399.084
398.966
398.852
398.742
398.634
398.529
398.426
398.325
398.226
398.128
398.032
397.938
397.846
397.755
397.665
397.578
397.492
397.408
397.325
397.243
397.162
397.081
397
396.918
396.836
396.753
396.67
396.588
396.506
396.425
396.345
396.266
396.187
396.109
396.032
395.956
395.882
395.808
395.736
395.666
395.597
395.531
395.468
395.407
395.357
395.548
395.672
395.766
395.845
395.913
395.973
396.027
396.077
396.122
396.163
400
400
400
400
400
400
400
400
400
399.996
399.781
399.614
399.468
399.333
399.206
399.084
398.967
398.853
398.742
398.635
398.529
398.426
398.325
398.226
398.129
398.033
397.939
397.847
397.756
397.667
397.58
397.494
397.411
397.328
397.246
397.164
397.083
397.001
396.919
396.837
396.754
396.671
396.589
396.507
396.426
396.346
396.266
396.188
396.11
396.032
395.956
395.881
395.808
395.735
395.665
395.596
395.53
395.467
395.406
395.356
395.547
395.67
395.765
395.844
395.912
395.972
396.026
396.075
396.12
396.161
400
400
400
400
400
400
400
400
400
399.996
399.781
399.614
399.469
399.334
399.207
399.085
398.968
398.854
398.743
398.635
398.53
398.427
398.326
398.227
398.13
398.035
397.941
397.849
397.758
397.67
397.583
397.498
397.414
397.331
397.248
397.166
397.084
397.002
396.92
396.838
396.755
396.672
396.59
396.508
396.427
396.347
396.267
396.188
396.11
396.033
395.957
395.881
395.807
395.735
395.664
395.596
395.529
395.466
395.405
395.355
395.546
395.669
395.764
395.842
395.91
395.97
396.024
396.073
396.118
396.159
400
400
400
400
400
400
400
400
400
399.996
399.782
399.616
399.47
399.335
399.208
399.086
398.969
398.855
398.744
398.636
398.531
398.428
398.327
398.228
398.131
398.036
397.943
397.851
397.761
397.673
397.586
397.501
397.417
397.333
397.25
397.167
397.085
397.003
396.921
396.839
396.756
396.674
396.591
396.51
396.429
396.348
396.268
396.189
396.111
396.033
395.957
395.882
395.808
395.735
395.664
395.595
395.529
395.465
395.405
395.354
395.545
395.668
395.763
395.841
395.909
395.969
396.023
396.072
396.117
396.158
400
400
400
400
400
400
400
400
400
399.996
399.782
399.616
399.471
399.337
399.209
399.087
398.97
398.856
398.745
398.637
398.532
398.429
398.328
398.229
398.132
398.038
397.944
397.853
397.764
397.676
397.59
397.505
397.42
397.336
397.252
397.168
397.086
397.004
396.922
396.84
396.758
396.675
396.593
396.511
396.43
396.35
396.27
396.19
396.112
396.034
395.958
395.882
395.808
395.735
395.664
395.595
395.528
395.465
395.404
395.354
395.544
395.668
395.762
395.84
395.908
395.968
396.022
396.071
396.116
396.156
400
400
400
400
400
400
400
400
400
399.996
399.783
399.617
399.472
399.337
399.21
399.089
398.971
398.857
398.746
398.638
398.533
398.43
398.329
398.23
398.134
398.039
397.946
397.855
397.766
397.679
397.593
397.508
397.422
397.337
397.253
397.169
397.086
397.004
396.922
396.841
396.759
396.677
396.595
396.513
396.432
396.351
396.271
396.192
396.113
396.036
395.959
395.883
395.809
395.736
395.665
395.595
395.529
395.465
395.404
395.354
395.544
395.667
395.762
395.84
395.907
395.967
396.021
396.07
396.115
396.155
400
400
400
400
400
400
400
400
400
399.996
399.784
399.619
399.474
399.339
399.212
399.09
398.972
398.858
398.747
398.639
398.534
398.43
398.33
398.231
398.134
398.04
397.948
397.857
397.768
397.681
397.595
397.51
397.424
397.338
397.254
397.17
397.086
397.004
396.923
396.842
396.761
396.679
396.597
396.516
396.434
396.354
396.274
396.194
396.115
396.038
395.961
395.885
395.81
395.737
395.666
395.596
395.529
395.465
395.404
395.354
395.544
395.667
395.762
395.84
395.907
395.967
396.021
396.069
396.114
396.155
400
400
400
400
400
400
400
400
400
399.996
399.784
399.619
399.474
399.34
399.213
399.091
398.973
398.859
398.748
398.64
398.534
398.431
398.33
398.231
398.135
398.041
397.948
397.858
397.77
397.683
397.597
397.511
397.425
397.339
397.254
397.17
397.086
397.004
396.923
396.842
396.762
396.681
396.599
396.518
396.437
396.356
396.276
396.196
396.118
396.04
395.963
395.887
395.812
395.739
395.667
395.598
395.53
395.466
395.405
395.355
395.545
395.668
395.762
395.84
395.908
395.967
396.021
396.07
396.114
396.155
400
400
400
400
400
400
400
400
400
399.996
399.786
399.621
399.476
399.341
399.214
399.092
398.974
398.86
398.749
398.641
398.535
398.432
398.331
398.232
398.135
398.041
397.949
397.858
397.77
397.683
397.597
397.511
397.425
397.339
397.253
397.169
397.086
397.004
396.923
396.843
396.762
396.682
396.601
396.52
396.439
396.358
396.278
396.199
396.12
396.042
395.965
395.889
395.814
395.741
395.669
395.599
395.532
395.467
395.405
395.354
395.545
395.668
395.762
395.84
395.908
395.967
396.021
396.07
396.114
396.155
400
400
400
400
400
400
400
400
400
399.996
399.786
399.622
399.477
399.343
399.216
399.093
398.976
398.861
398.75
398.641
398.535
398.432
398.331
398.232
398.135
398.041
397.948
397.858
397.77
397.683
397.597
397.51
397.424
397.338
397.253
397.168
397.085
397.003
396.922
396.842
396.763
396.683
396.602
396.521
396.44
396.36
396.28
396.201
396.122
396.044
395.967
395.891
395.816
395.742
395.67
395.6
395.533
395.468
395.406
395.354
395.545
395.668
395.762
395.84
395.908
395.967
396.021
396.07
396.114
396.155
400
400
400
400
400
400
400
400
400
399.996
399.786
399.622
399.477
399.343
399.216
399.094
398.976
398.862
398.75
398.642
398.536
398.432
398.331
398.232
398.135
398.04
397.948
397.857
397.769
397.682
397.596
397.509
397.423
397.337
397.251
397.167
397.084
397.002
396.921
396.842
396.763
396.683
396.603
396.522
396.442
396.361
396.281
396.202
396.123
396.045
395.968
395.892
395.817
395.743
395.671
395.601
395.533
395.468
395.406
395.354
395.545
395.668
395.762
395.84
395.908
395.967
396.021
396.07
396.114
396.155
400
400
400
400
400
400
400
400
400
399.996
399.788
399.624
399.48
399.346
399.218
399.096
398.978
398.863
398.752
398.643
398.537
398.433
398.331
398.232
398.135
398.04
397.947
397.856
397.768
397.681
397.594
397.508
397.421
397.335
397.25
397.166
397.083
397.001
396.92
396.841
396.762
396.683
396.603
396.523
396.442
396.362
396.282
396.203
396.124
396.046
395.969
395.893
395.818
395.744
395.672
395.602
395.533
395.468
395.405
395.351
395.543
395.666
395.761
395.839
395.907
395.966
396.02
396.069
396.114
396.154
400
400
400
400
400
400
400
400
400
399.996
399.789
399.625
399.48
399.346
399.219
399.097
398.978
398.864
398.752
398.643
398.537
398.433
398.331
398.232
398.135
398.039
397.946
397.855
397.766
397.679
397.593
397.506
397.42
397.334
397.249
397.164
397.081
397
396.919
396.84
396.761
396.682
396.603
396.522
396.442
396.362
396.282
396.203
396.124
396.046
395.969
395.893
395.818
395.744
395.672
395.602
395.533
395.467
395.404
395.35
395.542
395.666
395.76
395.838
395.906
395.966
396.019
396.068
396.113
396.153
400
400
400
400
400
400
400
400
400
399.996
399.789
399.626
399.481
399.347
399.22
399.098
398.979
398.865
398.753
398.644
398.538
398.434
398.332
398.232
398.135
398.039
397.945
397.854
397.765
397.677
397.591
397.504
397.418
397.332
397.247
397.163
397.08
396.999
396.919
396.84
396.761
396.681
396.602
396.522
396.442
396.362
396.282
396.203
396.124
396.046
395.969
395.893
395.818
395.744
395.671
395.601
395.532
395.466
395.402
395.348
395.54
395.664
395.759
395.837
395.905
395.964
396.018
396.067
396.112
396.152
400
400
400
400
400
400
400
400
400
399.996
399.79
399.627
399.482
399.348
399.221
399.099
398.981
398.866
398.754
398.645
398.539
398.434
398.332
398.233
398.135
398.039
397.945
397.853
397.763
397.676
397.589
397.503
397.417
397.331
397.247
397.163
397.08
396.998
396.918
396.839
396.76
396.68
396.6
396.52
396.44
396.361
396.281
396.202
396.123
396.045
395.968
395.892
395.817
395.743
395.671
395.6
395.531
395.465
395.4
395.345
395.537
395.662
395.756
395.835
395.903
395.963
396.017
396.066
396.11
396.151
400
400
400
400
400
400
400
400
400
399.996
399.79
399.627
399.483
399.349
399.222
399.1
398.981
398.867
398.755
398.646
398.539
398.435
398.333
398.233
398.135
398.039
397.944
397.852
397.762
397.674
397.587
397.501
397.416
397.33
397.246
397.162
397.08
396.998
396.918
396.838
396.759
396.679
396.599
396.519
396.439
396.359
396.279
396.2
396.122
396.044
395.967
395.891
395.816
395.742
395.669
395.598
395.529
395.463
395.399
395.343
395.536
395.66
395.755
395.834
395.901
395.961
396.015
396.064
396.109
396.15
400
400
400
400
400
400
400
400
400
399.996
399.79
399.627
399.483
399.35
399.222
399.1
398.982
398.867
398.756
398.647
398.54
398.436
398.333
398.233
398.135
398.039
397.944
397.852
397.761
397.673
397.586
397.5
397.415
397.33
397.246
397.162
397.08
396.999
396.918
396.838
396.758
396.677
396.597
396.517
396.437
396.357
396.278
396.199
396.12
396.043
395.966
395.89
395.815
395.741
395.668
395.597
395.528
395.461
395.396
395.339
395.533
395.658
395.753
395.832
395.9
395.96
396.014
396.063
396.108
396.149
400
400
400
400
400
400
400
400
400
399.996
399.79
399.628
399.484
399.35
399.223
399.101
398.983
398.868
398.756
398.647
398.541
398.436
398.334
398.234
398.136
398.039
397.944
397.851
397.761
397.672
397.585
397.499
397.414
397.33
397.246
397.163
397.081
396.999
396.919
396.838
396.757
396.676
396.596
396.515
396.435
396.355
396.276
396.197
396.119
396.042
395.965
395.889
395.814
395.74
395.667
395.596
395.527
395.46
395.394
395.337
395.531
395.656
395.752
395.831
395.899
395.959
396.013
396.063
396.108
396.149
400
400
400
400
400
400
400
400
400
399.996
399.79
399.628
399.484
399.35
399.224
399.102
398.984
398.869
398.757
398.648
398.542
398.437
398.335
398.235
398.136
398.039
397.945
397.851
397.76
397.671
397.584
397.498
397.414
397.33
397.247
397.164
397.082
397.001
396.92
396.838
396.757
396.676
396.595
396.514
396.434
396.354
396.275
396.196
396.118
396.041
395.964
395.888
395.813
395.739
395.666
395.595
395.526
395.458
395.393
395.336
395.53
395.655
395.751
395.83
395.899
395.959
396.013
396.063
396.108
396.149
400
400
400
400
400
400
400
400
400
399.996
399.79
399.628
399.484
399.351
399.224
399.102
398.984
398.87
398.758
398.649
398.543
398.438
398.336
398.236
398.137
398.04
397.945
397.852
397.76
397.671
397.584
397.498
397.414
397.331
397.248
397.166
397.084
397.002
396.921
396.839
396.757
396.675
396.594
396.513
396.433
396.353
396.274
396.196
396.118
396.04
395.964
395.888
395.813
395.739
395.666
395.595
395.525
395.457
395.391
395.333
395.529
395.654
395.75
395.83
395.898
395.959
396.013
396.063
396.108
396.149
400
400
400
400
400
400
400
400
400
399.996
399.791
399.628
399.485
399.351
399.225
399.103
398.985
398.871
398.759
398.65
398.544
398.439
398.337
398.237
398.138
398.041
397.946
397.853
397.761
397.671
397.584
397.498
397.415
397.332
397.249
397.167
397.085
397.003
396.921
396.839
396.757
396.675
396.593
396.513
396.432
396.353
396.274
396.195
396.117
396.04
395.963
395.888
395.813
395.739
395.666
395.594
395.525
395.457
395.391
395.333
395.528
395.654
395.75
395.83
395.898
395.959
396.014
396.063
396.109
396.15
400
400
400
400
400
400
400
400
400
399.996
399.791
399.628
399.485
399.352
399.226
399.104
398.986
398.872
398.76
398.652
398.545
398.441
398.339
398.238
398.14
398.043
397.947
397.854
397.762
397.672
397.585
397.499
397.416
397.333
397.251
397.169
397.087
397.005
396.922
396.839
396.757
396.675
396.593
396.512
396.432
396.353
396.274
396.195
396.117
396.04
395.963
395.888
395.813
395.739
395.666
395.595
395.525
395.456
395.39
395.332
395.528
395.654
395.75
395.83
395.898
395.959
396.014
396.064
396.109
396.151
400
400
400
400
400
400
400
400
400
399.996
399.791
399.628
399.485
399.352
399.226
399.105
398.987
398.873
398.762
398.653
398.547
398.442
398.34
398.24
398.141
398.044
397.949
397.855
397.764
397.674
397.586
397.501
397.418
397.335
397.253
397.171
397.088
397.006
396.923
396.84
396.757
396.675
396.594
396.513
396.432
396.353
396.274
396.195
396.118
396.04
395.964
395.888
395.813
395.739
395.666
395.595
395.525
395.456
395.39
395.331
395.527
395.654
395.75
395.83
395.899
395.96
396.015
396.064
396.11
396.152
400
400
400
400
400
400
400
400
400
399.996
399.791
399.629
399.486
399.353
399.227
399.106
398.988
398.874
398.763
398.655
398.548
398.444
398.342
398.242
398.143
398.046
397.951
397.857
397.766
397.676
397.588
397.503
397.42
397.337
397.255
397.173
397.09
397.007
396.923
396.84
396.758
396.676
396.594
396.513
396.433
396.353
396.274
396.196
396.118
396.041
395.965
395.889
395.814
395.74
395.667
395.596
395.525
395.457
395.39
395.331
395.528
395.654
395.751
395.831
395.9
395.961
396.016
396.065
396.111
396.153
400
400
400
400
400
400
400
400
400
399.996
399.791
399.629
399.486
399.354
399.228
399.107
398.99
398.876
398.765
398.656
398.55
398.446
398.344
398.244
398.145
398.048
397.953
397.86
397.768
397.678
397.591
397.506
397.422
397.34
397.257
397.174
397.091
397.008
396.924
396.841
396.759
396.677
396.595
396.514
396.434
396.355
396.276
396.197
396.12
396.042
395.966
395.89
395.815
395.741
395.668
395.597
395.526
395.458
395.391
395.332
395.528
395.655
395.752
395.832
395.901
395.962
396.017
396.067
396.113
396.154
400
400
400
400
400
400
400
400
400
399.996
399.791
399.629
399.487
399.354
399.229
399.108
398.991
398.877
398.766
398.658
398.552
398.448
398.346
398.246
398.148
398.051
397.956
397.862
397.771
397.681
397.594
397.509
397.425
397.343
397.26
397.176
397.093
397.009
396.926
396.843
396.76
396.678
396.597
396.516
396.436
396.356
396.277
396.199
396.121
396.044
395.968
395.892
395.817
395.743
395.67
395.598
395.528
395.459
395.392
395.333
395.53
395.656
395.753
395.833
395.902
395.963
396.018
396.068
396.114
396.155
400
400
400
400
400
400
400
400
400
399.996
399.791
399.629
399.487
399.355
399.229
399.109
398.992
398.879
398.768
398.66
398.554
398.45
398.349
398.249
398.15
398.054
397.959
397.865
397.774
397.684
397.597
397.512
397.429
397.345
397.262
397.178
397.095
397.011
396.927
396.844
396.762
396.68
396.598
396.518
396.437
396.358
396.279
396.201
396.123
396.046
395.97
395.894
395.819
395.745
395.672
395.6
395.529
395.46
395.393
395.334
395.531
395.657
395.754
395.834
395.903
395.964
396.019
396.069
396.115
396.156
400
400
400
400
400
400
400
400
400
399.996
399.791
399.629
399.487
399.355
399.23
399.11
398.994
398.88
398.77
398.662
398.556
398.453
398.351
398.251
398.153
398.057
397.962
397.869
397.777
397.688
397.601
397.516
397.432
397.348
397.264
397.18
397.096
397.012
396.929
396.846
396.763
396.681
396.6
396.519
396.439
396.359
396.28
396.202
396.124
396.047
395.971
395.895
395.82
395.746
395.672
395.6
395.529
395.46
395.392
395.332
395.529
395.656
395.753
395.833
395.902
395.963
396.017
396.067
396.113
396.154
400
400
400
400
400
400
400
400
400
399.996
399.791
399.63
399.487
399.356
399.231
399.111
398.995
398.882
398.772
398.664
398.559
398.455
398.354
398.254
398.156
398.059
397.964
397.871
397.78
397.691
397.603
397.518
397.434
397.349
397.265
397.181
397.097
397.013
396.929
396.846
396.763
396.681
396.599
396.518
396.438
396.358
396.279
396.2
396.122
396.045
395.968
395.892
395.817
395.742
395.669
395.596
395.524
395.454
395.386
395.326
395.523
395.65
395.746
395.826
395.895
395.955
396.01
396.059
396.105
396.146
400
400
400
400
400
400
400
400
400
399.996
399.792
399.63
399.488
399.356
399.232
399.112
398.996
398.883
398.773
398.666
398.56
398.457
398.355
398.255
398.157
398.061
397.966
397.873
397.781
397.692
397.604
397.518
397.433
397.348
397.263
397.178
397.093
397.009
396.924
396.841
396.758
396.675
396.593
396.511
396.43
396.35
396.27
396.191
396.112
396.034
395.957
395.88
395.804
395.728
395.653
395.58
395.507
395.436
395.367
395.306
395.503
395.629
395.725
395.804
395.873
395.933
395.987
396.036
396.081
396.122
400
400
400
400
400
400
400
400
400
399.996
399.791
399.63
399.488
399.356
399.232
399.112
398.996
398.883
398.773
398.665
398.559
398.456
398.354
398.253
398.155
398.058
397.962
397.868
397.776
397.686
397.597
397.51
397.423
397.337
397.251
397.165
397.079
396.993
396.907
396.822
396.738
396.654
396.57
396.487
396.405
396.323
396.242
396.161
396.08
396.001
395.921
395.843
395.765
395.687
395.61
395.535
395.46
395.387
395.315
395.252
395.449
395.575
395.67
395.749
395.817
395.876
395.929
395.978
396.022
396.061
400
400
400
400
400
400
400
400
400
399.996
399.791
399.629
399.487
399.355
399.23
399.11
398.993
398.879
398.768
398.659
398.552
398.447
398.344
398.242
398.142
398.043
397.945
397.849
397.755
397.662
397.571
397.481
397.392
397.303
397.214
397.124
397.035
396.946
396.858
396.77
396.682
396.595
396.508
396.422
396.336
396.25
396.166
396.081
395.997
395.913
395.83
395.748
395.665
395.584
395.503
395.423
395.344
395.266
395.19
395.122
395.32
395.446
395.54
395.618
395.684
395.742
395.794
395.841
395.884
395.922
400
400
400
400
400
400
400
400
400
399.996
399.79
399.626
399.482
399.348
399.221
399.098
398.978
398.862
398.747
398.635
398.524
398.415
398.307
398.201
398.096
397.992
397.889
397.788
397.688
397.59
397.493
397.397
397.302
397.206
397.11
397.015
396.919
396.824
396.728
396.633
396.539
396.445
396.351
396.257
396.164
396.071
395.979
395.886
395.795
395.703
395.612
395.522
395.432
395.342
395.253
395.165
395.078
394.992
394.907
394.832
395.033
395.159
395.254
395.331
395.397
395.454
395.505
395.552
395.593
395.631
400
400
400
400
400
400
400
400
400
399.996
399.783
399.615
399.464
399.324
399.189
399.059
398.931
398.805
398.682
398.559
398.439
398.319
398.2
398.083
397.966
397.851
397.736
397.623
397.511
397.4
397.291
397.182
397.073
396.964
396.855
396.746
396.637
396.529
396.42
396.312
396.204
396.096
395.988
395.881
395.774
395.668
395.562
395.457
395.351
395.247
395.142
395.039
394.935
394.832
394.73
394.629
394.529
394.429
394.332
394.246
394.461
394.595
394.697
394.78
394.852
394.916
394.973
395.025
395.073
395.116
400
400
400
400
400
400
400
400
400
399.995
399.763
399.574
399.405
399.245
399.09
398.938
398.79
398.642
398.496
398.352
398.209
398.066
397.925
397.784
397.644
397.506
397.368
397.232
397.097
396.964
396.832
396.701
396.57
396.439
396.309
396.179
396.049
395.92
395.791
395.662
395.534
395.407
395.281
395.155
395.03
394.906
394.782
394.66
394.538
394.416
394.296
394.176
394.057
393.939
393.822
393.706
393.591
393.479
393.368
393.274
393.543
393.718
393.856
393.972
394.074
394.166
394.25
394.327
394.399
394.463
400
400
400
400
400
400
400
400
400
399.992
399.686
399.447
399.235
399.036
398.844
398.658
398.474
398.294
398.116
397.939
397.765
397.592
397.421
397.252
397.084
396.918
396.754
396.592
396.433
396.277
396.122
395.97
395.819
395.668
395.519
395.371
395.224
395.078
394.933
394.789
394.647
394.506
394.367
394.229
394.092
393.957
393.823
393.691
393.559
393.429
393.299
393.172
393.045
392.919
392.795
392.673
392.552
392.434
392.32
392.234
392.683
392.968
393.187
393.369
393.525
393.662
393.785
393.896
393.997
394.084
400
400
400
400
400
400
400
400
400
399.995
399.76
399.54
399.334
399.138
398.948
398.763
398.58
398.401
398.225
398.049
397.876
397.705
397.535
397.366
397.199
397.033
396.869
396.706
396.545
396.386
396.229
396.073
395.919
395.767
395.617
395.47
395.324
395.18
395.037
394.895
394.753
394.611
394.471
394.331
394.192
394.054
393.918
393.784
393.651
393.52
393.39
393.262
393.136
393.012
392.891
392.771
392.654
392.539
392.427
392.339
392.706
392.976
393.191
393.37
393.525
393.662
393.784
393.895
393.996
394.085
400
400
400
400
400
400
400
400
400
399.997
399.829
399.663
399.504
399.349
399.198
399.05
398.904
398.76
398.617
398.475
398.334
398.194
398.055
397.917
397.779
397.642
397.505
397.369
397.234
397.1
396.966
396.833
396.701
396.57
396.44
396.311
396.183
396.056
395.929
395.802
395.675
395.548
395.421
395.294
395.168
395.043
394.918
394.794
394.671
394.55
394.429
394.309
394.191
394.074
393.958
393.845
393.733
393.623
393.515
393.422
393.608
393.759
393.886
393.996
394.094
394.182
394.263
394.339
394.408
394.471
400
400
400
400
400
400
400
400
400
399.998
399.846
399.699
399.558
399.423
399.292
399.165
399.04
398.917
398.796
398.677
398.559
398.441
398.325
398.21
398.095
397.981
397.868
397.756
397.644
397.533
397.422
397.312
397.203
397.094
396.986
396.878
396.772
396.665
396.559
396.453
396.346
396.239
396.132
396.025
395.917
395.811
395.704
395.598
395.493
395.389
395.285
395.181
395.079
394.978
394.878
394.779
394.682
394.585
394.492
394.407
394.543
394.655
394.746
394.823
394.89
394.95
395.004
395.054
395.1
395.141
400
400
400
400
400
400
400
400
400
399.998
399.85
399.707
399.572
399.443
399.319
399.199
399.083
398.969
398.857
398.747
398.639
398.532
398.426
398.322
398.218
398.116
398.015
397.914
397.815
397.716
397.618
397.52
397.424
397.328
397.234
397.14
397.046
396.954
396.861
396.768
396.675
396.582
396.488
396.394
396.301
396.208
396.115
396.023
395.932
395.841
395.75
395.661
395.572
395.484
395.398
395.312
395.228
395.146
395.065
394.992
395.117
395.22
395.304
395.376
395.437
395.491
395.54
395.584
395.624
395.661
400
400
400
400
400
400
400
400
400
399.998
399.851
399.709
399.575
399.448
399.326
399.208
399.094
398.983
398.875
398.768
398.664
398.561
398.459
398.359
398.261
398.163
398.067
397.971
397.877
397.784
397.691
397.6
397.509
397.42
397.331
397.244
397.157
397.072
396.986
396.9
396.814
396.727
396.641
396.554
396.468
396.383
396.298
396.213
396.129
396.046
395.963
395.882
395.801
395.721
395.643
395.566
395.49
395.416
395.344
395.279
395.402
395.504
395.589
395.66
395.722
395.778
395.827
395.872
395.913
395.95
400
400
400
400
400
400
400
400
400
399.998
399.85
399.708
399.574
399.447
399.326
399.209
399.095
398.985
398.877
398.772
398.669
398.567
398.467
398.369
398.271
398.176
398.081
397.988
397.896
397.804
397.714
397.625
397.538
397.451
397.365
397.281
397.198
397.115
397.032
396.95
396.866
396.783
396.7
396.617
396.534
396.452
396.371
396.29
396.21
396.13
396.052
395.974
395.898
395.822
395.748
395.675
395.604
395.534
395.467
395.407
395.529
395.632
395.717
395.79
395.853
395.909
395.96
396.007
396.049
396.088
400
400
400
400
400
400
400
400
400
399.998
399.85
399.708
399.574
399.446
399.325
399.208
399.094
398.984
398.876
398.771
398.668
398.567
398.467
398.369
398.272
398.177
398.083
397.991
397.899
397.809
397.72
397.632
397.545
397.46
397.375
397.292
397.21
397.129
397.048
396.967
396.885
396.803
396.721
396.639
396.558
396.478
396.398
396.319
396.24
396.163
396.086
396.01