/*--------------------------------*- C++ -*----------------------------------*\
  =========                 |
  \\      /  F ield         | OpenFOAM: The Open Source CFD Toolbox
   \\    /   O peration     | Website:  https://openfoam.org
    \\  /    A nd           | Version:  12
     \\/     M anipulation  |
\*---------------------------------------------------------------------------*/
FoamFile
{
    format      ascii;
    class       volScalarField;
    location    "750/porous";
    object      rho;
}
// * * * * * * * * * * * * * * * * * * * * * * * * * * * * * * * * * * * * * //

dimensions      [1 -3 0 0 0 0 0];

internalField   nonuniform List<scalar> 
140000
(
933.891
933.891
933.891
933.891
933.891
933.891
933.891
933.891
933.892
933.899
934.19
934.415
934.614
934.8
934.978
935.15
935.319
935.485
935.648
935.809
935.968
936.125
936.281
936.435
936.588
936.739
936.888
937.036
937.182
937.327
937.469
937.61
937.75
937.887
938.022
938.155
938.286
938.415
938.544
938.672
938.799
938.927
939.054
939.18
939.306
939.429
939.552
939.673
939.792
939.91
940.026
940.141
940.254
940.365
940.474
940.582
940.688
940.791
940.894
940.972
940.573
940.32
940.126
939.967
939.83
939.711
939.607
939.514
939.431
939.361
933.891
933.891
933.891
933.891
933.891
933.891
933.891
933.891
933.891
933.896
934.119
934.298
934.457
934.607
934.751
934.891
935.029
935.164
935.298
935.431
935.562
935.692
935.821
935.949
936.076
936.203
936.329
936.454
936.578
936.701
936.823
936.944
937.065
937.184
937.303
937.42
937.536
937.651
937.766
937.881
937.996
938.112
938.228
938.343
938.457
938.571
938.684
938.796
938.907
939.018
939.127
939.235
939.341
939.446
939.55
939.652
939.754
939.852
939.951
940.033
939.794
939.639
939.517
939.414
939.324
939.244
939.171
939.105
939.044
938.991
933.891
933.891
933.891
933.891
933.891
933.891
933.891
933.891
933.891
933.895
934.101
934.261
934.403
934.535
934.66
934.782
934.9
935.015
935.129
935.241
935.352
935.461
935.569
935.676
935.783
935.888
935.993
936.097
936.2
936.303
936.405
936.506
936.606
936.706
936.805
936.903
937
937.097
937.193
937.29
937.388
937.486
937.585
937.683
937.781
937.879
937.976
938.073
938.169
938.264
938.359
938.453
938.546
938.638
938.728
938.818
938.906
938.993
939.078
939.154
938.963
938.843
938.753
938.678
938.614
938.558
938.507
938.461
938.42
938.383
933.891
933.891
933.891
933.891
933.891
933.891
933.891
933.891
933.891
933.895
934.096
934.252
934.389
934.515
934.634
934.748
934.858
934.966
935.071
935.174
935.275
935.375
935.473
935.57
935.666
935.761
935.854
935.947
936.039
936.13
936.221
936.31
936.398
936.486
936.573
936.658
936.743
936.827
936.912
936.996
937.082
937.168
937.255
937.341
937.427
937.512
937.597
937.682
937.765
937.849
937.931
938.013
938.094
938.174
938.253
938.33
938.407
938.482
938.556
938.619
938.44
938.328
938.244
938.175
938.116
938.065
938.019
937.978
937.941
937.907
933.891
933.891
933.891
933.891
933.891
933.891
933.891
933.891
933.891
933.895
934.095
934.251
934.386
934.51
934.627
934.739
934.847
934.951
935.053
935.153
935.251
935.347
935.441
935.534
935.625
935.716
935.805
935.893
935.98
936.065
936.15
936.234
936.317
936.399
936.479
936.559
936.637
936.715
936.793
936.872
936.951
937.031
937.111
937.19
937.27
937.348
937.426
937.504
937.581
937.657
937.732
937.807
937.881
937.953
938.025
938.095
938.164
938.231
938.297
938.353
938.177
938.065
937.981
937.911
937.852
937.8
937.754
937.712
937.674
937.639
933.891
933.891
933.891
933.891
933.891
933.891
933.891
933.891
933.891
933.895
934.096
934.251
934.386
934.51
934.627
934.738
934.845
934.949
935.05
935.149
935.246
935.34
935.433
935.525
935.615
935.703
935.79
935.876
935.961
936.045
936.128
936.209
936.289
936.368
936.446
936.522
936.598
936.673
936.748
936.823
936.9
936.977
937.054
937.13
937.206
937.282
937.357
937.431
937.504
937.577
937.649
937.719
937.789
937.858
937.926
937.992
938.057
938.12
938.181
938.233
938.058
937.946
937.861
937.79
937.73
937.677
937.629
937.586
937.546
937.511
933.891
933.891
933.891
933.891
933.891
933.891
933.891
933.891
933.891
933.895
934.096
934.252
934.387
934.511
934.628
934.739
934.846
934.95
935.051
935.15
935.246
935.341
935.433
935.524
935.613
935.701
935.788
935.873
935.957
936.04
936.122
936.202
936.281
936.359
936.435
936.51
936.584
936.657
936.731
936.806
936.881
936.957
937.033
937.108
937.183
937.257
937.33
937.403
937.475
937.546
937.616
937.685
937.753
937.82
937.886
937.95
938.013
938.073
938.132
938.181
938.007
937.895
937.809
937.738
937.677
937.623
937.575
937.531
937.491
937.454
933.891
933.891
933.891
933.891
933.891
933.891
933.891
933.891
933.891
933.895
934.097
934.253
934.388
934.512
934.629
934.741
934.848
934.952
935.054
935.152
935.249
935.343
935.436
935.526
935.616
935.703
935.79
935.875
935.959
936.041
936.122
936.202
936.28
936.357
936.433
936.507
936.58
936.653
936.726
936.801
936.876
936.951
937.027
937.101
937.175
937.249
937.321
937.393
937.465
937.535
937.604
937.673
937.74
937.806
937.871
937.935
937.996
938.056
938.113
938.161
937.987
937.875
937.789
937.718
937.656
937.602
937.553
937.509
937.468
937.431
933.891
933.891
933.891
933.891
933.891
933.891
933.891
933.891
933.891
933.895
934.097
934.253
934.389
934.513
934.63
934.742
934.85
934.954
935.056
935.154
935.251
935.345
935.438
935.529
935.618
935.706
935.792
935.877
935.961
936.043
936.124
936.204
936.282
936.358
936.433
936.507
936.579
936.652
936.725
936.799
936.875
936.95
937.025
937.1
937.174
937.247
937.319
937.391
937.462
937.532
937.601
937.67
937.737
937.803
937.867
937.93
937.991
938.05
938.107
938.154
937.98
937.868
937.782
937.711
937.649
937.595
937.546
937.501
937.46
937.424
933.891
933.891
933.891
933.891
933.891
933.891
933.891
933.891
933.891
933.895
934.098
934.254
934.39
934.514
934.632
934.744
934.852
934.956
935.058
935.156
935.253
935.348
935.44
935.531
935.621
935.708
935.795
935.88
935.963
936.045
936.126
936.205
936.283
936.359
936.433
936.507
936.579
936.652
936.725
936.8
936.875
936.951
937.026
937.101
937.175
937.248
937.32
937.392
937.463
937.533
937.602
937.67
937.737
937.803
937.867
937.93
937.991
938.05
938.106
938.152
937.979
937.867
937.78
937.709
937.648
937.593
937.544
937.5
937.459
937.422
933.891
933.891
933.891
933.891
933.891
933.891
933.891
933.891
933.891
933.895
934.098
934.254
934.39
934.515
934.632
934.745
934.853
934.957
935.059
935.158
935.255
935.349
935.442
935.533
935.623
935.71
935.797
935.882
935.965
936.047
936.127
936.206
936.283
936.359
936.433
936.506
936.579
936.652
936.725
936.8
936.876
936.952
937.027
937.102
937.176
937.249
937.321
937.393
937.464
937.534
937.603
937.672
937.739
937.804
937.869
937.931
937.992
938.051
938.107
938.153
937.98
937.868
937.781
937.71
937.649
937.594
937.545
937.501
937.46
937.423
933.891
933.891
933.891
933.891
933.891
933.891
933.891
933.891
933.891
933.895
934.098
934.255
934.39
934.515
934.633
934.745
934.853
934.958
935.06
935.159
935.256
935.351
935.444
935.535
935.624
935.712
935.798
935.883
935.966
936.048
936.128
936.206
936.283
936.359
936.433
936.506
936.579
936.652
936.726
936.801
936.877
936.953
937.028
937.103
937.177
937.25
937.323
937.394
937.466
937.536
937.605
937.673
937.741
937.806
937.871
937.934
937.994
938.053
938.109
938.155
937.982
937.869
937.783
937.712
937.65
937.596
937.547
937.502
937.462
937.425
933.891
933.891
933.891
933.891
933.891
933.891
933.891
933.891
933.891
933.895
934.098
934.254
934.39
934.515
934.633
934.745
934.854
934.959
935.061
935.16
935.257
935.352
935.444
935.535
935.625
935.713
935.799
935.883
935.966
936.048
936.128
936.206
936.282
936.357
936.432
936.505
936.579
936.652
936.726
936.802
936.878
936.954
937.029
937.104
937.178
937.251
937.324
937.396
937.467
937.537
937.607
937.675
937.742
937.808
937.873
937.936
937.996
938.055
938.111
938.157
937.983
937.871
937.785
937.714
937.653
937.598
937.549
937.505
937.464
937.427
933.891
933.891
933.891
933.891
933.891
933.891
933.891
933.891
933.891
933.895
934.098
934.254
934.39
934.515
934.633
934.745
934.854
934.959
935.061
935.16
935.257
935.352
935.445
935.536
935.625
935.713
935.799
935.883
935.966
936.047
936.126
936.204
936.28
936.356
936.431
936.505
936.579
936.652
936.727
936.803
936.879
936.954
937.03
937.105
937.179
937.252
937.325
937.397
937.468
937.539
937.608
937.677
937.744
937.81
937.875
937.938
937.999
938.057
938.113
938.159
937.986
937.874
937.788
937.717
937.655
937.601
937.552
937.507
937.466
937.43
933.891
933.891
933.891
933.891
933.891
933.891
933.891
933.891
933.891
933.895
934.097
934.254
934.39
934.514
934.632
934.745
934.853
934.959
935.061
935.16
935.257
935.352
935.445
935.536
935.625
935.712
935.798
935.882
935.965
936.045
936.124
936.202
936.278
936.354
936.43
936.505
936.579
936.653
936.728
936.803
936.879
936.955
937.031
937.105
937.18
937.253
937.326
937.398
937.47
937.54
937.61
937.679
937.746
937.812
937.877
937.94
938.001
938.06
938.115
938.161
937.988
937.876
937.79
937.719
937.658
937.603
937.554
937.51
937.469
937.432
933.891
933.891
933.891
933.891
933.891
933.891
933.891
933.891
933.891
933.895
934.097
934.253
934.389
934.514
934.632
934.744
934.853
934.958
935.06
935.16
935.257
935.352
935.444
935.535
935.624
935.711
935.797
935.881
935.963
936.043
936.121
936.199
936.276
936.353
936.429
936.505
936.58
936.655
936.73
936.805
936.881
936.956
937.032
937.106
937.181
937.254
937.327
937.4
937.471
937.542
937.612
937.68
937.748
937.815
937.879
937.943
938.004
938.062
938.118
938.164
937.991
937.879
937.793
937.722
937.66
937.606
937.557
937.513
937.472
937.435
933.891
933.891
933.891
933.891
933.891
933.891
933.891
933.891
933.891
933.895
934.097
934.253
934.388
934.513
934.631
934.744
934.852
934.958
935.06
935.159
935.256
935.351
935.444
935.535
935.623
935.71
935.796
935.879
935.96
936.04
936.118
936.196
936.274
936.352
936.429
936.506
936.582
936.657
936.732
936.807
936.882
936.958
937.033
937.108
937.182
937.256
937.329
937.401
937.473
937.543
937.613
937.682
937.75
937.817
937.882
937.945
938.006
938.065
938.12
938.167
937.993
937.881
937.796
937.724
937.663
937.609
937.56
937.515
937.475
937.438
933.891
933.891
933.891
933.891
933.891
933.891
933.891
933.891
933.891
933.895
934.096
934.251
934.387
934.512
934.63
934.743
934.851
934.957
935.059
935.159
935.256
935.351
935.443
935.534
935.622
935.709
935.794
935.877
935.958
936.037
936.115
936.194
936.273
936.352
936.43
936.507
936.583
936.659
936.734
936.809
936.884
936.959
937.034
937.109
937.183
937.257
937.33
937.402
937.474
937.545
937.615
937.684
937.752
937.819
937.884
937.947
938.008
938.067
938.123
938.169
937.996
937.884
937.798
937.727
937.666
937.611
937.563
937.518
937.477
937.44
933.891
933.891
933.891
933.891
933.891
933.891
933.891
933.891
933.891
933.895
934.096
934.251
934.386
934.511
934.629
934.742
934.851
934.956
935.058
935.158
935.255
935.35
935.443
935.533
935.621
935.708
935.792
935.875
935.955
936.034
936.113
936.193
936.273
936.352
936.43
936.508
936.585
936.661
936.736
936.811
936.885
936.96
937.035
937.109
937.184
937.257
937.331
937.403
937.475
937.546
937.616
937.685
937.753
937.82
937.885
937.949
938.01
938.069
938.125
938.171
937.998
937.886
937.8
937.729
937.668
937.613
937.565
937.52
937.479
937.443
933.891
933.891
933.891
933.891
933.891
933.891
933.891
933.891
933.891
933.895
934.095
934.251
934.386
934.51
934.628
934.741
934.85
934.955
935.058
935.158
935.255
935.35
935.442
935.533
935.621
935.707
935.791
935.873
935.953
936.032
936.111
936.192
936.273
936.352
936.431
936.508
936.585
936.662
936.738
936.812
936.886
936.96
937.035
937.109
937.184
937.257
937.331
937.403
937.475
937.546
937.617
937.686
937.754
937.821
937.886
937.95
938.011
938.07
938.126
938.173
938
937.888
937.802
937.731
937.669
937.615
937.566
937.522
937.481
937.444
933.891
933.891
933.891
933.891
933.891
933.891
933.891
933.891
933.891
933.895
934.094
934.249
934.384
934.509
934.627
934.74
934.849
934.954
935.057
935.157
935.254
935.349
935.442
935.532
935.62
935.706
935.79
935.872
935.952
936.031
936.111
936.192
936.273
936.352
936.431
936.509
936.586
936.662
936.738
936.813
936.886
936.96
937.034
937.108
937.183
937.256
937.33
937.402
937.474
937.546
937.616
937.686
937.754
937.821
937.886
937.95
938.012
938.071
938.127
938.174
938.001
937.889
937.803
937.732
937.67
937.616
937.567
937.523
937.482
937.445
933.891
933.891
933.891
933.891
933.891
933.891
933.891
933.891
933.891
933.895
934.094
934.249
934.384
934.508
934.626
934.739
934.848
934.954
935.056
935.156
935.254
935.349
935.442
935.532
935.62
935.706
935.79
935.872
935.951
936.03
936.111
936.192
936.273
936.352
936.431
936.509
936.586
936.663
936.738
936.812
936.885
936.959
937.033
937.107
937.181
937.255
937.328
937.401
937.473
937.545
937.615
937.685
937.753
937.82
937.886
937.95
938.011
938.071
938.127
938.174
938.001
937.889
937.803
937.732
937.671
937.616
937.567
937.523
937.482
937.445
933.891
933.891
933.891
933.891
933.891
933.891
933.891
933.891
933.891
933.895
934.093
934.247
934.382
934.507
934.625
934.738
934.847
934.953
935.056
935.156
935.254
935.349
935.442
935.532
935.621
935.707
935.79
935.872
935.952
936.031
936.111
936.192
936.273
936.353
936.431
936.509
936.587
936.663
936.738
936.812
936.885
936.958
937.031
937.105
937.179
937.253
937.327
937.399
937.472
937.543
937.614
937.683
937.752
937.819
937.885
937.949
938.011
938.07
938.127
938.176
938.002
937.89
937.804
937.732
937.671
937.617
937.568
937.523
937.482
937.446
933.891
933.891
933.891
933.891
933.891
933.891
933.891
933.891
933.891
933.895
934.093
934.246
934.381
934.506
934.624
934.737
934.847
934.952
935.055
935.156
935.253
935.349
935.442
935.532
935.621
935.707
935.791
935.873
935.953
936.032
936.112
936.193
936.274
936.353
936.432
936.51
936.587
936.663
936.738
936.812
936.884
936.957
937.03
937.104
937.178
937.251
937.325
937.398
937.47
937.542
937.612
937.682
937.751
937.818
937.884
937.948
938.01
938.07
938.127
938.176
938.002
937.89
937.804
937.733
937.671
937.617
937.568
937.523
937.482
937.446
933.891
933.891
933.891
933.891
933.891
933.891
933.891
933.891
933.891
933.895
934.093
934.246
934.381
934.506
934.624
934.737
934.846
934.952
935.055
935.155
935.253
935.349
935.442
935.533
935.622
935.708
935.792
935.874
935.954
936.034
936.114
936.195
936.275
936.355
936.433
936.511
936.588
936.664
936.739
936.813
936.884
936.956
937.029
937.103
937.177
937.25
937.324
937.396
937.469
937.54
937.611
937.681
937.75
937.817
937.883
937.947
938.009
938.069
938.127
938.176
938.002
937.89
937.804
937.732
937.671
937.617
937.568
937.523
937.482
937.445
933.891
933.891
933.891
933.891
933.891
933.891
933.891
933.891
933.891
933.895
934.091
934.244
934.379
934.504
934.622
934.735
934.845
934.951
935.054
935.155
935.253
935.348
935.442
935.533
935.622
935.709
935.793
935.876
935.956
936.036
936.116
936.197
936.277
936.356
936.435
936.513
936.59
936.666
936.741
936.814
936.885
936.957
937.029
937.102
937.176
937.249
937.323
937.396
937.468
937.539
937.61
937.68
937.749
937.816
937.882
937.947
938.009
938.07
938.128
938.179
938.004
937.891
937.805
937.733
937.672
937.617
937.568
937.524
937.483
937.446
933.891
933.891
933.891
933.891
933.891
933.891
933.891
933.891
933.891
933.895
934.091
934.244
934.379
934.503
934.622
934.735
934.844
934.951
935.054
935.154
935.252
935.348
935.442
935.533
935.623
935.71
935.795
935.877
935.958
936.038
936.118
936.199
936.279
936.358
936.437
936.515
936.592
936.668
936.742
936.815
936.886
936.957
937.03
937.102
937.176
937.249
937.322
937.395
937.467
937.539
937.61
937.68
937.748
937.816
937.882
937.946
938.009
938.07
938.128
938.179
938.004
937.891
937.805
937.734
937.672
937.618
937.569
937.524
937.483
937.446
933.891
933.891
933.891
933.891
933.891
933.891
933.891
933.891
933.891
933.895
934.09
934.243
934.378
934.502
934.621
934.734
934.844
934.95
935.053
935.154
935.252
935.348
935.442
935.533
935.623
935.71
935.796
935.879
935.96
936.04
936.121
936.201
936.281
936.36
936.439
936.516
936.593
936.669
936.744
936.817
936.888
936.959
937.03
937.103
937.176
937.25
937.323
937.395
937.467
937.539
937.61
937.679
937.748
937.816
937.882
937.947
938.009
938.07
938.129
938.181
938.005
937.892
937.806
937.735
937.673
937.618
937.569
937.525
937.484
937.447
933.891
933.891
933.891
933.891
933.891
933.891
933.891
933.891
933.891
933.895
934.089
934.241
934.376
934.501
934.619
934.733
934.843
934.949
935.052
935.153
935.251
935.347
935.441
935.533
935.623
935.711
935.797
935.88
935.962
936.042
936.123
936.203
936.283
936.362
936.44
936.518
936.595
936.671
936.746
936.818
936.889
936.96
937.032
937.104
937.177
937.25
937.323
937.396
937.468
937.539
937.61
937.68
937.748
937.816
937.882
937.947
938.01
938.071
938.13
938.183
938.007
937.894
937.807
937.736
937.674
937.619
937.57
937.525
937.484
937.447
933.891
933.891
933.891
933.891
933.891
933.891
933.891
933.891
933.891
933.895
934.088
934.241
934.376
934.5
934.619
934.732
934.842
934.948
935.052
935.152
935.251
935.347
935.441
935.533
935.623
935.711
935.797
935.881
935.963
936.044
936.124
936.205
936.285
936.364
936.442
936.519
936.596
936.672
936.747
936.819
936.89
936.961
937.033
937.105
937.178
937.251
937.324
937.396
937.468
937.539
937.61
937.68
937.748
937.816
937.882
937.947
938.01
938.071
938.131
938.184
938.008
937.894
937.808
937.736
937.674
937.619
937.57
937.526
937.485
937.447
933.891
933.891
933.891
933.891
933.891
933.891
933.891
933.891
933.891
933.895
934.088
934.24
934.375
934.499
934.618
934.731
934.841
934.947
935.051
935.151
935.25
935.346
935.44
935.532
935.623
935.711
935.798
935.882
935.965
936.045
936.126
936.206
936.286
936.364
936.442
936.52
936.596
936.673
936.747
936.819
936.89
936.961
937.034
937.106
937.179
937.252
937.324
937.397
937.468
937.539
937.61
937.679
937.748
937.816
937.882
937.947
938.01
938.072
938.132
938.186
938.009
937.895
937.808
937.737
937.675
937.62
937.571
937.526
937.485
937.447
933.891
933.891
933.891
933.891
933.891
933.891
933.891
933.891
933.891
933.895
934.087
934.239
934.374
934.499
934.617
934.73
934.84
934.946
935.05
935.15
935.249
935.345
935.44
935.532
935.622
935.711
935.798
935.882
935.965
936.047
936.126
936.206
936.286
936.364
936.442
936.519
936.596
936.671
936.745
936.817
936.889
936.961
937.034
937.106
937.179
937.252
937.324
937.396
937.468
937.539
937.609
937.679
937.747
937.815
937.881
937.946
938.01
938.071
938.132
938.186
938.009
937.895
937.808
937.736
937.674
937.619
937.57
937.525
937.484
937.447
933.891
933.891
933.891
933.891
933.891
933.891
933.891
933.891
933.891
933.895
934.087
934.239
934.373
934.498
934.616
934.729
934.839
934.945
935.049
935.149
935.248
935.344
935.439
935.531
935.622
935.71
935.797
935.883
935.966
936.047
936.127
936.206
936.285
936.363
936.44
936.517
936.594
936.669
936.742
936.814
936.887
936.96
937.033
937.106
937.179
937.251
937.324
937.396
937.467
937.538
937.608
937.678
937.746
937.814
937.88
937.945
938.009
938.071
938.132
938.186
938.008
937.895
937.807
937.735
937.673
937.618
937.569
937.524
937.483
937.446
933.891
933.891
933.891
933.891
933.891
933.891
933.891
933.891
933.891
933.895
934.087
934.239
934.373
934.497
934.615
934.729
934.838
934.944
935.048
935.148
935.247
935.343
935.438
935.53
935.621
935.71
935.797
935.882
935.966
936.047
936.127
936.206
936.283
936.361
936.438
936.514
936.59
936.664
936.738
936.811
936.884
936.958
937.031
937.105
937.178
937.25
937.323
937.395
937.466
937.537
937.607
937.676
937.745
937.812
937.879
937.944
938.008
938.07
938.132
938.186
938.009
937.894
937.807
937.735
937.672
937.617
937.568
937.523
937.481
937.444
933.891
933.891
933.891
933.891
933.891
933.891
933.891
933.891
933.891
933.895
934.087
934.238
934.372
934.497
934.615
934.728
934.837
934.943
935.046
935.147
935.246
935.342
935.436
935.529
935.62
935.709
935.796
935.882
935.965
936.047
936.127
936.205
936.282
936.359
936.435
936.511
936.586
936.66
936.734
936.808
936.882
936.956
937.03
937.104
937.177
937.249
937.322
937.393
937.465
937.535
937.606
937.675
937.744
937.811
937.878
937.943
938.007
938.069
938.131
938.186
938.007
937.893
937.806
937.733
937.671
937.616
937.566
937.521
937.48
937.442
933.891
933.891
933.891
933.891
933.891
933.891
933.891
933.891
933.891
933.895
934.087
934.238
934.372
934.496
934.614
934.727
934.836
934.942
935.045
935.146
935.244
935.341
935.435
935.527
935.618
935.707
935.795
935.881
935.964
936.046
936.126
936.204
936.28
936.356
936.432
936.507
936.582
936.657
936.731
936.805
936.88
936.954
937.029
937.102
937.176
937.248
937.321
937.392
937.464
937.534
937.604
937.674
937.742
937.81
937.876
937.942
938.006
938.069
938.13
938.185
938.007
937.892
937.805
937.732
937.67
937.614
937.565
937.52
937.478
937.441
933.891
933.891
933.891
933.891
933.891
933.891
933.891
933.891
933.891
933.895
934.087
934.238
934.372
934.495
934.613
934.726
934.835
934.941
935.044
935.144
935.243
935.339
935.433
935.526
935.617
935.706
935.793
935.879
935.963
936.045
936.125
936.202
936.278
936.354
936.429
936.504
936.579
936.654
936.728
936.803
936.878
936.953
937.027
937.101
937.175
937.247
937.32
937.391
937.462
937.533
937.603
937.672
937.741
937.808
937.875
937.94
938.005
938.067
938.129
938.185
938.006
937.891
937.804
937.731
937.668
937.613
937.563
937.518
937.477
937.439
933.891
933.891
933.891
933.891
933.891
933.891
933.891
933.891
933.891
933.895
934.086
934.238
934.371
934.495
934.612
934.725
934.834
934.939
935.042
935.143
935.241
935.337
935.431
935.524
935.615
935.704
935.791
935.877
935.961
936.043
936.123
936.2
936.276
936.351
936.426
936.501
936.576
936.651
936.726
936.802
936.877
936.952
937.026
937.1
937.173
937.246
937.318
937.39
937.461
937.532
937.602
937.671
937.739
937.807
937.873
937.939
938.003
938.067
938.128
938.184
938.005
937.89
937.802
937.73
937.667
937.612
937.562
937.517
937.475
937.438
933.891
933.891
933.891
933.891
933.891
933.891
933.891
933.891
933.891
933.895
934.086
934.238
934.371
934.494
934.611
934.724
934.833
934.938
935.041
935.141
935.239
935.335
935.43
935.522
935.613
935.702
935.789
935.875
935.959
936.041
936.121
936.198
936.273
936.348
936.423
936.498
936.573
936.649
936.725
936.8
936.876
936.951
937.025
937.099
937.172
937.245
937.317
937.389
937.46
937.53
937.6
937.669
937.738
937.805
937.872
937.937
938.002
938.065
938.128
938.183
938.004
937.889
937.801
937.728
937.665
937.61
937.56
937.515
937.473
937.436
933.891
933.891
933.891
933.891
933.891
933.891
933.891
933.891
933.891
933.895
934.086
934.237
934.37
934.494
934.611
934.723
934.831
934.937
935.039
935.139
935.237
935.333
935.427
935.52
935.61
935.699
935.787
935.873
935.957
936.038
936.118
936.194
936.27
936.345
936.42
936.495
936.571
936.647
936.723
936.799
936.874
936.949
937.024
937.098
937.171
937.243
937.315
937.387
937.458
937.528
937.598
937.667
937.736
937.803
937.87
937.936
938
938.064
938.126
938.182
938.003
937.888
937.8
937.727
937.664
937.609
937.559
937.514
937.472
937.434
933.891
933.891
933.891
933.891
933.891
933.891
933.891
933.891
933.891
933.895
934.086
934.237
934.37
934.493
934.61
934.722
934.83
934.935
935.038
935.138
935.235
935.331
935.425
935.517
935.608
935.697
935.784
935.87
935.954
936.035
936.115
936.191
936.267
936.342
936.417
936.493
936.569
936.646
936.722
936.798
936.873
936.948
937.022
937.096
937.169
937.242
937.314
937.386
937.457
937.527
937.597
937.666
937.734
937.802
937.869
937.934
937.999
938.063
938.125
938.181
938.002
937.887
937.799
937.726
937.663
937.608
937.558
937.513
937.471
937.434
933.891
933.891
933.891
933.891
933.891
933.891
933.891
933.891
933.891
933.895
934.086
934.237
934.37
934.493
934.609
934.721
934.829
934.934
935.036
935.136
935.233
935.329
935.423
935.515
935.605
935.694
935.781
935.867
935.951
936.032
936.111
936.188
936.264
936.339
936.415
936.491
936.568
936.644
936.721
936.797
936.872
936.947
937.021
937.095
937.168
937.241
937.313
937.385
937.456
937.526
937.596
937.665
937.734
937.802
937.869
937.934
938
938.063
938.126
938.182
938.003
937.888
937.8
937.727
937.665
937.609
937.559
937.514
937.473
937.435
933.891
933.891
933.891
933.891
933.891
933.891
933.891
933.891
933.891
933.895
934.086
934.237
934.37
934.492
934.608
934.72
934.828
934.932
935.034
935.134
935.231
935.327
935.421
935.513
935.603
935.692
935.779
935.864
935.948
936.03
936.109
936.186
936.262
936.338
936.414
936.491
936.568
936.645
936.721
936.797
936.873
936.948
937.023
937.097
937.17
937.243
937.315
937.387
937.458
937.529
937.599
937.668
937.737
937.805
937.872
937.939
938.004
938.069
938.132
938.189
938.009
937.894
937.806
937.734
937.671
937.616
937.567
937.522
937.48
937.443
933.891
933.891
933.891
933.891
933.891
933.891
933.891
933.891
933.891
933.895
934.086
934.237
934.369
934.492
934.608
934.719
934.827
934.931
935.033
935.132
935.23
935.325
935.419
935.511
935.602
935.69
935.778
935.863
935.947
936.029
936.108
936.186
936.263
936.339
936.417
936.494
936.572
936.649
936.726
936.802
936.879
936.954
937.029
937.104
937.177
937.251
937.324
937.396
937.468
937.539
937.61
937.68
937.75
937.819
937.887
937.954
938.02
938.086
938.15
938.208
938.028
937.913
937.826
937.754
937.691
937.637
937.588
937.543
937.502
937.465
933.891
933.891
933.891
933.891
933.891
933.891
933.891
933.891
933.891
933.895
934.087
934.238
934.37
934.492
934.608
934.719
934.827
934.932
935.034
935.133
935.231
935.327
935.421
935.513
935.604
935.693
935.781
935.867
935.952
936.034
936.114
936.193
936.271
936.35
936.428
936.507
936.586
936.664
936.742
936.82
936.897
936.974
937.05
937.126
937.202
937.276
937.351
937.425
937.498
937.571
937.643
937.715
937.786
937.857
937.927
937.996
938.064
938.131
938.198
938.257
938.077
937.963
937.876
937.804
937.743
937.689
937.641
937.597
937.557
937.521
933.891
933.891
933.891
933.891
933.891
933.891
933.891
933.891
933.891
933.895
934.087
934.238
934.371
934.494
934.61
934.722
934.83
934.935
935.038
935.139
935.238
935.335
935.43
935.524
935.616
935.707
935.797
935.885
935.971
936.056
936.138
936.22
936.301
936.382
936.463
936.545
936.626
936.707
936.788
936.869
936.949
937.029
937.108
937.187
937.265
937.343
937.421
937.498
937.575
937.651
937.727
937.802
937.877
937.952
938.025
938.098
938.17
938.242
938.312
938.375
938.195
938.081
937.995
937.924
937.864
937.812
937.764
937.722
937.684
937.649
933.891
933.891
933.891
933.891
933.891
933.891
933.891
933.891
933.891
933.895
934.089
934.242
934.376
934.501
934.619
934.733
934.844
934.952
935.058
935.162
935.264
935.365
935.464
935.562
935.659
935.754
935.849
935.941
936.033
936.122
936.21
936.297
936.384
936.471
936.559
936.646
936.733
936.821
936.908
936.995
937.081
937.167
937.253
937.338
937.423
937.508
937.592
937.676
937.76
937.843
937.926
938.008
938.09
938.172
938.253
938.333
938.413
938.491
938.569
938.639
938.456
938.342
938.256
938.186
938.127
938.075
938.029
937.987
937.95
937.916
933.891
933.891
933.891
933.891
933.891
933.891
933.891
933.891
933.891
933.895
934.095
934.252
934.393
934.523
934.648
934.769
934.888
935.004
935.119
935.232
935.343
935.454
935.563
935.671
935.778
935.885
935.99
936.093
936.196
936.297
936.397
936.495
936.594
936.694
936.793
936.892
936.992
937.091
937.191
937.289
937.388
937.486
937.584
937.682
937.779
937.876
937.972
938.068
938.164
938.259
938.354
938.448
938.542
938.636
938.728
938.82
938.911
939.002
939.09
939.17
938.976
938.855
938.763
938.688
938.623
938.566
938.515
938.469
938.427
938.39
933.891
933.891
933.891
933.891
933.891
933.891
933.891
933.891
933.891
933.896
934.114
934.291
934.449
934.598
934.741
934.882
935.019
935.156
935.291
935.424
935.556
935.687
935.818
935.947
936.075
936.202
936.328
936.453
936.576
936.697
936.817
936.936
937.055
937.174
937.293
937.411
937.53
937.648
937.765
937.882
937.998
938.114
938.229
938.343
938.456
938.569
938.681
938.792
938.903
939.012
939.121
939.23
939.337
939.444
939.55
939.654
939.758
939.86
939.961
940.048
939.806
939.649
939.526
939.422
939.332
939.251
939.178
939.111
939.051
938.997
933.891
933.891
933.891
933.891
933.891
933.891
933.891
933.891
933.892
933.898
934.187
934.411
934.607
934.792
934.97
935.142
935.312
935.478
935.642
935.805
935.965
936.124
936.281
936.437
936.59
936.742
936.891
937.039
937.183
937.325
937.465
937.603
937.74
937.877
938.012
938.147
938.281
938.413
938.545
938.675
938.803
938.931
939.057
939.181
939.305
939.427
939.548
939.667
939.786
939.903
940.019
940.134
940.248
940.361
940.472
940.583
940.691
940.798
940.903
940.983
940.582
940.328
940.133
939.973
939.836
939.717
939.612
939.519
939.436
939.366
933.891
933.891
933.891
933.891
933.891
933.891
933.891
933.891
933.891
933.896
934.116
934.322
934.513
934.695
934.872
935.043
935.211
935.377
935.54
935.701
935.861
936.019
936.175
936.33
936.483
936.635
936.785
936.934
937.08
937.226
937.369
937.511
937.651
937.789
937.925
938.059
938.191
938.321
938.45
938.578
938.706
938.834
938.962
939.088
939.214
939.338
939.461
939.582
939.702
939.82
939.937
940.052
940.166
940.278
940.387
940.495
940.602
940.706
940.81
940.892
940.565
940.323
940.133
939.974
939.838
939.719
939.614
939.52
939.437
939.366
933.891
933.891
933.891
933.891
933.891
933.891
933.891
933.891
933.891
933.894
934.052
934.207
934.355
934.499
934.639
934.776
934.911
935.045
935.177
935.308
935.438
935.567
935.695
935.823
935.95
936.076
936.201
936.326
936.45
936.573
936.695
936.816
936.937
937.056
937.175
937.292
937.408
937.524
937.639
937.754
937.869
937.985
938.1
938.215
938.33
938.444
938.557
938.669
938.781
938.891
939
939.109
939.216
939.322
939.426
939.529
939.631
939.731
939.83
939.916
939.75
939.614
939.5
939.402
939.315
939.237
939.166
939.101
939.042
938.989
933.891
933.891
933.891
933.891
933.891
933.891
933.891
933.891
933.891
933.894
934.036
934.173
934.305
934.43
934.552
934.67
934.785
934.899
935.011
935.121
935.231
935.339
935.446
935.552
935.658
935.763
935.867
935.97
936.073
936.175
936.276
936.377
936.477
936.576
936.675
936.773
936.87
936.966
937.063
937.159
937.256
937.354
937.452
937.55
937.648
937.745
937.842
937.938
938.034
938.13
938.224
938.318
938.411
938.503
938.594
938.685
938.773
938.861
938.946
939.026
938.902
938.802
938.72
938.65
938.59
938.536
938.487
938.443