/*--------------------------------*- C++ -*----------------------------------*\
  =========                 |
  \\      /  F ield         | OpenFOAM: The Open Source CFD Toolbox
   \\    /   O peration     | Website:  https://openfoam.org
    \\  /    A nd           | Version:  12
     \\/     M anipulation  |
\*---------------------------------------------------------------------------*/
FoamFile
{
    format      ascii;
    class       volScalarField;
    location    "750/porous";
    object      T;
}
// * * * * * * * * * * * * * * * * * * * * * * * * * * * * * * * * * * * * * //

dimensions      [0 0 0 1 0 0 0];

internalField   nonuniform List<scalar> 
140000
(
400
400
400
400
400
400
400
400
400
399.992
399.68
399.438
399.224
399.024
398.832
398.645
398.463
398.284
398.107
397.933
397.76
397.59
397.42
397.253
397.087
396.922
396.759
396.598
396.438
396.28
396.123
395.969
395.816
395.666
395.517
395.371
395.227
395.084
394.943
394.802
394.661
394.52
394.379
394.239
394.101
393.963
393.828
393.694
393.561
393.43
393.3
393.173
393.047
392.922
392.801
392.681
392.562
392.447
392.331
392.244
392.69
392.973
393.189
393.367
393.518
393.65
393.767
393.87
393.961
394.039
400
400
400
400
400
400
400
400
400
399.995
399.756
399.564
399.393
399.232
399.076
398.925
398.777
398.63
398.486
398.343
398.201
398.06
397.92
397.781
397.643
397.505
397.368
397.233
397.098
396.963
396.83
396.697
396.566
396.435
396.306
396.178
396.051
395.924
395.798
395.672
395.545
395.418
395.291
395.164
395.038
394.912
394.788
394.664
394.541
394.42
394.299
394.179
394.061
393.945
393.829
393.716
393.603
393.494
393.384
393.293
393.558
393.731
393.866
393.98
394.08
394.169
394.25
394.323
394.39
394.448
400
400
400
400
400
400
400
400
400
399.996
399.776
399.603
399.451
399.309
399.174
399.043
398.916
398.791
398.669
398.548
398.428
398.31
398.193
398.076
397.961
397.847
397.733
397.62
397.508
397.397
397.286
397.176
397.066
396.958
396.85
396.743
396.637
396.531
396.426
396.32
396.213
396.105
395.997
395.889
395.781
395.674
395.567
395.461
395.356
395.251
395.147
395.043
394.941
394.839
394.739
394.64
394.543
394.446
394.353
394.269
394.48
394.612
394.712
394.795
394.865
394.927
394.983
395.034
395.08
395.12
400
400
400
400
400
400
400
400
400
399.996
399.78
399.613
399.466
399.331
399.203
399.08
398.961
398.845
398.731
398.62
398.511
398.403
398.297
398.192
398.088
397.985
397.884
397.783
397.683
397.584
397.486
397.389
397.293
397.197
397.103
397.01
396.917
396.825
396.733
396.641
396.547
396.453
396.359
396.264
396.17
396.077
395.984
395.891
395.799
395.708
395.617
395.527
395.438
395.35
395.264
395.178
395.093
395.011
394.93
394.86
395.057
395.181
395.273
395.349
395.414
395.47
395.52
395.566
395.606
395.643
400
400
400
400
400
400
400
400
400
399.996
399.781
399.615
399.469
399.336
399.21
399.089
398.973
398.86
398.75
398.643
398.537
398.433
398.331
398.231
398.132
398.034
397.937
397.842
397.748
397.655
397.562
397.471
397.381
397.292
397.204
397.118
397.032
396.948
396.863
396.777
396.69
396.603
396.516
396.429
396.342
396.256
396.171
396.086
396.001
395.918
395.835
395.754
395.673
395.593
395.514
395.437
395.361
395.287
395.215
395.154
395.347
395.47
395.562
395.639
395.704
395.761
395.812
395.858
395.9
395.937
400
400
400
400
400
400
400
400
400
399.996
399.781
399.614
399.469
399.336
399.21
399.09
398.974
398.862
398.753
398.647
398.542
398.44
398.34
398.241
398.143
398.047
397.953
397.86
397.768
397.677
397.587
397.498
397.411
397.325
397.241
397.158
397.076
396.994
396.912
396.83
396.746
396.662
396.578
396.494
396.411
396.329
396.247
396.166
396.085
396.006
395.927
395.849
395.773
395.697
395.623
395.55
395.479
395.41
395.343
395.285
395.477
395.601
395.694
395.772
395.838
395.896
395.949
395.996
396.039
396.078
400
400
400
400
400
400
400
400
400
399.996
399.78
399.613
399.468
399.335
399.209
399.089
398.973
398.861
398.752
398.646
398.542
398.44
398.34
398.241
398.145
398.05
397.956
397.863
397.772
397.682
397.593
397.506
397.42
397.336
397.253
397.171
397.091
397.011
396.93
396.849
396.766
396.684
396.601
396.519
396.437
396.356
396.276
396.197
396.118
396.04
395.963
395.887
395.813
395.739
395.667
395.596
395.527
395.461
395.396
395.342
395.534
395.657
395.751
395.829
395.896
395.955
396.008
396.056
396.1
396.14
400
400
400
400
400
400
400
400
400
399.996
399.78
399.612
399.467
399.333
399.207
399.087
398.971
398.859
398.75
398.643
398.539
398.437
398.337
398.239
398.142
398.047
397.954
397.861
397.771
397.681
397.593
397.506
397.421
397.337
397.255
397.174
397.095
397.016
396.936
396.855
396.772
396.69
396.608
396.526
396.445
396.365
396.286
396.207
396.129
396.052
395.976
395.901
395.827
395.754
395.683
395.613
395.546
395.48
395.417
395.364
395.556
395.679
395.773
395.851
395.919
395.978
396.032
396.08
396.125
396.165
400
400
400
400
400
400
400
400
400
399.996
399.779
399.612
399.466
399.332
399.206
399.086
398.969
398.857
398.748
398.641
398.537
398.435
398.335
398.236
398.14
398.045
397.951
397.859
397.768
397.679
397.591
397.505
397.42
397.337
397.255
397.175
397.096
397.017
396.937
396.856
396.774
396.691
396.609
396.528
396.447
396.367
396.288
396.209
396.131
396.055
395.979
395.904
395.83
395.758
395.687
395.618
395.551
395.486
395.424
395.372
395.563
395.686
395.781
395.859
395.927
395.986
396.04
396.089
396.133
396.174
400
400
400
400
400
400
400
400
400
399.996
399.779
399.611
399.465
399.331
399.205
399.084
398.968
398.855
398.746
398.639
398.534
398.432
398.332
398.234
398.137
398.042
397.948
397.856
397.765
397.676
397.589
397.503
397.418
397.336
397.255
397.175
397.096
397.017
396.937
396.855
396.773
396.69
396.608
396.527
396.446
396.366
396.287
396.208
396.131
396.054
395.978
395.904
395.83
395.758
395.687
395.618
395.552
395.487
395.425
395.374
395.565
395.688
395.782
395.861
395.928
395.988
396.042
396.09
396.135
396.176
400
400
400
400
400
400
400
400
400
399.996
399.778
399.611
399.465
399.331
399.204
399.083
398.967
398.854
398.744
398.637
398.533
398.43
398.33
398.232
398.135
398.04
397.946
397.854
397.764
397.675
397.587
397.502
397.418
397.335
397.255
397.175
397.096
397.017
396.936
396.855
396.772
396.689
396.607
396.526
396.445
396.365
396.286
396.207
396.129
396.053
395.977
395.902
395.828
395.756
395.686
395.617
395.55
395.485
395.424
395.373
395.564
395.687
395.781
395.86
395.927
395.987
396.041
396.089
396.134
396.175
400
400
400
400
400
400
400
400
400
399.996
399.778
399.61
399.464
399.33
399.203
399.083
398.966
398.853
398.743
398.636
398.531
398.429
398.328
398.23
398.133
398.038
397.945
397.853
397.762
397.674
397.587
397.501
397.418
397.336
397.255
397.175
397.096
397.017
396.936
396.854
396.771
396.688
396.606
396.525
396.444
396.364
396.284
396.206
396.128
396.051
395.975
395.9
395.826
395.754
395.683
395.614
395.548
395.483
395.422
395.371
395.562
395.685
395.779
395.858
395.925
395.985
396.038
396.087
396.132
396.173
400
400
400
400
400
400
400
400
400
399.996
399.778
399.611
399.464
399.33
399.204
399.082
398.966
398.852
398.742
398.635
398.53
398.428
398.328
398.229
398.132
398.037
397.944
397.852
397.762
397.674
397.587
397.502
397.419
397.337
397.256
397.176
397.097
397.017
396.936
396.853
396.77
396.688
396.605
396.524
396.443
396.362
396.283
396.204
396.126
396.049
395.973
395.898
395.824
395.752
395.681
395.612
395.545
395.481
395.42
395.369
395.56
395.683
395.777
395.855
395.923
395.982
396.036
396.085
396.13
396.17
400
400
400
400
400
400
400
400
400
399.996
399.778
399.611
399.465
399.33
399.203
399.082
398.965
398.852
398.742
398.635
398.53
398.428
398.327
398.229
398.132
398.037
397.944
397.852
397.762
397.674
397.588
397.504
397.421
397.339
397.258
397.177
397.096
397.016
396.935
396.852
396.769
396.687
396.604
396.523
396.442
396.361
396.282
396.203
396.125
396.047
395.971
395.896
395.822
395.75
395.679
395.61
395.543
395.478
395.417
395.366
395.557
395.68
395.774
395.853
395.92
395.98
396.033
396.082
396.127
396.167
400
400
400
400
400
400
400
400
400
399.996
399.779
399.611
399.465
399.331
399.204
399.083
398.966
398.852
398.742
398.635
398.53
398.428
398.327
398.229
398.132
398.038
397.945
397.853
397.764
397.676
397.591
397.507
397.424
397.341
397.259
397.177
397.096
397.015
396.934
396.851
396.769
396.686
396.603
396.522
396.441
396.36
396.28
396.201
396.123
396.046
395.969
395.894
395.82
395.747
395.676
395.607
395.54
395.476
395.415
395.364
395.554
395.677
395.772
395.85
395.917
395.977
396.03
396.079
396.124
396.164
400
400
400
400
400
400
400
400
400
399.996
399.779
399.612
399.466
399.332
399.205
399.083
398.966
398.853
398.743
398.635
398.53
398.428
398.328
398.229
398.133
398.039
397.946
397.855
397.766
397.679
397.594
397.51
397.426
397.342
397.259
397.177
397.095
397.013
396.932
396.85
396.767
396.685
396.602
396.521
396.439
396.359
396.279
396.2
396.122
396.044
395.968
395.892
395.818
395.745
395.674
395.604
395.537
395.473
395.412
395.361
395.552
395.675
395.769
395.847
395.914
395.974
396.027
396.076
396.121
396.161
400
400
400
400
400
400
400
400
400
399.996
399.779
399.612
399.466
399.332
399.206
399.084
398.967
398.854
398.743
398.636
398.531
398.428
398.328
398.23
398.134
398.04
397.947
397.857
397.768
397.682
397.597
397.513
397.428
397.343
397.259
397.176
397.093
397.011
396.93
396.848
396.766
396.683
396.601
396.519
396.438
396.358
396.278
396.198
396.12
396.042
395.966
395.89
395.816
395.743
395.671
395.602
395.535
395.47
395.409
395.358
395.549
395.672
395.766
395.844
395.911
395.971
396.024
396.073
396.118
396.158
400
400
400
400
400
400
400
400
400
399.996
399.78
399.614
399.468
399.333
399.207
399.085
398.968
398.854
398.744
398.637
398.532
398.429
398.329
398.231
398.135
398.041
397.949
397.859
397.771
397.685
397.6
397.515
397.429
397.343
397.259
397.175
397.091
397.009
396.927
396.845
396.764
396.682
396.6
396.518
396.437
396.356
396.276
396.197
396.118
396.041
395.964
395.888
395.814
395.741
395.669
395.599
395.532
395.467
395.406
395.356
395.546
395.669
395.763
395.841
395.908
395.968
396.021
396.07
396.115
396.155
400
400
400
400
400
400
400
400
400
399.996
399.78
399.614
399.469
399.335
399.208
399.086
398.969
398.855
398.745
398.637
398.532
398.43
398.33
398.232
398.136
398.042
397.951
397.861
397.774
397.689
397.603
397.516
397.429
397.343
397.258
397.174
397.09
397.007
396.924
396.843
396.762
396.681
396.599
396.517
396.436
396.355
396.275
396.196
396.117
396.04
395.963
395.887
395.812
395.739
395.667
395.598
395.53
395.465
395.404
395.353
395.544
395.667
395.761
395.839
395.906
395.966
396.019
396.068
396.113
396.153
400
400
400
400
400
400
400
400
400
399.996
399.781
399.615
399.469
399.335
399.209
399.087
398.97
398.856
398.745
398.638
398.533
398.43
398.33
398.232
398.137
398.043
397.952
397.863
397.776
397.691
397.605
397.517
397.429
397.343
397.258
397.173
397.089
397.005
396.923
396.842
396.761
396.68
396.599
396.517
396.436
396.356
396.275
396.196
396.117
396.039
395.962
395.886
395.811
395.738
395.666
395.596
395.529
395.464
395.402
395.351
395.542
395.665
395.759
395.837
395.904
395.964
396.017
396.066
396.111
396.151
400
400
400
400
400
400
400
400
400
399.996
399.782
399.616
399.471
399.337
399.21
399.088
398.971
398.857
398.746
398.639
398.533
398.431
398.331
398.233
398.137
398.044
397.953
397.865
397.778
397.692
397.605
397.517
397.429
397.343
397.257
397.173
397.089
397.005
396.922
396.841
396.761
396.681
396.6
396.518
396.437
396.357
396.276
396.197
396.118
396.04
395.963
395.887
395.812
395.738
395.666
395.596
395.529
395.463
395.401
395.35
395.54
395.664
395.758
395.836
395.903
395.963
396.016
396.065
396.11
396.15
400
400
400
400
400
400
400
400
400
399.996
399.782
399.617
399.472
399.338
399.211
399.089
398.972
398.858
398.747
398.639
398.534
398.431
398.331
398.233
398.137
398.044
397.953
397.865
397.779
397.693
397.605
397.517
397.43
397.343
397.257
397.172
397.088
397.005
396.923
396.842
396.762
396.682
396.601
396.52
396.439
396.358
396.278
396.198
396.119
396.041
395.964
395.888
395.813
395.739
395.667
395.597
395.529
395.464
395.401
395.35
395.54
395.663
395.758
395.836
395.903
395.962
396.016
396.065
396.109
396.15
400
400
400
400
400
400
400
400
400
399.996
399.784
399.618
399.473
399.339
399.212
399.09
398.972
398.858
398.747
398.639
398.534
398.431
398.331
398.233
398.137
398.044
397.953
397.865
397.778
397.692
397.605
397.517
397.429
397.343
397.257
397.172
397.088
397.005
396.923
396.842
396.763
396.683
396.603
396.522
396.441
396.36
396.28
396.2
396.121
396.043
395.965
395.889
395.814
395.74
395.668
395.598
395.53
395.464
395.401
395.348
395.539
395.663
395.757
395.835
395.903
395.962
396.016
396.064
396.109
396.15
400
400
400
400
400
400
400
400
400
399.996
399.784
399.619
399.474
399.34
399.213
399.091
398.973
398.859
398.748
398.64
398.534
398.431
398.331
398.232
398.137
398.043
397.952
397.864
397.777
397.691
397.604
397.516
397.428
397.342
397.256
397.171
397.087
397.004
396.922
396.842
396.763
396.684
396.604
396.524
396.443
396.362
396.282
396.202
396.123
396.044
395.967
395.891
395.815
395.741
395.669
395.599
395.53
395.464
395.401
395.347
395.539
395.662
395.757
395.835
395.902
395.962
396.016
396.064
396.109
396.15
400
400
400
400
400
400
400
400
400
399.996
399.784
399.619
399.474
399.34
399.213
399.091
398.974
398.86
398.748
398.64
398.534
398.431
398.33
398.232
398.136
398.042
397.951
397.862
397.775
397.689
397.602
397.514
397.427
397.34
397.255
397.17
397.086
397.003
396.921
396.841
396.763
396.684
396.605
396.525
396.444
396.363
396.283
396.203
396.124
396.046
395.968
395.892
395.816
395.742
395.67
395.6
395.531
395.465
395.402
395.348
395.539
395.662
395.757
395.835
395.903
395.962
396.016
396.064
396.109
396.15
400
400
400
400
400
400
400
400
400
399.996
399.786
399.622
399.477
399.342
399.215
399.093
398.975
398.861
398.749
398.641
398.535
398.432
398.331
398.232
398.135
398.041
397.95
397.861
397.773
397.687
397.6
397.512
397.425
397.338
397.253
397.168
397.084
397.001
396.92
396.84
396.762
396.684
396.605
396.525
396.445
396.364
396.284
396.204
396.125
396.047
395.969
395.893
395.817
395.743
395.671
395.6
395.531
395.465
395.4
395.345
395.537
395.661
395.756
395.834
395.902
395.961
396.015
396.064
396.109
396.149
400
400
400
400
400
400
400
400
400
399.996
399.786
399.622
399.477
399.343
399.216
399.094
398.976
398.861
398.75
398.641
398.535
398.432
398.33
398.232
398.135
398.04
397.948
397.859
397.771
397.684
397.597
397.51
397.423
397.336
397.251
397.166
397.082
397
396.918
396.839
396.761
396.683
396.605
396.525
396.445
396.364
396.284
396.205
396.126
396.047
395.97
395.893
395.818
395.744
395.671
395.6
395.531
395.465
395.4
395.344
395.537
395.661
395.755
395.834
395.901
395.961
396.015
396.064
396.108
396.149
400
400
400
400
400
400
400
400
400
399.996
399.787
399.623
399.478
399.344
399.217
399.095
398.976
398.862
398.751
398.642
398.536
398.432
398.331
398.231
398.134
398.04
397.947
397.857
397.769
397.682
397.595
397.507
397.42
397.334
397.249
397.164
397.08
396.998
396.916
396.837
396.76
396.682
396.604
396.524
396.444
396.364
396.284
396.205
396.126
396.047
395.97
395.893
395.818
395.744
395.671
395.6
395.531
395.464
395.399
395.343
395.535
395.659
395.754
395.833
395.9
395.96
396.014
396.063
396.108
396.148
400
400
400
400
400
400
400
400
400
399.996
399.789
399.624
399.48
399.345
399.218
399.096
398.978
398.863
398.751
398.643
398.536
398.433
398.331
398.232
398.134
398.039
397.946
397.856
397.767
397.68
397.592
397.505
397.418
397.332
397.247
397.162
397.079
396.996
396.914
396.835
396.758
396.681
396.602
396.523
396.443
396.363
396.284
396.204
396.125
396.047
395.97
395.893
395.818
395.744
395.671
395.6
395.531
395.463
395.398
395.34
395.534
395.658
395.753
395.832
395.899
395.959
396.013
396.062
396.107
396.148
400
400
400
400
400
400
400
400
400
399.996
399.789
399.625
399.48
399.346
399.219
399.096
398.978
398.864
398.752
398.643
398.537
398.433
398.331
398.232
398.134
398.039
397.946
397.854
397.765
397.678
397.591
397.503
397.416
397.33
397.245
397.161
397.077
396.994
396.913
396.834
396.757
396.679
396.601
396.522
396.442
396.362
396.283
396.204
396.125
396.047
395.969
395.893
395.818
395.743
395.671
395.6
395.53
395.463
395.398
395.34
395.533
395.658
395.753
395.831
395.899
395.959
396.013
396.062
396.107
396.148
400
400
400
400
400
400
400
400
400
399.996
399.789
399.626
399.481
399.347
399.22
399.098
398.979
398.865
398.753
398.644
398.538
398.434
398.332
398.232
398.135
398.039
397.945
397.854
397.764
397.676
397.589
397.502
397.415
397.33
397.245
397.161
397.077
396.994
396.913
396.834
396.757
396.679
396.6
396.521
396.441
396.362
396.282
396.203
396.125
396.047
395.97
395.893
395.818
395.744
395.671
395.6
395.53
395.462
395.396
395.337
395.532
395.656
395.752
395.831
395.899
395.959
396.013
396.062
396.107
396.148
400
400
400
400
400
400
400
400
400
399.996
399.79
399.627
399.482
399.348
399.221
399.099
398.98
398.866
398.754
398.645
398.539
398.435
398.333
398.233
398.135
398.039
397.945
397.853
397.763
397.675
397.588
397.502
397.415
397.33
397.245
397.161
397.078
396.995
396.915
396.836
396.758
396.68
396.6
396.521
396.441
396.362
396.282
396.204
396.125
396.047
395.97
395.894
395.819
395.745
395.672
395.6
395.531
395.463
395.396
395.337
395.531
395.657
395.752
395.831
395.899
395.959
396.013
396.062
396.108
396.148
400
400
400
400
400
400
400
400
400
399.996
399.79
399.627
399.483
399.349
399.222
399.099
398.981
398.867
398.755
398.646
398.54
398.436
398.334
398.234
398.136
398.04
397.945
397.853
397.763
397.674
397.588
397.502
397.416
397.331
397.247
397.163
397.08
396.998
396.918
396.84
396.761
396.681
396.601
396.521
396.442
396.362
396.283
396.204
396.126
396.048
395.971
395.895
395.82
395.746
395.673
395.602
395.531
395.463
395.396
395.337
395.532
395.657
395.753
395.832
395.9
395.96
396.014
396.064
396.109
396.15
400
400
400
400
400
400
400
400
400
399.996
399.79
399.627
399.483
399.349
399.222
399.1
398.983
398.868
398.757
398.648
398.541
398.437
398.335
398.235
398.137
398.041
397.946
397.853
397.763
397.674
397.588
397.502
397.418
397.333
397.25
397.166
397.084
397.003
396.923
396.843
396.763
396.683
396.603
396.522
396.443
396.363
396.284
396.205
396.127
396.05
395.973
395.897
395.821
395.747
395.674
395.603
395.533
395.464
395.397
395.336
395.532
395.658
395.754
395.833
395.901
395.961
396.016
396.065
396.11
396.151
400
400
400
400
400
400
400
400
400
399.996
399.79
399.628
399.484
399.35
399.223
399.101
398.984
398.869
398.758
398.649
398.543
398.439
398.336
398.236
398.138
398.042
397.947
397.854
397.763
397.674
397.588
397.503
397.419
397.336
397.253
397.17
397.088
397.007
396.927
396.847
396.766
396.685
396.604
396.524
396.444
396.364
396.285
396.207
396.129
396.051
395.974
395.898
395.823
395.749
395.676
395.604
395.534
395.465
395.398
395.337
395.533
395.659
395.755
395.834
395.903
395.963
396.017
396.067
396.112
396.153
400
400
400
400
400
400
400
400
400
399.996
399.791
399.628
399.484
399.351
399.224
399.102
398.985
398.87
398.759
398.65
398.544
398.44
398.338
398.238
398.14
398.043
397.948
397.855
397.764
397.675
397.589
397.504
397.421
397.339
397.256
397.174
397.093
397.012
396.93
396.849
396.768
396.687
396.606
396.525
396.445
396.365
396.286
396.208
396.13
396.052
395.976
395.9
395.825
395.75
395.677
395.606
395.535
395.466
395.398
395.338
395.534
395.66
395.756
395.836
395.904
395.965
396.019
396.068
396.114
396.155
400
400
400
400
400
400
400
400
400
399.996
399.791
399.628
399.485
399.351
399.225
399.103
398.986
398.872
398.761
398.652
398.546
398.442
398.34
398.24
398.141
398.045
397.95
397.857
397.766
397.677
397.59
397.506
397.423
397.341
397.26
397.178
397.096
397.015
396.933
396.851
396.77
396.688
396.607
396.526
396.446
396.367
396.288
396.209
396.131
396.054
395.977
395.901
395.826
395.752
395.679
395.607
395.536
395.467
395.399
395.338
395.534
395.661
395.757
395.837
395.905
395.966
396.02
396.07
396.115
396.156
400
400
400
400
400
400
400
400
400
399.996
399.791
399.628
399.485
399.352
399.226
399.104
398.987
398.873
398.762
398.654
398.548
398.444
398.342
398.242
398.143
398.047
397.952
397.859
397.768
397.679
397.592
397.508
397.426
397.345
397.263
397.181
397.1
397.018
396.935
396.853
396.771
396.689
396.608
396.527
396.447
396.368
396.289
396.21
396.133
396.055
395.979
395.903
395.828
395.754
395.68
395.609
395.538
395.468
395.4
395.339
395.536
395.662
395.759
395.838
395.907
395.968
396.022
396.072
396.117
396.158
400
400
400
400
400
400
400
400
400
399.996
399.791
399.628
399.485
399.353
399.227
399.106
398.988
398.875
398.764
398.655
398.549
398.445
398.344
398.244
398.145
398.049
397.954
397.861
397.77
397.681
397.595
397.511
397.429
397.348
397.266
397.184
397.102
397.02
396.937
396.855
396.773
396.691
396.609
396.529
396.449
396.369
396.29
396.212
396.134
396.057
395.98
395.905
395.83
395.755
395.682
395.61
395.539
395.47
395.401
395.34
395.537
395.663
395.76
395.84
395.909
395.969
396.024
396.074
396.119
396.16
400
400
400
400
400
400
400
400
400
399.996
399.791
399.629
399.486
399.353
399.228
399.107
398.99
398.876
398.766
398.657
398.551
398.448
398.346
398.246
398.148
398.052
397.957
397.864
397.773
397.684
397.598
397.514
397.433
397.351
397.269
397.187
397.105
397.022
396.939
396.856
396.774
396.692
396.611
396.53
396.45
396.371
396.292
396.214
396.136
396.059
395.982
395.906
395.831
395.757
395.684
395.612
395.541
395.471
395.403
395.341
395.538
395.665
395.762
395.841
395.91
395.971
396.025
396.075
396.121
396.162
400
400
400
400
400
400
400
400
400
399.996
399.791
399.629
399.486
399.354
399.228
399.108
398.991
398.878
398.767
398.659
398.554
398.45
398.348
398.249
398.151
398.054
397.96
397.867
397.776
397.687
397.601
397.518
397.436
397.354
397.272
397.189
397.106
397.023
396.94
396.858
396.775
396.694
396.612
396.532
396.452
396.372
396.294
396.215
396.137
396.06
395.984
395.908
395.833
395.759
395.686
395.613
395.542
395.472
395.404
395.342
395.539
395.666
395.762
395.842
395.911
395.972
396.026
396.076
396.121
396.163
400
400
400
400
400
400
400
400
400
399.996
399.791
399.629
399.487
399.354
399.229
399.109
398.993
398.879
398.769
398.661
398.556
398.452
398.351
398.251
398.153
398.057
397.963
397.87
397.779
397.691
397.605
397.521
397.439
397.357
397.274
397.191
397.108
397.025
396.942
396.859
396.776
396.695
396.613
396.533
396.453
396.373
396.294
396.216
396.138
396.061
395.985
395.909
395.834
395.759
395.686
395.613
395.542
395.472
395.403
395.341
395.538
395.665
395.761
395.841
395.91
395.97
396.025
396.074
396.12
396.161
400
400
400
400
400
400
400
400
400
399.996
399.791
399.629
399.487
399.355
399.23
399.11
398.994
398.881
398.771
398.663
398.558
398.455
398.353
398.254
398.156
398.06
397.965
397.873
397.782
397.694
397.608
397.524
397.441
397.358
397.275
397.192
397.108
397.024
396.941
396.858
396.775
396.694
396.612
396.531
396.451
396.372
396.292
396.214
396.136
396.058
395.982
395.905
395.83
395.755
395.681
395.609
395.537
395.466
395.396
395.334
395.531
395.658
395.754
395.834
395.902
395.963
396.017
396.066
396.112
396.152
400
400
400
400
400
400
400
400
400
399.996
399.791
399.629
399.487
399.355
399.23
399.111
398.995
398.882
398.772
398.665
398.56
398.456
398.355
398.255
398.157
398.061
397.967
397.874
397.783
397.695
397.608
397.524
397.44
397.357
397.273
397.188
397.104
397.02
396.936
396.852
396.769
396.687
396.605
396.524
396.443
396.363
396.283
396.204
396.125
396.047
395.969
395.892
395.816
395.74
395.666
395.592
395.519
395.447
395.376
395.313
395.51
395.637
395.733
395.812
395.88
395.94
395.994
396.043
396.088
396.128
400
400
400
400
400
400
400
400
400
399.996
399.79
399.629
399.486
399.355
399.23
399.11
398.994
398.882
398.772
398.664
398.559
398.455
398.353
398.253
398.155
398.058
397.963
397.87
397.778
397.689
397.601
397.516
397.431
397.346
397.26
397.174
397.089
397.003
396.918
396.833
396.749
396.665
396.582
396.499
396.417
396.335
396.253
396.173
396.092
396.012
395.933
395.854
395.776
395.699
395.622
395.546
395.471
395.397
395.324
395.259
395.456
395.582
395.678
395.756
395.823
395.883
395.936
395.984
396.027
396.067
400
400
400
400
400
400
400
400
400
399.996
399.79
399.628
399.485
399.353
399.228
399.108
398.991
398.878
398.767
398.658
398.551
398.446
398.343
398.242
398.142
398.043
397.946
397.851
397.757
397.665
397.575
397.487
397.399
397.311
397.222
397.133
397.045
396.956
396.868
396.78
396.692
396.605
396.519
396.433
396.347
396.261
396.176
396.092
396.008
395.924
395.841
395.758
395.676
395.595
395.514
395.433
395.354
395.275
395.198
395.129
395.327
395.452
395.547
395.624
395.69
395.748
395.8
395.847
395.889
395.927
400
400
400
400
400
400
400
400
400
399.996
399.788
399.624
399.48
399.346
399.218
399.095
398.976
398.86
398.745
398.633
398.523
398.414
398.306
398.2
398.095
397.992
397.89
397.789
397.69
397.593
397.497
397.403
397.308
397.213
397.118
397.023
396.928
396.833
396.738
396.643
396.548
396.454
396.361
396.267
396.174
396.081
395.989
395.897
395.805
395.714
395.623
395.532
395.442
395.352
395.263
395.175
395.087
395
394.915
394.838
395.039
395.165
395.26
395.336
395.402
395.459
395.51
395.556
395.597
395.634
400
400
400
400
400
400
400
400
400
399.996
399.781
399.613
399.462
399.321
399.187
399.056
398.929
398.803
398.68
398.558
398.437
398.318
398.199
398.082
397.966
397.851
397.737
397.624
397.513
397.403
397.295
397.187
397.079
396.971
396.863
396.754
396.646
396.537
396.429
396.32
396.213
396.105
395.998
395.891
395.784
395.678
395.572
395.466
395.361
395.256
395.152
395.048
394.944
394.842
394.739
394.638
394.537
394.437
394.339
394.25
394.466
394.6
394.701
394.784
394.855
394.918
394.974
395.025
395.071
395.112
400
400
400
400
400
400
400
400
400
399.995
399.761
399.571
399.402
399.241
399.087
398.935
398.787
398.64
398.494
398.35
398.207
398.065
397.923
397.783
397.644
397.506
397.369
397.233
397.099
396.967
396.836
396.706
396.576
396.447
396.317
396.187
396.057
395.928
395.799
395.671
395.543
395.416
395.29
395.164
395.039
394.915
394.791
394.669
394.547
394.425
394.305
394.185
394.066
393.947
393.83
393.714
393.599
393.485
393.373
393.276
393.545
393.72
393.856
393.971
394.072
394.161
394.242
394.316
394.383
394.442
400
400
400
400
400
400
400
400
400
399.992
399.683
399.443
399.231
399.032
398.84
398.654
398.471
398.291
398.113
397.937
397.763
397.591
397.42
397.251
397.084
396.918
396.755
396.595
396.437
396.281
396.128
395.977
395.827
395.677
395.528
395.38
395.233
395.087
394.942
394.798
394.656
394.516
394.376
394.238
394.102
393.966
393.832
393.699
393.568
393.437
393.308
393.18
393.053
392.927
392.803
392.679
392.558
392.438
392.321
392.232
392.68
392.964
393.181
393.359
393.511
393.644
393.761
393.864
393.956
394.034
400
400
400
400
400
400
400
400
400
399.995
399.759
399.538
399.332
399.136
398.946
398.761
398.58
398.401
398.224
398.049
397.877
397.705
397.536
397.367
397.201
397.035
396.872
396.709
396.549
396.39
396.233
396.078
395.924
395.773
395.624
395.477
395.332
395.188
395.046
394.905
394.763
394.622
394.481
394.341
394.202
394.065
393.929
393.794
393.661
393.53
393.399
393.271
393.145
393.02
392.898
392.777
392.658
392.542
392.426
392.333
392.7
392.969
393.182
393.359
393.51
393.642
393.759
393.863
393.955
394.034
400
400
400
400
400
400
400
400
400
399.997
399.828
399.662
399.502
399.348
399.197
399.049
398.904
398.76
398.617
398.475
398.335
398.195
398.056
397.918
397.78
397.643
397.507
397.372
397.237
397.103
396.97
396.837
396.706
396.576
396.446
396.318
396.19
396.064
395.938
395.812
395.685
395.558
395.432
395.305
395.179
395.053
394.928
394.804
394.681
394.56
394.439
394.319
394.2
394.083
393.967
393.853
393.74
393.629
393.519
393.422
393.608
393.759
393.885
393.994
394.09
394.176
394.255
394.327
394.392
394.451
400
400
400
400
400
400
400
400
400
399.998
399.845
399.697
399.556
399.422
399.291
399.164
399.039
398.917
398.796
398.677
398.559
398.442
398.326
398.211
398.097
397.983
397.87
397.758
397.647
397.536
397.426
397.316
397.207
397.099
396.992
396.885
396.779
396.674
396.569
396.463
396.357
396.25
396.143
396.035
395.928
395.821
395.715
395.609
395.504
395.399
395.295
395.191
395.089
394.987
394.887
394.787
394.69
394.593
394.498
394.411
394.547
394.658
394.749
394.825
394.892
394.952
395.005
395.054
395.098
395.138
400
400
400
400
400
400
400
400
400
399.998
399.849
399.706
399.57
399.442
399.318
399.198
399.082
398.968
398.857
398.747
398.639
398.532
398.427
398.323
398.22
398.118
398.017
397.917
397.818
397.719
397.622
397.525
397.429
397.334
397.24
397.147
397.055
396.963
396.871
396.779
396.687
396.593
396.5
396.406
396.313
396.22
396.127
396.035
395.943
395.852
395.762
395.672
395.583
395.495
395.408
395.322
395.237
395.154
395.072
394.998
395.123
395.226
395.31
395.381
395.442
395.496
395.544
395.588
395.627
395.663
400
400
400
400
400
400
400
400
400
399.998
399.85
399.707
399.573
399.446
399.325
399.208
399.094
398.983
398.875
398.768
398.664
398.562
398.461
398.361
398.263
398.165
398.069
397.975
397.881
397.788
397.696
397.605
397.515
397.427
397.339
397.252
397.167
397.082
396.997
396.912
396.826
396.74
396.654
396.567
396.481
396.395
396.31
396.226
396.142
396.058
395.976
395.894
395.813
395.733
395.654
395.576
395.5
395.425
395.352
395.287
395.41
395.511
395.596
395.667
395.729
395.784
395.833
395.877
395.918
395.955
400
400
400
400
400
400
400
400
400
399.998
399.849
399.707
399.573
399.446
399.325
399.208
399.095
398.985
398.877
398.772
398.669
398.568
398.468
398.37
398.273
398.178
398.084
397.991
397.9
397.809
397.72
397.631
397.544
397.458
397.374
397.29
397.208
397.127
397.045
396.963
396.88
396.797
396.714
396.631
396.548
396.466
396.385
396.304
396.223
396.144
396.065
395.987
395.91
395.835
395.76
395.687
395.615
395.545
395.477
395.415
395.538
395.64
395.725
395.797
395.86
395.916
395.967
396.013
396.055
396.093
400
400
400
400
400
400
400
400
400
399.998
399.849
399.706
399.572
399.445
399.324
399.207
399.094
398.984
398.876
398.771
398.669
398.568
398.468
398.371
398.275
398.18
398.087
397.995
397.904
397.814
397.726
397.638
397.553
397.468
397.385
397.303
397.222
397.142
397.062
396.982
396.9
396.818
396.736
396.654
396.573
396.493
396.413
396.333
396.255
396.177
396.1