/*--------------------------------*- C++ -*----------------------------------*\
  =========                 |
  \\      /  F ield         | OpenFOAM: The Open Source CFD Toolbox
   \\    /   O peration     | Website:  https://openfoam.org
    \\  /    A nd           | Version:  12
     \\/     M anipulation  |
\*---------------------------------------------------------------------------*/
FoamFile
{
    format      ascii;
    class       volScalarField;
    location    "900/porous";
    object      rho;
}
// * * * * * * * * * * * * * * * * * * * * * * * * * * * * * * * * * * * * * //

dimensions      [1 -3 0 0 0 0 0];

internalField   nonuniform List<scalar> 
140000
(
933.891
933.891
933.891
933.891
933.891
933.891
933.891
933.891
933.892
933.898
934.187
934.412
934.611
934.797
934.976
935.149
935.318
935.484
935.648
935.809
935.968
936.126
936.282
936.437
936.59
936.741
936.892
937.04
937.187
937.332
937.475
937.617
937.757
937.895
938.031
938.164
938.297
938.428
938.557
938.686
938.814
938.942
939.069
939.195
939.32
939.444
939.566
939.687
939.806
939.923
940.039
940.154
940.266
940.377
940.485
940.591
940.695
940.795
940.893
940.964
940.567
940.314
940.118
939.956
939.817
939.693
939.583
939.483
939.392
939.312
933.891
933.891
933.891
933.891
933.891
933.891
933.891
933.891
933.891
933.896
934.117
934.295
934.454
934.605
934.749
934.89
935.028
935.164
935.298
935.431
935.562
935.692
935.822
935.95
936.078
936.205
936.332
936.457
936.581
936.705
936.828
936.95
937.071
937.192
937.311
937.429
937.546
937.663
937.779
937.895
938.011
938.127
938.242
938.357
938.472
938.586
938.698
938.81
938.921
939.031
939.14
939.248
939.354
939.459
939.562
939.663
939.763
939.86
939.956
940.033
939.795
939.64
939.517
939.413
939.321
939.239
939.164
939.094
939.03
938.972
933.891
933.891
933.891
933.891
933.891
933.891
933.891
933.891
933.891
933.895
934.099
934.259
934.401
934.533
934.659
934.78
934.899
935.015
935.129
935.241
935.352
935.462
935.57
935.678
935.785
935.891
935.996
936.1
936.204
936.307
936.41
936.512
936.613
936.713
936.813
936.912
937.01
937.108
937.206
937.304
937.403
937.501
937.6
937.698
937.796
937.894
937.991
938.087
938.183
938.278
938.373
938.466
938.559
938.651
938.741
938.83
938.917
939.003
939.086
939.158
938.968
938.849
938.758
938.683
938.618
938.561
938.51
938.462
938.419
938.381
933.891
933.891
933.891
933.891
933.891
933.891
933.891
933.891
933.891
933.895
934.094
934.25
934.387
934.513
934.632
934.747
934.857
934.965
935.071
935.174
935.276
935.376
935.474
935.572
935.668
935.763
935.858
935.951
936.044
936.135
936.226
936.316
936.406
936.494
936.582
936.669
936.755
936.841
936.926
937.012
937.098
937.184
937.271
937.357
937.443
937.528
937.613
937.697
937.781
937.864
937.946
938.028
938.108
938.188
938.266
938.343
938.419
938.493
938.565
938.627
938.449
938.337
938.252
938.183
938.124
938.072
938.026
937.984
937.947
937.912
933.891
933.891
933.891
933.891
933.891
933.891
933.891
933.891
933.891
933.895
934.093
934.248
934.383
934.508
934.625
934.738
934.846
934.951
935.053
935.153
935.251
935.348
935.442
935.536
935.628
935.719
935.808
935.897
935.984
936.071
936.157
936.241
936.325
936.408
936.49
936.571
936.651
936.73
936.809
936.889
936.969
937.048
937.128
937.208
937.287
937.366
937.443
937.521
937.598
937.674
937.749
937.823
937.896
937.969
938.04
938.11
938.178
938.244
938.308
938.363
938.188
938.076
937.991
937.921
937.862
937.809
937.763
937.72
937.682
937.647
933.891
933.891
933.891
933.891
933.891
933.891
933.891
933.891
933.891
933.895
934.094
934.248
934.384
934.508
934.625
934.737
934.845
934.949
935.051
935.15
935.247
935.342
935.435
935.527
935.617
935.707
935.794
935.881
935.967
936.051
936.135
936.217
936.298
936.379
936.458
936.536
936.613
936.689
936.766
936.842
936.919
936.996
937.073
937.149
937.225
937.301
937.375
937.449
937.522
937.595
937.666
937.737
937.807
937.875
937.942
938.008
938.072
938.134
938.194
938.245
938.07
937.958
937.873
937.802
937.741
937.687
937.639
937.596
937.556
937.52
933.891
933.891
933.891
933.891
933.891
933.891
933.891
933.891
933.891
933.895
934.094
934.249
934.384
934.509
934.626
934.738
934.846
934.95
935.052
935.151
935.247
935.342
935.435
935.527
935.617
935.705
935.792
935.879
935.963
936.047
936.13
936.211
936.291
936.37
936.448
936.525
936.601
936.676
936.751
936.827
936.902
936.978
937.054
937.129
937.203
937.277
937.35
937.423
937.494
937.565
937.635
937.704
937.772
937.838
937.903
937.967
938.029
938.089
938.147
938.195
938.021
937.908
937.822
937.751
937.69
937.635
937.586
937.542
937.501
937.464
933.891
933.891
933.891
933.891
933.891
933.891
933.891
933.891
933.891
933.895
934.094
934.25
934.385
934.51
934.628
934.74
934.848
934.952
935.054
935.153
935.25
935.345
935.438
935.529
935.619
935.708
935.795
935.881
935.965
936.049
936.131
936.212
936.292
936.37
936.448
936.524
936.599
936.673
936.748
936.823
936.898
936.974
937.049
937.123
937.197
937.27
937.343
937.415
937.486
937.556
937.625
937.693
937.76
937.826
937.89
937.953
938.013
938.072
938.129
938.176
938.002
937.889
937.803
937.731
937.669
937.615
937.565
937.52
937.479
937.442
933.891
933.891
933.891
933.891
933.891
933.891
933.891
933.891
933.891
933.895
934.095
934.25
934.386
934.511
934.629
934.741
934.85
934.954
935.056
935.155
935.252
935.347
935.441
935.532
935.622
935.711
935.798
935.884
935.968
936.052
936.134
936.215
936.294
936.372
936.449
936.525
936.6
936.674
936.748
936.823
936.899
936.974
937.049
937.123
937.197
937.27
937.342
937.414
937.484
937.554
937.623
937.691
937.758
937.823
937.887
937.949
938.009
938.067
938.123
938.17
937.996
937.883
937.797
937.725
937.663
937.608
937.558
937.513
937.472
937.434
933.891
933.891
933.891
933.891
933.891
933.891
933.891
933.891
933.891
933.895
934.095
934.251
934.387
934.512
934.63
934.743
934.851
934.956
935.058
935.158
935.255
935.35
935.443
935.535
935.625
935.713
935.801
935.887
935.971
936.055
936.137
936.217
936.297
936.375
936.451
936.527
936.601
936.675
936.75
936.825
936.9
936.976
937.05
937.125
937.198
937.271
937.344
937.415
937.486
937.555
937.624
937.692
937.759
937.824
937.887
937.949
938.009
938.067
938.123
938.169
937.995
937.882
937.795
937.724
937.661
937.606
937.557
937.512
937.47
937.432
933.891
933.891
933.891
933.891
933.891
933.891
933.891
933.891
933.891
933.895
934.095
934.251
934.387
934.512
934.63
934.743
934.852
934.957
935.059
935.159
935.256
935.352
935.445
935.537
935.627
935.716
935.803
935.889
935.974
936.057
936.139
936.22
936.299
936.376
936.453
936.528
936.602
936.676
936.751
936.826
936.902
936.977
937.052
937.126
937.2
937.273
937.345
937.417
937.487
937.557
937.626
937.694
937.76
937.825
937.889
937.951
938.011
938.069
938.124
938.17
937.996
937.883
937.796
937.724
937.662
937.607
937.557
937.512
937.471
937.433
933.891
933.891
933.891
933.891
933.891
933.891
933.891
933.891
933.891
933.895
934.095
934.251
934.387
934.513
934.631
934.744
934.853
934.958
935.061
935.16
935.258
935.353
935.447
935.538
935.629
935.717
935.805
935.891
935.975
936.059
936.141
936.221
936.3
936.377
936.453
936.528
936.603
936.677
936.752
936.827
936.903
936.978
937.053
937.128
937.201
937.274
937.347
937.418
937.489
937.559
937.628
937.695
937.762
937.827
937.891
937.953
938.012
938.07
938.125
938.171
937.997
937.884
937.798
937.726
937.663
937.608
937.559
937.513
937.472
937.434
933.891
933.891
933.891
933.891
933.891
933.891
933.891
933.891
933.891
933.895
934.095
934.251
934.387
934.513
934.631
934.744
934.853
934.959
935.061
935.161
935.258
935.354
935.448
935.539
935.63
935.718
935.806
935.892
935.976
936.06
936.141
936.222
936.3
936.377
936.453
936.528
936.602
936.677
936.752
936.827
936.903
936.979
937.054
937.128
937.202
937.275
937.347
937.419
937.49
937.56
937.629
937.696
937.763
937.828
937.892
937.954
938.014
938.071
938.126
938.172
937.998
937.885
937.799
937.727
937.664
937.609
937.56
937.515
937.473
937.435
933.891
933.891
933.891
933.891
933.891
933.891
933.891
933.891
933.891
933.895
934.095
934.251
934.387
934.512
934.631
934.744
934.853
934.959
935.061
935.161
935.259
935.354
935.448
935.54
935.63
935.719
935.806
935.892
935.977
936.06
936.141
936.221
936.3
936.376
936.452
936.527
936.601
936.676
936.751
936.827
936.903
936.978
937.053
937.128
937.202
937.275
937.347
937.419
937.49
937.56
937.629
937.697
937.764
937.829
937.893
937.955
938.015
938.072
938.127
938.173
937.999
937.886
937.799
937.728
937.665
937.61
937.561
937.516
937.474
937.436
933.891
933.891
933.891
933.891
933.891
933.891
933.891
933.891
933.891
933.895
934.095
934.25
934.387
934.512
934.63
934.744
934.853
934.958
935.061
935.161
935.259
935.354
935.448
935.54
935.63
935.719
935.806
935.892
935.976
936.059
936.14
936.22
936.298
936.375
936.45
936.525
936.6
936.675
936.75
936.826
936.902
936.977
937.052
937.127
937.201
937.274
937.347
937.418
937.489
937.56
937.629
937.697
937.764
937.829
937.893
937.955
938.015
938.073
938.127
938.173
937.999
937.887
937.8
937.728
937.666
937.611
937.562
937.516
937.475
937.437
933.891
933.891
933.891
933.891
933.891
933.891
933.891
933.891
933.891
933.895
934.094
934.25
934.385
934.511
934.63
934.743
934.852
934.958
935.06
935.161
935.258
935.354
935.447
935.539
935.629
935.718
935.805
935.891
935.975
936.058
936.139
936.218
936.296
936.372
936.448
936.523
936.598
936.673
936.748
936.824
936.9
936.976
937.051
937.126
937.2
937.273
937.346
937.417
937.489
937.559
937.628
937.696
937.763
937.829
937.893
937.955
938.015
938.073
938.127
938.173
937.999
937.887
937.8
937.729
937.667
937.612
937.562
937.517
937.476
937.438
933.891
933.891
933.891
933.891
933.891
933.891
933.891
933.891
933.891
933.895
934.094
934.25
934.385
934.51
934.629
934.742
934.851
934.957
935.06
935.16
935.258
935.353
935.447
935.538
935.628
935.717
935.804
935.889
935.973
936.056
936.136
936.215
936.293
936.369
936.445
936.521
936.596
936.671
936.747
936.822
936.898
936.974
937.049
937.124
937.198
937.271
937.344
937.416
937.487
937.558
937.627
937.696
937.763
937.828
937.893
937.955
938.015
938.073
938.128
938.173
938
937.887
937.801
937.729
937.667
937.612
937.563
937.518
937.477
937.439
933.891
933.891
933.891
933.891
933.891
933.891
933.891
933.891
933.891
933.895
934.093
934.248
934.384
934.509
934.628
934.741
934.85
934.956
935.059
935.159
935.257
935.352
935.446
935.537
935.627
935.715
935.802
935.887
935.971
936.053
936.133
936.212
936.289
936.366
936.443
936.519
936.595
936.67
936.745
936.82
936.896
936.972
937.047
937.122
937.196
937.269
937.342
937.414
937.486
937.556
937.626
937.694
937.762
937.828
937.892
937.954
938.015
938.073
938.127
938.173
937.999
937.887
937.801
937.729
937.667
937.613
937.563
937.518
937.477
937.44
933.891
933.891
933.891
933.891
933.891
933.891
933.891
933.891
933.891
933.895
934.093
934.248
934.383
934.508
934.626
934.74
934.849
934.955
935.058
935.158
935.256
935.351
935.445
935.536
935.626
935.714
935.801
935.885
935.969
936.05
936.13
936.208
936.286
936.364
936.441
936.518
936.593
936.668
936.743
936.819
936.894
936.97
937.045
937.119
937.194
937.267
937.34
937.413
937.484
937.555
937.624
937.693
937.761
937.827
937.891
937.954
938.014
938.072
938.127
938.173
937.999
937.887
937.801
937.729
937.667
937.613
937.564
937.519
937.478
937.44
933.891
933.891
933.891
933.891
933.891
933.891
933.891
933.891
933.891
933.895
934.093
934.247
934.383
934.507
934.626
934.739
934.848
934.954
935.057
935.157
935.255
935.35
935.444
935.535
935.625
935.713
935.799
935.884
935.966
936.048
936.127
936.205
936.284
936.362
936.44
936.517
936.593
936.668
936.742
936.817
936.892
936.968
937.043
937.117
937.192
937.265
937.338
937.411
937.482
937.553
937.623
937.691
937.759
937.825
937.89
937.953
938.013
938.071
938.126
938.172
937.999
937.886
937.8
937.729
937.667
937.613
937.563
937.519
937.478
937.44
933.891
933.891
933.891
933.891
933.891
933.891
933.891
933.891
933.891
933.895
934.092
934.245
934.38
934.506
934.624
934.737
934.847
934.953
935.056
935.156
935.254
935.349
935.443
935.534
935.624
935.712
935.798
935.882
935.964
936.045
936.125
936.203
936.282
936.361
936.439
936.516
936.593
936.668
936.742
936.816
936.891
936.966
937.041
937.115
937.189
937.263
937.336
937.408
937.48
937.551
937.621
937.69
937.757
937.824
937.888
937.951
938.012
938.07
938.125
938.171
937.998
937.886
937.8
937.728
937.667
937.612
937.563
937.518
937.477
937.44
933.891
933.891
933.891
933.891
933.891
933.891
933.891
933.891
933.891
933.895
934.092
934.245
934.38
934.505
934.623
934.736
934.846
934.952
935.055
935.155
935.253
935.349
935.442
935.534
935.623
935.711
935.797
935.881
935.963
936.044
936.123
936.202
936.282
936.361
936.439
936.516
936.593
936.668
936.742
936.816
936.89
936.965
937.039
937.114
937.188
937.261
937.334
937.406
937.478
937.549
937.619
937.688
937.756
937.822
937.887
937.95
938.011
938.069
938.124
938.17
937.997
937.885
937.799
937.727
937.666
937.611
937.562
937.518
937.477
937.44
933.891
933.891
933.891
933.891
933.891
933.891
933.891
933.891
933.891
933.895
934.09
934.244
934.379
934.504
934.622
934.735
934.845
934.951
935.054
935.154
935.252
935.348
935.442
935.533
935.623
935.711
935.796
935.88
935.962
936.043
936.123
936.202
936.282
936.361
936.439
936.517
936.594
936.669
936.743
936.817
936.89
936.964
937.038
937.112
937.186
937.259
937.332
937.405
937.476
937.547
937.617
937.686
937.754
937.82
937.885
937.949
938.01
938.068
938.124
938.17
937.996
937.884
937.798
937.727
937.665
937.611
937.562
937.517
937.477
937.439
933.891
933.891
933.891
933.891
933.891
933.891
933.891
933.891
933.891
933.895
934.09
934.243
934.377
934.502
934.62
934.734
934.843
934.95
935.053
935.153
935.252
935.348
935.441
935.533
935.623
935.711
935.796
935.88
935.962
936.043
936.123
936.203
936.282
936.362
936.44
936.518
936.594
936.67
936.744
936.817
936.89
936.964
937.038
937.111
937.185
937.258
937.331
937.403
937.475
937.546
937.616
937.685
937.753
937.819
937.884
937.948
938.009
938.067
938.123
938.17
937.996
937.884
937.798
937.727
937.665
937.611
937.562
937.517
937.476
937.439
933.891
933.891
933.891
933.891
933.891
933.891
933.891
933.891
933.891
933.895
934.09
934.243
934.377
934.502
934.62
934.733
934.843
934.949
935.052
935.153
935.251
935.347
935.441
935.533
935.623
935.711
935.797
935.881
935.963
936.044
936.124
936.204
936.283
936.363
936.441
936.519
936.595
936.671
936.745
936.818
936.891
936.964
937.037
937.111
937.184
937.257
937.33
937.402
937.474
937.545
937.615
937.684
937.752
937.818
937.883
937.947
938.008
938.067
938.123
938.169
937.996
937.884
937.798
937.727
937.665
937.611
937.562
937.517
937.476
937.439
933.891
933.891
933.891
933.891
933.891
933.891
933.891
933.891
933.891
933.895
934.088
934.24
934.375
934.5
934.618
934.732
934.841
934.948
935.051
935.152
935.25
935.347
935.441
935.533
935.623
935.711
935.797
935.881
935.964
936.044
936.125
936.205
936.284
936.364
936.442
936.52
936.596
936.671
936.745
936.818
936.891
936.964
937.037
937.11
937.184
937.257
937.329
937.401
937.473
937.544
937.614
937.683
937.751
937.818
937.883
937.946
938.008
938.068
938.124
938.172
937.998
937.885
937.799
937.728
937.666
937.612
937.563
937.518
937.477
937.44
933.891
933.891
933.891
933.891
933.891
933.891
933.891
933.891
933.891
933.895
934.088
934.24
934.375
934.499
934.618
934.731
934.841
934.947
935.051
935.151
935.25
935.346
935.44
935.533
935.623
935.711
935.798
935.882
935.965
936.046
936.126
936.206
936.285
936.364
936.443
936.52
936.597
936.672
936.746
936.819
936.891
936.964
937.037
937.11
937.183
937.256
937.329
937.401
937.473
937.543
937.613
937.683
937.751
937.817
937.883
937.946
938.008
938.068
938.125
938.172
937.998
937.886
937.8
937.728
937.667
937.612
937.563
937.519
937.478
937.441
933.891
933.891
933.891
933.891
933.891
933.891
933.891
933.891
933.891
933.895
934.088
934.24
934.374
934.498
934.617
934.73
934.84
934.946
935.05
935.151
935.249
935.346
935.44
935.533
935.623
935.711
935.798
935.883
935.966
936.047
936.127
936.207
936.286
936.365
936.444
936.521
936.597
936.672
936.746
936.819
936.891
936.964
937.037
937.111
937.184
937.257
937.329
937.401
937.473
937.543
937.614
937.683
937.751
937.818
937.883
937.947
938.009
938.069
938.126
938.175
938
937.888
937.801
937.73
937.668
937.614
937.565
937.52
937.479
937.442
933.891
933.891
933.891
933.891
933.891
933.891
933.891
933.891
933.891
933.895
934.087
934.239
934.373
934.498
934.616
934.729
934.839
934.945
935.049
935.15
935.249
935.345
935.44
935.532
935.623
935.712
935.799
935.884
935.967
936.048
936.128
936.208
936.287
936.366
936.444
936.521
936.597
936.672
936.745
936.818
936.891
936.965
937.038
937.111
937.184
937.257
937.33
937.402
937.473
937.544
937.614
937.683
937.752
937.819
937.884
937.948
938.01
938.071
938.128
938.178
938.003
937.89
937.803
937.732
937.67
937.615
937.566
937.521
937.48
937.443
933.891
933.891
933.891
933.891
933.891
933.891
933.891
933.891
933.891
933.895
934.087
934.239
934.373
934.497
934.615
934.729
934.838
934.945
935.048
935.15
935.248
935.345
935.439
935.532
935.623
935.712
935.799
935.884
935.968
936.049
936.129
936.209
936.287
936.366
936.444
936.521
936.597
936.671
936.745
936.818
936.892
936.965
937.039
937.112
937.186
937.258
937.331
937.403
937.474
937.545
937.615
937.684
937.753
937.82
937.886
937.95
938.012
938.072
938.13
938.18
938.005
937.892
937.805
937.733
937.672
937.617
937.568
937.523
937.482
937.445
933.891
933.891
933.891
933.891
933.891
933.891
933.891
933.891
933.891
933.895
934.087
934.239
934.373
934.497
934.615
934.728
934.838
934.944
935.048
935.149
935.248
935.344
935.439
935.532
935.623
935.712
935.799
935.885
935.969
936.051
936.131
936.21
936.288
936.366
936.444
936.521
936.596
936.67
936.744
936.818
936.892
936.966
937.04
937.114
937.187
937.26
937.332
937.404
937.476
937.546
937.616
937.686
937.754
937.821
937.887
937.951
938.014
938.075
938.133
938.184
938.008
937.894
937.808
937.736
937.674
937.619
937.569
937.525
937.483
937.446
933.891
933.891
933.891
933.891
933.891
933.891
933.891
933.891
933.891
933.895
934.087
934.239
934.372
934.496
934.614
934.728
934.837
934.944
935.047
935.148
935.247
935.344
935.438
935.531
935.622
935.712
935.799
935.885
935.969
936.051
936.132
936.211
936.289
936.366
936.444
936.52
936.595
936.669
936.744
936.818
936.893
936.967
937.042
937.115
937.189
937.262
937.334
937.406
937.477
937.548
937.618
937.687
937.755
937.822
937.889
937.953
938.016
938.076
938.135
938.186
938.01
937.896
937.809
937.737
937.675
937.62
937.571
937.526
937.484
937.447
933.891
933.891
933.891
933.891
933.891
933.891
933.891
933.891
933.891
933.895
934.087
934.238
934.372
934.496
934.614
934.727
934.837
934.943
935.046
935.148
935.246
935.343
935.438
935.531
935.622
935.711
935.799
935.885
935.969
936.052
936.132
936.211
936.289
936.366
936.443
936.519
936.594
936.669
936.744
936.819
936.894
936.969
937.043
937.117
937.19
937.263
937.335
937.407
937.478
937.549
937.619
937.688
937.757
937.824
937.89
937.954
938.017
938.079
938.137
938.188
938.012
937.898
937.811
937.739
937.676
937.621
937.572
937.526
937.485
937.447
933.891
933.891
933.891
933.891
933.891
933.891
933.891
933.891
933.891
933.895
934.087
934.238
934.372
934.496
934.613
934.727
934.836
934.942
935.046
935.147
935.245
935.342
935.437
935.53
935.621
935.71
935.798
935.885
935.969
936.052
936.133
936.212
936.289
936.366
936.443
936.518
936.594
936.669
936.744
936.819
936.895
936.97
937.044
937.118
937.192
937.264
937.337
937.408
937.48
937.55
937.62
937.689
937.757
937.825
937.891
937.956
938.018
938.08
938.139
938.191
938.014
937.9
937.812
937.74
937.677
937.622
937.572
937.527
937.485
937.448
933.891
933.891
933.891
933.891
933.891
933.891
933.891
933.891
933.891
933.895
934.087
934.238
934.371
934.495
934.613
934.726
934.835
934.941
935.045
935.146
935.244
935.341
935.436
935.529
935.62
935.71
935.797
935.884
935.969
936.051
936.132
936.211
936.289
936.366
936.442
936.517
936.593
936.668
936.744
936.82
936.895
936.971
937.045
937.119
937.193
937.266
937.338
937.409
937.481
937.551
937.621
937.69
937.758
937.826
937.892
937.956
938.02
938.081
938.14
938.192
938.015
937.9
937.813
937.74
937.678
937.622
937.573
937.527
937.486
937.448
933.891
933.891
933.891
933.891
933.891
933.891
933.891
933.891
933.891
933.895
934.087
934.238
934.371
934.495
934.612
934.725
934.834
934.94
935.044
935.145
935.243
935.34
935.435
935.527
935.619
935.708
935.796
935.883
935.967
936.05
936.131
936.211
936.288
936.365
936.441
936.516
936.592
936.668
936.744
936.82
936.896
936.971
937.046
937.12
937.193
937.266
937.338
937.41
937.481
937.551
937.621
937.69
937.759
937.826
937.892
937.957
938.02
938.082
938.142
938.194
938.016
937.901
937.814
937.741
937.678
937.623
937.573
937.527
937.486
937.448
933.891
933.891
933.891
933.891
933.891
933.891
933.891
933.891
933.891
933.895
934.087
934.238
934.371
934.494
934.612
934.724
934.833
934.939
935.043
935.143
935.242
935.338
935.433
935.526
935.617
935.707
935.795
935.881
935.966
936.049
936.13
936.209
936.287
936.363
936.439
936.515
936.591
936.668
936.744
936.82
936.896
936.971
937.046
937.12
937.193
937.266
937.338
937.41
937.481
937.552
937.621
937.69
937.759
937.826
937.892
937.957
938.021
938.082
938.142
938.195
938.017
937.902
937.814
937.741
937.678
937.623
937.573
937.527
937.485
937.447
933.891
933.891
933.891
933.891
933.891
933.891
933.891
933.891
933.891
933.895
934.087
934.237
934.371
934.494
934.611
934.723
934.832
934.938
935.041
935.142
935.24
935.337
935.431
935.524
935.615
935.705
935.793
935.879
935.964
936.047
936.128
936.207
936.285
936.361
936.438
936.514
936.59
936.667
936.743
936.82
936.896
936.971
937.045
937.12
937.193
937.266
937.338
937.41
937.481
937.551
937.621
937.69
937.758
937.825
937.892
937.957
938.02
938.083
938.143
938.195
938.016
937.902
937.814
937.741
937.678
937.622
937.572
937.526
937.485
937.447
933.891
933.891
933.891
933.891
933.891
933.891
933.891
933.891
933.891
933.895
934.086
934.237
934.37
934.493
934.61
934.723
934.831
934.937
935.04
935.14
935.239
935.335
935.43
935.522
935.614
935.703
935.791
935.877
935.962
936.045
936.126
936.205
936.282
936.359
936.436
936.512
936.589
936.666
936.743
936.819
936.895
936.97
937.045
937.119
937.192
937.265
937.337
937.408
937.479
937.55
937.619
937.689
937.757
937.824
937.891
937.956
938.02
938.082
938.142
938.195
938.016
937.901
937.813
937.74
937.677
937.621
937.571
937.526
937.484
937.446
933.891
933.891
933.891
933.891
933.891
933.891
933.891
933.891
933.891
933.895
934.086
934.237
934.37
934.493
934.609
934.722
934.83
934.936
935.038
935.139
935.237
935.333
935.428
935.52
935.611
935.701
935.788
935.875
935.959
936.042
936.123
936.202
936.28
936.357
936.433
936.51
936.587
936.664
936.741
936.817
936.893
936.968
937.043
937.117
937.19
937.263
937.335
937.407
937.478
937.548
937.618
937.687
937.755
937.822
937.889
937.954
938.018
938.081
938.141
938.194
938.015
937.9
937.812
937.739
937.676
937.62
937.57
937.524
937.482
937.444
933.891
933.891
933.891
933.891
933.891
933.891
933.891
933.891
933.891
933.895
934.086
934.237
934.369
934.492
934.609
934.721
934.829
934.934
935.037
935.137
935.235
935.331
935.425
935.518
935.609
935.698
935.786
935.872
935.957
936.039
936.12
936.199
936.277
936.354
936.431
936.509
936.586
936.663
936.739
936.816
936.891
936.967
937.041
937.115
937.188
937.261
937.333
937.405
937.476
937.546
937.616
937.685
937.753
937.821
937.887
937.953
938.017
938.08
938.14
938.193
938.014
937.899
937.811
937.738
937.675
937.619
937.569
937.524
937.482
937.444
933.891
933.891
933.891
933.891
933.891
933.891
933.891
933.891
933.891
933.895
934.086
934.237
934.369
934.492
934.608
934.719
934.827
934.933
935.035
935.135
935.233
935.329
935.423
935.515
935.606
935.695
935.783
935.869
935.953
936.036
936.117
936.196
936.274
936.352
936.429
936.507
936.584
936.661
936.738
936.814
936.89
936.965
937.04
937.114
937.187
937.26
937.332
937.403
937.474
937.545
937.615
937.684
937.752
937.82
937.887
937.952
938.017
938.08
938.141
938.194
938.015
937.9
937.812
937.739
937.676
937.621
937.571
937.525
937.483
937.445
933.891
933.891
933.891
933.891
933.891
933.891
933.891
933.891
933.891
933.895
934.086
934.236
934.369
934.491
934.607
934.718
934.826
934.931
935.033
935.133
935.231
935.327
935.421
935.513
935.604
935.693
935.78
935.867
935.951
936.033
936.114
936.194
936.272
936.35
936.428
936.506
936.583
936.661
936.737
936.814
936.89
936.965
937.04
937.114
937.187
937.26
937.333
937.405
937.476
937.546
937.617
937.686
937.755
937.823
937.89
937.956
938.021
938.085
938.146
938.2
938.021
937.906
937.818
937.745
937.683
937.627
937.577
937.532
937.49
937.453
933.891
933.891
933.891
933.891
933.891
933.891
933.891
933.891
933.891
933.895
934.086
934.236
934.368
934.49
934.606
934.717
934.825
934.93
935.032
935.131
935.229
935.325
935.419
935.511
935.602
935.691
935.779
935.865
935.95
936.033
936.114
936.194
936.273
936.351
936.43
936.508
936.586
936.664
936.741
936.818
936.894
936.97
937.045
937.12
937.194
937.268
937.341
937.413
937.485
937.556
937.627
937.697
937.766
937.835
937.903
937.97
938.036
938.101
938.163
938.218
938.039
937.924
937.837
937.764
937.702
937.647
937.598
937.553
937.512
937.475
933.891
933.891
933.891
933.891
933.891
933.891
933.891
933.891
933.891
933.895
934.086
934.236
934.368
934.491
934.606
934.718
934.825
934.93
935.032
935.132
935.23
935.326
935.42
935.513
935.604
935.694
935.782
935.869
935.954
936.038
936.12
936.201
936.281
936.361
936.44
936.52
936.599
936.678
936.756
936.835
936.912
936.989
937.066
937.141
937.217
937.292
937.366
937.44
937.514
937.586
937.659
937.73
937.802
937.872
937.942
938.011
938.079
938.145
938.21
938.267
938.088
937.973
937.886
937.815
937.753
937.699
937.65
937.606
937.566
937.53
933.891
933.891
933.891
933.891
933.891
933.891
933.891
933.891
933.891
933.895
934.086
934.236
934.369
934.491
934.608
934.72
934.828
934.933
935.036
935.137
935.236
935.334
935.429
935.523
935.616
935.708
935.798
935.887
935.974
936.059
936.144
936.227
936.31
936.392
936.474
936.557
936.638
936.72
936.801
936.882
936.963
937.042
937.122
937.201
937.28
937.358
937.435
937.513
937.589
937.666
937.741
937.817
937.892
937.966
938.04
938.113
938.184
938.255
938.324
938.384
938.204
938.091
938.005
937.934
937.874
937.821
937.773
937.73
937.692
937.657
933.891
933.891
933.891
933.891
933.891
933.891
933.891
933.891
933.891
933.895
934.087
934.24
934.373
934.498
934.616
934.73
934.841
934.95
935.056
935.16
935.262
935.364
935.463
935.562
935.659
935.755
935.849
935.943
936.035
936.126
936.215
936.304
936.393
936.481
936.569
936.657
936.745
936.832
936.92
937.007
937.093
937.18
937.266
937.351
937.436
937.521
937.606
937.69
937.773
937.857
937.939
938.022
938.104
938.185
938.266
938.346
938.426
938.504
938.58
938.647
938.465
938.351
938.265
938.195
938.135
938.083
938.036
937.994
937.956
937.921
933.891
933.891
933.891
933.891
933.891
933.891
933.891
933.891
933.891
933.895
934.093
934.249
934.389
934.52
934.645
934.766
934.885
935.001
935.116
935.229
935.341
935.452
935.562
935.67
935.778
935.885
935.99
936.095
936.198
936.3
936.402
936.502
936.602
936.703
936.803
936.903
937.003
937.102
937.202
937.301
937.4
937.498
937.596
937.694
937.792
937.888
937.985
938.081
938.177
938.272
938.367
938.461
938.555
938.648
938.741
938.832
938.923
939.013
939.1
939.177
938.983
938.862
938.77
938.694
938.629
938.571
938.519
938.472
938.428
938.389
933.891
933.891
933.891
933.891
933.891
933.891
933.891
933.891
933.891
933.896
934.111
934.287
934.444
934.593
934.737
934.878
935.016
935.152
935.287
935.421
935.554
935.685
935.816
935.946
936.075
936.202
936.329
936.454
936.579
936.701
936.823
936.944
937.064
937.183
937.303
937.422
937.541
937.659
937.777
937.894
938.01
938.126
938.241
938.355
938.468
938.581
938.693
938.804
938.915
939.025
939.134
939.242
939.349
939.456
939.561
939.665
939.768
939.869
939.968
940.052
939.81
939.653
939.529
939.424
939.332
939.248
939.173
939.103
939.038
938.98
933.891
933.891
933.891
933.891
933.891
933.891
933.891
933.891
933.892
933.898
934.183
934.405
934.602
934.787
934.965
935.137
935.307
935.474
935.639
935.802
935.963
936.122
936.28
936.436
936.59
936.742
936.893
937.041
937.187
937.331
937.472
937.612
937.75
937.888
938.024
938.159
938.293
938.425
938.557
938.687
938.816
938.943
939.069
939.194
939.317
939.439
939.56
939.679
939.798
939.915
940.031
940.146
940.26
940.372
940.483
940.593
940.701
940.806
940.907
940.982
940.581
940.326
940.129
939.966
939.826
939.702
939.591
939.491
939.399
939.319
933.891
933.891
933.891
933.891
933.891
933.891
933.891
933.891
933.891
933.896
934.115
934.319
934.511
934.693
934.87
935.041
935.21
935.376
935.539
935.701
935.861
936.019
936.176
936.331
936.485
936.637
936.788
936.937
937.085
937.231
937.375
937.517
937.658
937.797
937.933
938.068
938.201
938.333
938.463
938.592
938.721
938.849
938.976
939.103
939.228
939.352
939.475
939.596
939.715
939.833
939.95
940.065
940.178
940.289
940.398
940.505
940.609
940.711
940.81
940.886
940.559
940.317
940.125
939.964
939.824
939.701
939.591
939.49
939.399
939.318
933.891
933.891
933.891
933.891
933.891
933.891
933.891
933.891
933.891
933.894
934.05
934.205
934.353
934.497
934.637
934.775
934.91
935.044
935.176
935.308
935.438
935.568
935.696
935.824
935.951
936.078
936.204
936.329
936.453
936.577
936.7
936.822
936.943
937.063
937.182
937.301
937.418
937.535
937.651
937.767
937.883
937.998
938.114
938.229
938.344
938.458
938.571
938.683
938.794
938.904
939.014
939.122
939.229
939.334
939.438
939.54
939.641
939.739
939.836
939.918
939.752
939.615
939.501
939.402
939.313
939.233
939.16
939.092
939.028
938.971
933.891
933.891
933.891
933.891
933.891
933.891
933.891
933.891
933.891
933.894
934.034
934.172
934.303
934.428
934.55
934.668
934.784
934.898
935.01
935.121
935.231
935.339
935.447
935.553
935.659
935.765
935.869
935.973
936.076
936.179
936.281
936.382
936.483
936.583
936.682
936.781
936.879
936.977
937.075
937.172
937.27
937.368
937.466
937.564
937.662
937.759
937.856
937.953
938.048
938.144
938.238
938.332
938.425
938.516
938.607
938.697
938.784
938.871
938.955
939.032
938.908
938.808
938.725
938.655
938.594
938.54
938.49
938.445