/*--------------------------------*- C++ -*----------------------------------*\
  =========                 |
  \\      /  F ield         | OpenFOAM: The Open Source CFD Toolbox
   \\    /   O peration     | Website:  https://openfoam.org
    \\  /    A nd           | Version:  12
     \\/     M anipulation  |
\*---------------------------------------------------------------------------*/
FoamFile
{
    format      ascii;
    class       volScalarField;
    location    "900/porous";
    object      T;
}
// * * * * * * * * * * * * * * * * * * * * * * * * * * * * * * * * * * * * * //

dimensions      [0 0 0 1 0 0 0];

internalField   nonuniform List<scalar> 
140000
(
400
400
400
400
400
400
400
400
400
399.992
399.683
399.441
399.227
399.026
398.834
398.647
398.464
398.285
398.108
397.933
397.76
397.589
397.419
397.251
397.084
396.919
396.755
396.593
396.433
396.274
396.117
395.962
395.808
395.657
395.508
395.361
395.215
395.071
394.928
394.786
394.644
394.503
394.362
394.223
394.084
393.947
393.812
393.678
393.545
393.415
393.285
393.158
393.033
392.909
392.789
392.671
392.555
392.442
392.332
392.253
392.697
392.98
393.198
393.378
393.534
393.67
393.793
393.904
394.005
394.093
400
400
400
400
400
400
400
400
400
399.995
399.758
399.567
399.395
399.234
399.078
398.926
398.778
398.631
398.486
398.343
398.2
398.059
397.919
397.779
397.641
397.503
397.365
397.229
397.093
396.958
396.824
396.691
396.559
396.427
396.297
396.168
396.039
395.911
395.784
395.657
395.53
395.402
395.275
395.148
395.022
394.897
394.772
394.648
394.526
394.404
394.284
394.165
394.047
393.931
393.816
393.704
393.593
393.485
393.379
393.293
393.557
393.73
393.866
393.982
394.083
394.175
394.258
394.335
394.406
394.47
400
400
400
400
400
400
400
400
400
399.996
399.778
399.606
399.453
399.311
399.176
399.045
398.917
398.792
398.669
398.547
398.428
398.309
398.191
398.075
397.959
397.844
397.73
397.617
397.504
397.392
397.28
397.169
397.059
396.95
396.841
396.733
396.625
396.518
396.411
396.304
396.197
396.089
395.981
395.873
395.765
395.658
395.551
395.445
395.34
395.235
395.131
395.028
394.926
394.825
394.725
394.627
394.531
394.435
394.344
394.264
394.474
394.606
394.707
394.789
394.86
394.924
394.98
395.032
395.08
395.123
400
400
400
400
400
400
400
400
400
399.996
399.783
399.615
399.468
399.333
399.204
399.081
398.962
398.845
398.732
398.62
398.51
398.402
398.295
398.19
398.086
397.982
397.88
397.779
397.678
397.579
397.48
397.382
397.285
397.188
397.093
396.998
396.904
396.811
396.717
396.624
396.53
396.435
396.341
396.247
396.153
396.059
395.966
395.874
395.782
395.691
395.601
395.511
395.422
395.335
395.248
395.164
395.08
394.999
394.919
394.851
395.047
395.171
395.264
395.34
395.405
395.462
395.513
395.559
395.6
395.638
400
400
400
400
400
400
400
400
400
399.996
399.783
399.617
399.472
399.338
399.212
399.091
398.974
398.861
398.75
398.642
398.536
398.432
398.33
398.229
398.129
398.031
397.934
397.838
397.742
397.648
397.555
397.463
397.372
397.282
397.193
397.105
397.018
396.931
396.845
396.758
396.671
396.584
396.497
396.41
396.323
396.237
396.152
396.067
395.983
395.9
395.817
395.736
395.655
395.576
395.498
395.421
395.346
395.273
395.202
395.142
395.335
395.458
395.551
395.628
395.693
395.751
395.802
395.848
395.891
395.929
400
400
400
400
400
400
400
400
400
399.996
399.783
399.617
399.472
399.338
399.212
399.091
398.975
398.863
398.753
398.646
398.541
398.439
398.338
398.238
398.14
398.044
397.949
397.855
397.762
397.67
397.579
397.49
397.401
397.314
397.228
397.143
397.059
396.976
396.892
396.809
396.725
396.641
396.557
396.474
396.391
396.308
396.227
396.146
396.065
395.986
395.908
395.83
395.754
395.679
395.605
395.533
395.462
395.394
395.328
395.272
395.464
395.587
395.681
395.759
395.826
395.885
395.937
395.985
396.029
396.068
400
400
400
400
400
400
400
400
400
399.996
399.783
399.616
399.471
399.337
399.211
399.09
398.974
398.862
398.752
398.645
398.541
398.438
398.338
398.239
398.141
398.045
397.951
397.857
397.765
397.674
397.585
397.496
397.409
397.323
397.238
397.155
397.072
396.99
396.908
396.826
396.743
396.661
396.578
396.496
396.415
396.334
396.254
396.175
396.096
396.019
395.942
395.867
395.792
395.719
395.647
395.578
395.509
395.444
395.38
395.327
395.518
395.642
395.737
395.815
395.882
395.942
395.995
396.044
396.089
396.129
400
400
400
400
400
400
400
400
400
399.996
399.782
399.616
399.47
399.336
399.209
399.088
398.972
398.859
398.75
398.643
398.538
398.435
398.335
398.236
398.139
398.043
397.948
397.855
397.763
397.673
397.583
397.495
397.409
397.323
397.239
397.156
397.074
396.993
396.912
396.83
396.748
396.666
396.584
396.502
396.422
396.341
396.262
396.183
396.106
396.029
395.953
395.878
395.805
395.733
395.662
395.593
395.527
395.462
395.4
395.348
395.539
395.663
395.758
395.836
395.904
395.964
396.018
396.068
396.113
396.153
400
400
400
400
400
400
400
400
400
399.996
399.782
399.615
399.469
399.334
399.208
399.087
398.97
398.857
398.747
398.64
398.535
398.433
398.332
398.233
398.135
398.04
397.945
397.852
397.76
397.67
397.58
397.493
397.406
397.321
397.237
397.155
397.074
396.993
396.911
396.83
396.747
396.665
396.584
396.502
396.422
396.342
396.263
396.185
396.107
396.031
395.955
395.881
395.808
395.736
395.666
395.598
395.531
395.467
395.406
395.354
395.546
395.67
395.765
395.843
395.912
395.972
396.026
396.076
396.121
396.162
400
400
400
400
400
400
400
400
400
399.996
399.782
399.615
399.468
399.334
399.207
399.085
398.968
398.855
398.745
398.638
398.533
398.43
398.329
398.23
398.132
398.036
397.942
397.849
397.757
397.666
397.577
397.489
397.403
397.318
397.235
397.153
397.072
396.991
396.91
396.828
396.746
396.663
396.582
396.501
396.42
396.34
396.261
396.183
396.106
396.029
395.954
395.879
395.807
395.735
395.665
395.597
395.531
395.467
395.406
395.356
395.547
395.671
395.766
395.845
395.913
395.973
396.028
396.077
396.123
396.164
400
400
400
400
400
400
400
400
400
399.996
399.781
399.614
399.468
399.333
399.206
399.084
398.967
398.854
398.744
398.636
398.531
398.428
398.327
398.228
398.13
398.034
397.939
397.846
397.754
397.664
397.575
397.487
397.401
397.317
397.234
397.152
397.071
396.99
396.908
396.826
396.744
396.662
396.58
396.499
396.418
396.338
396.259
396.181
396.104
396.027
395.952
395.878
395.805
395.733
395.663
395.595
395.529
395.466
395.406
395.355
395.546
395.67
395.765
395.844
395.912
395.973
396.027
396.077
396.122
396.163
400
400
400
400
400
400
400
400
400
399.996
399.781
399.614
399.468
399.333
399.205
399.084
398.967
398.853
398.742
398.635
398.529
398.426
398.325
398.226
398.128
398.032
397.937
397.844
397.752
397.662
397.573
397.486
397.4
397.316
397.233
397.151
397.07
396.989
396.908
396.825
396.743
396.661
396.579
396.497
396.417
396.337
396.258
396.18
396.102
396.026
395.95
395.876
395.803
395.731
395.661
395.593
395.528
395.464
395.404
395.353
395.545
395.669
395.764
395.843
395.911
395.971
396.026
396.075
396.121
396.162
400
400
400
400
400
400
400
400
400
399.996
399.782
399.614
399.468
399.333
399.206
399.084
398.966
398.853
398.742
398.634
398.529
398.425
398.324
398.225
398.127
398.031
397.936
397.843
397.751
397.661
397.572
397.485
397.399
397.316
397.233
397.152
397.071
396.989
396.908
396.825
396.743
396.66
396.578
396.497
396.416
396.336
396.257
396.179
396.101
396.025
395.949
395.875
395.801
395.73
395.66
395.592
395.526
395.463
395.403
395.352
395.544
395.668
395.763
395.842
395.91
395.97
396.025
396.074
396.12
396.161
400
400
400
400
400
400
400
400
400
399.996
399.781
399.614
399.468
399.333
399.206
399.084
398.966
398.852
398.742
398.634
398.528
398.425
398.324
398.224
398.127
398.03
397.936
397.843
397.751
397.661
397.572
397.485
397.4
397.317
397.234
397.153
397.072
396.99
396.908
396.826
396.743
396.661
396.579
396.497
396.416
396.336
396.257
396.179
396.101
396.024
395.949
395.874
395.801
395.729
395.659
395.591
395.525
395.462
395.402
395.351
395.543
395.667
395.762
395.84
395.909
395.969
396.023
396.073
396.118
396.16
400
400
400
400
400
400
400
400
400
399.996
399.782
399.615
399.469
399.334
399.206
399.084
398.967
398.853
398.742
398.634
398.528
398.425
398.324
398.225
398.127
398.031
397.936
397.843
397.751
397.662
397.573
397.487
397.402
397.319
397.236
397.155
397.073
396.992
396.91
396.827
396.744
396.662
396.58
396.498
396.417
396.337
396.258
396.179
396.101
396.025
395.949
395.874
395.801
395.729
395.659
395.591
395.525
395.462
395.401
395.351
395.542
395.666
395.761
395.84
395.908
395.968
396.022
396.072
396.117
396.158
400
400
400
400
400
400
400
400
400
399.996
399.782
399.616
399.47
399.335
399.207
399.085
398.967
398.853
398.743
398.635
398.529
398.426
398.324
398.225
398.128
398.032
397.937
397.844
397.753
397.663
397.575
397.489
397.405
397.321
397.239
397.157
397.075
396.994
396.911
396.829
396.746
396.663
396.581
396.5
396.419
396.339
396.259
396.18
396.102
396.026
395.95
395.875
395.801
395.729
395.659
395.591
395.525
395.461
395.401
395.351
395.542
395.666
395.761
395.839
395.907
395.968
396.022
396.071
396.116
396.158
400
400
400
400
400
400
400
400
400
399.996
399.782
399.616
399.47
399.335
399.208
399.086
398.968
398.854
398.743
398.635
398.53
398.426
398.325
398.226
398.129
398.033
397.938
397.846
397.755
397.665
397.578
397.492
397.408
397.324
397.242
397.159
397.077
396.995
396.913
396.831
396.748
396.665
396.583
396.502
396.421
396.34
396.261
396.182
396.104
396.027
395.951
395.876
395.802
395.73
395.659
395.591
395.525
395.461
395.401
395.351
395.542
395.665
395.76
395.839
395.907
395.967
396.021
396.07
396.116
396.157
400
400
400
400
400
400
400
400
400
399.996
399.783
399.617
399.471
399.336
399.209
399.087
398.969
398.855
398.744
398.636
398.531
398.427
398.326
398.227
398.13
398.034
397.94
397.848
397.757
397.668
397.581
397.496
397.411
397.328
397.244
397.161
397.079
396.997
396.915
396.833
396.75
396.668
396.586
396.504
396.423
396.342
396.263
396.184
396.106
396.028
395.952
395.877
395.803
395.731
395.66
395.591
395.525
395.462
395.401
395.351
395.542
395.665
395.76
395.839
395.906
395.966
396.021
396.07
396.115
396.156
400
400
400
400
400
400
400
400
400
399.996
399.783
399.618
399.472
399.338
399.21
399.088
398.971
398.857
398.746
398.637
398.532
398.428
398.327
398.228
398.131
398.036
397.942
397.85
397.76
397.671
397.584
397.499
397.415
397.33
397.246
397.163
397.08
396.999
396.917
396.835
396.753
396.67
396.588
396.506
396.425
396.345
396.265
396.186
396.107
396.03
395.954
395.878
395.804
395.732
395.661
395.592
395.526
395.462
395.402
395.352
395.542
395.666
395.76
395.839
395.906
395.966
396.02
396.069
396.115
396.155
400
400
400
400
400
400
400
400
400
399.996
399.784
399.618
399.473
399.338
399.211
399.089
398.972
398.858
398.747
398.638
398.533
398.429
398.328
398.229
398.132
398.037
397.944
397.852
397.762
397.674
397.588
397.502
397.417
397.332
397.248
397.164
397.081
396.999
396.918
396.836
396.754
396.672
396.59
396.509
396.428
396.347
396.267
396.188
396.11
396.032
395.956
395.88
395.806
395.733
395.662
395.593
395.527
395.463
395.403
395.352
395.543
395.666
395.761
395.839
395.907
395.967
396.02
396.069
396.114
396.155
400
400
400
400
400
400
400
400
400
399.996
399.785
399.62
399.475
399.34
399.213
399.091
398.973
398.859
398.748
398.64
398.534
398.43
398.329
398.23
398.133
398.038
397.945
397.854
397.764
397.676
397.59
397.505
397.419
397.333
397.248
397.164
397.081
396.999
396.918
396.837
396.756
396.674
396.592
396.511
396.43
396.349
396.269
396.19
396.112
396.034
395.958
395.882
395.808
395.735
395.664
395.595
395.528
395.464
395.404
395.353
395.544
395.667
395.761
395.84
395.907
395.967
396.021
396.07
396.115
396.155
400
400
400
400
400
400
400
400
400
399.996
399.785
399.62
399.475
399.341
399.214
399.092
398.974
398.86
398.749
398.64
398.535
398.431
398.33
398.231
398.134
398.039
397.946
397.855
397.766
397.678
397.592
397.506
397.42
397.334
397.248
397.164
397.081
396.999
396.918
396.837
396.757
396.675
396.594
396.513
396.432
396.351
396.272
396.192
396.114
396.036
395.96
395.884
395.81
395.737
395.666
395.596
395.53
395.466
395.405
395.354
395.545
395.668
395.762
395.841
395.908
395.968
396.022
396.07
396.115
396.156
400
400
400
400
400
400
400
400
400
399.996
399.787
399.622
399.477
399.343
399.215
399.093
398.975
398.861
398.75
398.641
398.535
398.432
398.33
398.231
398.134
398.039
397.947
397.856
397.766
397.679
397.592
397.506
397.419
397.333
397.248
397.164
397.08
396.998
396.917
396.837
396.757
396.676
396.595
396.514
396.434
396.353
396.274
396.194
396.116
396.038
395.962
395.886
395.812
395.739
395.667
395.598
395.531
395.467
395.406
395.355
395.545
395.668
395.763
395.841
395.909
395.968
396.022
396.071
396.116
396.156
400
400
400
400
400
400
400
400
400
399.996
399.787
399.623
399.478
399.344
399.217
399.095
398.977
398.862
398.751
398.642
398.536
398.432
398.331
398.232
398.135
398.04
397.947
397.856
397.767
397.679
397.592
397.505
397.419
397.333
397.247
397.163
397.079
396.997
396.916
396.836
396.757
396.676
396.596
396.515
396.435
396.355
396.275
396.196
396.118
396.04
395.963
395.888
395.813
395.74
395.669
395.599
395.532
395.467
395.406
395.355
395.546
395.669
395.763
395.841
395.909
395.969
396.022
396.071
396.116
396.157
400
400
400
400
400
400
400
400
400
399.996
399.787
399.623
399.479
399.344
399.217
399.095
398.977
398.863
398.751
398.643
398.536
398.433
398.331
398.232
398.134
398.039
397.946
397.855
397.766
397.678
397.591
397.505
397.418
397.332
397.246
397.162
397.078
396.996
396.915
396.836
396.756
396.676
396.596
396.516
396.436
396.356
396.276
396.197
396.119
396.041
395.964
395.889
395.814
395.741
395.67
395.6
395.533
395.468
395.407
395.355
395.546
395.669
395.763
395.842
395.909
395.969
396.022
396.071
396.116
396.157
400
400
400
400
400
400
400
400
400
399.996
399.789
399.625
399.481
399.347
399.219
399.097
398.979
398.864
398.753
398.644
398.537
398.433
398.332
398.232
398.135
398.039
397.946
397.855
397.765
397.677
397.59
397.503
397.417
397.331
397.245
397.161
397.077
396.995
396.915
396.835
396.756
396.676
396.597
396.516
396.436
396.356
396.277
396.198
396.12
396.042
395.965
395.89
395.815
395.742
395.67
395.6
395.532
395.467
395.405
395.352
395.544
395.667
395.762
395.84
395.908
395.968
396.021
396.07
396.115
396.156
400
400
400
400
400
400
400
400
400
399.996
399.789
399.626
399.481
399.347
399.22
399.098
398.98
398.865
398.753
398.644
398.538
398.434
398.332
398.232
398.134
398.039
397.945
397.854
397.764
397.676
397.589
397.502
397.416
397.33
397.244
397.16
397.077
396.995
396.914
396.835
396.756
396.676
396.596
396.516
396.436
396.357
396.277
396.198
396.12
396.042
395.966
395.89
395.815
395.742
395.67
395.6
395.532
395.467
395.404
395.352
395.543
395.667
395.761
395.84
395.907
395.967
396.021
396.07
396.114
396.155
400
400
400
400
400
400
400
400
400
399.996
399.789
399.626
399.482
399.348
399.221
399.099
398.981
398.866
398.754
398.645
398.539
398.434
398.332
398.232
398.134
398.038
397.945
397.853
397.763
397.675
397.588
397.501
397.415
397.329
397.244
397.159
397.076
396.995
396.914
396.835
396.756
396.676
396.596
396.516
396.436
396.356
396.277
396.198
396.12
396.042
395.966
395.89
395.815
395.742
395.67
395.599
395.531
395.465
395.402
395.349
395.541
395.665
395.76
395.838
395.906
395.965
396.019
396.068
396.113
396.154
400
400
400
400
400
400
400
400
400
399.996
399.79
399.627
399.483
399.349
399.222
399.1
398.981
398.867
398.755
398.646
398.539
398.435
398.333
398.233
398.135
398.038
397.944
397.852
397.762
397.673
397.586
397.5
397.414
397.328
397.243
397.159
397.076
396.995
396.915
396.835
396.755
396.675
396.595
396.515
396.435
396.356
396.276
396.198
396.119
396.042
395.965
395.889
395.814
395.741
395.669
395.598
395.53
395.464
395.4
395.346
395.538
395.662
395.757
395.836
395.904
395.964
396.017
396.066
396.111
396.152
400
400
400
400
400
400
400
400
400
399.996
399.79
399.627
399.483
399.349
399.222
399.1
398.982
398.867
398.756
398.646
398.54
398.435
398.333
398.233
398.135
398.038
397.944
397.851
397.761
397.672
397.585
397.499
397.413
397.328
397.243
397.159
397.077
396.995
396.915
396.835
396.755
396.675
396.594
396.514
396.434
396.354
396.275
396.196
396.118
396.041
395.964
395.888
395.813
395.739
395.667
395.596
395.528
395.462
395.398
395.344
395.536
395.66
395.755
395.834
395.902
395.962
396.016
396.065
396.11
396.151
400
400
400
400
400
400
400
400
400
399.996
399.79
399.627
399.484
399.35
399.223
399.101
398.983
398.868
398.756
398.647
398.54
398.436
398.334
398.233
398.135
398.038
397.943
397.851
397.76
397.671
397.584
397.498
397.413
397.328
397.243
397.16
397.077
396.996
396.916
396.836
396.755
396.674
396.593
396.512
396.432
396.353
396.274
396.195
396.117
396.039
395.962
395.886
395.812
395.738
395.666
395.595
395.526
395.459
395.395
395.339
395.533
395.657
395.753
395.832
395.9
395.96
396.014
396.063
396.108
396.149
400
400
400
400
400
400
400
400
400
399.996
399.79
399.628
399.484
399.35
399.223
399.101
398.983
398.869
398.757
398.648
398.541
398.437
398.334
398.234
398.135
398.038
397.943
397.85
397.759
397.67
397.583
397.497
397.412
397.327
397.243
397.16
397.078
396.997
396.917
396.835
396.754
396.672
396.591
396.511
396.431
396.351
396.272
396.193
396.115
396.038
395.961
395.885
395.81
395.736
395.664
395.593
395.524
395.457
395.393
395.337
395.531
395.655
395.751
395.83
395.898
395.958
396.013
396.062
396.107
396.148
400
400
400
400
400
400
400
400
400
399.996
399.79
399.628
399.484
399.351
399.224
399.102
398.984
398.869
398.758
398.649
398.542
398.437
398.335
398.234
398.136
398.039
397.944
397.85
397.759
397.669
397.582
397.496
397.411
397.327
397.244
397.161
397.079
396.998
396.917
396.835
396.753
396.671
396.59
396.509
396.429
396.349
396.27
396.192
396.114
396.036
395.959
395.884
395.809
395.735
395.663
395.592
395.522
395.455
395.39
395.335
395.529
395.654
395.749
395.828
395.897
395.957
396.012
396.061
396.106
396.148
400
400
400
400
400
400
400
400
400
399.996
399.79
399.628
399.484
399.351
399.224
399.103
398.985
398.87
398.758
398.649
398.543
398.438
398.336
398.235
398.137
398.04
397.944
397.851
397.759
397.669
397.582
397.496
397.411
397.328
397.245
397.162
397.08
396.998
396.916
396.834
396.752
396.67
396.588
396.508
396.427
396.348
396.269
396.19
396.112
396.035
395.958
395.883
395.808
395.734
395.661
395.59
395.521
395.454
395.388
395.331
395.526
395.652
395.748
395.827
395.896
395.956
396.011
396.06
396.106
396.147
400
400
400
400
400
400
400
400
400
399.996
399.79
399.628
399.485
399.352
399.225
399.103
398.986
398.871
398.76
398.65
398.544
398.439
398.337
398.236
398.138
398.041
397.945
397.852
397.76
397.67
397.582
397.496
397.412
397.328
397.246
397.163
397.081
396.999
396.916
396.833
396.751
396.669
396.587
396.507
396.426
396.347
396.268
396.189
396.111
396.034
395.957
395.882
395.807
395.733
395.661
395.589
395.519
395.452
395.387
395.33
395.525
395.651
395.747
395.826
395.895
395.956
396.01
396.06
396.106
396.147
400
400
400
400
400
400
400
400
400
399.996
399.791
399.628
399.485
399.352
399.226
399.104
398.986
398.872
398.761
398.652
398.545
398.441
398.338
398.238
398.139
398.042
397.947
397.853
397.761
397.671
397.583
397.497
397.413
397.329
397.247
397.164
397.082
396.999
396.916
396.833
396.751
396.668
396.587
396.506
396.426
396.346
396.267
396.189
396.111
396.034
395.957
395.881
395.806
395.733
395.66
395.589
395.519
395.451
395.385
395.329
395.524
395.65
395.746
395.826
395.895
395.955
396.01
396.06
396.106
396.147
400
400
400
400
400
400
400
400
400
399.996
399.79
399.628
399.485
399.353
399.226
399.105
398.987
398.873
398.762
398.653
398.547
398.442
398.34
398.239
398.141
398.044
397.948
397.854
397.762
397.672
397.584
397.498
397.414
397.331
397.248
397.165
397.082
396.999
396.916
396.833
396.75
396.668
396.587
396.506
396.425
396.346
396.267
396.188
396.111
396.033
395.957
395.881
395.806
395.733
395.66
395.588
395.518
395.451
395.385
395.327
395.523
395.649
395.746
395.826
395.895
395.955
396.01
396.06
396.106
396.148
400
400
400
400
400
400
400
400
400
399.996
399.791
399.629
399.486
399.353
399.227
399.106
398.989
398.875
398.763
398.655
398.548
398.444
398.342
398.241
398.143
398.046
397.95
397.856
397.764
397.674
397.586
397.501
397.416
397.333
397.25
397.167
397.084
397
396.917
396.834
396.751
396.669
396.587
396.506
396.426
396.346
396.267
396.189
396.111
396.034
395.958
395.882
395.807
395.733
395.66
395.589
395.519
395.45
395.385
395.327
395.523
395.65
395.746
395.826
395.895
395.956
396.011
396.061
396.107
396.148
400
400
400
400
400
400
400
400
400
399.996
399.791
399.629
399.486
399.354
399.228
399.107
398.99
398.876
398.765
398.656
398.55
398.446
398.344
398.243
398.145
398.048
397.952
397.859
397.767
397.677
397.589
397.503
397.419
397.335
397.252
397.169
397.085
397.001
396.918
396.835
396.752
396.67
396.588
396.507
396.427
396.348
396.269
396.19
396.112
396.035
395.959
395.883
395.808
395.734
395.662
395.59
395.52
395.451
395.385
395.327
395.524
395.65
395.747
395.827
395.896
395.957
396.012
396.062
396.108
396.15
400
400
400
400
400
400
400
400
400
399.996
399.791
399.629
399.487
399.354
399.229
399.108
398.991
398.877
398.766
398.658
398.552
398.448
398.346
398.246
398.147
398.05
397.955
397.861
397.77
397.68
397.592
397.506
397.422
397.338
397.254
397.171
397.087
397.003
396.919
396.836
396.754
396.671
396.59
396.509
396.429
396.349
396.27
396.192
396.114
396.037
395.961
395.885
395.81
395.736
395.663
395.592
395.521
395.453
395.386
395.328
395.525
395.651
395.748
395.828
395.897
395.958
396.013
396.063
396.109
396.151
400
400
400
400
400
400
400
400
400
399.996
399.791
399.629
399.487
399.355
399.23
399.109
398.992
398.879
398.768
398.66
398.554
398.45
398.348
398.248
398.15
398.053
397.958
397.864
397.773
397.683
397.595
397.509
397.425
397.341
397.257
397.173
397.089
397.005
396.921
396.838
396.755
396.673
396.592
396.511
396.431
396.351
396.272
396.194
396.116
396.039
395.963
395.887
395.812
395.738
395.665
395.593
395.523
395.454
395.387
395.329
395.526
395.652
395.749
395.829
395.898
395.959
396.014
396.064
396.11
396.151
400
400
400
400
400
400
400
400
400
399.996
399.791
399.629
399.487
399.355
399.23
399.11
398.994
398.881
398.77
398.662
398.556
398.453
398.351
398.251
398.153
398.056
397.961
397.868
397.776
397.686
397.599
397.513
397.428
397.344
397.259
397.175
397.091
397.007
396.923
396.84
396.757
396.675
396.594
396.513
396.433
396.353
396.274
396.196
396.118
396.041
395.964
395.889
395.813
395.739
395.666
395.594
395.523
395.454
395.387
395.328
395.525
395.651
395.748
395.828
395.897
395.958
396.013
396.063
396.108
396.15
400
400
400
400
400
400
400
400
400
399.996
399.791
399.63
399.488
399.356
399.231
399.111
398.995
398.882
398.772
398.664
398.559
398.455
398.353
398.253
398.155
398.059
397.964
397.87
397.779
397.689
397.601
397.515
397.43
397.345
397.261
397.176
397.091
397.007
396.923
396.84
396.757
396.675
396.593
396.512
396.432
396.352
396.273
396.194
396.116
396.039
395.962
395.886
395.811
395.736
395.662
395.59
395.518
395.448
395.381
395.322
395.518
395.645
395.741
395.821
395.89
395.951
396.005
396.055
396.1
396.142
400
400
400
400
400
400
400
400
400
399.996
399.792
399.63
399.488
399.357
399.232
399.112
398.996
398.884
398.774
398.666
398.56
398.457
398.355
398.255
398.157
398.06
397.965
397.872
397.78
397.69
397.602
397.515
397.43
397.344
397.259
397.173
397.088
397.004
396.919
396.836
396.752
396.67
396.587
396.506
396.425
396.344
396.265
396.185
396.107
396.028
395.951
395.874
395.798
395.722
395.648
395.574
395.501
395.431
395.362
395.302
395.498
395.624
395.721
395.8
395.868
395.929
395.983
396.032
396.077
396.118
400
400
400
400
400
400
400
400
400
399.996
399.791
399.63
399.488
399.357
399.232
399.112
398.996
398.883
398.773
398.665
398.56
398.456
398.354
398.253
398.155
398.057
397.962
397.868
397.775
397.684
397.595
397.507
397.42
397.334
397.247
397.16
397.074
396.988
396.903
396.817
396.733
396.649
396.565
396.482
396.4
396.318
396.236
396.156
396.075
395.995
395.916
395.837
395.759
395.682
395.605
395.529
395.455
395.381
395.31
395.248
395.445
395.571
395.666
395.745
395.812
395.872
395.925
395.973
396.018
396.057
400
400
400
400
400
400
400
400
400
399.996
399.791
399.63
399.487
399.356
399.23
399.11
398.993
398.88
398.769
398.66
398.553
398.448
398.344
398.242
398.142
398.042
397.945
397.849
397.754
397.661
397.57
397.479
397.389
397.299
397.21
397.121
397.031
396.942
396.854
396.766
396.678
396.59
396.504
396.417
396.331
396.246
396.161
396.076
395.992
395.908
395.825
395.743
395.66
395.579
395.498
395.418
395.339
395.261
395.185
395.119
395.316
395.442
395.536
395.614
395.68
395.738
395.79
395.837
395.88
395.918
400
400
400
400
400
400
400
400
400
399.996
399.79
399.626
399.483
399.348
399.221
399.098
398.979
398.862
398.748
398.635
398.524
398.415
398.307
398.201
398.096
397.992
397.889
397.788
397.688
397.589
397.492
397.395
397.299
397.203
397.107
397.011
396.915
396.82
396.725
396.63
396.535
396.44
396.346
396.253
396.16
396.067
395.974
395.882
395.79
395.699
395.608
395.517
395.427
395.338
395.249
395.16
395.073
394.987
394.903
394.829
395.03
395.156
395.25
395.327
395.393
395.451
395.502
395.548
395.59
395.628
400
400
400
400
400
400
400
400
400
399.996
399.784
399.616
399.465
399.325
399.19
399.06
398.932
398.806
398.682
398.56
398.439
398.319
398.201
398.083
397.966
397.851
397.736
397.623
397.51
397.399
397.289
397.18
397.071
396.961
396.852
396.743
396.634
396.525
396.416
396.308
396.2
396.092
395.984
395.877
395.77
395.664
395.558
395.452
395.347
395.242
395.138
395.034
394.931
394.828
394.726
394.624
394.524
394.425
394.329
394.243
394.458
394.592
394.693
394.777
394.849
394.913
394.97
395.022
395.07
395.113
400
400
400
400
400
400
400
400
400
399.995
399.764
399.575
399.406
399.246
399.091
398.94
398.791
398.643
398.497
398.353
398.209
398.067
397.925
397.785
397.645
397.506
397.368
397.232
397.097
396.963
396.83
396.698
396.567
396.436
396.306
396.176
396.045
395.916
395.787
395.658
395.53
395.403
395.277
395.151
395.026
394.901
394.778
394.655
394.533
394.412
394.291
394.171
394.052
393.934
393.817
393.702
393.587
393.475
393.365
393.272
393.541
393.716
393.853
393.97
394.072
394.164
394.248
394.325
394.397
394.461
400
400
400
400
400
400
400
400
400
399.993
399.687
399.449
399.237
399.038
398.846
398.66
398.476
398.295
398.117
397.941
397.766
397.593
397.422
397.252
397.084
396.918
396.754
396.592
396.433
396.275
396.12
395.967
395.815
395.665
395.515
395.367
395.219
395.073
394.928
394.785
394.643
394.502
394.362
394.224
394.088
393.953
393.819
393.686
393.554
393.424
393.295
393.167
393.04
392.914
392.791
392.668
392.548
392.43
392.317
392.233
392.681
392.966
393.185
393.367
393.523
393.661
393.784
393.895
393.997
394.086
400
400
400
400
400
400
400
400
400
399.995
399.761
399.541
399.335
399.138
398.948
398.763
398.581
398.402
398.225
398.05
397.876
397.705
397.535
397.366
397.199
397.033
396.868
396.705
396.544
396.385
396.227
396.071
395.917
395.765
395.615
395.466
395.32
395.175
395.032
394.889
394.747
394.606
394.465
394.325
394.186
394.049
393.913
393.779
393.646
393.515
393.385
393.257
393.131
393.007
392.886
392.767
392.65
392.536
392.425
392.34
392.706
392.976
393.19
393.37
393.525
393.662
393.785
393.896
393.997
394.087
400
400
400
400
400
400
400
400
400
399.997
399.83
399.664
399.504
399.35
399.199
399.051
398.905
398.76
398.617
398.475
398.335
398.194
398.055
397.916
397.778
397.641
397.504
397.368
397.233
397.099
396.965
396.832
396.699
396.568
396.438
396.308
396.18
396.052
395.925
395.797
395.67
395.543
395.416
395.289
395.163
395.038
394.913
394.789
394.666
394.545
394.424
394.304
394.186
394.069
393.954
393.84
393.729
393.62
393.512
393.42
393.606
393.757
393.884
393.994
394.092
394.181
394.262
394.337
394.407
394.471
400
400
400
400
400
400
400
400
400
399.998
399.847
399.699
399.559
399.423
399.293
399.165
399.04
398.918
398.797
398.677
398.559
398.441
398.325
398.21
398.095
397.981
397.868
397.755
397.643
397.532
397.421
397.31
397.201
397.092
396.983
396.876
396.768
396.662
396.555
396.449
396.342
396.234
396.127
396.02
395.913
395.806
395.699
395.594
395.488
395.384
395.28
395.176
395.074
394.973
394.873
394.774
394.677
394.581
394.489
394.404
394.541
394.652
394.743
394.82
394.887
394.947
395.002
395.052
395.098
395.139
400
400
400
400
400
400
400
400
400
399.998
399.851
399.708
399.573
399.444
399.32
399.2
399.083
398.969
398.857
398.747
398.639
398.532
398.426
398.321
398.218
398.116
398.014
397.913
397.814
397.715
397.616
397.519
397.422
397.326
397.231
397.137
397.043
396.95
396.857
396.764
396.67
396.577
396.483
396.389
396.296
396.203
396.11
396.018
395.927
395.836
395.745
395.656
395.567
395.479
395.393
395.307
395.223
395.141
395.06
394.988
395.113
395.216
395.301
395.372
395.433
395.488
395.536
395.581
395.621
395.657
400
400
400
400
400
400
400
400
400
399.998
399.851
399.71
399.576
399.448
399.326
399.209
399.095
398.984
398.875
398.768
398.664
398.561
398.459
398.359
398.26
398.163
398.066
397.971
397.876
397.782
397.69
397.598
397.507
397.418
397.329
397.241
397.154
397.067
396.981
396.895
396.808
396.722
396.635
396.549
396.463
396.377
396.292
396.207
396.124
396.04
395.958
395.876
395.796
395.716
395.638
395.56
395.485
395.411
395.339
395.275
395.398
395.5
395.584
395.656
395.718
395.773
395.823
395.868
395.909
395.946
400
400
400
400
400
400
400
400
400
399.998
399.851
399.709
399.575
399.448
399.326
399.209
399.096
398.985
398.877
398.772
398.668
398.567
398.467
398.368
398.271
398.175
398.08
397.987
397.894
397.803
397.713
397.623
397.535
397.448
397.362
397.277
397.193
397.11
397.027
396.944
396.861
396.777
396.694
396.611
396.528
396.446
396.365
396.284
396.204
396.124
396.046
395.968
395.892
395.816
395.742
395.669
395.598
395.529
395.462
395.401
395.524
395.627
395.712
395.785
395.848
395.905
395.955
396.002
396.044
396.083
400
400
400
400
400
400
400
400
400
399.998
399.851
399.708
399.574
399.447
399.325
399.208
399.095
398.984
398.876
398.771
398.668
398.566
398.467
398.368
398.272
398.176
398.082
397.989
397.898
397.807
397.718
397.63
397.543
397.457
397.372
397.288
397.206
397.124
397.042
396.96
396.878
396.796
396.714
396.633
396.552
396.471