/*--------------------------------*- C++ -*----------------------------------*\
  =========                 |
  \\      /  F ield         | OpenFOAM: The Open Source CFD Toolbox
   \\    /   O peration     | Website:  https://openfoam.org
    \\  /    A nd           | Version:  12
     \\/     M anipulation  |
\*---------------------------------------------------------------------------*/
FoamFile
{
    format      ascii;
    class       volScalarField;
    location    "1250/porous";
    object      rho;
}
// * * * * * * * * * * * * * * * * * * * * * * * * * * * * * * * * * * * * * //

dimensions      [1 -3 0 0 0 0 0];

internalField   nonuniform List<scalar> 
140000
(
933.891
933.891
933.891
933.891
933.891
933.891
933.891
933.891
933.892
933.898
934.183
934.406
934.606
934.793
934.972
935.145
935.315
935.482
935.646
935.808
935.967
936.126
936.282
936.437
936.591
936.743
936.893
937.042
937.189
937.335
937.479
937.622
937.763
937.902
938.039
938.175
938.31
938.443
938.574
938.705
938.834
938.962
939.09
939.216
939.341
939.464
939.587
939.707
939.826
939.944
940.06
940.175
940.287
940.398
940.505
940.611
940.713
940.812
940.905
940.97
940.576
940.324
940.129
939.967
939.828
939.705
939.595
939.495
939.404
939.324
933.891
933.891
933.891
933.891
933.891
933.891
933.891
933.891
933.891
933.896
934.113
934.291
934.45
934.6
934.745
934.886
935.025
935.161
935.296
935.429
935.561
935.692
935.821
935.95
936.079
936.206
936.333
936.459
936.584
936.708
936.831
936.954
937.076
937.198
937.318
937.438
937.557
937.675
937.793
937.91
938.027
938.144
938.259
938.375
938.489
938.603
938.716
938.828
938.94
939.05
939.159
939.267
939.373
939.478
939.581
939.682
939.781
939.877
939.97
940.045
939.808
939.653
939.53
939.427
939.335
939.253
939.177
939.108
939.043
938.986
933.891
933.891
933.891
933.891
933.891
933.891
933.891
933.891
933.891
933.895
934.095
934.254
934.396
934.528
934.655
934.777
934.896
935.012
935.127
935.239
935.351
935.461
935.57
935.678
935.785
935.891
935.997
936.102
936.206
936.31
936.413
936.516
936.618
936.719
936.82
936.921
937.021
937.121
937.22
937.319
937.418
937.517
937.616
937.714
937.812
937.91
938.007
938.104
938.2
938.295
938.39
938.484
938.576
938.668
938.758
938.847
938.934
939.019
939.1
939.171
938.982
938.863
938.772
938.698
938.633
938.576
938.525
938.478
938.435
938.396
933.891
933.891
933.891
933.891
933.891
933.891
933.891
933.891
933.891
933.895
934.09
934.245
934.381
934.508
934.628
934.743
934.854
934.962
935.068
935.172
935.274
935.374
935.474
935.571
935.668
935.764
935.859
935.953
936.046
936.138
936.23
936.321
936.411
936.501
936.59
936.678
936.766
936.854
936.941
937.028
937.114
937.201
937.287
937.373
937.459
937.545
937.63
937.714
937.798
937.881
937.963
938.045
938.126
938.205
938.284
938.36
938.436
938.509
938.581
938.642
938.464
938.352
938.268
938.199
938.14
938.088
938.042
938.001
937.963
937.929
933.891
933.891
933.891
933.891
933.891
933.891
933.891
933.891
933.891
933.895
934.089
934.243
934.378
934.502
934.62
934.733
934.842
934.948
935.05
935.151
935.25
935.346
935.442
935.535
935.628
935.719
935.81
935.899
935.987
936.074
936.161
936.246
936.331
936.415
936.498
936.581
936.663
936.744
936.825
936.906
936.986
937.066
937.146
937.226
937.305
937.383
937.461
937.539
937.616
937.692
937.767
937.841
937.915
937.987
938.058
938.128
938.195
938.262
938.325
938.379
938.204
938.093
938.008
937.939
937.88
937.827
937.781
937.739
937.7
937.666
933.891
933.891
933.891
933.891
933.891
933.891
933.891
933.891
933.891
933.895
934.09
934.243
934.378
934.502
934.62
934.732
934.84
934.945
935.047
935.147
935.245
935.34
935.434
935.527
935.618
935.707
935.796
935.883
935.969
936.055
936.139
936.222
936.305
936.387
936.467
936.547
936.627
936.705
936.783
936.861
936.938
937.016
937.092
937.169
937.245
937.32
937.395
937.469
937.542
937.615
937.686
937.757
937.827
937.895
937.962
938.027
938.091
938.153
938.212
938.263
938.089
937.977
937.892
937.821
937.761
937.707
937.659
937.616
937.576
937.54
933.891
933.891
933.891
933.891
933.891
933.891
933.891
933.891
933.891
933.895
934.089
934.243
934.378
934.502
934.62
934.733
934.841
934.946
935.048
935.148
935.245
935.34
935.434
935.526
935.617
935.706
935.794
935.881
935.966
936.051
936.134
936.217
936.298
936.379
936.459
936.538
936.616
936.693
936.77
936.847
936.923
936.999
937.074
937.149
937.224
937.298
937.371
937.444
937.516
937.586
937.656
937.725
937.793
937.86
937.925
937.988
938.05
938.11
938.167
938.215
938.042
937.929
937.844
937.772
937.711
937.657
937.608
937.564
937.524
937.487
933.891
933.891
933.891
933.891
933.891
933.891
933.891
933.891
933.891
933.895
934.09
934.243
934.378
934.503
934.621
934.734
934.843
934.948
935.05
935.15
935.247
935.343
935.437
935.529
935.619
935.708
935.796
935.883
935.968
936.053
936.136
936.218
936.3
936.38
936.459
936.538
936.615
936.692
936.769
936.845
936.921
936.996
937.071
937.146
937.219
937.293
937.365
937.437
937.508
937.579
937.648
937.716
937.783
937.849
937.913
937.976
938.036
938.095
938.151
938.198
938.025
937.912
937.826
937.755
937.693
937.638
937.589
937.545
937.504
937.467
933.891
933.891
933.891
933.891
933.891
933.891
933.891
933.891
933.891
933.895
934.09
934.244
934.379
934.504
934.622
934.735
934.844
934.949
935.052
935.152
935.249
935.345
935.439
935.531
935.622
935.711
935.799
935.886
935.971
936.056
936.139
936.221
936.302
936.383
936.462
936.54
936.618
936.695
936.771
936.847
936.922
936.998
937.073
937.147
937.221
937.294
937.366
937.438
937.509
937.579
937.648
937.716
937.782
937.848
937.911
937.973
938.034
938.092
938.147
938.194
938.02
937.908
937.822
937.75
937.688
937.633
937.584
937.539
937.498
937.461
933.891
933.891
933.891
933.891
933.891
933.891
933.891
933.891
933.891
933.895
934.09
934.244
934.379
934.504
934.623
934.736
934.845
934.951
935.053
935.154
935.252
935.347
935.442
935.534
935.625
935.714
935.802
935.889
935.975
936.059
936.142
936.225
936.306
936.386
936.465
936.543
936.621
936.698
936.774
936.85
936.926
937.001
937.076
937.15
937.224
937.297
937.369
937.441
937.512
937.582
937.651
937.718
937.785
937.85
937.913
937.975
938.035
938.093
938.148
938.195
938.021
937.909
937.822
937.75
937.689
937.634
937.584
937.539
937.498
937.46
933.891
933.891
933.891
933.891
933.891
933.891
933.891
933.891
933.891
933.895
934.09
934.244
934.379
934.504
934.623
934.736
934.846
934.952
935.054
935.155
935.253
935.349
935.443
935.536
935.627
935.716
935.805
935.892
935.977
936.062
936.145
936.227
936.309
936.389
936.468
936.546
936.624
936.7
936.777
936.853
936.928
937.004
937.079
937.153
937.227
937.3
937.372
937.444
937.515
937.585
937.654
937.722
937.788
937.853
937.917
937.978
938.038
938.096
938.151
938.197
938.023
937.911
937.824
937.753
937.691
937.636
937.586
937.541
937.5
937.462
933.891
933.891
933.891
933.891
933.891
933.891
933.891
933.891
933.891
933.895
934.09
934.244
934.379
934.504
934.623
934.737
934.846
934.952
935.055
935.156
935.254
935.35
935.445
935.537
935.629
935.718
935.807
935.894
935.979
936.064
936.147
936.23
936.311
936.391
936.47
936.548
936.626
936.703
936.779
936.855
936.931
937.006
937.081
937.156
937.23
937.303
937.375
937.447
937.518
937.588
937.657
937.725
937.791
937.856
937.919
937.981
938.041
938.098
938.153
938.2
938.026
937.913
937.827
937.755
937.693
937.638
937.589
937.543
937.502
937.464
933.891
933.891
933.891
933.891
933.891
933.891
933.891
933.891
933.891
933.895
934.09
934.244
934.379
934.504
934.623
934.737
934.846
934.952
935.056
935.156
935.255
935.351
935.446
935.538
935.63
935.719
935.808
935.895
935.981
936.065
936.149
936.231
936.312
936.392
936.471
936.549
936.627
936.704
936.78
936.857
936.932
937.008
937.083
937.158
937.232
937.305
937.377
937.449
937.52
937.59
937.659
937.727
937.793
937.858
937.922
937.983
938.043
938.101
938.155
938.201
938.028
937.915
937.829
937.757
937.695
937.64
937.59
937.545
937.504
937.466
933.891
933.891
933.891
933.891
933.891
933.891
933.891
933.891
933.891
933.895
934.09
934.244
934.379
934.504
934.623
934.736
934.846
934.952
935.056
935.157
935.255
935.352
935.446
935.539
935.63
935.72
935.809
935.896
935.981
936.066
936.149
936.232
936.313
936.393
936.472
936.55
936.628
936.705
936.781
936.857
936.933
937.009
937.084
937.159
937.233
937.306
937.379
937.45
937.521
937.591
937.66
937.728
937.795
937.86
937.923
937.985
938.045
938.102
938.157
938.203
938.029
937.916
937.83
937.758
937.696
937.641
937.592
937.546
937.505
937.467
933.891
933.891
933.891
933.891
933.891
933.891
933.891
933.891
933.891
933.895
934.09
934.243
934.379
934.504
934.622
934.736
934.846
934.952
935.055
935.156
935.255
935.352
935.446
935.539
935.63
935.72
935.809
935.896
935.982
936.066
936.15
936.232
936.313
936.393
936.472
936.55
936.628
936.705
936.781
936.858
936.934
937.009
937.085
937.159
937.233
937.307
937.379
937.451
937.522
937.592
937.661
937.729
937.796
937.861
937.924
937.986
938.045
938.103
938.157
938.203
938.03
937.917
937.831
937.759
937.697
937.642
937.592
937.547
937.505
937.468
933.891
933.891
933.891
933.891
933.891
933.891
933.891
933.891
933.891
933.895
934.09
934.243
934.378
934.503
934.622
934.735
934.845
934.951
935.055
935.156
935.255
935.351
935.446
935.539
935.63
935.72
935.809
935.896
935.982
936.066
936.149
936.231
936.312
936.392
936.471
936.55
936.627
936.704
936.781
936.857
936.934
937.009
937.084
937.159
937.233
937.307
937.379
937.451
937.522
937.592
937.661
937.729
937.796
937.861
937.924
937.986
938.046
938.103
938.157
938.203
938.03
937.917
937.83
937.759
937.697
937.642
937.592
937.547
937.505
937.468
933.891
933.891
933.891
933.891
933.891
933.891
933.891
933.891
933.891
933.895
934.09
934.243
934.378
934.503
934.621
934.735
934.844
934.951
935.054
935.155
935.254
935.351
935.446
935.539
935.63
935.72
935.808
935.895
935.981
936.065
936.149
936.23
936.311
936.391
936.471
936.549
936.627
936.704
936.78
936.857
936.933
937.009
937.084
937.158
937.232
937.306
937.378
937.45
937.521
937.592
937.661
937.729
937.795
937.86
937.924
937.985
938.045
938.102
938.157
938.203
938.029
937.916
937.83
937.758
937.696
937.641
937.592
937.546
937.505
937.467
933.891
933.891
933.891
933.891
933.891
933.891
933.891
933.891
933.891
933.895
934.089
934.242
934.377
934.502
934.62
934.734
934.844
934.95
935.054
935.155
935.254
935.35
935.445
935.538
935.629
935.719
935.808
935.895
935.98
936.065
936.148
936.229
936.31
936.39
936.47
936.548
936.626
936.703
936.779
936.856
936.932
937.007
937.083
937.157
937.231
937.305
937.378
937.449
937.52
937.591
937.66
937.728
937.794
937.86
937.923
937.985
938.044
938.102
938.156
938.202
938.028
937.916
937.829
937.757
937.695
937.64
937.591
937.545
937.504
937.466
933.891
933.891
933.891
933.891
933.891
933.891
933.891
933.891
933.891
933.895
934.089
934.242
934.377
934.501
934.62
934.733
934.843
934.949
935.053
935.154
935.253
935.35
935.445
935.538
935.629
935.719
935.807
935.894
935.979
936.064
936.147
936.228
936.309
936.389
936.469
936.548
936.626
936.702
936.779
936.855
936.931
937.007
937.082
937.156
937.23
937.304
937.377
937.448
937.52
937.59
937.659
937.727
937.793
937.859
937.922
937.984
938.043
938.101
938.155
938.201
938.027
937.915
937.828
937.756
937.694
937.639
937.59
937.544
937.503
937.465
933.891
933.891
933.891
933.891
933.891
933.891
933.891
933.891
933.891
933.895
934.089
934.242
934.377
934.501
934.619
934.733
934.842
934.949
935.052
935.154
935.252
935.349
935.444
935.537
935.628
935.718
935.806
935.893
935.979
936.063
936.146
936.227
936.308
936.389
936.469
936.548
936.626
936.703
936.779
936.855
936.931
937.006
937.081
937.156
937.23
937.303
937.376
937.448
937.519
937.589
937.658
937.726
937.793
937.858
937.921
937.983
938.043
938.1
938.155
938.2
938.027
937.914
937.827
937.756
937.694
937.638
937.589
937.544
937.502
937.465
933.891
933.891
933.891
933.891
933.891
933.891
933.891
933.891
933.891
933.895
934.089
934.241
934.376
934.5
934.618
934.732
934.842
934.948
935.052
935.153
935.252
935.349
935.444
935.537
935.628
935.718
935.806
935.893
935.978
936.062
936.145
936.227
936.308
936.389
936.469
936.548
936.626
936.703
936.779
936.855
936.931
937.006
937.081
937.156
937.23
937.303
937.376
937.447
937.518
937.589
937.658
937.726
937.792
937.858
937.921
937.983
938.042
938.1
938.154
938.2
938.026
937.914
937.827
937.755
937.693
937.638
937.588
937.543
937.502
937.464
933.891
933.891
933.891
933.891
933.891
933.891
933.891
933.891
933.891
933.895
934.089
934.241
934.375
934.5
934.618
934.731
934.841
934.947
935.051
935.152
935.251
935.348
935.443
935.536
935.628
935.717
935.806
935.892
935.978
936.062
936.145
936.227
936.308
936.389
936.469
936.548
936.626
936.704
936.78
936.856
936.931
937.007
937.081
937.156
937.23
937.303
937.376
937.447
937.518
937.588
937.658
937.726
937.792
937.857
937.921
937.983
938.042
938.1
938.154
938.2
938.026
937.913
937.827
937.755
937.693
937.638
937.588
937.543
937.501
937.464
933.891
933.891
933.891
933.891
933.891
933.891
933.891
933.891
933.891
933.895
934.089
934.241
934.375
934.499
934.617
934.731
934.84
934.947
935.051
935.152
935.251
935.348
935.443
935.536
935.627
935.717
935.805
935.892
935.978
936.062
936.145
936.227
936.309
936.389
936.469
936.549
936.627
936.704
936.781
936.857
936.932
937.007
937.082
937.156
937.23
937.303
937.375
937.447
937.518
937.588
937.657
937.725
937.792
937.857
937.921
937.983
938.042
938.1
938.154
938.2
938.026
937.914
937.827
937.755
937.693
937.638
937.588
937.543
937.501
937.464
933.891
933.891
933.891
933.891
933.891
933.891
933.891
933.891
933.891
933.895
934.089
934.241
934.375
934.499
934.617
934.73
934.84
934.946
935.05
935.151
935.251
935.348
935.443
935.536
935.627
935.717
935.805
935.892
935.977
936.062
936.145
936.227
936.309
936.39
936.47
936.549
936.627
936.705
936.781
936.857
936.932
937.007
937.082
937.156
937.23
937.303
937.375
937.447
937.518
937.588
937.657
937.725
937.792
937.857
937.921
937.983
938.042
938.1
938.154
938.2
938.026
937.914
937.827
937.755
937.693
937.638
937.588
937.543
937.501
937.464
933.891
933.891
933.891
933.891
933.891
933.891
933.891
933.891
933.891
933.895
934.089
934.241
934.375
934.499
934.616
934.73
934.839
934.946
935.05
935.151
935.25
935.347
935.442
935.536
935.627
935.717
935.805
935.892
935.978
936.062
936.145
936.227
936.309
936.39
936.47
936.549
936.628
936.705
936.782
936.857
936.933
937.008
937.082
937.156
937.23
937.303
937.375
937.447
937.518
937.588
937.657
937.725
937.792
937.857
937.921
937.982
938.042
938.1
938.154
938.2
938.026
937.914
937.827
937.755
937.693
937.638
937.588
937.543
937.501
937.464
933.891
933.891
933.891
933.891
933.891
933.891
933.891
933.891
933.891
933.895
934.088
934.24
934.374
934.498
934.616
934.729
934.839
934.945
935.049
935.151
935.25
935.347
935.442
935.535
935.627
935.717
935.805
935.892
935.978
936.062
936.145
936.227
936.309
936.39
936.47
936.549
936.628
936.705
936.782
936.857
936.933
937.007
937.082
937.156
937.229
937.302
937.375
937.446
937.517
937.587
937.656
937.725
937.791
937.857
937.92
937.982
938.042
938.1
938.155
938.201
938.027
937.914
937.828
937.756
937.693
937.638
937.589
937.543
937.502
937.464
933.891
933.891
933.891
933.891
933.891
933.891
933.891
933.891
933.891
933.895
934.088
934.24
934.374
934.498
934.615
934.729
934.838
934.945
935.049
935.15
935.249
935.347
935.442
935.535
935.627
935.717
935.805
935.892
935.978
936.062
936.145
936.227
936.309
936.39
936.47
936.549
936.627
936.705
936.781
936.857
936.932
937.007
937.081
937.155
937.229
937.302
937.374
937.446
937.517
937.587
937.656
937.724
937.791
937.856
937.92
937.982
938.042
938.1
938.155
938.201
938.027
937.914
937.828
937.756
937.693
937.638
937.589
937.543
937.502
937.464
933.891
933.891
933.891
933.891
933.891
933.891
933.891
933.891
933.891
933.895
934.088
934.24
934.373
934.497
934.615
934.728
934.838
934.944
935.048
935.15
935.249
935.346
935.442
935.535
935.627
935.717
935.805
935.892
935.978
936.062
936.145
936.227
936.309
936.39
936.47
936.549
936.627
936.704
936.781
936.856
936.932
937.006
937.081
937.155
937.228
937.301
937.373
937.445
937.516
937.586
937.655
937.723
937.79
937.856
937.92
937.982
938.042
938.1
938.155
938.202
938.027
937.915
937.828
937.756
937.694
937.638
937.589
937.543
937.502
937.464
933.891
933.891
933.891
933.891
933.891
933.891
933.891
933.891
933.891
933.895
934.088
934.239
934.373
934.497
934.615
934.728
934.837
934.944
935.048
935.149
935.249
935.346
935.441
935.535
935.627
935.717
935.805
935.892
935.978
936.062
936.145
936.227
936.308
936.389
936.469
936.548
936.626
936.704
936.78
936.855
936.931
937.005
937.08
937.154
937.227
937.3
937.373
937.444
937.515
937.585
937.655
937.723
937.79
937.855
937.919
937.982
938.042
938.1
938.156
938.202
938.028
937.915
937.828
937.756
937.694
937.639
937.589
937.544
937.502
937.464
933.891
933.891
933.891
933.891
933.891
933.891
933.891
933.891
933.891
933.895
934.088
934.239
934.373
934.497
934.614
934.727
934.837
934.944
935.048
935.149
935.248
935.346
935.441
935.535
935.626
935.717
935.805
935.892
935.978
936.062
936.145
936.227
936.308
936.389
936.468
936.547
936.625
936.702
936.778
936.854
936.929
937.004
937.079
937.153
937.226
937.299
937.372
937.443
937.514
937.585
937.654
937.722
937.789
937.855
937.919
937.982
938.042
938.1
938.156
938.202
938.028
937.915
937.828
937.756
937.694
937.639
937.589
937.544
937.502
937.465
933.891
933.891
933.891
933.891
933.891
933.891
933.891
933.891
933.891
933.895
934.088
934.239
934.372
934.496
934.614
934.727
934.837
934.943
935.047
935.149
935.248
935.345
935.441
935.534
935.626
935.716
935.805
935.892
935.978
936.062
936.145
936.226
936.307
936.388
936.468
936.546
936.624
936.701
936.777
936.853
936.928
937.004
937.078
937.152
937.226
937.299
937.371
937.443
937.514
937.584
937.653
937.722
937.789
937.855
937.919
937.982
938.043
938.101
938.157
938.204
938.029
937.916
937.829
937.757
937.695
937.64
937.59
937.545
937.503
937.465
933.891
933.891
933.891
933.891
933.891
933.891
933.891
933.891
933.891
933.895
934.087
934.239
934.372
934.496
934.614
934.727
934.836
934.943
935.047
935.148
935.247
935.345
935.44
935.534
935.626
935.716
935.805
935.892
935.978
936.062
936.145
936.226
936.307
936.387
936.467
936.545
936.623
936.7
936.776
936.852
936.928
937.003
937.078
937.152
937.226
937.299
937.371
937.443
937.514
937.584
937.653
937.722
937.789
937.855
937.92
937.983
938.043
938.102
938.158
938.205
938.03
937.917
937.83
937.758
937.696
937.64
937.591
937.546
937.504
937.466
933.891
933.891
933.891
933.891
933.891
933.891
933.891
933.891
933.891
933.895
934.087
934.239
934.372
934.496
934.613
934.726
934.836
934.942
935.046
935.148
935.247
935.344
935.439
935.533
935.625
935.715
935.804
935.891
935.977
936.061
936.144
936.226
936.306
936.387
936.466
936.545
936.622
936.699
936.776
936.852
936.928
937.003
937.078
937.152
937.226
937.299
937.371
937.443
937.514
937.584
937.654
937.722
937.79
937.856
937.92
937.984
938.045
938.104
938.16
938.207
938.032
937.918
937.831
937.759
937.697
937.642
937.592
937.547
937.505
937.467
933.891
933.891
933.891
933.891
933.891
933.891
933.891
933.891
933.891
933.895
934.087
934.239
934.372
934.495
934.613
934.726
934.835
934.942
935.045
935.147
935.246
935.343
935.438
935.532
935.624
935.714
935.803
935.89
935.976
936.061
936.143
936.225
936.306
936.386
936.465
936.544
936.621
936.699
936.775
936.852
936.928
937.003
937.078
937.152
937.226
937.299
937.371
937.443
937.514
937.584
937.654
937.723
937.79
937.856
937.921
937.985
938.046
938.105
938.161
938.209
938.033
937.92
937.833
937.761
937.698
937.643
937.593
937.548
937.506
937.469
933.891
933.891
933.891
933.891
933.891
933.891
933.891
933.891
933.891
933.895
934.087
934.238
934.371
934.495
934.612
934.725
934.835
934.941
935.045
935.146
935.245
935.342
935.437
935.531
935.623
935.713
935.802
935.889
935.975
936.059
936.142
936.224
936.305
936.385
936.464
936.543
936.621
936.698
936.775
936.851
936.927
937.003
937.078
937.152
937.226
937.299
937.371
937.443
937.514
937.584
937.654
937.723
937.79
937.857
937.922
937.985
938.047
938.106
938.162
938.21
938.035
937.921
937.834
937.762
937.699
937.644
937.594
937.549
937.507
937.47
933.891
933.891
933.891
933.891
933.891
933.891
933.891
933.891
933.891
933.895
934.087
934.238
934.371
934.495
934.612
934.725
934.834
934.94
935.044
935.145
935.244
935.341
935.436
935.53
935.621
935.712
935.8
935.888
935.974
936.058
936.141
936.223
936.303
936.383
936.463
936.541
936.619
936.697
936.774
936.851
936.927
937.002
937.077
937.151
937.225
937.298
937.371
937.442
937.513
937.584
937.653
937.722
937.79
937.857
937.922
937.986
938.047
938.107
938.164
938.211
938.035
937.922
937.835
937.762
937.7
937.645
937.595
937.55
937.508
937.47
933.891
933.891
933.891
933.891
933.891
933.891
933.891
933.891
933.891
933.895
934.087
934.238
934.371
934.494
934.611
934.724
934.833
934.939
935.043
935.144
935.243
935.34
935.435
935.528
935.62
935.71
935.799
935.886
935.972
936.056
936.139
936.221
936.302
936.382
936.461
936.54
936.618
936.695
936.773
936.849
936.925
937.001
937.076
937.15
937.224
937.297
937.369
937.441
937.512
937.583
937.652
937.721
937.789
937.856
937.921
937.985
938.047
938.107
938.164
938.212
938.036
937.922
937.835
937.763
937.7
937.645
937.595
937.55
937.508
937.47
933.891
933.891
933.891
933.891
933.891
933.891
933.891
933.891
933.891
933.895
934.087
934.237
934.37
934.494
934.611
934.723
934.832
934.938
935.041
935.142
935.241
935.338
935.433
935.526
935.618
935.708
935.797
935.884
935.969
936.054
936.137
936.218
936.299
936.379
936.459
936.537
936.616
936.693
936.771
936.847
936.923
936.999
937.074
937.148
937.222
937.295
937.368
937.439
937.51
937.581
937.651
937.72
937.788
937.854
937.92
937.984
938.046
938.106
938.163
938.211
938.035
937.921
937.834
937.762
937.699
937.644
937.594
937.549
937.507
937.469
933.891
933.891
933.891
933.891
933.891
933.891
933.891
933.891
933.891
933.895
934.087
934.237
934.37
934.493
934.61
934.722
934.831
934.937
935.04
935.141
935.239
935.336
935.431
935.524
935.616
935.706
935.794
935.881
935.967
936.051
936.134
936.216
936.297
936.377
936.456
936.535
936.613
936.691
936.768
936.845
936.921
936.997
937.072
937.146
937.22
937.293
937.365
937.437
937.508
937.578
937.648
937.717
937.785
937.852
937.918
937.982
938.045
938.105
938.162
938.21
938.034
937.92
937.833
937.761
937.698
937.643
937.593
937.548
937.506
937.468
933.891
933.891
933.891
933.891
933.891
933.891
933.891
933.891
933.891
933.895
934.086
934.237
934.369
934.492
934.609
934.721
934.83
934.935
935.038
935.139
935.237
935.334
935.429
935.522
935.613
935.703
935.792
935.879
935.964
936.048
936.131
936.213
936.294
936.374
936.453
936.532
936.61
936.688
936.765
936.842
936.918
936.994
937.069
937.143
937.216
937.29
937.362
937.434
937.505
937.575
937.645
937.714
937.782
937.849
937.915
937.98
938.043
938.103
938.16
938.209
938.032
937.919
937.831
937.759
937.696
937.641
937.591
937.546
937.504
937.466
933.891
933.891
933.891
933.891
933.891
933.891
933.891
933.891
933.891
933.895
934.086
934.237
934.369
934.492
934.608
934.72
934.828
934.934
935.036
935.137
935.235
935.332
935.426
935.519
935.611
935.7
935.789
935.876
935.961
936.045
936.128
936.209
936.29
936.37
936.45
936.529
936.607
936.685
936.762
936.839
936.915
936.99
937.065
937.14
937.213
937.286
937.359
937.43
937.502
937.572
937.642
937.711
937.779
937.846
937.912
937.977
938.04
938.101
938.159
938.207
938.031
937.917
937.829
937.757
937.695
937.639
937.59
937.544
937.503
937.465
933.891
933.891
933.891
933.891
933.891
933.891
933.891
933.891
933.891
933.895
934.086
934.236
934.368
934.491
934.607
934.719
934.827
934.932
935.034
935.135
935.233
935.329
935.424
935.516
935.608
935.697
935.785
935.872
935.957
936.041
936.124
936.206
936.287
936.367
936.447
936.526
936.604
936.682
936.759
936.836
936.912
936.987
937.062
937.136
937.21
937.283
937.355
937.427
937.499
937.569
937.639
937.708
937.777
937.844
937.911
937.976
938.039
938.1
938.158
938.207
938.031
937.917
937.829
937.757
937.695
937.64
937.59
937.545
937.503
937.466
933.891
933.891
933.891
933.891
933.891
933.891
933.891
933.891
933.891
933.895
934.086
934.236
934.368
934.49
934.606
934.717
934.825
934.93
935.033
935.133
935.231
935.327
935.421
935.514
935.605
935.695
935.783
935.869
935.955
936.039
936.121
936.203
936.284
936.365
936.444
936.523
936.602
936.68
936.757
936.834
936.91
936.986
937.061
937.135
937.209
937.282
937.355
937.427
937.498
937.569
937.639
937.709
937.778
937.845
937.912
937.978
938.042
938.104
938.162
938.212
938.035
937.921
937.834
937.762
937.7
937.645
937.595
937.55
937.509
937.472
933.891
933.891
933.891
933.891
933.891
933.891
933.891
933.891
933.891
933.895
934.085
934.235
934.367
934.489
934.605
934.716
934.824
934.929
935.031
935.131
935.229
935.325
935.419
935.512
935.603
935.693
935.781
935.868
935.953
936.037
936.12
936.203
936.284
936.365
936.445
936.524
936.603
936.681
936.759
936.836
936.913
936.989
937.064
937.139
937.214
937.287
937.361
937.433
937.505
937.577
937.648
937.718
937.788
937.856
937.924
937.991
938.056
938.118
938.179
938.229
938.052
937.939
937.852
937.78
937.718
937.664
937.615
937.57
937.529
937.492
933.891
933.891
933.891
933.891
933.891
933.891
933.891
933.891
933.891
933.895
934.085
934.235
934.367
934.489
934.605
934.716
934.824
934.929
935.031
935.131
935.229
935.325
935.42
935.513
935.605
935.695
935.784
935.871
935.957
936.042
936.126
936.209
936.291
936.373
936.454
936.535
936.615
936.694
936.773
936.851
936.929
937.006
937.083
937.159
937.235
937.31
937.385
937.459
937.532
937.605
937.678
937.75
937.821
937.892
937.961
938.03
938.097
938.162
938.224
938.277
938.1
937.987
937.9
937.829
937.768
937.714
937.666
937.622
937.582
937.546
933.891
933.891
933.891
933.891
933.891
933.891
933.891
933.891
933.891
933.895
934.085
934.235
934.367
934.49
934.606
934.718
934.826
934.932
935.035
935.136
935.235
935.333
935.429
935.523
935.616
935.708
935.798
935.888
935.976
936.063
936.149
936.234
936.319
936.403
936.486
936.57
936.652
936.734
936.816
936.897
936.978
937.058
937.137
937.217
937.296
937.374
937.452
937.529
937.606
937.683
937.759
937.834
937.909
937.984
938.057
938.13
938.201
938.27
938.336
938.393
938.215
938.103
938.017
937.947
937.887
937.834
937.788
937.745
937.707
937.672
933.891
933.891
933.891
933.891
933.891
933.891
933.891
933.891
933.891
933.895
934.086
934.238
934.371
934.496
934.614
934.728
934.839
934.947
935.054
935.158
935.261
935.362
935.462
935.56
935.658
935.754
935.849
935.943
936.036
936.128
936.22
936.31
936.4
936.49
936.579
936.668
936.757
936.845
936.932
937.02
937.107
937.193
937.28
937.365
937.451
937.536
937.621
937.705
937.789
937.872
937.955
938.038
938.12
938.202
938.283
938.362
938.441
938.518
938.592
938.655
938.475
938.362
938.277
938.207
938.148
938.096
938.049
938.008
937.97
937.936
933.891
933.891
933.891
933.891
933.891
933.891
933.891
933.891
933.891
933.895
934.091
934.247
934.387
934.517
934.642
934.763
934.882
934.999
935.113
935.227
935.339
935.45
935.559
935.668
935.776
935.883
935.989
936.094
936.199
936.302
936.405
936.507
936.609
936.711
936.812
936.913
937.013
937.113
937.213
937.313
937.412
937.511
937.609
937.707
937.805
937.902
937.999
938.095
938.191
938.287
938.382
938.477
938.571
938.664
938.757
938.848
938.938
939.027
939.112
939.186
938.993
938.873
938.782
938.706
938.642
938.584
938.533
938.485
938.442
938.403
933.891
933.891
933.891
933.891
933.891
933.891
933.891
933.891
933.891
933.896
934.109
934.284
934.44
934.589
934.733
934.874
935.012
935.148
935.284
935.417
935.55
935.682
935.813
935.943
936.072
936.2
936.327
936.453
936.578
936.703
936.826
936.948
937.07
937.191
937.312
937.432
937.551
937.67
937.788
937.906
938.023
938.139
938.254
938.369
938.482
938.596
938.708
938.82
938.931
939.041
939.15
939.259
939.366
939.473
939.578
939.682
939.785
939.885
939.981
940.06
939.821
939.664
939.541
939.437
939.345
939.262
939.186
939.116
939.052
938.994
933.891
933.891
933.891
933.891
933.891
933.891
933.891
933.891
933.892
933.898
934.179
934.399
934.595
934.781
934.959
935.132
935.302
935.469
935.634
935.797
935.958
936.118
936.276
936.432
936.587
936.74
936.891
937.04
937.187
937.333
937.476
937.618
937.759
937.898
938.035
938.171
938.306
938.439
938.571
938.701
938.83
938.958
939.084
939.209
939.333
939.456
939.577
939.697
939.815
939.933
940.05
940.165
940.279
940.392
940.502
940.612
940.719
940.822
940.92
940.989
940.592
940.338
940.142
939.979
939.839
939.716
939.605
939.505
939.413
939.333
933.891
933.891
933.891
933.891
933.891
933.891
933.891
933.891
933.891
933.896
934.111
934.315
934.506
934.689
934.866
935.038
935.207
935.373
935.537
935.7
935.86
936.019
936.176
936.331
936.486
936.638
936.79
936.939
937.087
937.234
937.379
937.522
937.664
937.804
937.942
938.078
938.213
938.347
938.479
938.61
938.74
938.869
938.996
939.123
939.248
939.373
939.495
939.616
939.736
939.854
939.971
940.086
940.199
940.31
940.418
940.525
940.628
940.728
940.823
940.894
940.568
940.327
940.136
939.975
939.836
939.713
939.602
939.502
939.411
939.33
933.891
933.891
933.891
933.891
933.891
933.891
933.891
933.891
933.891
933.894
934.048
934.201
934.349
934.493
934.633
934.771
934.907
935.041
935.174
935.306
935.437
935.566
935.696
935.824
935.951
936.078
936.205
936.33
936.455
936.579
936.702
936.825
936.947
937.068
937.189
937.309
937.428
937.546
937.664
937.781
937.898
938.015
938.131
938.246
938.361
938.475
938.588
938.701
938.812
938.923
939.032
939.14
939.247
939.353
939.457
939.559
939.659
939.756
939.85
939.931
939.765
939.628
939.514
939.415
939.327
939.247
939.174
939.106
939.042
938.985
933.891
933.891
933.891
933.891
933.891
933.891
933.891
933.891
933.891
933.894
934.032
934.168
934.299
934.424
934.546
934.665
934.781
934.895
935.008
935.119
935.229
935.338
935.446
935.553
935.659
935.765
935.87
935.974
936.078
936.181
936.283
936.385
936.487
936.588
936.689
936.789
936.889
936.988
937.087
937.186
937.285
937.383
937.482
937.58
937.678
937.775
937.872
937.969
938.065
938.16
938.255
938.349
938.442
938.534
938.624
938.714
938.801
938.887
938.97
939.045
938.922
938.822
938.74
938.67
938.609
938.555
938.505