/*--------------------------------*- C++ -*----------------------------------*\
  =========                 |
  \\      /  F ield         | OpenFOAM: The Open Source CFD Toolbox
   \\    /   O peration     | Website:  https://openfoam.org
    \\  /    A nd           | Version:  12
     \\/     M anipulation  |
\*---------------------------------------------------------------------------*/
FoamFile
{
    format      ascii;
    class       volScalarField;
    location    "1250/porous";
    object      T;
}
// * * * * * * * * * * * * * * * * * * * * * * * * * * * * * * * * * * * * * //

dimensions      [0 0 0 1 0 0 0];

internalField   nonuniform List<scalar> 
140000
(
400
400
400
400
400
400
400
400
400
399.993
399.687
399.447
399.233
399.032
398.838
398.651
398.467
398.287
398.11
397.934
397.761
397.589
397.419
397.25
397.083
396.918
396.753
396.591
396.43
396.27
396.113
395.956
395.802
395.649
395.498
395.349
395.201
395.054
394.909
394.765
394.622
394.481
394.34
394.2
394.062
393.925
393.789
393.655
393.522
393.392
393.262
393.135
393.01
392.886
392.766
392.648
392.534
392.423
392.319
392.246
392.687
392.969
393.186
393.366
393.521
393.657
393.78
393.891
393.992
394.08
400
400
400
400
400
400
400
400
400
399.995
399.762
399.572
399.401
399.239
399.083
398.93
398.781
398.634
398.488
398.345
398.202
398.06
397.919
397.779
397.64
397.502
397.364
397.227
397.091
396.956
396.821
396.687
396.553
396.421
396.289
396.158
396.028
395.898
395.768
395.64
395.511
395.384
395.256
395.129
395.003
394.877
394.752
394.629
394.506
394.384
394.263
394.144
394.026
393.91
393.795
393.683
393.573
393.467
393.363
393.28
393.543
393.716
393.851
393.967
394.068
394.159
394.243
394.32
394.391
394.455
400
400
400
400
400
400
400
400
400
399.996
399.781
399.611
399.458
399.316
399.18
399.049
398.92
398.795
398.671
398.549
398.429
398.31
398.192
398.075
397.959
397.844
397.729
397.615
397.502
397.389
397.277
397.165
397.054
396.943
396.833
396.723
396.614
396.505
396.396
396.288
396.18
396.071
395.963
395.855
395.747
395.64
395.533
395.427
395.321
395.216
395.112
395.009
394.907
394.806
394.706
394.608
394.512
394.418
394.328
394.249
394.459
394.591
394.691
394.773
394.844
394.907
394.964
395.016
395.063
395.106
400
400
400
400
400
400
400
400
400
399.996
399.787
399.62
399.474
399.338
399.209
399.085
398.965
398.849
398.734
398.622
398.512
398.403
398.296
398.19
398.085
397.982
397.879
397.777
397.676
397.576
397.476
397.377
397.279
397.181
397.084
396.988
396.892
396.797
396.702
396.607
396.512
396.417
396.323
396.229
396.135
396.041
395.948
395.855
395.763
395.672
395.582
395.492
395.403
395.316
395.229
395.145
395.061
394.981
394.902
394.835
395.031
395.154
395.247
395.323
395.388
395.444
395.495
395.54
395.582
395.619
400
400
400
400
400
400
400
400
400
399.996
399.788
399.623
399.478
399.344
399.217
399.095
398.978
398.864
398.753
398.645
398.538
398.434
398.331
398.229
398.129
398.03
397.932
397.836
397.74
397.645
397.551
397.458
397.366
397.275
397.184
397.094
397.005
396.916
396.828
396.74
396.652
396.564
396.477
396.39
396.304
396.218
396.132
396.047
395.963
395.88
395.797
395.715
395.635
395.556
395.478
395.401
395.326
395.254
395.184
395.124
395.317
395.439
395.532
395.608
395.674
395.731
395.782
395.828
395.87
395.908
400
400
400
400
400
400
400
400
400
399.996
399.787
399.623
399.478
399.344
399.218
399.097
398.98
398.867
398.757
398.649
398.544
398.44
398.339
398.239
398.14
398.043
397.947
397.852
397.759
397.666
397.575
397.484
397.394
397.306
397.218
397.131
397.044
396.958
396.873
396.789
396.704
396.62
396.536
396.453
396.37
396.287
396.205
396.124
396.044
395.964
395.886
395.808
395.732
395.657
395.583
395.511
395.441
395.373
395.308
395.252
395.444
395.567
395.66
395.738
395.804
395.863
395.915
395.963
396.006
396.046
400
400
400
400
400
400
400
400
400
399.996
399.788
399.623
399.478
399.344
399.217
399.096
398.979
398.866
398.756
398.648
398.543
398.44
398.339
398.239
398.141
398.045
397.949
397.855
397.762
397.67
397.58
397.49
397.401
397.314
397.227
397.141
397.056
396.971
396.887
396.804
396.721
396.638
396.556
396.474
396.392
396.311
396.231
396.152
396.073
395.995
395.918
395.843
395.768
395.695
395.624
395.554
395.486
395.421
395.357
395.304
395.496
395.619
395.713
395.791
395.858
395.918
395.971
396.02
396.064
396.104
400
400
400
400
400
400
400
400
400
399.996
399.787
399.623
399.477
399.343
399.216
399.095
398.977
398.864
398.754
398.646
398.541
398.438
398.336
398.237
398.138
398.042
397.947
397.853
397.76
397.668
397.578
397.488
397.4
397.313
397.226
397.141
397.056
396.972
396.889
396.806
396.723
396.641
396.559
396.478
396.397
396.317
396.237
396.159
396.081
396.004
395.928
395.853
395.779
395.707
395.637
395.568
395.502
395.437
395.375
395.323
395.514
395.638
395.732
395.811
395.878
395.938
395.992
396.041
396.086
396.127
400
400
400
400
400
400
400
400
400
399.996
399.787
399.622
399.477
399.342
399.215
399.093
398.976
398.862
398.752
398.644
398.538
398.435
398.333
398.234
398.135
398.039
397.943
397.849
397.757
397.665
397.575
397.485
397.397
397.31
397.224
397.138
397.054
396.97
396.887
396.804
396.722
396.639
396.558
396.476
396.396
396.316
396.236
396.158
396.08
396.004
395.928
395.854
395.78
395.709
395.639
395.571
395.504
395.441
395.379
395.328
395.519
395.642
395.737
395.816
395.884
395.944
395.998
396.047
396.092
396.133
400
400
400
400
400
400
400
400
400
399.996
399.787
399.622
399.476
399.342
399.214
399.093
398.975
398.861
398.75
398.642
398.536
398.432
398.331
398.231
398.132
398.036
397.94
397.846
397.753
397.661
397.571
397.482
397.393
397.306
397.22
397.135
397.05
396.967
396.883
396.801
396.718
396.636
396.554
396.473
396.392
396.312
396.233
396.155
396.077
396.001
395.925
395.851
395.778
395.706
395.637
395.568
395.503
395.439
395.378
395.327
395.518
395.642
395.737
395.815
395.883
395.943
395.998
396.047
396.092
396.133
400
400
400
400
400
400
400
400
400
399.996
399.787
399.622
399.477
399.342
399.214
399.092
398.974
398.86
398.749
398.641
398.535
398.431
398.329
398.229
398.13
398.033
397.938
397.843
397.75
397.659
397.568
397.479
397.39
397.303
397.217
397.132
397.048
396.964
396.881
396.798
396.715
396.633
396.551
396.47
396.389
396.309
396.23
396.151
396.074
395.997
395.921
395.847
395.774
395.703
395.633
395.565
395.499
395.436
395.376
395.325
395.516
395.639
395.734
395.813
395.881
395.941
395.995
396.045
396.09
396.131
400
400
400
400
400
400
400
400
400
399.996
399.787
399.622
399.476
399.342
399.214
399.092
398.974
398.859
398.748
398.64
398.533
398.429
398.327
398.227
398.128
398.031
397.935
397.841
397.748
397.656
397.566
397.476
397.388
397.301
397.215
397.13
397.045
396.961
396.878
396.795
396.712
396.63
396.548
396.467
396.386
396.306
396.227
396.148
396.07
395.994
395.918
395.844
395.771
395.699
395.63
395.562
395.496
395.433
395.373
395.322
395.513
395.637
395.732
395.81
395.878
395.939
395.993
396.042
396.088
396.129
400
400
400
400
400
400
400
400
400
399.996
399.787
399.622
399.476
399.342
399.214
399.092
398.974
398.859
398.748
398.639
398.533
398.429
398.326
398.226
398.127
398.03
397.934
397.84
397.747
397.655
397.564
397.475
397.387
397.3
397.213
397.128
397.044
396.96
396.877
396.793
396.711
396.628
396.546
396.465
396.384
396.304
396.224
396.146
396.068
395.991
395.916
395.841
395.768
395.697
395.627
395.56
395.494
395.431
395.371
395.32
395.511
395.635
395.73
395.808
395.876
395.937
395.991
396.04
396.086
396.127
400
400
400
400
400
400
400
400
400
399.996
399.787
399.622
399.477
399.342
399.214
399.092
398.974
398.859
398.748
398.639
398.532
398.428
398.326
398.225
398.126
398.029
397.933
397.839
397.746
397.654
397.563
397.474
397.386
397.299
397.213
397.127
397.043
396.959
396.876
396.792
396.71
396.627
396.545
396.463
396.382
396.302
396.223
396.144
396.067
395.99
395.914
395.84
395.767
395.695
395.626
395.558
395.492
395.429
395.369
395.318
395.509
395.633
395.728
395.807
395.875
395.935
395.99
396.039
396.085
396.126
400
400
400
400
400
400
400
400
400
399.996
399.787
399.622
399.477
399.343
399.215
399.092
398.974
398.86
398.748
398.639
398.532
398.428
398.326
398.225
398.126
398.029
397.933
397.839
397.745
397.654
397.563
397.474
397.386
397.299
397.213
397.127
397.043
396.959
396.875
396.792
396.709
396.627
396.544
396.463
396.382
396.302
396.222
396.144
396.066
395.989
395.913
395.839
395.766
395.694
395.625
395.557
395.492
395.428
395.368
395.318
395.509
395.633
395.727
395.806
395.874
395.935
395.989
396.038
396.084
396.125
400
400
400
400
400
400
400
400
400
399.996
399.787
399.623
399.478
399.343
399.215
399.093
398.975
398.86
398.748
398.639
398.533
398.428
398.326
398.225
398.126
398.029
397.933
397.839
397.746
397.654
397.563
397.474
397.386
397.299
397.213
397.128
397.043
396.959
396.876
396.792
396.709
396.627
396.545
396.463
396.382
396.302
396.222
396.144
396.066
395.989
395.913
395.839
395.766
395.694
395.625
395.557
395.491
395.428
395.368
395.318
395.509
395.633
395.728
395.806
395.874
395.935
395.989
396.039
396.084
396.125
400
400
400
400
400
400
400
400
400
399.996
399.787
399.623
399.478
399.344
399.216
399.094
398.976
398.861
398.749
398.64
398.533
398.429
398.326
398.226
398.127
398.029
397.934
397.839
397.746
397.655
397.564
397.475
397.387
397.3
397.214
397.129
397.044
396.96
396.877
396.793
396.71
396.628
396.545
396.464
396.383
396.303
396.223
396.144
396.067
395.99
395.914
395.839
395.766
395.695
395.625
395.557
395.492
395.429
395.369
395.318
395.509
395.633
395.728
395.807
395.875
395.935
395.99
396.039
396.085
396.126
400
400
400
400
400
400
400
400
400
399.996
399.788
399.623
399.479
399.344
399.217
399.095
398.976
398.862
398.75
398.641
398.534
398.429
398.327
398.226
398.127
398.03
397.934
397.84
397.747
397.655
397.565
397.477
397.389
397.302
397.215
397.13
397.045
396.961
396.878
396.794
396.711
396.629
396.547
396.465
396.384
396.304
396.224
396.145
396.068
395.991
395.915
395.84
395.767
395.696
395.626
395.558
395.493
395.43
395.37
395.319
395.51
395.634
395.729
395.808
395.876
395.936
395.991
396.04
396.086
396.127
400
400
400
400
400
400
400
400
400
399.996
399.788
399.624
399.479
399.345
399.218
399.095
398.977
398.862
398.751
398.641
398.535
398.43
398.327
398.227
398.128
398.031
397.935
397.841
397.748
397.656
397.567
397.478
397.39
397.303
397.216
397.13
397.045
396.962
396.878
396.795
396.712
396.63
396.548
396.466
396.385
396.305
396.225
396.146
396.069
395.992
395.916
395.841
395.768
395.697
395.627
395.559
395.494
395.431
395.371
395.32
395.511
395.635
395.73
395.809
395.877
395.937
395.992
396.041
396.087
396.128
400
400
400
400
400
400
400
400
400
399.996
399.788
399.624
399.479
399.345
399.218
399.096
398.978
398.863
398.751
398.642
398.535
398.431
398.328
398.227
398.128
398.031
397.936
397.841
397.749
397.657
397.568
397.479
397.391
397.303
397.216
397.13
397.045
396.961
396.878
396.796
396.713
396.63
396.548
396.467
396.386
396.305
396.226
396.147
396.069
395.992
395.917
395.842
395.769
395.697
395.628
395.56
395.494
395.431
395.371
395.321
395.512
395.636
395.731
395.81
395.878
395.938
395.993
396.042
396.088
396.129
400
400
400
400
400
400
400
400
400
399.996
399.788
399.625
399.48
399.346
399.219
399.097
398.979
398.864
398.752
398.643
398.536
398.431
398.329
398.228
398.129
398.032
397.936
397.842
397.749
397.658
397.568
397.479
397.391
397.303
397.216
397.13
397.045
396.961
396.878
396.795
396.712
396.63
396.548
396.467
396.386
396.306
396.226
396.148
396.07
395.993
395.917
395.843
395.769
395.698
395.628
395.56
395.495
395.432
395.372
395.321
395.513
395.636
395.731
395.81
395.878
395.939
395.993
396.043
396.088
396.129
400
400
400
400
400
400
400
400
400
399.996
399.788
399.625
399.48
399.347
399.22
399.098
398.979
398.865
398.753
398.643
398.536
398.432
398.329
398.228
398.129
398.032
397.936
397.842
397.75
397.659
397.569
397.479
397.391
397.303
397.216
397.13
397.044
396.96
396.877
396.794
396.712
396.63
396.548
396.467
396.386
396.306
396.226
396.148
396.07
395.993
395.917
395.843
395.769
395.698
395.628
395.561
395.495
395.432
395.372
395.322
395.513
395.636
395.732
395.81
395.879
395.939
395.993
396.043
396.088
396.13
400
400
400
400
400
400
400
400
400
399.996
399.788
399.625
399.481
399.347
399.22
399.098
398.98
398.865
398.753
398.644
398.537
398.432
398.329
398.228
398.129
398.032
397.937
397.843
397.75
397.659
397.569
397.479
397.39
397.302
397.215
397.129
397.044
396.959
396.876
396.793
396.711
396.629
396.548
396.466
396.386
396.306
396.226
396.148
396.07
395.993
395.917
395.843
395.77
395.698
395.628
395.561
395.495
395.432
395.372
395.321
395.512
395.636
395.731
395.81
395.878
395.939
395.993
396.043
396.088
396.13
400
400
400
400
400
400
400
400
400
399.996
399.789
399.625
399.481
399.348
399.221
399.099
398.981
398.866
398.754
398.644
398.537
398.432
398.33
398.229
398.13
398.032
397.937
397.843
397.75
397.659
397.568
397.479
397.39
397.302
397.215
397.129
397.043
396.959
396.875
396.793
396.711
396.629
396.547
396.466
396.386
396.306
396.226
396.148
396.07
395.993
395.918
395.843
395.77
395.698
395.628
395.561
395.495
395.432
395.372
395.321
395.512
395.636
395.731
395.81
395.878
395.939
395.993
396.043
396.088
396.13
400
400
400
400
400
400
400
400
400
399.996
399.789
399.625
399.481
399.348
399.221
399.099
398.981
398.866
398.754
398.645
398.538
398.433
398.33
398.229
398.13
398.032
397.937
397.843
397.75
397.659
397.568
397.479
397.39
397.302
397.215
397.128
397.043
396.959
396.875
396.792
396.71
396.629
396.547
396.466
396.386
396.306
396.227
396.148
396.07
395.994
395.918
395.843
395.77
395.698
395.629
395.561
395.495
395.432
395.372
395.321
395.512
395.636
395.731
395.81
395.878
395.939
395.993
396.043
396.088
396.13
400
400
400
400
400
400
400
400
400
399.996
399.789
399.626
399.482
399.349
399.222
399.1
398.982
398.867
398.755
398.645
398.538
398.433
398.33
398.229
398.13
398.033
397.937
397.843
397.75
397.659
397.568
397.479
397.39
397.302
397.215
397.128
397.043
396.959
396.875
396.793
396.71
396.629
396.548
396.467
396.386
396.306
396.227
396.149
396.071
395.994
395.918
395.844
395.771
395.699
395.629
395.561
395.495
395.431
395.371
395.32
395.512
395.636
395.731
395.81
395.878
395.938
395.993
396.043
396.088
396.129
400
400
400
400
400
400
400
400
400
399.996
399.789
399.626
399.482
399.349
399.222
399.1
398.982
398.867
398.755
398.646
398.538
398.433
398.33
398.229
398.13
398.033
397.937
397.842
397.75
397.658
397.568
397.479
397.39
397.302
397.215
397.129
397.043
396.959
396.875
396.793
396.711
396.629
396.548
396.467
396.387
396.307
396.228
396.149
396.072
395.995
395.919
395.844
395.771
395.699
395.629
395.561
395.495
395.432
395.371
395.32
395.512
395.636
395.731
395.81
395.878
395.938
395.993
396.042
396.088
396.129
400
400
400
400
400
400
400
400
400
399.996
399.789
399.626
399.483
399.349
399.223
399.101
398.983
398.868
398.756
398.646
398.539
398.434
398.331
398.229
398.13
398.033
397.937
397.842
397.75
397.658
397.568
397.479
397.39
397.302
397.215
397.129
397.044
396.959
396.876
396.794
396.712
396.63
396.549
396.468
396.388
396.308
396.229
396.15
396.072
395.996
395.92
395.845
395.772
395.7
395.629
395.561
395.495
395.431
395.371
395.319
395.511
395.635
395.731
395.81
395.878
395.938
395.993
396.042
396.088
396.129
400
400
400
400
400
400
400
400
400
399.996
399.789
399.627
399.483
399.35
399.223
399.101
398.983
398.868
398.756
398.646
398.539
398.434
398.331
398.23
398.13
398.033
397.937
397.842
397.75
397.658
397.568
397.479
397.391
397.303
397.216
397.13
397.044
396.96
396.877
396.795
396.713
396.631
396.55
396.469
396.389
396.309
396.23
396.151
396.073
395.996
395.921
395.846
395.772
395.7
395.63
395.562
395.495
395.431
395.37
395.319
395.511
395.635
395.73
395.809
395.878
395.938
395.993
396.042
396.088
396.129
400
400
400
400
400
400
400
400
400
399.996
399.79
399.627
399.483
399.35
399.224
399.102
398.984
398.869
398.756
398.647
398.54
398.434
398.331
398.23
398.131
398.033
397.937
397.842
397.75
397.658
397.568
397.48
397.391
397.303
397.217
397.131
397.046
396.962
396.879
396.796
396.714
396.632
396.551
396.47
396.389
396.31
396.23
396.152
396.074
395.997
395.921
395.846
395.773
395.701
395.63
395.561
395.495
395.431
395.37
395.319
395.511
395.635
395.73
395.809
395.877
395.938
395.992
396.042
396.087
396.129
400
400
400
400
400
400
400
400
400
399.996
399.79
399.627
399.484
399.35
399.224
399.102
398.984
398.869
398.757
398.647
398.54
398.435
398.332
398.231
398.131
398.033
397.937
397.843
397.75
397.658
397.568
397.48
397.392
397.304
397.217
397.132
397.047
396.963
396.88
396.797
396.715
396.633
396.551
396.47
396.39
396.31
396.231
396.153
396.075
395.998
395.922
395.847
395.773
395.701
395.63
395.561
395.494
395.43
395.369
395.317
395.509
395.634
395.729
395.808
395.876
395.937
395.991
396.041
396.087
396.128
400
400
400
400
400
400
400
400
400
399.996
399.79
399.627
399.484
399.351
399.224
399.102
398.984
398.87
398.757
398.648
398.541
398.436
398.332
398.231
398.132
398.034
397.938
397.843
397.75
397.659
397.569
397.48
397.392
397.305
397.218
397.133
397.048
396.964
396.881
396.798
396.716
396.633
396.552
396.471
396.39
396.311
396.231
396.153
396.075
395.998
395.922
395.847
395.773
395.7
395.629
395.56
395.494
395.429
395.368
395.316
395.508
395.633
395.728
395.807
395.875
395.936
395.99
396.04
396.086
396.127
400
400
400
400
400
400
400
400
400
399.996
399.79
399.627
399.484
399.351
399.225
399.103
398.985
398.87
398.758
398.649
398.541
398.436
398.333
398.232
398.132
398.035
397.938
397.844
397.751
397.659
397.569
397.48
397.393
397.306
397.219
397.134
397.049
396.965
396.882
396.798
396.716
396.633
396.552
396.471
396.39
396.31
396.231
396.153
396.075
395.998
395.922
395.846
395.772
395.7
395.629
395.559
395.492
395.427
395.366
395.314
395.507
395.631
395.727
395.806
395.874
395.935
395.989
396.039
396.084
396.126
400
400
400
400
400
400
400
400
400
399.996
399.79
399.627
399.484
399.351
399.225
399.103
398.986
398.871
398.759
398.649
398.542
398.437
398.334
398.233
398.133
398.035
397.939
397.845
397.752
397.66
397.57
397.481
397.393
397.306
397.22
397.135
397.05
396.966
396.882
396.799
396.716
396.633
396.552
396.471
396.39
396.31
396.231
396.152
396.075
395.997
395.921
395.846
395.772
395.699
395.628
395.558
395.491
395.426
395.364
395.312
395.505
395.629
395.725
395.804
395.873
395.933
395.988
396.037
396.083
396.124
400
400
400
400
400
400
400
400
400
399.996
399.79
399.628
399.485
399.352
399.225
399.104
398.986
398.872
398.76
398.65
398.543
398.438
398.335
398.234
398.135
398.037
397.94
397.846
397.753
397.661
397.571
397.482
397.394
397.307
397.221
397.136
397.051
396.966
396.883
396.799
396.716
396.634
396.552
396.471
396.39
396.31
396.231
396.152
396.075
395.997
395.921
395.846
395.772
395.699
395.627
395.557
395.49
395.425
395.363
395.31
395.503
395.628
395.724
395.803
395.871
395.932
395.987
396.036
396.082
396.123
400
400
400
400
400
400
400
400
400
399.996
399.79
399.628
399.485
399.352
399.226
399.105
398.987
398.873
398.761
398.651
398.544
398.44
398.337
398.235
398.136
398.038
397.942
397.847
397.754
397.663
397.573
397.484
397.396
397.309
397.223
397.137
397.052
396.968
396.884
396.8
396.717
396.635
396.553
396.471
396.391
396.311
396.232
396.153
396.075
395.998
395.922
395.846
395.772
395.699
395.627
395.557
395.489
395.424
395.361
395.309
395.502
395.627
395.723
395.802
395.871
395.931
395.986
396.036
396.081
396.123
400
400
400
400
400
400
400
400
400
399.996
399.79
399.628
399.485
399.353
399.227
399.106
398.988
398.874
398.762
398.653
398.546
398.441
398.338
398.237
398.138
398.04
397.944
397.849
397.756
397.665
397.575
397.486
397.398
397.311
397.225
397.139
397.054
396.969
396.885
396.801
396.718
396.636
396.554
396.473
396.392
396.312
396.233
396.154
396.076
395.999
395.923
395.847
395.773
395.7
395.628
395.557
395.489
395.424
395.361
395.308
395.502
395.627
395.723
395.802
395.871
395.931
395.986
396.036
396.081
396.123
400
400
400
400
400
400
400
400
400
399.996
399.79
399.629
399.486
399.353
399.228
399.106
398.989
398.875
398.763
398.654
398.548
398.443
398.34
398.239
398.14
398.042
397.946
397.852
397.759
397.667
397.577
397.488
397.401
397.314
397.227
397.141
397.056
396.971
396.887
396.804
396.72
396.638
396.556
396.475
396.394
396.314
396.235
396.156
396.078
396.001
395.925
395.849
395.775
395.701
395.629
395.559
395.49
395.424
395.362
395.309
395.503
395.628
395.723
395.803
395.871
395.932
395.987
396.036
396.082
396.124
400
400
400
400
400
400
400
400
400
399.996
399.791
399.629
399.486
399.354
399.228
399.107
398.99
398.876
398.765
398.656
398.549
398.445
398.342
398.241
398.142
398.045
397.949
397.854
397.761
397.67
397.58
397.491
397.403
397.316
397.23
397.144
397.059
396.974
396.89
396.806
396.723
396.64
396.559
396.477
396.397
396.317
396.238
396.159
396.081
396.004
395.928
395.852
395.777
395.704
395.631
395.561
395.492
395.426
395.363
395.31
395.504
395.629
395.725
395.804
395.873
395.934
395.988
396.038
396.084
396.125
400
400
400
400
400
400
400
400
400
399.996
399.791
399.629
399.487
399.355
399.229
399.109
398.992
398.878
398.767
398.658
398.551
398.447
398.345
398.244
398.145
398.047
397.952
397.857
397.765
397.673
397.583
397.495
397.407
397.32
397.233
397.147
397.062
396.977
396.893
396.809
396.726
396.644
396.562
396.481
396.4
396.32
396.241
396.163
396.085
396.007
395.931
395.855
395.78
395.707
395.634
395.564
395.494
395.428
395.365
395.312
395.506
395.631
395.727
395.806
395.875
395.935
395.99
396.04
396.085
396.127
400
400
400
400
400
400
400
400
400
399.996
399.791
399.63
399.487
399.355
399.23
399.11
398.993
398.879
398.768
398.66
398.554
398.449
398.347
398.247
398.148
398.05
397.955
397.861
397.768
397.677
397.587
397.498
397.41
397.323
397.237
397.151
397.065
396.98
396.896
396.813
396.73
396.647
396.566
396.484
396.404
396.324
396.245
396.166
396.088
396.011
395.935
395.859
395.784
395.71
395.638
395.566
395.497
395.43
395.367
395.314
395.508
395.633
395.729
395.808
395.877
395.937
395.992
396.041
396.087
396.128
400
400
400
400
400
400
400
400
400
399.996
399.791
399.63
399.488
399.356
399.231
399.111
398.995
398.881
398.771
398.662
398.556
398.452
398.35
398.25
398.151
398.054
397.958
397.864
397.772
397.681
397.591
397.502
397.414
397.327
397.24
397.154
397.069
396.984
396.9
396.816
396.733
396.651
396.569
396.488
396.407
396.327
396.248
396.17
396.092
396.014
395.938
395.862
395.787
395.713
395.64
395.568
395.498
395.432
395.368
395.313
395.508
395.633
395.729
395.808
395.877
395.937
395.992
396.041
396.087
396.128
400
400
400
400
400
400
400
400
400
399.996
399.792
399.631
399.489
399.357
399.232
399.112
398.996
398.883
398.772
398.664
398.559
398.455
398.353
398.253
398.154
398.057
397.961
397.867
397.775
397.684
397.594
397.505
397.417
397.329
397.243
397.157
397.071
396.986
396.902
396.818
396.735
396.652
396.571
396.489
396.409
396.328
396.249
396.17
396.092
396.014
395.937
395.861
395.786
395.711
395.638
395.566
395.496
395.428
395.363
395.308
395.503
395.628
395.723
395.803
395.871
395.931
395.985
396.035
396.08
396.121
400
400
400
400
400
400
400
400
400
399.996
399.792
399.631
399.489
399.358
399.233
399.114
398.998
398.885
398.774
398.667
398.561
398.457
398.355
398.255
398.156
398.059
397.963
397.869
397.777
397.685
397.595
397.506
397.417
397.329
397.242
397.156
397.07
396.984
396.9
396.816
396.732
396.649
396.566
396.485
396.403
396.323
396.242
396.163
396.084
396.006
395.928
395.851
395.775
395.699
395.625
395.552
395.48
395.411
395.345
395.289
395.484
395.609
395.704
395.783
395.851
395.911
395.964
396.013
396.058
396.098
400
400
400
400
400
400
400
400
400
399.996
399.792
399.631
399.489
399.358
399.234
399.114
398.998
398.885
398.774
398.666
398.56
398.456
398.354
398.253
398.154
398.057
397.96
397.866
397.772
397.68
397.589
397.499
397.409
397.32
397.232
397.144
397.057
396.971
396.885
396.799
396.714
396.63
396.546
396.463
396.38
396.298
396.216
396.135
396.055
395.974
395.895
395.816
395.738
395.66
395.584
395.509
395.435
395.363
395.295
395.237
395.431
395.556
395.651
395.729
395.796
395.855
395.908
395.956
396
396.039
400
400
400
400
400
400
400
400
400
399.996
399.792
399.631
399.489
399.358
399.232
399.112
398.995
398.882
398.77
398.661
398.554
398.449
398.345
398.243
398.142
398.042
397.944
397.847
397.752
397.657
397.564
397.471
397.379
397.288
397.197
397.106
397.016
396.927
396.838
396.749
396.661
396.574
396.487
396.4
396.314
396.228
396.143
396.058
395.973
395.89
395.806
395.723
395.641
395.559
395.479
395.399
395.321
395.244
395.171
395.109
395.304
395.429
395.522
395.6
395.665
395.723
395.775
395.821
395.864
395.902
400
400
400
400
400
400
400
400
400
399.996
399.791
399.628
399.485
399.351
399.224
399.101
398.981
398.865
398.75
398.637
398.526
398.417
398.309
398.202
398.097
397.992
397.889
397.787
397.686
397.586
397.487
397.388
397.29
397.193
397.096
396.999
396.902
396.806
396.711
396.615
396.52
396.426
396.331
396.237
396.144
396.051
395.958
395.865
395.773
395.682
395.59
395.5
395.409
395.32
395.231
395.143
395.056
394.972
394.89
394.82
395.019
395.143
395.237
395.314
395.379
395.436
395.487
395.533
395.574
395.612
400
400
400
400
400
400
400
400
400
399.996
399.786
399.619
399.468
399.328
399.194
399.063
398.935
398.809
398.685
398.563
398.442
398.322
398.203
398.085
397.968
397.852
397.737
397.623
397.51
397.397
397.285
397.174
397.063
396.952
396.842
396.732
396.622
396.513
396.404
396.295
396.186
396.078
395.97
395.863
395.756
395.649
395.542
395.436
395.331
395.226
395.121
395.017
394.913
394.81
394.708
394.607
394.507
394.409
394.316
394.234
394.446
394.579
394.68
394.763
394.835
394.898
394.955
395.007
395.055
395.098
400
400
400
400
400
400
400
400
400
399.995
399.766
399.579
399.411
399.25
399.096
398.944
398.795
398.648
398.502
398.357
398.213
398.07
397.929
397.788
397.648
397.508
397.37
397.233
397.097
396.961
396.827
396.693
396.56
396.428
396.296
396.164
396.034
395.903
395.774
395.645
395.517
395.389
395.262
395.136
395.01
394.886
394.762
394.638
394.516
394.394
394.273
394.153
394.034
393.915
393.798
393.683
393.569
393.458
393.35
393.262
393.529
393.703
393.84
393.955
394.057
394.149
394.233
394.31
394.382
394.446
400
400
400
400
400
400
400
400
400
399.993
399.692
399.455
399.244
399.044
398.852
398.666
398.482
398.301
398.122
397.946
397.771
397.598
397.426
397.256
397.088
396.921
396.756
396.593
396.432
396.273
396.116
395.96
395.806
395.654
395.503
395.353
395.205
395.058
394.913
394.769
394.626
394.485
394.346
394.207
394.07
393.934
393.8
393.667
393.535
393.404
393.274
393.146
393.019
392.893
392.769
392.647
392.527
392.412
392.302
392.224
392.67
392.953
393.171
393.352
393.508
393.645
393.768
393.88
393.981
394.07
400
400
400
400
400
400
400
400
400
399.995
399.764
399.546
399.34
399.143
398.953
398.767
398.584
398.404
398.227
398.051
397.878
397.705
397.535
397.365
397.198
397.031
396.867
396.703
396.541
396.381
396.223
396.066
395.911
395.757
395.605
395.455
395.307
395.16
395.014
394.87
394.726
394.584
394.443
394.303
394.164
394.026
393.89
393.756
393.623
393.492
393.362
393.234
393.108
392.984
392.863
392.744
392.629
392.517
392.411
392.332
392.696
392.965
393.178
393.357
393.512
393.649
393.771
393.883
393.984
394.074
400
400
400
400
400
400
400
400
400
399.997
399.833
399.668
399.509
399.354
399.203
399.055
398.908
398.763
398.62
398.477
398.336
398.196
398.056
397.917
397.778
397.641
397.503
397.367
397.231
397.096
396.962
396.828
396.695
396.562
396.43
396.299
396.169
396.039
395.91
395.781
395.653
395.525
395.398
395.271
395.144
395.019
394.894
394.77
394.647
394.525
394.403
394.284
394.165
394.048
393.933
393.82
393.709
393.601
393.496
393.406
393.591
393.743
393.869
393.979
394.077
394.165
394.247
394.322
394.392
394.455
400
400
400
400
400
400
400
400
400
399.998
399.849
399.703
399.563
399.428
399.297
399.169
399.044
398.921
398.799
398.679
398.56
398.443
398.326
398.21
398.095
397.981
397.867
397.754
397.641
397.529
397.418
397.307
397.196
397.086
396.976
396.867
396.758
396.65
396.542
396.434
396.326
396.218
396.11
396.003
395.895
395.788
395.682
395.576
395.47
395.365
395.261
395.158
395.055
394.954
394.854
394.755
394.659
394.564
394.472
394.389
394.525
394.636
394.727
394.804
394.871
394.931
394.985
395.035
395.081
395.122
400
400
400
400
400
400
400
400
400
399.998
399.853
399.712
399.577
399.448
399.324
399.204
399.087
398.972
398.86
398.749
398.64
398.533
398.427
398.322
398.218
398.115
398.013
397.912
397.812
397.712
397.613
397.515
397.417
397.32
397.224
397.128
397.032
396.937
396.842
396.748
396.654
396.56
396.466
396.372
396.278
396.185
396.092
396
395.908
395.817
395.727
395.637
395.548
395.46
395.374
395.289
395.205
395.123
395.043
394.972
395.097
395.199
395.283
395.354
395.416
395.47
395.518
395.563
395.602
395.639
400
400
400
400
400
400
400
400
400
399.998
399.854
399.714
399.581
399.454
399.331
399.214
399.099
398.987
398.878
398.771
398.666
398.562
398.46
398.36
398.26
398.162
398.065
397.969
397.874
397.78
397.686
397.594
397.502
397.411
397.32
397.231
397.142
397.053
396.965
396.878
396.79
396.703
396.617
396.53
396.444
396.358
396.273
396.188
396.104
396.021
395.938
395.856
395.776
395.696
395.618
395.541
395.465
395.391
395.32
395.257
395.379
395.481
395.565
395.637
395.699
395.754
395.803
395.848
395.889
395.926
400
400
400
400
400
400
400
400
400
399.998
399.854
399.714
399.581
399.454
399.332
399.214
399.1
398.989
398.881
398.775
398.671
398.569
398.468
398.369
398.271
398.175
398.079
397.985
397.892
397.8
397.709
397.618
397.529
397.441
397.353
397.266
397.18
397.095
397.01
396.925
396.841
396.757
396.674
396.59
396.508
396.426
396.344
396.263
396.183
396.103
396.024
395.947
395.87
395.795
395.721
395.648
395.577
395.508
395.441
395.382
395.504
395.606
395.691
395.763
395.827
395.883
395.934
395.98
396.022
396.061
400
400
400
400
400
400
400
400
400
399.998
399.854
399.714
399.58
399.453
399.331
399.214
399.1
398.989
398.88
398.774
398.67
398.568
398.468
398.369
398.272
398.176
398.081
397.988
397.895
397.804
397.714
397.624
397.536
397.448
397.362
397.276
397.191
397.107
397.023
396.94
396.857
396.775
396.692
396.611
396.53
396.449
396.369
396.289
396.211
396.133