/*--------------------------------*- C++ -*----------------------------------*\
  =========                 |
  \\      /  F ield         | OpenFOAM: The Open Source CFD Toolbox
   \\    /   O peration     | Website:  https://openfoam.org
    \\  /    A nd           | Version:  12
     \\/     M anipulation  |
\*---------------------------------------------------------------------------*/
FoamFile
{
    format      ascii;
    class       volScalarField;
    location    "1900/air";
    object      alphat;
}
// * * * * * * * * * * * * * * * * * * * * * * * * * * * * * * * * * * * * * //

dimensions      [1 -1 -1 0 0 0 0];

internalField   nonuniform List<scalar> 
243000
(
0.000131387
0.000139121
0.000141649
0.000141418
0.00013938
0.000136126
0.000132116
0.000127707
0.000123166
0.000118703
0.000114446
0.000110484
0.000106867
0.000103656
0.000100846
9.83915e-05
9.62019e-05
9.42178e-05
9.23872e-05
9.06523e-05
8.89406e-05
8.70292e-05
8.62852e-05
8.44423e-05
0.000375001
0.000365025
0.000330137
0.000267044
0.000195827
0.000234914
0.000490713
0.000515894
0.000516189
0.00050439
0.000487031
0.000467292
0.000446791
0.000426554
0.000407232
0.000389235
0.000372773
0.000357988
0.000344972
0.000333799
0.000324428
0.000316742
0.000310541
0.000305802
0.000302401
0.000300281
0.000299247
0.000299145
0.00029739
0.000296584
0.00029512
0.000289157
0.000276012
0.000251677
0.000223666
0.000220429
0.000605483
0.000670502
0.000701862
0.000713905
0.000715409
0.000710251
0.000700797
0.000688623
0.00067477
0.000659995
0.000644765
0.00062949
0.000614433
0.000599924
0.000586099
0.000572997
0.000560512
0.000548889
0.000538018
0.000527848
0.00051812
0.000508401
0.000497652
0.000484723
0.000467887
0.000444743
0.000413704
0.000370675
0.000325568
0.000288909
0.000602568
0.000664737
0.00070365
0.000724124
0.000731908
0.000730917
0.000724388
0.000714275
0.00070187
0.000688113
0.000673624
0.000658915
0.000644294
0.000630147
0.000616695
0.000604053
0.000592178
0.000581372
0.000571461
0.000562242
0.000553305
0.000544154
0.000533999
0.000521562
0.000505187
0.000482837
0.000453197
0.000412893
0.000369376
0.000325092
0.000596204
0.000642029
0.000682912
0.000710373
0.000725655
0.000731288
0.000730044
0.000724097
0.000714934
0.000703751
0.000691308
0.000678256
0.000664989
0.000651979
0.000639536
0.000627874
0.000617021
0.000607307
0.000598491
0.00059021
0.000581904
0.000573055
0.000562995
0.000550702
0.000534767
0.000513413
0.000485423
0.000448208
0.000406885
0.000361484
0.000600031
0.000618483
0.000650101
0.000680378
0.000702623
0.000715702
0.000721191
0.000720947
0.000716457
0.000709015
0.000699694
0.000689251
0.000678123
0.000666905
0.000655992
0.000645736
0.000636229
0.00062781
0.00062017
0.00061282
0.000605102
0.000596473
0.000586378
0.000574055
0.000558393
0.000537925
0.000511525
0.000477254
0.000438443
0.000394442
0.000623317
0.000619384
0.000632561
0.000653331
0.000673996
0.000690049
0.000701487
0.000707254
0.000708288
0.000705624
0.000700314
0.000693121
0.000684789
0.000675934
0.00066701
0.000658531
0.00065064
0.000643667
0.000637264
0.000630859
0.000623733
0.000615334
0.000605201
0.000592789
0.000577287
0.000557536
0.000532567
0.00050092
0.000464711
0.000423022
0.000652606
0.000637149
0.000632051
0.000639372
0.000652989
0.000667451
0.000679736
0.000688048
0.000693204
0.000695156
0.000694198
0.000690895
0.000685843
0.000679807
0.000673284
0.000666901
0.000660862
0.000655466
0.000650361
0.000644933
0.000638436
0.000630327
0.000620215
0.000607734
0.000592337
0.000573165
0.000549444
0.000520075
0.000486463
0.000447297
0.000683089
0.000663132
0.000646684
0.00063957
0.000642296
0.000650788
0.00066103
0.000669953
0.000676643
0.000680705
0.000683184
0.00068362
0.000682107
0.000679184
0.000675369
0.000671346
0.000667359
0.000663663
0.000659926
0.000655525
0.000649715
0.00064198
0.000631992
0.000619517
0.000604227
0.000585541
0.000562927
0.000535583
0.000504312
0.000467675
0.000713957
0.000693082
0.000670834
0.000653507
0.000644305
0.000643303
0.000647884
0.000654631
0.000661257
0.000666492
0.000670311
0.000673028
0.000674563
0.000674756
0.000673786
0.00067229
0.000670503
0.000668624
0.000666335
0.000663025
0.000657981
0.000650724
0.000640981
0.000628622
0.000613494
0.000595281
0.00057364
0.000547921
0.000518743
0.000484583
0.000744608
0.000723373
0.000699614
0.000677041
0.000658838
0.000647585
0.000643554
0.000644832
0.000648872
0.000653594
0.000657945
0.000661583
0.000664714
0.000667402
0.00066912
0.000670164
0.000670637
0.000670659
0.000669898
0.00066776
0.000663574
0.000656909
0.000647548
0.00063544
0.000620602
0.000602824
0.00058195
0.00055762
0.000530284
0.000498565
0.000774711
0.000753485
0.000730557
0.000705969
0.000682775
0.000663533
0.000650361
0.000643685
0.000642228
0.000643995
0.000647257
0.00065092
0.000654553
0.000658384
0.000662148
0.00066548
0.000668145
0.000670075
0.000670896
0.000670026
0.000666791
0.000660835
0.000652
0.000640315
0.000625822
0.000608472
0.000588299
0.000565152
0.000539407
0.000509895
0.000803835
0.0007828
0.000760582
0.000736161
0.000711427
0.00068793
0.000667849
0.000653034
0.000644106
0.000640336
0.000640221
0.000642285
0.00064546
0.000649316
0.000653919
0.000658913
0.000663479
0.000667215
0.000669609
0.000670019
0.000667857
0.000662797
0.000654626
0.000643434
0.000629372
0.000612519
0.000593024
0.000570909
0.000546535
0.000518976
0.000831702
0.000811
0.00078939
0.000765977
0.000741563
0.000716778
0.000693
0.000672117
0.000655834
0.000644981
0.000639257
0.000637585
0.000638696
0.000641604
0.000645773
0.000651355
0.000657229
0.000662491
0.000666353
0.000668073
0.000667005
0.000662785
0.000655438
0.000644965
0.000631491
0.000615226
0.000596442
0.000575276
0.000552118
0.000526496
0.000858158
0.000837878
0.000816976
0.000794973
0.000771551
0.000747103
0.000722216
0.000698091
0.000676392
0.000658787
0.000646288
0.000638949
0.000636029
0.000636455
0.000639233
0.000643955
0.000650185
0.000656439
0.000661514
0.000664461
0.000664502
0.000661303
0.000654762
0.000645052
0.000632381
0.000616967
0.000599325
0.000579436
0.000557578
0.000533622
0.000883024
0.000863258
0.000843164
0.000822382
0.000800324
0.000777031
0.000752616
0.000727587
0.000703027
0.000680533
0.000661764
0.000647904
0.000639294
0.000635459
0.000635413
0.000638303
0.000643446
0.000649796
0.000655591
0.00065953
0.000660634
0.000658466
0.000652927
0.000644125
0.000632651
0.000618509
0.000602053
0.000583405
0.000562819
0.00054036
0.000906113
0.00088696
0.000867752
0.000848087
0.00082753
0.000805706
0.000782503
0.000757994
0.000732675
0.000707612
0.000684356
0.000664603
0.000649685
0.000640179
0.000635715
0.00063547
0.000638465
0.000643582
0.00064929
0.000653774
0.000655762
0.0006546
0.000650316
0.00064288
0.000632653
0.000619793
0.000604557
0.000587131
0.000567784
0.000546703
0.000927228
0.00090875
0.000890467
0.000872013
0.000852946
0.000832679
0.00081098
0.00078771
0.000762961
0.000737255
0.000711648
0.000687701
0.000667169
0.000651556
0.000641466
0.000636687
0.000636353
0.000639217
0.000643721
0.000648024
0.000650613
0.000650504
0.000647446
0.00064133
0.000632374
0.000620786
0.000606783
0.000590572
0.000572436
0.000552643
0.00094615
0.000928394
0.000911066
0.000894049
0.000876363
0.000857633
0.000837549
0.000815852
0.000792399
0.000767318
0.000741153
0.000714997
0.000690476
0.000669464
0.000653426
0.000643095
0.000638191
0.000637693
0.000640035
0.000643364
0.000645947
0.000646495
0.000644438
0.000639531
0.000631815
0.000621472
0.000608694
0.000593686
0.000576744
0.000558178
0.000962716
0.000945769
0.000929582
0.000913747
0.000897451
0.000880287
0.000861889
0.00084193
0.000820149
0.000796436
0.000770947
0.000744285
0.00071765
0.000692761
0.000671467
0.000655347
0.000645002
0.000640001
0.0006391
0.000640474
0.000642272
0.000642924
0.000641521
0.000637622
0.00063104
0.000621878
0.000610292
0.000596467
0.000580695
0.000563303
0.000976846
0.00096104
0.00094613
0.000931356
0.000916343
0.000900672
0.000883934
0.000865766
0.000845836
0.000823898
0.000799852
0.000773909
0.000746799
0.0007198
0.000694663
0.00067339
0.000657409
0.000647107
0.000641883
0.000640229
0.000640288
0.000640308
0.000639064
0.000635837
0.000630197
0.000622092
0.000611632
0.00059895
0.000584314
0.00056805
0.00098881
0.000974116
0.000960172
0.000946533
0.000932839
0.000918682
0.000903647
0.000887373
0.000869485
0.000849636
0.000827557
0.000803169
0.000776796
0.000749251
0.000721887
0.000696681
0.000675563
0.000659731
0.000649392
0.000643652
0.000640914
0.000639389
0.000637625
0.000634585
0.000629569
0.000622323
0.000612865
0.00060125
0.00058769
0.000572496
0.000997841
0.000984305
0.000971524
0.000959191
0.000946949
0.000934456
0.000921347
0.000907466
0.000892188
0.000874992
0.000855421
0.000833216
0.000808351
0.000781358
0.000752999
0.000725013
0.000699497
0.000678404
0.000662588
0.000651922
0.000645323
0.000641207
0.000637988
0.000634387
0.00062951
0.000622857
0.000614219
0.000603548
0.000590982
0.000576787
0.00100458
0.000992343
0.000980832
0.000969832
0.000959412
0.000949309
0.000938911
0.000927701
0.000915134
0.000900688
0.000883827
0.000864176
0.00084145
0.000815915
0.00078779
0.00075842
0.000729441
0.000703793
0.000682637
0.000666549
0.000655141
0.000647288
0.000641541
0.000636496
0.000631018
0.000624378
0.000616166
0.000606187
0.000594451
0.000581149
0.00100946
0.000998709
0.000988644
0.000979146
0.000970803
0.000963023
0.000955188
0.000946682
0.000936932
0.000925424
0.000911564
0.000894895
0.000874914
0.000851697
0.000824966
0.000795848
0.000766056
0.000737413
0.000711674
0.000690119
0.000673164
0.00066038
0.000650729
0.000642928
0.000635759
0.000628261
0.000619822
0.000610049
0.000598789
0.000586134
0.00101312
0.00100421
0.000995981
0.000988406
0.000981553
0.000975562
0.000969936
0.000963971
0.000957121
0.000949132
0.000939272
0.00092687
0.000911284
0.000892212
0.000869359
0.000842986
0.00081402
0.000783958
0.000754769
0.000728122
0.000705144
0.000686202
0.000670938
0.000658492
0.000647811
0.000637889
0.000627925
0.000617305
0.000605726
0.000593124
0.00101836
0.00101243
0.00100723
0.00100276
0.000999095
0.000996314
0.000994246
0.000992426
0.000990292
0.000987266
0.000982615
0.000975536
0.000965258
0.000951206
0.000933111
0.000910569
0.000883695
0.000853793
0.000822564
0.000791767
0.000762902
0.000736984
0.000714389
0.000694942
0.000678094
0.000663076
0.000649117
0.000635538
0.000621833
0.000607835
0.00103815
0.00103761
0.00103772
0.00103865
0.00104063
0.00104378
0.00104798
0.00105277
0.00105754
0.00106146
0.00106368
0.00106323
0.00105931
0.00105122
0.00103859
0.00102073
0.000997042
0.00096886
0.000937511
0.000904584
0.000871504
0.000839471
0.000809297
0.000781461
0.00075609
0.000732905
0.000711475
0.000691342
0.000672041
0.000653881
0.0011328
0.00113988
0.00114649
0.00115432
0.00116424
0.00117626
0.00118954
0.00120294
0.00121567
0.00122712
0.00123631
0.00124223
0.00124413
0.00124178
0.00123471
0.00122211
0.00120277
0.00117864
0.00115099
0.00112096
0.00108949
0.00105749
0.00102573
0.000994849
0.000965353
0.000936667
0.000908815
0.000881896
0.000855968
0.000832741
0.00151469
0.001515
0.00151648
0.00152399
0.00153571
0.00154895
0.00156
0.00156888
0.00157658
0.00158365
0.00158889
0.00159114
0.00159144
0.00159031
0.00158658
0.00157999
0.0015681
0.0015555
0.00154252
0.00152994
0.00151767
0.00150612
0.00149539
0.00148566
0.00147705
0.00146537
0.00145199
0.00143816
0.00142467
0.00141352
0.000180771
0.000185629
0.000184332
0.000180315
0.00017461
0.000167897
0.000160686
0.000153379
0.000146273
0.000139606
0.000133502
0.000128054
0.00012331
0.000119339
0.000116108
0.000113591
0.000111693
0.000110422
0.000109867
0.000110119
0.000110961
0.000111804
0.000111821
0.000110431
0.000106993
0.000100822
9.18057e-05
8.14165e-05
0.000365843
0.000365374
0.000781197
0.000877669
0.000856667
0.000792523
0.00071667
0.000643095
0.000577473
0.00052105
0.000473416
0.000433533
0.000399807
0.000371465
0.000347995
0.000329004
0.000313312
0.000300292
0.000288824
0.000279288
0.000271365
0.000265734
0.000263296
0.000264937
0.000269714
0.000274405
0.000275105
0.000268636
0.000257099
0.00024283
0.000289635
0.000350266
0.00122478
0.00139823
0.00141189
0.00135117
0.00125889
0.00115683
0.00105784
0.00096798
0.000889169
0.000821525
0.000763693
0.000714903
0.000673825
0.000640284
0.000612623
0.000589229
0.000567542
0.000547547
0.0005268
0.000505434
0.000486625
0.000475014
0.000471582
0.000471491
0.000468477
0.000455823
0.000432998
0.000401783
0.000393386
0.0004148
0.00152269
0.00172582
0.00176796
0.00172766
0.00164397
0.00154032
0.00143327
0.00133158
0.00123875
0.00115683
0.00108575
0.00102527
0.000974318
0.000932996
0.00089982
0.000872136
0.000846368
0.000821554
0.000792133
0.000757011
0.000720821
0.000691885
0.000674107
0.000663802
0.000652569
0.000632068
0.000599713
0.000553625
0.000517814
0.000510185
0.00170368
0.00191158
0.00197487
0.00195669
0.00188811
0.00179441
0.00169501
0.00159712
0.00150265
0.00141728
0.00134256
0.00127823
0.00122415
0.001181
0.00114743
0.00112054
0.00109602
0.00107135
0.00103825
0.000994543
0.000944636
0.000899732
0.000866864
0.000843965
0.00082313
0.000794811
0.000754996
0.000699232
0.000646446
0.000618494
0.0018047
0.00198896
0.00206767
0.00206943
0.00202698
0.00195875
0.00186891
0.00177591
0.00168505
0.0016051
0.0015356
0.00147373
0.00142228
0.00138213
0.00135236
0.00133
0.00131064
0.00128956
0.00125602
0.00120706
0.00114821
0.00109125
0.00104538
0.00101104
0.000979791
0.000944101
0.000897993
0.000836242
0.000773476
0.000731169
0.0018642
0.00199946
0.00206396
0.00207547
0.00205523
0.00201315
0.00194863
0.00187629
0.001806
0.00173576
0.00167151
0.00161553
0.00157228
0.00153931
0.00151677
0.00150205
0.00149088
0.00147555
0.00144444
0.00139345
0.00132976
0.00126464
0.00120799
0.00116317
0.0011238
0.00108044
0.00102908
0.000963687
0.000894789
0.00084165
0.00191219
0.00197785
0.00200685
0.00201189
0.00200221
0.00198084
0.0019461
0.00190348
0.00185467
0.00180415
0.00175554
0.00171431
0.00167953
0.00165622
0.00164374
0.00163954
0.00163848
0.00163054
0.00160416
0.00155498
0.00148954
0.00141905
0.00135427
0.00130023
0.00125323
0.00120512
0.00114888
0.00108149
0.00100931
0.000948187
0.00194756
0.00195593
0.00195144
0.00193982
0.00192704
0.00191279
0.0018938
0.00187057
0.00184358
0.00181932
0.00179127
0.00176673
0.00174724
0.00173679
0.00173661
0.00174529
0.00175554
0.00175661
0.00173668
0.00169162
0.0016272
0.00155468
0.00148452
0.00142318
0.00136914
0.00131664
0.00125914
0.00119084
0.0011174
0.0010493
0.0020001
0.00197063
0.00191955
0.00188229
0.00185413
0.00183548
0.00182161
0.00180978
0.00179835
0.0017898
0.001783
0.00177972
0.00177886
0.00178467
0.00179867
0.0018215
0.00184429
0.00185595
0.00184398
0.00180479
0.00174396
0.00167217
0.00159925
0.00153288
0.00147294
0.00141732
0.00135822
0.00128983
0.00121583
0.00114365
0.00206725
0.00200662
0.00193043
0.00185598
0.00180222
0.00177021
0.00175042
0.00174053
0.00173659
0.00173835
0.00174496
0.00175778
0.00177834
0.00180296
0.00183265
0.00187089
0.00190692
0.00192993
0.00192782
0.00189612
0.00184123
0.00177231
0.00169916
0.00163046
0.00156702
0.00150708
0.00144523
0.00137811
0.0013047
0.00123153
0.00215745
0.00206948
0.00196774
0.00187084
0.00179211
0.00173434
0.001699
0.00168192
0.00167603
0.00168065
0.00169398
0.00171681
0.00175076
0.00179506
0.00184223
0.00189639
0.00194617
0.00198101
0.00199017
0.0019696
0.00192122
0.00185578
0.00178432
0.00171477
0.00164876
0.00158533
0.00152165
0.00145531
0.00138434
0.00131263
0.00226685
0.0021564
0.00203606
0.00192034
0.00181997
0.00174221
0.0016876
0.00165232
0.0016339
0.0016334
0.00164537
0.00167093
0.0017113
0.00176708
0.00183182
0.00190149
0.00196493
0.00201179
0.00203245
0.00202295
0.00198414
0.00192388
0.00185421
0.00178366
0.00171614
0.00165273
0.00158874
0.00152352
0.0014567
0.00138837
0.00238925
0.00227419
0.00214486
0.00201465
0.00189576
0.001796
0.0017192
0.00166408
0.00162945
0.00161304
0.0016151
0.00163465
0.00167411
0.001732
0.0018073
0.00189066
0.00196669
0.00202515
0.00205767
0.00205957
0.00203116
0.00197838
0.00191301
0.00184437
0.00177636
0.0017117
0.00165011
0.00158783
0.00152456
0.00145863
0.00252974
0.0024164
0.00228629
0.00215014
0.00201938
0.00190216
0.00180444
0.00172704
0.00166971
0.00163327
0.00161816
0.00162415
0.00165314
0.00170502
0.00177811
0.00186997
0.00195583
0.00202458
0.0020682
0.00208149
0.00206405
0.00202051
0.00196119
0.00189706
0.00183146
0.00176721
0.0017053
0.00164381
0.00158255
0.00151967
0.002684
0.00257843
0.00245549
0.00232097
0.00218536
0.00205706
0.00194309
0.00184456
0.00176397
0.00170394
0.00166611
0.00165168
0.00166246
0.00169901
0.00176126
0.00184676
0.00193783
0.00201428
0.0020671
0.00209121
0.00208507
0.0020523
0.00200127
0.00194331
0.0018804
0.0018163
0.00175294
0.00169184
0.00163166
0.00157142
0.00284374
0.00275346
0.00264397
0.00251785
0.00238438
0.0022515
0.00212708
0.00201245
0.00191179
0.00182881
0.00176619
0.0017267
0.00171261
0.00172624
0.00176809
0.00183709
0.00191984
0.00199934
0.00205841
0.00209198
0.00209756
0.00207708
0.00203398
0.00198049
0.00192167
0.00185917
0.00179558
0.00173349
0.00167331
0.00161478
0.00300398
0.00293146
0.00283916
0.00272668
0.00260198
0.00247236
0.00234421
0.00222076
0.00210598
0.00200399
0.00191817
0.00185231
0.00180968
0.00179377
0.00180796
0.00185095
0.00191554
0.00198599
0.00204717
0.0020878
0.00210257
0.00209152
0.00205691
0.00200929
0.00195555
0.00189607
0.00183326
0.00176988
0.00170907
0.00165144
0.0031568
0.00310223
0.00302834
0.00293388
0.00282431
0.00270498
0.00258113
0.00245625
0.00233406
0.00221862
0.00211358
0.00202302
0.0019511
0.00190231
0.00188357
0.00189343
0.0019291
0.00198259
0.00203611
0.00207752
0.00209785
0.00209577
0.00207073
0.00203024
0.00198284
0.00192704
0.0018657
0.00180179
0.00174047
0.0016831
0.0032956
0.00325796
0.00320412
0.00313077
0.00304065
0.00293692
0.00282339
0.00270315
0.00257939
0.00245579
0.00233585
0.00222368
0.00212409
0.00204367
0.00198782
0.00196101
0.00196091
0.00198706
0.00202585
0.00206241
0.00208542
0.00208945
0.00207489
0.00204348
0.00200194
0.00195004
0.00189078
0.00182911
0.00176852
0.00171175
0.00341642
0.00339504
0.00336081
0.00330911
0.00324015
0.00315476
0.00305487
0.00294275
0.00282078
0.00269207
0.00255993
0.00242863
0.00230374
0.00219358
0.002102
0.00203723
0.00200015
0.00199329
0.00200939
0.00203504
0.0020573
0.00206833
0.0020644
0.00204332
0.00200842
0.00196363
0.00191114
0.00185402
0.00179586
0.00174041
0.00351782
0.00350944
0.0034919
0.00345963
0.00341037
0.00334246
0.00325572
0.00315101
0.00302999
0.00289533
0.00275061
0.00260097
0.00245315
0.00231634
0.00219489
0.00209564
0.00202431
0.0019839
0.0019732
0.00198296
0.00200133
0.00201863
0.00202715
0.00202091
0.00200001
0.00196673
0.0019228
0.00187322
0.00181999
0.00176803
0.00359417
0.00359348
0.00358717
0.00356878
0.00353343
0.0034771
0.00339763
0.00329377
0.00316761
0.00302227
0.00286266
0.00269575
0.00252985
0.00237306
0.00223355
0.00211131
0.00201078
0.00194064
0.00190181
0.00189081
0.00190012
0.0019206
0.00194212
0.00195479
0.00195404
0.00193984
0.0019131
0.00187603
0.00183305
0.001789
0.0036293
0.00362931
0.00362605
0.0036122
0.00357935
0.00352235
0.00343921
0.00332889
0.00319296
0.00303596
0.00286515
0.00269001
0.00251909
0.00235805
0.00221524
0.00208537
0.00196879
0.00187473
0.00180725
0.00176825
0.00175647
0.00176746
0.00179293
0.0018214
0.00184355
0.00185517
0.00185428
0.00184099
0.00181727
0.00178809
0.00358801
0.00357929
0.00356843
0.00354752
0.00350583
0.00344024
0.00334888
0.00323223
0.00309405
0.00294102
0.00278086
0.00262266
0.002472
0.00233118
0.00220611
0.00208769
0.00196931
0.00185948
0.00176485
0.00169078
0.00164122
0.00161798
0.00161937
0.00163808
0.00166574
0.00169489
0.00171939
0.00173524
0.00174071
0.00173764
0.00340626
0.0033811
0.00335534
0.00332361
0.00327976
0.0032189
0.00314021
0.00304596
0.00294054
0.00282887
0.00271627
0.0026068
0.00250158
0.00239852
0.0023034
0.00220936
0.0021038
0.00199325
0.00188304
0.00177958
0.00168836
0.0016146
0.00156215
0.00153175
0.00152152
0.00152752
0.00154441
0.00156654
0.00158887
0.0016103
0.00303793
0.003017
0.00300601
0.00300188
0.00299721
0.00298562
0.00296338
0.00293031
0.00288868
0.00283967
0.00278551
0.00272804
0.00266759
0.00260347
0.00253625
0.00246737
0.00238157
0.00228386
0.00217754
0.00206775
0.00195813
0.00185308
0.00175686
0.0016733
0.00160502
0.00155299
0.00151681
0.00149477
0.00148435
0.00149054
0.00271187
0.00275994
0.00282298
0.00288938
0.0029455
0.00298692
0.0030124
0.00302272
0.00302132
0.00300475
0.00297813
0.00294441
0.00290405
0.00285888
0.00280929
0.0027571
0.00269298
0.00261966
0.00253808
0.00245122
0.00235971
0.00226624
0.00217262
0.00208071
0.00199272
0.00191045
0.00183568
0.001769
0.00171127
0.0016809
0.00280086
0.00287313
0.0029495
0.00302244
0.00308163
0.0031231
0.00315089
0.00316182
0.00315948
0.00314556
0.0031235
0.00309538
0.00305903
0.00302063
0.00298055
0.00293611
0.00288982
0.00284022
0.00278819
0.00273662
0.00268506
0.00263575
0.00258848
0.00254252
0.00249691
0.00245031
0.00240316
0.002356
0.00231056
0.00228615
0.00302897
0.00307375
0.00311679
0.00315698
0.00318353
0.00319652
0.00320033
0.00319508
0.00318283
0.00316554
0.00314413
0.00311892
0.00308785
0.00305755
0.00302463
0.00299263
0.00296489
0.00293807
0.00291377
0.00289467
0.0028828
0.00287866
0.00288133
0.00288888
0.00289882
0.00290724
0.00291478
0.00292015
0.00292338
0.00291761
0.000218906
0.000221212
0.000215687
0.00020848
0.000200255
0.000191301
0.000182019
0.000172803
0.000163963
0.000155751
0.000148291
0.000141714
0.000136064
0.000131433
0.000127793
0.000125184
0.000123554
0.000123158
0.000124591
0.000128173
0.000132937
0.000137207
0.000139702
0.000139656
0.000136672
0.000130304
0.000120496
0.000106296
9.20066e-05
8.22398e-05
0.00102606
0.00114605
0.00113537
0.00106595
0.000971546
0.000876734
0.000791327
0.000717592
0.000655283
0.000603032
0.000558761
0.000522264
0.00049157
0.000466249
0.000444443
0.000425507
0.000406508
0.000390127
0.000377519
0.000372273
0.000376668
0.000389258
0.00040517
0.000417194
0.000418077
0.000403673
0.000376691
0.000339563
0.000307927
0.000283198
0.00163407
0.0018719
0.00190859
0.00184301
0.0017305
0.00160148
0.00147378
0.00135643
0.00125305
0.00116413
0.00108773
0.00102422
0.00097113
0.000928228
0.000892413
0.000860684
0.000826974
0.00079359
0.000757901
0.000725996
0.000708263
0.000708424
0.000720692
0.000732797
0.000728773
0.000704779
0.000658462
0.000591634
0.000527122
0.000483163
0.00206816
0.00234827
0.00242019
0.00237883
0.00227722
0.00214653
0.00200706
0.00187201
0.00174868
0.00163968
0.00154466
0.00146489
0.00139849
0.00134572
0.00130354
0.00126746
0.00122903
0.00118743
0.00113511
0.00107929
0.0010351
0.00101406
0.00101297
0.0010178
0.0010087
0.000974922
0.000915076
0.00082874
0.0007389
0.000672216
0.00237983
0.0026603
0.00275192
0.00273309
0.00265025
0.00253176
0.00239599
0.00225939
0.00213156
0.00201527
0.00191244
0.00182551
0.00175367
0.00169736
0.00165459
0.00161969
0.00158247
0.0015373
0.00147192
0.00139899
0.00133355
0.00129037
0.00127252
0.00126674
0.00125198
0.00121158
0.00114406
0.00104637
0.000940521
0.000853363
0.00260917
0.00285822
0.00296029
0.00296365
0.00290039
0.00279323
0.00266266
0.00253568
0.0024159
0.00230168
0.00219957
0.00211316
0.00204227
0.00198801
0.00194924
0.00191942
0.0018868
0.00184033
0.00176607
0.00167744
0.00159555
0.00153427
0.00150006
0.00148226
0.0014611
0.0014192
0.0013473
0.00124497
0.00112985
0.00102758
0.00277448
0.00297975
0.00307435
0.00308672
0.00304126
0.00296002
0.00285975
0.00274221
0.00262434
0.00250983
0.00241585
0.00233689
0.0022721
0.00222484
0.00219381
0.00217222
0.00214655
0.00209992
0.00201932
0.00191835
0.0018237
0.00174769
0.00169888
0.00166854
0.00164005
0.00159702
0.00152803
0.00142587
0.00130759
0.00119298
0.00289085
0.00304806
0.00311738
0.00312658
0.00309409
0.00303174
0.00295051
0.00285591
0.00275802
0.00266687
0.00257967
0.00250599
0.00245041
0.00241385
0.00239384
0.00238347
0.00236569
0.00231795
0.002233
0.00212546
0.00202257
0.0019348
0.00187273
0.00183019
0.00179359
0.00174991
0.00168661
0.00159002
0.00147209
0.00134832
0.00299458
0.00308174
0.00310807
0.00310334
0.00307801
0.00303276
0.00297273
0.0029033
0.00282966
0.00275611
0.00268714
0.002628
0.00258468
0.00256103
0.00255461
0.00255766
0.00254805
0.00250208
0.00241469
0.00230526
0.00219526
0.00209909
0.0020256
0.00197161
0.00192807
0.00188222
0.0018199
0.00173174
0.00161739
0.00149183
0.00308423
0.00309491
0.00308592
0.00306564
0.00303775
0.00300094
0.00295576
0.00290477
0.00285074
0.00279763
0.0027499
0.00270931
0.00268161
0.00267274
0.00268084
0.00269817
0.00269745
0.00265513
0.00256969
0.00245955
0.0023458
0.00224373
0.00216084
0.00209793
0.00204479
0.00199283
0.00193093
0.00184981
0.00174552
0.00162601
0.0031695
0.00313707
0.00308593
0.00303682
0.00299708
0.00295894
0.00291996
0.00288141
0.00284336
0.00280743
0.00277678
0.00275665
0.00274711
0.00275492
0.00277765
0.00280869
0.00281685
0.00278068
0.00269936
0.00259155
0.00247756
0.00237186
0.00228174
0.00220607
0.0021423
0.0020848
0.00202455
0.00194915
0.00185643
0.00174757
0.0032588
0.00320466
0.00313087
0.00304974
0.00297679
0.00292821
0.00288509
0.00285141
0.00282336
0.00280013
0.00278405
0.00277837
0.00278779
0.00281288
0.00284958
0.00289355
0.00291133
0.00288205
0.00280787
0.00270563
0.0025928
0.00248236
0.00238588
0.00230299
0.00223164
0.00216744
0.00210601
0.00203693
0.00195677
0.00185881
0.00334935
0.0032766
0.00318384
0.00308509
0.00300143
0.00292657
0.00286823
0.00283307
0.00280786
0.00279021
0.002784
0.00278981
0.00281176
0.00285145
0.00290204
0.00295728
0.00298361
0.00296311
0.00289796
0.00280456
0.00269457
0.00258411
0.00248444
0.00239503
0.00231751
0.00224792
0.00218328
0.00211887
0.00204607
0.00195817
0.00346111
0.00337547
0.00326762
0.00315028
0.00304641
0.00295799
0.00289502
0.00284362
0.00281418
0.00279152
0.0027898
0.002802
0.00283182
0.00287812
0.00294047
0.00300444
0.00303842
0.00302709
0.0029733
0.00288974
0.00278499
0.00267649
0.00257584
0.00248381
0.00240181
0.00232802
0.00225889
0.00219304
0.00212391
0.00204381
0.00359053
0.0034979
0.00337842
0.00325535
0.00313867
0.0030352
0.00295317
0.0028889
0.00284371
0.00282129
0.00281446
0.00282599
0.00285617
0.00290315
0.00296991
0.00303908
0.00307911
0.00307675
0.00303515
0.00296263
0.00286534
0.00276094
0.00266135
0.00256961
0.00248424
0.00240611
0.0023328
0.00226234
0.00219379
0.00211869
0.00373503
0.00364188
0.0035299
0.00340432
0.00327854
0.00316178
0.00306202
0.00298102
0.00292067
0.00288313
0.00286579
0.00286888
0.00289179
0.00293356
0.00299441
0.0030636
0.00310708
0.00311305
0.00308349
0.00302337
0.00293585
0.00283781
0.00274108
0.00264974
0.00256335
0.00248226
0.0024053
0.00233038
0.00225916
0.00218611
0.00389328
0.00381288
0.0037089
0.0035873
0.00345922
0.00333399
0.00321989
0.0031216
0.0030426
0.0029855
0.00295015
0.00293658
0.00294414
0.00297167
0.00301861
0.0030772
0.00312022
0.0031331
0.00311552
0.00306925
0.00299346
0.00290335
0.00281171
0.00272342
0.0026382
0.00255563
0.00247583
0.00239661
0.00232165
0.00224846
0.00406617
0.00399602
0.00390491
0.00379292
0.00366895
0.0035412
0.0034177
0.00330445
0.0032062
0.00312655
0.00306712
0.00302871
0.00301141
0.00301521
0.00303852
0.00307746
0.00311134
0.00312805
0.00312195
0.00309107
0.00303029
0.00295254
0.00287016
0.00278828
0.00270569
0.00262336
0.00254168
0.00245925
0.00238102
0.00230678
0.00423904
0.00418216
0.0041059
0.00400731
0.00389246
0.00376766
0.00363988
0.00351524
0.00339902
0.00329548
0.00320748
0.00313698
0.00308553
0.00305482
0.00304544
0.00305455
0.00307187
0.0030856
0.00308828
0.00307368
0.00303472
0.00297553
0.00290697
0.00283292
0.00275667
0.00267736
0.00259588
0.00251346
0.00243498
0.00236064
0.00440107
0.00435884
0.00429846
0.00421509
0.00411225
0.00399402
0.00386571
0.00373261
0.00359974
0.00347155
0.00335169
0.00324344
0.0031504
0.00307646
0.00302608
0.00299706
0.00298668
0.00298954
0.00299669
0.00299831
0.00298398
0.0029514
0.00290529
0.00284705
0.00278196
0.00271098
0.00263644
0.00255889
0.00248238
0.00240954
0.00454506
0.00451539
0.00446906
0.00439994
0.00430904
0.00419803
0.00407009
0.00392903
0.00377916
0.0036249
0.00347076
0.00332177
0.00318415
0.0030641
0.00296976
0.00289901
0.00285367
0.002835
0.00283634
0.00284754
0.00285612
0.00285396
0.00283909
0.00281059
0.00277048
0.00271808
0.00265816
0.00259282
0.00252541
0.00245638
0.00465997
0.00463835
0.00460146
0.00454244
0.00445986
0.0043529
0.00422245
0.00407079
0.00390166
0.0037201
0.0035321
0.00334549
0.00316946
0.00301169
0.00288159
0.00277684
0.00269827
0.00265072
0.0026315
0.00263474
0.00265082
0.00267013
0.00268577
0.00269215
0.00268663
0.00266685
0.00263317
0.0025872
0.00253478
0.0024794
0.00472875
0.00470761
0.00467241
0.00461585
0.00453428
0.00442463
0.00428609
0.00412018
0.00393156
0.00372725
0.00351521
0.00330705
0.00311367
0.00294202
0.00279832
0.00268181
0.00258416
0.00250992
0.00245913
0.00243209
0.00242652
0.00243823
0.0024616
0.00248927
0.00251429
0.00253033
0.00253312
0.00252053
0.0024937
0.00246146
0.00471916
0.00468908
0.00464543
0.00458174
0.00449303
0.00437478
0.00422642
0.00405035
0.00385313
0.00364494
0.0034375
0.00324157
0.00306687
0.002916
0.00278851
0.00268601
0.00258891
0.00249969
0.0024189
0.00235066
0.0022993
0.0022681
0.00225848
0.00226825
0.00229205
0.00232237
0.00235126
0.00237201
0.00238041
0.00237609
0.00457965
0.00453213
0.00447179
0.00439531
0.00429935
0.00418101
0.00404017
0.00388059
0.00371008
0.0035388
0.00337692
0.0032306
0.0031049
0.00299887
0.00290871
0.0028314
0.00274668
0.00265526
0.00255716
0.00245701
0.00236121
0.002276
0.00220785
0.00216165
0.00213886
0.00213731
0.00215162
0.00217465
0.00219903
0.00221981
0.00425347
0.0041919
0.00412958
0.00406513
0.00399642
0.00391776
0.00382722
0.00372684
0.00362195
0.00351913
0.0034242
0.00333882
0.00326556
0.00320246
0.00314522
0.00308774
0.00301494
0.00292893
0.00282914
0.00271888
0.00260286
0.00248544
0.00237196
0.00226989
0.00218507
0.00212109
0.00207886
0.00205616
0.00204909
0.00205986
0.0038036
0.0037713
0.00376038
0.00376515
0.00377324
0.00377037
0.00375383
0.00372428
0.00368531
0.00364147
0.00359691
0.00355089
0.00350652
0.00346353
0.00341778
0.00336473
0.00329573
0.00321608
0.00312629