/*--------------------------------*- C++ -*----------------------------------*\
  =========                 |
  \\      /  F ield         | OpenFOAM: The Open Source CFD Toolbox
   \\    /   O peration     | Website:  https://openfoam.org
    \\  /    A nd           | Version:  12
     \\/     M anipulation  |
\*---------------------------------------------------------------------------*/
FoamFile
{
    format      ascii;
    class       volScalarField;
    location    "1900/air";
    object      epsilon;
}
// * * * * * * * * * * * * * * * * * * * * * * * * * * * * * * * * * * * * * //

dimensions      [0 2 -3 0 0 0 0];

internalField   nonuniform List<scalar> 
243000
(
1.73014
2.3577
2.8825
3.30986
3.63617
3.86049
3.98941
4.0348
4.01034
3.92991
3.80528
3.64723
3.4638
3.26507
3.05615
2.83792
2.60882
2.37174
2.13022
1.88871
1.65081
1.43926
1.29509
0.26972
1.02296
0.209553
0.165392
0.115908
0.0730966
0.0751323
1.09801
1.47792
1.71424
1.84459
1.90486
1.91688
1.89345
1.84458
1.77779
1.69906
1.6123
1.521
1.42811
1.33645
1.24713
1.1604
1.0756
0.994026
0.915861
0.841725
0.771038
0.702971
0.633361
0.561496
0.484236
0.397554
0.301732
0.198617
0.12011
0.097718
1.06111
1.43675
1.645
1.72909
1.73865
1.70034
1.63263
1.54847
1.45646
1.36252
1.27008
1.1817
1.09871
1.02252
0.953294
0.890649
0.833576
0.782701
0.737058
0.696043
0.65828
0.621919
0.583963
0.539815
0.485136
0.41668
0.335626
0.241732
0.163792
0.113829
1.04674
1.4019
1.65958
1.80617
1.86316
1.85422
1.80396
1.72869
1.6396
1.54462
1.44872
1.35557
1.26707
1.18521
1.11073
1.04365
0.983167
0.930223
0.883388
0.841303
0.80183
0.762778
0.721027
0.671943
0.610653
0.533243
0.441133
0.333877
0.239093
0.162608
1.01442
1.26461
1.51925
1.70734
1.81766
1.85853
1.84771
1.8019
1.73359
1.65289
1.56629
1.47885
1.39343
1.31297
1.23899
1.17225
1.11235
1.06052
1.01492
0.973331
0.932813
0.890962
0.844958
0.790917
0.724309
0.64107
0.541981
0.426877
0.319437
0.223785
1.03413
1.13191
1.31248
1.50224
1.65213
1.74405
1.78281
1.77969
1.74562
1.691
1.62457
1.55241
1.47802
1.40553
1.33738
1.2754
1.2197
1.17178
1.12941
1.08967
1.04899
1.00477
0.954686
0.895839
0.82458
0.737288
0.634099
0.515191
0.399545
0.290829
1.16099
1.13804
1.21075
1.33211
1.46042
1.56516
1.64239
1.68165
1.68776
1.66779
1.62962
1.57929
1.52251
1.46379
1.40622
1.35299
1.3047
1.26302
1.22557
1.18889
1.149
1.1032
1.04962
0.986421
0.911108
0.820842
0.715525
0.595559
0.475624
0.358743
1.33326
1.23984
1.20911
1.25015
1.32991
1.41826
1.49609
1.54991
1.58357
1.59578
1.58821
1.56486
1.53014
1.48957
1.44667
1.40556
1.36744
1.33399
1.30288
1.2704
1.23229
1.18588
1.12972
1.06292
0.984209
0.891775
0.785658
0.666422
0.545484
0.424084
1.52973
1.39887
1.29628
1.25263
1.26722
1.31641
1.37771
1.43247
1.47421
1.49954
1.51486
1.51681
1.50598
1.48606
1.46063
1.43425
1.40849
1.38493
1.36144
1.33419
1.29889
1.25295
1.19533
1.12594
1.04465
0.95075
0.844865
0.727746
0.607668
0.484678
1.74758
1.59822
1.44831
1.33779
1.2807
1.27316
1.29885
1.33809
1.37746
1.40892
1.43197
1.44838
1.45739
1.45787
1.45095
1.44077
1.42888
1.41653
1.40173
1.3807
1.34923
1.30494
1.24712
1.17633
1.09344
0.998953
0.893974
0.779137
0.661265
0.539114
1.98359
1.81823
1.64417
1.48912
1.37097
1.30044
1.27469
1.2806
1.30312
1.33017
1.35545
1.37681
1.3954
1.41151
1.42166
1.42769
1.43018
1.42987
1.42463
1.41072
1.3841
1.34262
1.2859
1.21505
1.13188
1.03738
0.93335
0.821192
0.706323
0.587088
2.23516
2.05605
1.87356
1.68982
1.52758
1.40068
1.31736
1.27553
1.26519
1.27398
1.29187
1.31251
1.3334
1.35593
1.37843
1.39858
1.41481
1.42657
1.43135
1.4254
1.40452
1.36696
1.31269
1.24326
1.16068
1.0668
0.9642
0.854872
0.743357
0.627979
2.49797
2.30662
2.1153
1.91737
1.72965
1.5627
1.42837
1.33378
1.27809
1.25405
1.25171
1.2623
1.27973
1.30161
1.32849
1.35829
1.38596
1.40886
1.42352
1.42566
1.4115
1.37934
1.32872
1.26157
1.18056
1.08821
0.98759
0.88122
0.773162
0.662077
2.76803
2.56612
2.36602
2.16117
1.96034
1.76932
1.59775
1.45608
1.35108
1.28332
1.24769
1.23624
1.24118
1.25685
1.28033
1.31285
1.34782
1.3797
1.40331
1.41363
1.40638
1.37947
1.3338
1.27067
1.19256
1.1027
1.00473
0.901552
0.797011
0.691163
3.04179
2.8309
2.62394
2.41731
2.20926
2.00502
1.81017
1.63338
1.4841
1.36939
1.29105
1.24576
1.22707
1.22801
1.24282
1.26945
1.30567
1.34285
1.37347
1.39124
1.39093
1.37047
1.32984
1.27128
1.19766
1.11205
1.01928
0.921135
0.820786
0.719503
3.31501
3.09707
2.88548
2.67699
2.46682
2.25698
2.04996
1.85098
1.66829
1.51145
1.38788
1.30056
1.24755
1.22354
1.22176
1.23722
1.26628
1.30317
1.33748
1.36097
1.36716
1.35319
1.31889
1.26594
1.19921
1.12039
1.03321
0.940101
0.844046
0.747
3.58287
3.36016
3.14625
2.9368
2.72795
2.51719
2.30517
2.09428
1.89002
1.70098
1.53681
1.40551
1.31098
1.2524
1.2247
1.22182
1.23793
1.26686
1.2999
1.32617
1.33755
1.32982
1.30335
1.25874
1.19929
1.1274
1.04613
0.958164
0.866494
0.773517
3.84
3.61469
3.40056
3.193
2.98775
2.77931
2.567
2.35145
2.13556
1.92542
1.72988
1.55902
1.42139
1.32187
1.25953
1.22994
1.22659
1.24202
1.26739
1.29202
1.30673
1.30536
1.28642
1.24983
1.19781
1.13288
1.05773
0.975068
0.887901
0.798919
4.08045
3.8547
3.64253
3.44186
3.24122
3.03732
2.8283
2.61338
2.39343
2.17198
1.95564
1.75385
1.57735
1.43548
1.3327
1.26864
1.23825
1.234
1.24646
1.26496
1.27932
1.28178
1.2689
1.23957
1.19479
1.13673
1.06779
0.990569
0.908053
0.823095
4.29872
4.07535
3.86923
3.67457
3.48111
3.28475
3.08253
2.87262
2.65451
2.42971
2.20234
1.97983
1.77267
1.59228
1.44766
1.34382
1.27941
1.24836
1.24178
1.24866
1.25819
1.26113
1.25213
1.22879
1.19061
1.1391
1.0763
1.00458
0.926826
0.84593
4.49059
4.2757
4.07951
3.89107
3.7056
3.51832
3.32531
3.12384
2.91225
2.69045
2.46039
2.227
1.99905
1.7877
1.60449
1.45929
1.35584
1.29139
1.25892
1.24795
1.2472
1.24633
1.23824
1.21885
1.18612
1.14047
1.08353
1.01725
0.94428
0.867472
4.65685
4.45207
4.26336
4.08399
3.909
3.73338
3.55263
3.36359
3.16355
2.9509
2.72558
2.49013
2.25092
2.01763
1.80211
1.61743
1.47256
1.36953
1.30454
1.26887
1.25155
1.24158
1.23042
1.21209
1.18291
1.14199
1.09027
1.02912
0.9608
0.888009
4.78447
4.59219
4.41543
4.24921
4.08839
3.92844
3.76509
3.59698
3.41767
3.22294
3.01032
2.78046
2.53708
2.28913
2.04636
1.82403
1.63591
1.49028
1.38667
1.31925
1.27829
1.25285
1.23307
1.21146
1.183
1.14526
1.09776
1.04113
0.977139
0.908177
4.88029
4.704
4.54213
4.39096
4.25095
4.11794
3.98384
3.84242
3.68775
3.51499
3.32014
3.10214
2.862
2.60711
2.34421
2.08906
1.85633
1.66512
1.51745
1.41097
1.33831
1.28953
1.25441
1.22411
1.19197
1.15404
1.10853
1.05507
0.994603
0.929031
4.94934
4.79291
4.64956
4.5171
4.40276
4.29779
4.19361
4.08227
3.95692
3.81212
3.64233
3.44477
3.21741
2.96588
2.6928
2.41523
2.15154
1.91666
1.72063
1.56702
1.45269
1.3701
1.30973
1.26217
1.21954
1.17614
1.12874
1.07564
1.01674
0.953294
5.00014
4.8697
4.75134
4.64412
4.54851
4.46614
4.38946
4.30888
4.21732
4.112
3.9843
3.82733
3.63589
3.41036
3.15255
2.87169
2.583
2.30451
2.05393
1.84163
1.67072
1.53801
1.43627
1.35667
1.29074
1.2315
1.17398
1.11481
1.05275
0.988007
5.07428
4.98689
4.91094
4.8465
4.79413
4.75472
4.72552
4.69974
4.66932
4.62619
4.56031
4.46131
4.32024
4.13235
3.89863
3.62016
3.30605
2.97854
2.66037
2.36966
2.11722
1.90649
1.73466
1.59536
1.48092
1.3837
1.29731
1.21689
1.13928
1.0636
5.37056
5.36304
5.36569
5.38101
5.41253
5.46228
5.52887
5.60518
5.68137
5.74411
5.77921
5.77045
5.70502
5.57314
5.37232
5.09716
4.74741
4.35267
3.93999
3.53555
3.15816
2.8194
2.52346
2.26968
2.0539
1.86923
1.70883
1.56687
1.43851
1.32441
6.9612
7.09296
7.21775
7.36719
7.5592
7.79563
8.06206
8.33655
8.60226
8.84529
9.04284
9.17048
9.20958
9.15458
8.99645
8.72113
8.31113
7.81787
7.2768
6.71799
6.16369
5.63196
5.13551
4.68177
4.27427
3.90158
3.56136
3.25217
2.97208
2.7354
16.4619
16.4691
16.5191
16.7683
17.1587
17.6051
17.9816
18.2868
18.5531
18.7994
18.9817
19.0576
19.0642
19.0199
18.8835
18.6476
18.2286
17.7915
17.3482
16.9247
16.5177
16.1403
15.7943
15.4845
15.2134
14.8512
14.444
14.0311
13.6369
13.3162
4.42796
5.5831
6.34039
6.85137
7.14107
7.23695
7.1723
6.98565
6.71389
6.39041
6.03816
5.67717
5.32036
4.98198
4.66403
4.3666
4.08296
3.81819
3.58294
3.38587
3.20611
2.99487
2.70816
2.3289
1.87243
1.37334
0.904001
0.155614
0.136672
0.117039
3.07983
3.4352
3.62486
3.72404
3.73874
3.67923
3.55774
3.39138
3.19712
2.99094
2.78403
2.58573
2.40831
2.25265
2.12093
2.01227
1.92782
1.87172
1.85176
1.87014
1.90514
1.91288
1.8535
1.70843
1.48301
1.19756
0.886361
0.570193
0.345797
0.218114
2.9055
3.12464
3.19246
3.18947
3.13053
3.03024
2.89628
2.73795
2.56534
2.38886
2.21701
2.05641
1.91285
1.78928
1.6878
1.61114
1.56116
1.54278
1.56336
1.62412
1.70403
1.76271
1.76077
1.67826
1.51372
1.28281
1.01595
0.735369
0.504455
0.331921
2.82418
2.97006
2.98652
2.94351
2.86005
2.74983
2.61881
2.47286
2.31836
2.16271
2.01243
1.87288
1.74825
1.6418
1.55558
1.4937
1.45888
1.45622
1.49202
1.5656
1.6576
1.73236
1.75361
1.70003
1.5693
1.37088
1.13044
0.864423
0.631834
0.440389
2.73628
2.813
2.79538
2.73469
2.64618
2.54
2.42039
2.29097
2.15569
2.02007
1.8893
1.76801
1.65975
1.56783
1.49483
1.44497
1.42167
1.43024
1.47502
1.55272
1.6468
1.72555
1.75617
1.71953
1.61106
1.43735
1.21948
0.96935
0.741216
0.541145
2.62304
2.62145
2.57643
2.50836
2.42704
2.33507
2.23307
2.12362
2.00941
1.89474
1.78384
1.68073
1.58863
1.51116
1.45105
1.4129
1.40017
1.41844
1.4701
1.55025
1.64208
1.71859
1.75139
1.72321
1.63198
1.47919
1.28244
1.05082
0.831693
0.631725
2.48537
2.38774
2.30997
2.24504
2.18277
2.11492
2.03678
1.95127
1.86061
1.76812
1.6777
1.59314
1.51774
1.45491
1.40782
1.38145
1.37892
1.4059
1.4628
1.54387
1.63155
1.70316
1.73536
1.71228
1.63175
1.49819
1.32144
1.11004
0.903909
0.710489
2.35489
2.16725
2.04684
1.97433
1.92511
1.88053
1.83023
1.77179
1.70558
1.63573
1.56603
1.50028
1.44164
1.39354
1.35965
1.34493
1.35235
1.38713
1.44795
1.52797
1.61108
1.67775
1.7079
1.68842
1.61688
1.49719
1.33995
1.14911
0.958164
0.77509
2.25634
2.00477
1.85412
1.76303
1.71045
1.67439
1.63966
1.5992
1.55121
1.50139
1.45057
1.4024
1.35988
1.32625
1.30521
1.3017
1.31853
1.36002
1.42384
1.5023
1.58084
1.6423
1.67003
1.65318
1.58985
1.4829
1.34104
1.17078
0.996285
0.825488
2.22054
1.94427
1.74478
1.6251
1.55356
1.51079
1.48003
1.4501
1.41569
1.37748
1.33839
1.30367
1.27482
1.25417
1.24482
1.25193
1.27734
1.3244
1.39022
1.46686
1.54092
1.59763
1.62318
1.60866
1.55296
1.45776
1.33057
1.17812
1.02009
0.862515
2.25532
1.9632
1.73349
1.56944
1.46346
1.40267
1.36186
1.33122
1.30242
1.27208
1.24053
1.21145
1.19116
1.18025
1.18064
1.19699
1.22974
1.28111
1.34793
1.42238
1.49229
1.54495
1.56889
1.55681
1.50819
1.42399
1.31087
1.17433
1.03206
0.887783
2.33996
2.03533
1.78625
1.59588
1.45736
1.36076
1.29705
1.25364
1.21962
1.18948
1.16092
1.13504
1.11584
1.10937
1.11646
1.13942
1.17751
1.23163
1.2984
1.37031
1.43638
1.48568
1.50871
1.49935
1.45752
1.38416
1.28415
1.16291
1.03461
0.903153
2.46591
2.15452
1.8922
1.68164
1.51653
1.39082
1.29996
1.23022
1.17904
1.13839
1.10533
1.07777
1.05718
1.04864
1.05739
1.08289
1.12336
1.17824
1.24363
1.31252
1.37498
1.42152
1.44424
1.43785
1.40262
1.33942
1.25235
1.1461
1.03187
0.913097
2.62637
2.31172
2.04702
1.82448
1.63887
1.48648
1.3654
1.26891
1.19178
1.13128
1.08364
1.04688
1.02028
1.00608
1.00965
1.03221
1.07108
1.12403
1.18637
1.25143
1.31021
1.3544
1.37731
1.37416
1.3455
1.29232
1.21888
1.1275
1.02635
0.919025
2.81386
2.50457
2.24352
2.01648
1.81775
1.6445
1.49727
1.37189
1.26439
1.17607
1.10597
1.05155
1.01218
0.987855
0.980222
0.99348
1.02568
1.07307
1.13009
1.19006
1.24472
1.28662
1.3101
1.31056
1.28956
1.24705
1.18555
1.10689
1.01749
0.920544
3.0201
2.72682
2.47803
2.25293
2.04633
1.85783
1.69033
1.53686
1.39855
1.27897
1.17981
1.10032
1.04045
0.999251
0.97632
0.974212
0.993581
1.03072
1.0793
1.13227
1.18193
1.22136
1.24631
1.25177
1.23755
1.20392
1.1527
1.08508
1.00612
0.918767
3.24202
2.976
2.74617
2.52841
2.31935
2.118
1.93253
1.75486
1.58909
1.43941
1.30924
1.2002
1.11285
1.04801
1.00426
0.982281
0.982749
1.004
1.03998
1.08329
1.12714
1.16441
1.19
1.19896
1.19031
1.16398
1.12133
1.06312
0.993324
0.914849
3.46977
3.23287
3.0245
2.81741
2.61096
2.40619
2.20679
2.01243
1.82587
1.65121
1.49275
1.35368
1.23634
1.14215
1.07206
1.02537
1.00217
1.0026
1.02115
1.05157
1.08671
1.119
1.143
1.15413
1.14931
1.12864
1.09292
1.04249
0.980521
0.909949
3.6844
3.47478
3.28401
3.09151
2.89618
2.69735
2.49683
2.29588
2.09755
1.90595
1.72578
1.56084
1.41464
1.28824
1.18894
1.11309
1.06112
1.03516
1.03176
1.04417
1.06548
1.08911
1.10915
1.11973
1.11681
1.09993
1.06943
1.02506
0.969461
0.905399
3.87134
3.68602
3.51857
3.34799
3.17126
2.98652
2.7945
2.5969
2.39692
2.19865
2.00657
1.82401
1.65482
1.5021
1.36878
1.26034
1.17392
1.11544
1.08276
1.07046
1.07225
1.082
1.09376
1.10032
1.09667
1.08125
1.05371
1.01306
0.961967
0.902792
4.0239
3.86955
3.73108
3.58842
3.43713
3.27439
3.10026
2.91694
2.72773
2.53633
2.34615
2.15893
1.97753
1.80457
1.64096
1.49549
1.3685
1.26844
1.1964
1.14905
1.12189
1.11036
1.1077
1.10465
1.0954
1.07691
1.04825
1.00869
0.959867
0.903903
4.15623
4.03645
3.93124
3.82231
3.70415
3.57331
3.42971
3.27631
3.11661
2.95321
2.78714
2.61666
2.44132
2.26049
2.07417
1.88724
1.71109
1.55462
1.42447
1.32299
1.24974
1.20202
1.17251
1.15003
1.1272
1.09963
1.06495
1.02112
0.97021
0.914266
4.28622
4.20716
4.14241
4.07654
4.0039
3.92178
3.83126
3.73658
3.64129
3.54549
3.44507
3.33128
3.19701
3.03471
2.84264
2.6193
2.36974
2.12336
1.89431
1.69739
1.54072
1.42418
1.34068
1.27719
1.22313
1.17238
1.12069
1.06515
1.00577
0.944223
4.45739
4.43099
4.42222
4.41972
4.41958
4.42252
4.43369
4.45994
4.50418
4.56082
4.61506
4.6444
4.62786
4.54371
4.38262
4.1256
3.77118
3.36035
2.94068
2.55308
2.22265
1.95738
1.75264
1.59334
1.46435
1.35627
1.26129
1.17369
1.09058
1.01243
4.77457
4.83078
4.91828
5.03205
5.1743
5.35478
5.58715
5.88188
6.2393
6.63964
7.04715
7.41451
7.69354
7.82826
7.7852
7.5249
7.00049
6.27489
5.46692
4.67039
3.94677
3.32734
2.82011
2.41188
2.08658
1.82725
1.61744
1.44388
1.29664
1.17385
5.53032
5.75606
6.05477
6.43333
6.91059
7.51022
8.25789
9.16423
10.2194
11.3663
12.523
13.5989
14.4974
15.1126
15.3636
15.1566
14.394
13.17
11.6612
10.0498
8.4681
7.01274
5.74348
4.68315
3.82533
3.14565
2.61222
2.19435
1.86409
1.61377
7.73704
8.40517
9.25288
10.2935
11.5703
13.1166
14.9628
17.0959
19.4741
21.9483
24.3585
26.5533
28.3941
29.7359
30.4482
30.3493
29.3029
27.4257
24.9449
22.1156
19.1327
16.1758
13.4011
10.9266
8.81365
7.0701
5.6703
4.56717
3.70478
3.07885
15.0574
16.8825
18.9112
21.2065
23.9006
26.9591
30.4281
34.2136
38.2308
42.0935
45.6169
48.6554
51.0729
52.7488
53.5781
53.3197
52.001
49.734
46.6782
42.9981
38.8261
34.358
29.8169
25.4218
21.3685
17.7816
14.7193
12.159
10.0489
8.49958
34.3233
36.4033
38.9828
42.1337
45.6561
49.457
53.7729
58.064
62.0733
65.4609
68.1709
70.2365
71.4841
71.9095
71.54
70.1161
68.2291
65.9882
63.5015
60.6087
57.1338
53.3438
49.3692
45.3369
41.3575
37.5014
33.8194
30.3578
27.1465
24.6126
50.3722
49.1133
49.5733
51.2596
53.6833
56.3282
58.8863
61.0877
62.8864
64.3007
65.1988
65.5677
65.4461
64.8766
63.504
61.0408
58.7749
56.4301
54.173
51.9769
49.9701
48.2227
46.8492
45.9062
45.3569
45.0017
44.7091
44.3937
43.9154
43.0913
7.86214
9.44415
10.1534
10.586
10.7693
10.7024
10.4229
9.98854
9.45508
8.87292
8.27476
7.69444
7.14778
6.6555
6.2187
5.84471
5.5267
5.29747
5.22491
5.33883
5.51187
5.5341
5.27002
4.69948
3.89478
2.9601
2.03836
1.21308
0.675436
0.502805
4.6768
5.13331
5.28474
5.34624
5.32163
5.20356
4.99953
4.73198
4.42501
4.10212
3.78417
3.48347
3.20823
2.96342
2.76371
2.61417
2.52469
2.5157
2.63106
2.888
3.19491
3.40123
3.40456
3.19111
2.8063
2.3105
1.76326
1.20875
0.778001
0.506425
4.33679
4.55474
4.59385
4.5582
4.45806
4.30486
4.10329
3.86413
3.60181
3.33114
3.06635
2.8177
2.59287
2.397
2.23764
2.12282
2.06299
2.08003
2.21407
2.47746
2.79462
3.0376
3.11177
2.99617
2.72661
2.33234
1.87494
1.38684
0.971702
0.65068
4.2715
4.34727
4.31477
4.23168
4.10584
3.94575
3.75373
3.53577
3.30141
3.06146
2.82674
2.60606
2.40641
2.23339
2.09423
1.99725
1.9533
1.98368
2.11894
2.36619
2.66586
2.9075
3.006
2.93659
2.72219
2.3935
1.99168
1.54513
1.14269
0.800964
4.25162
4.19188
4.09311
3.97853
3.84423
3.68997
3.51398
3.31883
3.11079
2.89817
2.68957
2.49266
2.31392
2.16011
2.03824
1.95737
1.92872
1.9725
2.11071
2.33815
2.60829
2.8329
2.93492
2.88886
2.70993
2.42846
2.07305
1.66628
1.28302
0.937522
4.2082
4.02204
3.86064
3.72056
3.58539
3.44375
3.28853
3.11926
2.93926
2.7545
2.57216
2.39905
2.24144
2.10666
2.00217
1.93807
1.92563
1.9826
2.12211
2.33464
2.57394
2.77175
2.86546
2.83029
2.6765
2.4275
2.11473
1.74818
1.39162
1.05667
4.13137
3.83011
3.6067
3.44138
3.30758
3.1824
3.05192
2.91107
2.7608
2.60497
2.45007
2.30191
2.16669
2.05168
1.96538
1.91899
1.92339
1.99281
2.13308
2.33131
2.54121
2.71033
2.78957
2.75806
2.62299
2.40196
2.12139
1.7951
1.46867
1.15167
4.01889
3.61917
3.33499
3.1422
3.00888
2.90091
2.79657
2.6864
2.56807
2.44278
2.31629
2.19398
2.08221
1.98804
1.92066
1.89245
1.91384
1.99648
2.13704
2.31917
2.50052
2.64244
2.70515
2.67319
2.55281
2.35546
2.10407
1.81288
1.5176
1.22305
3.89011
3.3942
3.05128
2.82989
2.69593
2.60338
2.52455
2.44666
2.36239
2.26781
2.17027
2.07433
1.98645
1.91392
1.86584
1.85575
1.89334
1.98626
2.12629
2.29154
2.44919
2.56586
2.61219
2.57786
2.46857
2.2921
2.06811
1.80706
1.54235
1.27279
3.75416
3.18891
2.8126
2.57055
2.42528
2.33537
2.27051
2.21272
2.15194
2.08465
2.0157
1.94554
1.88109
1.82991
1.8012
1.80837
1.86056
1.96146
2.09805
2.24891
2.38541
2.47981
2.51141
2.47446
2.37416
2.21708
2.01769
1.78557
1.54738
1.30381
3.62853
3.06046
2.64961
2.3829
2.21591
2.11521
2.05083
2.00272
1.95783
1.90997
1.86016
1.81301
1.77003
1.73877
1.72827
1.75114
1.81561
1.92188
2.05401
2.19121
2.30863
2.38438
2.40383
2.36492
2.27266
2.13307
1.95639
1.75214
1.5402
1.32231
3.5734
3.01613
2.59093
2.28248
2.08355
1.96106
1.88281
1.83147
1.79163
1.75484
1.7188
1.68485
1.65918
1.64501
1.64999
1.68609
1.75967
1.86816
1.99445
2.11871
2.21968
2.2804
2.29066
2.25129
2.16713
2.04357
1.88855
1.71207
1.52673
1.33157
3.58315
3.04401
2.61761
2.29072
2.05238
1.88819
1.78207
1.71514
1.66747
1.63117
1.6008
1.57471
1.55664
1.55482
1.57094
1.6167
1.69544
1.80263
1.92164
2.03352
2.12058
2.16975
2.17385
2.13593
2.06064
1.95252
1.82057
1.66865
1.50575
1.32977
3.642
3.12645
2.70547
2.36548
2.10182
1.90694
1.76698
1.66878
1.5992
1.5525
1.51784
1.49181
1.4758
1.47618
1.49786
1.54823
1.62741
1.72963
1.83933
1.93926
2.01453
2.05519
2.05608
2.02191
1.95755
1.86673
1.75294
1.62071
1.47741
1.31992
3.75429
3.26411
2.85259
2.5033
2.21948
1.99593
1.82449
1.69601
1.60239
1.53255
1.48269
1.44728
1.42586
1.42129
1.43969
1.48823
1.56231
1.65532
1.75337
1.84119
1.90619
1.94099
1.94161
1.91536
1.86188
1.78422
1.68599
1.5705
1.4442
1.30371
3.9178
3.45407
3.05548
2.7074
2.41098
2.16373
1.96228
1.80121
1.67529
1.57794
1.50522
1.45247
1.41804
1.40195
1.40804
1.44702
1.50974
1.5887
1.67209
1.74691
1.80258
1.83487
1.83875
1.81776
1.77319
1.70687
1.62186
1.52071
1.40887
1.28346
4.12525
3.68941
3.31205
2.97093
2.66826
2.40328
2.17584
1.98373
1.82487
1.69614
1.59512
1.5183
1.46377
1.43022
1.41922
1.43864
1.4833
1.54286
1.60767
1.66811
1.71605
1.74426
1.74882
1.73179
1.69423
1.63718
1.56305
1.47405
1.37416
1.26156
4.3649
3.96402
3.61043
3.28141
2.97908
2.7035
2.45632
2.23816
2.04962
1.89038
1.75999
1.65623
1.57758
1.52205
1.48998
1.48465
1.50295
1.53726
1.58
1.62289
1.65771
1.6775
1.67898
1.66309
1.62961
1.57895
1.51299
1.43339
1.3428
1.24047
4.62517
4.26095
3.93502
3.62388
3.32928
3.05164
2.7936
2.55787
2.34734
2.16389
2.00895
1.88121
1.77972
1.7018
1.64735
1.61543
1.60335
1.60641
1.61874
1.63438
1.64642
1.64993
1.64196
1.62206
1.58748
1.53873
1.47696
1.40231
1.31775
1.22288
4.88965
4.56469
4.27101
3.98478
3.70703
3.43819
3.18152
2.94119
2.72202
2.52772
2.361
2.22079
2.10609
2.01291
1.94042
1.88374
1.8377
1.8002
1.76889
1.74221
1.71689
1.69058
1.66087
1.62439
1.57926
1.52409
1.45955
1.38514
1.30268
1.21191
5.14495
4.86437
4.60952
4.35765
4.10904
3.86407
3.62657
3.402
3.19672
3.01574
2.86247
2.73472
2.63045
2.54263
2.468
2.39583
2.31423
2.22247
2.12436
2.02762
1.93673
1.85424
1.77901
1.70747
1.63574
1.56058
1.47924
1.39236
1.30264
1.21071
5.39565
5.16563
4.95863
4.75469
4.55349
4.35558
4.16561
3.99064
3.83839
3.7144
3.62211
3.5564
3.51243
3.47713
3.44102
3.38035
3.26728
3.09914
2.89056
2.66835
2.4536
2.25937
2.08908
1.94038
1.80766
1.68513
1.56842
1.45535
1.34451
1.23837
5.67428
5.50514
5.36196
5.22911
5.10631
4.99527
4.9025
4.83779
4.81005
4.82506
4.8856
4.98014
5.09946
5.21838
5.31493
5.32975
5.2045
4.92512
4.52385
4.06493
3.603
3.17518
2.80014
2.48135
2.21247
1.98354
1.78565
1.61202
1.45702
1.31892
6.07248
5.98674
5.9408
5.92457
5.93946
5.99143
6.09119
6.25338
6.48969
6.80537
7.19567
7.64012
8.12059
8.58872
9.00403
9.21998
9.12809
8.68865
7.95939
7.06245
6.11604
5.20662
4.39152
3.69708
3.1228
2.65427
2.27414
1.96521
1.71119
1.5053
6.81505
6.86696
6.99823
7.20438
7.48763
7.86086
8.34499
8.96168
9.72443
10.6318
11.662
12.7757
13.9356
15.0488
16.0449
16.6273
16.6188
15.9478
14.7145
13.1119
11.3374
9.54498
7.86578
6.39469
5.16532
4.17031
3.3841
2.7719
2.29633
1.94142
8.49741
8.84959
9.35743
10.0181
10.8324
11.8337
13.0542
14.5163
16.2209
18.1405
20.2101
22.362
24.5207
26.5225
28.2548
29.246
29.2574
28.2339
26.3618
23.8758
21.0025
17.9315
14.8741
12.0666
9.62695
7.59636
5.97495
4.71587
3.7524
3.06672
12.8232
13.9022
15.2112
16.7171
18.4444
20.5002
22.888
25.6068
28.611
31.8107
35.0807
38.3315
41.4078
44.0676
46.1644
46.9401
46.5381
45.1106
42.7258
39.5691
35.8059
31.5626
27.0521
22.6783
18.6006
14.9853
11.9847
9.56523
7.65587
6.30539
23.8814
25.9792
28.3327
30.9815
33.9322
37.1294
40.6527
44.455
48.4035
52.3201
56.0343
59.2268
61.8494
63.6204
64.5368
63.8406
62.2329
59.9412
57.2942
54.318
50.9529
47.249
43.1158
38.4675
33.6781
28.9557
24.7334
21.0362
17.8899
15.5719
44.744
46.0881
48.152
50.91
54.191
57.7825
61.5179
65.1296
68.4361
71.283
73.604
75.312
76.2686
76.1715
75.0981
72.2882
69.2096
65.9825
63.0071
60.2179
57.532
54.9448
52.5347
50.2948
48.2098
46.1663
43.5666
40.7991
37.9741
35.5004
56.6435
55.7507
56.4243
58.2491
60.8212
63.6715
66.4369
68.827
70.7179
72.0405
72.7374
72.7997
72.0859
70.4072
67.5521
63.2868
59.3309
55.6011
52.4743
49.9128
47.968
46.5857
45.8361
45.7313
46.235
47.1029
48.1769
49.1524
49.7467
49.7222
11.7643
13.9159
14.5677
14.7292
14.7128
14.4328
13.9034
13.1895
12.3628
11.4914
10.6193
9.79094
9.02008
8.34
7.74992
7.27005
6.90641
6.79701
7.20921
8.17931
9.19839
9.6786
9.4044
8.46958
7.1053
5.53059
3.96726
2.54551
1.54909
0.915226
6.50208
7.06311
7.17372
7.11903
7.0143
6.81807
6.52258
6.14618
5.71848
5.27133
4.83143
4.41483
4.03706
3.70193
3.42777
3.2213
3.11862
3.19673
3.61547
4.39051
5.20195
5.68176
5.69036
5.30295
4.65768
3.88025
3.05384
2.20809
1.50357
1.00208
5.96531
6.16427
6.13893
6.02163
5.85131
5.63019
5.35509
5.03266
4.67869
4.31178
3.95083
3.6088
3.29753
3.02336
2.7998
2.63837
2.5667
2.65501
3.03507
3.71099
4.43636
4.91511
5.01509
4.78199
4.32354
3.73288
3.05519
2.33927
1.70736
1.19799
5.90199
5.88659
5.7682
5.6051
5.41067
5.18618
4.92741
4.63633
4.32228
3.99775
3.67757
3.37261
3.09361
2.84841
2.65064
2.51261
2.46231
2.56669
2.92219
3.51198
4.15706
4.60507
4.73486
4.57365
4.20612
3.70377
3.12102
2.48222
1.89223
1.38805
5.91947
5.72095
5.51698
5.31456
5.10905
4.89155
4.65311
4.39148
4.11156
3.82213
3.5352
3.25963
3.00752
2.78688
2.61175
2.4964
2.47098
2.59799
2.94746
3.47101
4.02372
4.42118
4.54819
4.42222
4.10855
3.66864
3.15384
2.58154
2.03301
1.54157
5.92663
5.55932
5.2708
5.031
4.82004
4.61567
4.40209
4.17219
3.92698
3.67244
3.41833
3.17216
2.94691
2.75111
2.59988
2.50978
2.51353
2.66689
3.008
3.48087
3.94864
4.28297
4.38805
4.2765
3.99921
3.60733
3.14318
2.63212
2.12775
1.65767
5.88499
5.37362
5.00416
4.72797
4.51323
4.32435
4.13792
3.94136
3.73241
3.51425
3.2945
3.07989
2.88295
2.71374
2.58888
2.52765
2.56338
2.74465
3.07889
3.49983
3.8945
4.16209
4.23468
4.12521
3.87438
3.51984
3.10106
2.63744
2.18049
1.73827
5.78589
5.16021
4.71447
4.40219
4.1827
4.00968
3.85175
3.69015
3.51837
3.33739
3.15327
2.97232
2.80606
2.66527
2.56923
2.53957
2.60918
2.81708
3.14248
3.51415
3.84004
4.04398
4.08036
3.96608
3.73347
3.41019
3.03225
2.61345
2.19808
1.7884
5.64562
4.92527
4.41162
4.06438
3.837
3.67782
3.54756
3.41971
3.28463
3.1414
2.99376
2.84739
2.71385
2.6031
2.53767
2.54089
2.64455
2.87457
3.18654
3.51644
3.77549
3.92069
3.92175
3.80005
3.58072
3.28519
2.94362
2.56782
2.19123
1.81657
5.48253
4.69052
4.1087
3.73179
3.49799
3.3477
3.23786
3.13894
3.03767
2.93171
2.81957
2.70769
2.6071
2.52791
2.49386
2.52994
2.66523
2.9101
3.208
3.49242
3.69471
3.78718
3.75789
3.62923
3.42124
3.15147
2.8424
2.50858
2.17487
1.83306
5.30974
4.46527
3.84999
3.45158
3.20351
3.05146
2.95171
2.87261
2.79687
2.71852
2.63779
2.5585
2.48976
2.44196
2.43909
2.50643
2.67055
2.92333
3.20356
3.43904
3.59284
3.6413
3.5885
3.45579
3.25931
3.01345
2.73736
2.44568
2.14797
1.83263
5.14242
4.30155
3.67533
3.24231
2.97321
2.80821
2.7059
2.63501
2.57552
2.5181
2.46121
2.40751
2.36799
2.35011
2.37552
2.47114
2.65506
2.90701
3.15848
3.35592
3.4682
3.48304
3.4146
3.28225
3.09949
2.87903
2.63763
2.37826
2.10972
1.82032
5.04047
4.21851
3.59152
3.12926
2.82474
2.63671
2.51803
2.44242
2.38755
2.34187
2.30196
2.26722
2.25025
2.25791
2.30784
2.42661
2.62121
2.86065
3.08336
3.24509
3.32368
3.31549
3.23933
3.11324
2.94976
2.75726
2.54091
2.30728
2.06418
1.79906
5.0097
4.22525
3.60687
3.13318
2.78899
2.55296
2.40396
2.31137
2.24811
2.20387
2.17234
2.15007
2.14786
2.17334
2.24315
2.37809
2.57329
2.79248
2.98418
3.11372
3.16647
3.14563
3.07012
2.96021
2.81625
2.6428
2.44815
2.23635
2.01506
1.77193
5.04076
4.2909
3.68656
3.20585
2.83961
2.57284
2.38518
2.25675
2.17155
2.11845
2.08556
2.06817
2.07426
2.10762
2.1915
2.33496
2.52114
2.71441
2.87381
2.97516
3.01044
2.98761
2.92518
2.82609
2.69545
2.53819
2.36204
2.16846
1.96548
1.74148
5.13076
4.41966
3.83356
3.34951
2.96171
2.6634
2.44237
2.2841
2.17507
2.10002
2.0559
2.03495
2.0423
2.07902
2.16798
2.31256
2.48195
2.6459
2.77288
2.85137
2.88015
2.86154
2.80343
2.71194
2.5916
2.44701
2.28543
2.10618
1.91787
1.71009
5.28439
4.61216
4.04591
3.56319
3.16395
2.84094
2.58782
2.39572
2.25557
2.15698
2.09611
2.06583
2.06925
2.10683
2.19445
2.335
2.48537
2.61749
2.71441
2.78002
2.80047
2.7762
2.71625
2.62702
2.51238
2.37582
2.22183
2.05234
1.87465
1.67999
5.49636
4.86255
4.31935
3.84806
3.44309
3.10139
2.82078
2.59724
2.42639
2.30217
2.22223
2.18043
2.17909
2.21729
2.30875
2.44036
2.57048
2.67604
2.75509
2.79872
2.79786
2.75382
2.68077
2.58684
2.46949
2.32972
2.17591
2.01053
1.8387
1.65354
5.75393
5.15701
4.64811
4.19191
3.78887
3.43748
3.13826
2.89114
2.69613
2.55125
2.45681
2.40789
2.40813
2.45491
2.56129
2.69579
2.81489
2.90495
2.95638
2.96213
2.91372
2.83119
2.73789
2.61625
2.47025
2.31457
2.15314
1.98546
1.81367
1.63369
6.04015
5.49001
5.01551
4.58258
4.19245
3.84457
3.54139
3.28592
3.08213
2.93184
2.83858
2.79854
2.82017
2.89738
3.04509
3.2095
3.33941
3.4167
3.42255
3.35597
3.23429
3.09264
2.94098
2.76373
2.57193
2.3734
2.17443
1.98455
1.804
1.62385
6.34127
5.84722
5.41463
5.01693
4.65572
4.33111
4.04716
3.80952
3.62568
3.50096
3.44279
3.44882
3.5358
3.69138
3.93697
4.18239
4.35443
4.41919
4.3508
4.17303
3.93379
3.67893
3.40019
3.10684
2.818
2.54326
2.28539
2.04584
1.83016
1.63407
6.67653
6.24299
5.86213
5.51703
5.20883
4.93824
4.71097
4.53505
4.42159
4.37918
4.42196
4.55224
4.79011
5.11929
5.5747
5.99336
6.2536
6.31674
6.13414
5.78092
5.34603
4.85641
4.32106
3.79748
3.31782
2.89421
2.52557
2.20542
1.9291
1.69312
7.10066
6.73222
6.42203
6.15862
5.94329
5.77766
5.67023
5.63078
5.67599
5.82316
6.09131
6.48414
7.03143
7.70567
8.56823
9.30238
9.73799
9.82674
9.48263
8.87413
8.06154
7.08289
6.07127
5.11584
4.27669
3.57226
2.99486
2.52595
2.14399
1.83771
7.73707
7.45731
7.25601
7.12972
7.07933
7.10839
7.23327
7.46796
7.83315
8.35172
9.05149
9.9356
11.0445
12.322
13.871
15.0798
15.8049
15.9925
15.4385
14.3335
12.8235
11.049
9.24122
7.54602
6.07116
4.85941
3.89965
3.15445
2.57865
2.14592
8.88776
8.75464
8.74152
8.86579
9.12482
9.52292
10.0772
10.8095
11.7462
12.9108
14.3326
16.0038
17.9736
20.1268
22.6025
24.31
25.1912
25.2295
24.352
22.6489
20.314
17.4983
14.6073
11.811
9.3463
7.29409
5.67131
4.42825
3.49272
2.82907
11.2555
11.4299
11.7993
12.3947
13.2001
14.2274
15.4943
17.0211
18.8268
20.923
23.3201
25.9837
28.9658
32.0382
35.0307
36.1818
36.4304
35.7705
34.3856
32.3514
29.7421
26.5765
22.7713
18.7473
15.074
11.8527
9.21638
7.14708
5.57432
4.49322
16.4844
17.2841
18.3893
19.7381
21.3201
23.214
25.4023
27.8892
30.6621
33.7014
36.9766
40.4272
43.8401
46.7445
49.2346
48.842
47.7253
45.9446
43.9085
41.5672
38.893
35.8239
32.3584
28.5579
24.2424
19.9725
16.2301
13.0711
10.5577
8.82394
27.5523
28.9935
30.7945
32.9358
35.3701
37.9854
40.8464
43.9383
47.1885
50.5328
53.8058
56.6966
59.3232
61.0503
61.8529
59.0319
55.9941
52.8434
50.156
47.7052
45.3779
43.0384
40.6264
38.056
35.3002
32.1575
28.4721
24.7998
21.5971
19.24
44.5646
45.3929
46.9411
49.0934
51.6723
54.4999
57.4165
60.2684
62.9394
65.3433
67.403
68.9669
69.8883
69.4612
67.7511
62.1771
57.3781
53.0888
49.8215
47.337
45.4696
44.1478
43.264
42.7686
42.5089
42.314
41.7959
40.7657
39.0305
37.2545
51.8754
51.8869
52.9316
54.8274
57.2859
59.9408
62.5134
64.7867
66.6462
68.0069
68.7968
68.9334
68.1364
65.8048
61.8251
54.5598
48.9721
44.2895
40.8661
38.3581
36.8386
36.1654
36.2749
37.1807
38.757
40.7613
42.9428
44.9677
46.4997
47.2508
16.2315
19.013
19.5161
19.4541
19.1058
18.5476
17.7214
16.6854
15.5221
14.3179
13.1187
11.9768
10.9028
9.95036
9.12454
8.47606
8.0516
8.26023
9.87246
12.7165
15.246
16.279
15.7333
14.0755
11.8337
9.37204
6.96663
4.74541
3.07947
1.87472
8.53164
9.22294
9.27707
9.12804
8.87902
8.57649
8.17438
7.67776
7.12114
6.53912
5.96457
5.41078
4.90157
4.43842
4.05719
3.76221
3.62701
3.87045
4.93978
6.69492
8.25797
8.97531
8.8172
8.08285
7.05946
5.92822
4.79328
3.65022
2.65846
1.87158
7.74444
7.94819
7.84505
7.63723
7.36657
7.05846
6.69776
6.28435
5.83376
5.36604
4.90277
4.45543
4.04156
3.66743
3.35839
3.12803
3.03673
3.27279
4.17629
5.61039
6.91404
7.583
7.56048
7.06653
6.31893
5.47776
4.59178
3.64541
2.80604
2.11043
7.66555
7.56967
7.35616
7.10254
6.82126