/*--------------------------------*- C++ -*----------------------------------*\
  =========                 |
  \\      /  F ield         | OpenFOAM: The Open Source CFD Toolbox
   \\    /   O peration     | Website:  https://openfoam.org
    \\  /    A nd           | Version:  12
     \\/     M anipulation  |
\*---------------------------------------------------------------------------*/
FoamFile
{
    format      ascii;
    class       volScalarField;
    location    "1900/air";
    object      k;
}
// * * * * * * * * * * * * * * * * * * * * * * * * * * * * * * * * * * * * * //

dimensions      [0 2 -2 0 0 0 0];

internalField   nonuniform List<scalar> 
243000
(
0.0468842
0.0561497
0.0626361
0.0670599
0.0697765
0.0710501
0.0711529
0.0703506
0.0688775
0.0669352
0.0646719
0.0622077
0.0596215
0.0570084
0.0544005
0.0517793
0.0490886
0.0463185
0.0434667
0.0405406
0.037539
0.0346755
0.032459
0.031125
0.0283014
0.0269579
0.0228652
0.0172043
0.0117048
0.0130145
0.0720391
0.0856323
0.0922276
0.094557
0.0944132
0.0927659
0.0901478
0.086935
0.0833885
0.0796971
0.075974
0.0723118
0.0687815
0.0654497
0.0623295
0.0594052
0.0566291
0.0540208
0.0515623
0.0492556
0.0470574
0.0449144
0.0426653
0.040193
0.0369516
0.0331843
0.0282555
0.0218859
0.0160451
0.0143743
0.0786705
0.0962816
0.10537
0.108931
0.109333
0.107721
0.104843
0.101209
0.0971595
0.0929359
0.0886836
0.0845204
0.0805155
0.0767492
0.0732446
0.0699994
0.0669756
0.064221
0.0616978
0.0593845
0.057213
0.0550831
0.0528139
0.0501183
0.0466534
0.0421544
0.0364867
0.0293059
0.0226075
0.0177574
0.0779767
0.0947279
0.105998
0.112148
0.114493
0.114126
0.112055
0.108916
0.105141
0.10104
0.0968139
0.0926183
0.0885417
0.0846859
0.0810995
0.0778001
0.0747638
0.0720538
0.0696126
0.0673809
0.0652527
0.063112
0.0607824
0.0579862
0.0543972
0.0496914
0.0437835
0.0363534
0.0290954
0.0225113
0.0763832
0.088455
0.0999457
0.108024
0.112624
0.114304
0.113859
0.111969
0.10912
0.105707
0.101982
0.0981501
0.0943333
0.0906656
0.0872269
0.084065
0.0811755
0.0786324
0.0763597
0.0742562
0.0721771
0.0699973
0.0675615
0.0646433
0.060955
0.0561846
0.0502282
0.0428298
0.0352982
0.0278468
0.0773885
0.0821671
0.0906722
0.0991987
0.105683
0.109562
0.111177
0.111046
0.109624
0.107325
0.104495
0.101377
0.0981118
0.094877
0.0917842
0.0889253
0.0863161
0.0840383
0.0819978
0.0800597
0.078051
0.0758378
0.073291
0.0702416
0.0664597
0.0616765
0.0557724
0.0485546
0.0409807
0.0331611
0.0835768
0.0824682
0.0859325
0.0915686
0.0973465
0.10194
0.105262
0.10693
0.107187
0.106339
0.10471
0.102543
0.100069
0.0974793
0.0949062
0.0924948
0.0902797
0.0883447
0.0865871
0.0848477
0.0829357
0.0807126
0.0780732
0.0749012
0.0710329
0.0662545
0.060453
0.053485
0.0460338
0.0381418
0.0916464
0.0873144
0.0858607
0.0877816
0.0914651
0.0954629
0.0989177
0.101272
0.10273
0.103255
0.102927
0.101916
0.100402
0.0986188
0.0967159
0.0948741
0.0931496
0.0916224
0.0901903
0.088682
0.0868965
0.0846968
0.0819967
0.0787265
0.074785
0.0700206
0.0643439
0.0576508
0.0504409
0.0426445
0.100437
0.0946246
0.0899403
0.0879053
0.0885767
0.0908441
0.0936339
0.0960927
0.0979459
0.0990617
0.0997329
0.0998173
0.0993409
0.0984622
0.097335
0.0961588
0.095003
0.0939389
0.0928715
0.0916257
0.0899993
0.0878612
0.0851424
0.0818098
0.0778181
0.0730767
0.0675396
0.0611383
0.0542079
0.0466176
0.109752
0.103407
0.0968373
0.0918463
0.0892097
0.0888513
0.0900334
0.09183
0.0936162
0.0950315
0.0960621
0.0967918
0.0971913
0.0972114
0.0969028
0.0964484
0.0959158
0.0953613
0.094694
0.0937423
0.0923098
0.0902753
0.0875847
0.084234
0.0802243
0.0755284
0.0701345
0.0639863
0.057353
0.0500481
0.119416
0.112684
0.105375
0.0986437
0.0933544
0.0901212
0.0889209
0.0891875
0.0902226
0.0914604
0.0926112
0.0935778
0.0944154
0.0951385
0.0955932
0.0958623
0.0959726
0.0959575
0.0957214
0.0950953
0.0938932
0.092005
0.0893921
0.0860734
0.0820951
0.0774551
0.0721812
0.066271
0.0599321
0.0529771
0.129304
0.1223
0.114952
0.107312
0.100331
0.0946948
0.0908984
0.0889585
0.0884696
0.088872
0.0896956
0.0906437
0.0915987
0.0926244
0.0936443
0.0945534
0.0952824
0.0958081
0.0960211
0.0957531
0.0948141
0.0931141
0.0906301
0.0874021
0.0834838
0.0789144
0.0737654
0.0680733
0.0620116
0.0554117
0.139245
0.132039
0.124634
0.116734
0.108988
0.101859
0.095936
0.0916502
0.0890763
0.087949
0.0878327
0.0883213
0.0891271
0.0901357
0.0913687
0.0927278
0.0939816
0.0950127
0.0956695
0.0957641
0.0951277
0.0936756
0.091367
0.0882594
0.0844359
0.0799689
0.0749558
0.0694673
0.0636608
0.0574022
0.149103
0.14176
0.134291
0.126424
0.118468
0.110644
0.103373
0.0971702
0.0924392
0.0893179
0.0876507
0.087107
0.0873324
0.0880603
0.0891493
0.0906484
0.0922488
0.093696
0.0947609
0.0952241
0.0948972
0.0936814
0.0916003
0.0886844
0.0850085
0.0806792
0.075823
0.0705342
0.0649666
0.059075
0.158773
0.151346
0.143876
0.136218
0.128288
0.120257
0.112337
0.104902
0.0984109
0.0932716
0.0896759
0.08756
0.0866753
0.0867127
0.0874026
0.0886412
0.0903158
0.09202
0.0934121
0.0942154
0.0942005
0.0932737
0.0914197
0.0887141
0.0852522
0.0811372
0.0765567
0.0715558
0.0662558
0.0606826
0.168139
0.160684
0.153279
0.145802
0.138068
0.130125
0.122044
0.114018
0.10639
0.0996154
0.094109
0.0901154
0.0876439
0.0865084
0.0864176
0.0871382
0.0884919
0.0901986
0.0917729
0.0928432
0.0931238
0.092488
0.0909177
0.0884661
0.0853281
0.081545
0.0772554
0.0725381
0.0675053
0.0622226
0.177073
0.169655
0.162375
0.155085
0.147642
0.139938
0.131968
0.123795
0.115614
0.107775
0.100727
0.0949047
0.0905963
0.0878708
0.0865627
0.0864192
0.0871704
0.0885178
0.0900471
0.091254
0.0917747
0.0914204
0.0902027
0.0881319
0.0853338
0.081887
0.0779008
0.0734675
0.0687003
0.0636901
0.185442
0.178113
0.171006
0.163976
0.15687
0.149487
0.141776
0.133728
0.125417
0.117054
0.108994
0.101696
0.0956189
0.091098
0.0882039
0.086809
0.0866434
0.0873615
0.0885422
0.0896828
0.0903608
0.0902967
0.0894213
0.087717
0.0852654
0.0821543
0.078478
0.074332
0.0698304
0.0650803
0.1931
0.185908
0.179021
0.172383
0.165617
0.158597
0.151236
0.143478
0.135315
0.12684
0.118277
0.11
0.102494
0.0962515
0.0915956
0.0886288
0.0871992
0.0869912
0.0875691
0.088429
0.0890948
0.0892077
0.0886085
0.0872376
0.0851237
0.0823423
0.0789774
0.0751204
0.0708861
0.06639
0.199922
0.192933
0.186372
0.180066
0.173688
0.167094
0.160165
0.152811
0.14498
0.13668
0.128022
0.119254
0.110789
0.103142
0.0967969
0.0921055
0.0891297
0.0876728
0.0873565
0.0876724
0.0881139
0.0882491
0.0878277
0.0867329
0.0849266
0.0824584
0.0793986
0.0758296
0.0718626
0.0676155
0.205823
0.199203
0.19306
0.187067
0.181073
0.17492
0.168465
0.161592
0.154215
0.146288
0.137832
0.12898
0.120029
0.111418
0.103672
0.0973166
0.0926548
0.0896859
0.088167
0.0876462
0.0876049
0.0875611
0.0871797
0.0862665
0.0847144
0.0825265
0.0797558
0.076468
0.0727647
0.0687615
0.210869
0.204639
0.198813
0.193196
0.187637
0.181975
0.176054
0.169755
0.16296
0.155579
0.147562
0.138946
0.129908
0.120778
0.112022
0.104232
0.0979079
0.0932786
0.090294
0.0886315
0.0878154
0.0873433
0.0868157
0.08595
0.084564
0.0826019
0.0800884
0.0770641
0.0736135
0.0698455
0.214699
0.208907
0.20351
0.198369
0.193332
0.188256
0.183002
0.177516
0.171571
0.164997
0.157667
0.149545
0.140697
0.131385
0.121933
0.112938
0.10503
0.0986945
0.0940568
0.0909731
0.089071
0.0878783
0.0869462
0.085924
0.0845712
0.0827621
0.080457
0.0776651
0.0744483
0.0709018
0.217552
0.212281
0.207382
0.202754
0.198419
0.194258
0.19002
0.185499
0.180492
0.174817
0.168305
0.160866
0.152466
0.143287
0.133497
0.123635
0.114274
0.106281
0.0998931
0.0951545
0.0918495
0.0895948
0.087954
0.0865274
0.0850029
0.0831884
0.0809855
0.0783597
0.0753355
0.071986
0.219596
0.214944
0.210636
0.206614
0.203112
0.199871
0.196629
0.193136
0.189168
0.184532
0.179021
0.1725
0.164838
0.156146
0.146424
0.136189
0.126091
0.116739
0.108633
0.10206
0.0970242
0.0933015
0.0905318
0.0883204
0.0863155
0.0842522
0.0819709
0.0793785
0.0764526
0.0732369
0.221093
0.217231
0.213696
0.210468
0.20757
0.205055
0.202702
0.200216
0.197375
0.194082
0.190052
0.185039
0.17883
0.171372
0.162639
0.152843
0.142429
0.132003
0.122253
0.113672
0.106519
0.100792
0.0962871
0.0926874
0.0896532
0.0868838
0.084153
0.0812989
0.0782513
0.0750077
0.223269
0.220698
0.218451
0.216536
0.214974
0.213794
0.212919
0.212147
0.211235
0.209939
0.207951
0.204942
0.200612
0.194769
0.18737
0.178354
0.167895
0.156624
0.145267
0.134483
0.12475
0.116322
0.109215
0.103278
0.09827
0.093914
0.0899578
0.0861967
0.0824885
0.0787912
0.23187
0.231654
0.231731
0.232174
0.233081
0.234509
0.236413
0.238587
0.240749
0.242526
0.243523
0.243288
0.241459
0.237739
0.232009
0.224034
0.213679
0.201676
0.188727
0.175585
0.162858
0.15099
0.140225
0.130652
0.122226
0.114777
0.108106
0.102027
0.0963711
0.0912013
0.275645
0.279116
0.282384
0.286271
0.291226
0.29727
0.304009
0.310875
0.317452
0.323411
0.328218
0.331311
0.332265
0.330953
0.327144
0.320447
0.310335
0.297942
0.28404
0.269312
0.254289
0.239446
0.225156
0.211685
0.199209
0.187447
0.176378
0.166009
0.156329
0.14791
0.489313
0.48946
0.490452
0.49537
0.503029
0.511716
0.51899
0.524851
0.529939
0.534623
0.538083
0.539525
0.539656
0.538826
0.536252
0.531779
0.523787
0.515384
0.506788
0.498507
0.490482
0.482977
0.476047
0.469795
0.464288
0.456886
0.448493
0.439901
0.431617
0.424817
0.0876791
0.0997756
0.105952
0.108928
0.109431
0.108022
0.105202
0.101434
0.0971081
0.0925539
0.0879762
0.0835454
0.0793637
0.0755499
0.0721016
0.0690024
0.066162
0.0636135
0.0614646
0.0598149
0.0584231
0.0566746
0.0539141
0.0496842
0.0438254
0.03643
0.0282115
0.0240525
0.02196
0.0202208
0.152051
0.170197
0.172718
0.168375
0.160423
0.150745
0.140463
0.130263
0.120553
0.111578
0.103373
0.0960252
0.0896941
0.0843442
0.0798629
0.0761543
0.0730999
0.0708269
0.0694388
0.0690508
0.0693687
0.0697193
0.0692396
0.0670456
0.0625411
0.0555318
0.0467366
0.0373178
0.0310814
0.0270501
0.184933
0.204895
0.208101
0.203471
0.194567
0.183493
0.171537
0.159535
0.147998
0.137272
0.127498
0.118802
0.111235
0.104867
0.099622
0.0954532
0.0922125
0.0900353
0.0888965
0.0887464
0.08919
0.0896164
0.0892349
0.0871038
0.0824534
0.0748674
0.0649363
0.0532749
0.0436278
0.0363336
0.203313
0.22195
0.22525
0.221045
0.212534
0.201711
0.189874
0.177833
0.16607
0.154998
0.144844
0.135779
0.127877
0.121262
0.115913
0.111818
0.108858
0.107149
0.106493
0.106637
0.107064
0.107224
0.106475
0.104023
0.0990865
0.0911386
0.0806126
0.0677326
0.0560058
0.0464157
0.211706
0.227361
0.230348
0.226766
0.219106
0.209258
0.198522
0.187471
0.176382
0.165814
0.156066
0.147306
0.139666
0.133324
0.128314
0.124664
0.122289
0.121263
0.121225
0.121725
0.122166
0.122035
0.120834
0.117967
0.112759
0.104651
0.0939445
0.0806035
0.0677733
0.0566474
0.213371
0.223913
0.226313
0.223379
0.217447
0.209648
0.200247
0.190344
0.180344
0.170908
0.162192
0.154222
0.14729
0.141605
0.137251
0.134304
0.132714
0.132493
0.133113
0.133997
0.134497
0.134129
0.132517
0.129258
0.123822
0.115708
0.105069
0.0917777
0.0785264
0.0665435
0.211123
0.214305
0.214144
0.211679
0.207681
0.202302
0.195304
0.187562
0.179676
0.1717
0.164117
0.157216
0.151374
0.146637
0.143177
0.141132
0.140471
0.141101
0.142396
0.143677
0.144279
0.143747
0.141801
0.138206
0.132604
0.124577
0.114177
0.101263
0.0880506
0.0757122
0.208171
0.203108
0.198817
0.195489
0.192548
0.189264
0.185047
0.180044
0.174351
0.168386
0.162511
0.157172
0.152488
0.148868
0.146483
0.145493
0.145838
0.147336
0.149302
0.150996
0.151743
0.151133
0.148954
0.145106
0.139397
0.13153
0.121486
0.109148
0.0962817
0.0839343
0.205677
0.194296
0.186635
0.181436
0.178099
0.175534
0.172814
0.169595
0.1658
0.16202
0.158006
0.154278
0.151067
0.148729
0.147526
0.147685
0.149063
0.151428
0.154051
0.156165
0.157108
0.156515
0.154218
0.150223
0.144484
0.136828
0.127237
0.115611
0.103303
0.0911217
0.206803
0.19209
0.179597
0.171629
0.166531
0.163373
0.161064
0.158883
0.156465
0.15395
0.151441
0.149309
0.147597
0.146621
0.146634
0.14797
0.150386
0.153604
0.156859
0.159395
0.160584
0.160103
0.15781
0.153797
0.148116
0.140759
0.131636
0.1207
0.10904
0.0972417
0.211913
0.194804
0.179549
0.167512
0.159386
0.154631
0.151487
0.149324
0.147507
0.145828
0.144259
0.143061
0.142667
0.142975
0.144157
0.146644
0.150049
0.154061
0.157933
0.160888
0.162382
0.162091
0.159926
0.156045
0.150561
0.143463
0.134783
0.124566
0.113619
0.102378
0.220538
0.201457
0.184038
0.169618
0.158636
0.150784
0.145683
0.14248
0.140262
0.138684
0.137526
0.136874
0.137025
0.138327
0.140563
0.144057
0.14834
0.153051
0.157497
0.160952
0.162741
0.162657
0.160717
0.157054
0.151827
0.145073
0.13689
0.127388
0.117183
0.106609
0.232093
0.211604
0.192696
0.176424
0.1631
0.152812
0.145388
0.139927
0.136197
0.133782
0.132282
0.131606
0.131885
0.133453
0.136422
0.14064
0.145598
0.150865
0.155777
0.159648
0.161817
0.162006
0.160301
0.156864
0.15196
0.145718
0.138138
0.1294
0.120052
0.110247
0.245933
0.225113
0.205727
0.188239
0.173063
0.160421
0.150415
0.142643
0.136774
0.13256
0.129797
0.128317
0.128172
0.129435
0.13243
0.136934
0.142247
0.147855
0.153099
0.157301
0.159829
0.160366
0.159012
0.155944
0.151429
0.145671
0.138894
0.131032
0.122493
0.113372
0.261962
0.24155
0.222379
0.204455
0.188125
0.173663
0.161388
0.151122
0.142636
0.136033
0.131281
0.128222
0.126888
0.127279
0.129449
0.133622
0.138831
0.144458
0.149818
0.154221
0.157048
0.157965
0.157032
0.15446
0.150536
0.145404
0.13926
0.132104
0.124266
0.115819
0.279571
0.260373
0.242221
0.224544
0.207656
0.191965
0.177958
0.165321
0.154211
0.144923
0.137616
0.132298
0.12904
0.127814
0.128604
0.131519
0.136031
0.141235
0.146388
0.150793
0.153824
0.155123
0.154727
0.152794
0.149433
0.144845
0.139227
0.132698
0.125478
0.117666
0.29818
0.28111
0.26461
0.247772
0.230933
0.214444
0.199098
0.184537
0.171149
0.159301
0.149286
0.141305
0.135483
0.13197
0.130713
0.131743
0.134681
0.138895
0.143412
0.147538
0.150679
0.152386
0.152431
0.150968
0.14816
0.1441
0.138986
0.132962
0.126264
0.119029
0.317068
0.302331
0.287781
0.272194
0.255969
0.239527
0.223362
0.207603
0.192563
0.178623
0.166146
0.155458
0.146824
0.140471
0.136599
0.135138
0.13588
0.138356
0.141741
0.145234
0.148143
0.149916
0.150242
0.149201
0.146873
0.143305
0.138654
0.133046
0.126787
0.120055
0.334954
0.322456
0.309718
0.295775
0.280879
0.265276
0.249312
0.233212
0.217292
0.201937
0.187541
0.174476
0.163104
0.153663
0.146862
0.142439
0.140344
0.140492
0.142112
0.144386
0.146542
0.148065
0.14851
0.147736
0.145799
0.14263
0.138371
0.133121
0.12723
0.120903
0.350827
0.340359
0.329772
0.317969
0.304972
0.290861
0.275861
0.260203
0.244191
0.228197
0.212604
0.197764
0.184085
0.17201
0.161912
0.154282
0.148859
0.146034
0.145242
0.145683
0.14659
0.147376
0.147639
0.146939
0.145182
0.142263
0.138279
0.133346
0.127762
0.121759
0.364176
0.355994
0.347792
0.338438
0.327752
0.315651
0.302239
0.287735
0.272418
0.256621
0.240674
0.224865
0.209591
0.19535
0.182329
0.171326
0.162357
0.156004
0.152083
0.149959
0.148955
0.148559
0.148219
0.14724
0.145349
0.142486
0.138672
0.133972
0.128614
0.122858
0.375563
0.369662
0.363892
0.357146
0.349065
0.33941
0.328175
0.31555
0.301794
0.287172
0.271916
0.256196
0.240318
0.22469
0.20949
0.19523
0.182671
0.172334
0.164479
0.158867
0.155087
0.152725
0.151132
0.149425
0.14715
0.14411
0.140212
0.135502
0.13018
0.124545
0.385489
0.381873
0.378583
0.374592
0.369393
0.362656
0.354325
0.344529
0.333529
0.321472
0.308403
0.294288
0.279276
0.263515
0.247411
0.230878
0.214282
0.199233
0.186249
0.175752
0.167819
0.162181
0.158205
0.154892
0.15153
0.147795
0.143485
0.138509
0.13303
0.127327
0.394997
0.39382
0.393249
0.392383
0.390587
0.387593
0.383474
0.378388
0.372415
0.365419
0.357094
0.347101
0.335288
0.32142
0.305947
0.287987
0.267506
0.246377
0.226254
0.208487
0.193837
0.18243
0.17383
0.167023
0.161065
0.155474
0.149877
0.144044
0.13794
0.131822
0.406433
0.408318
0.411373
0.414882
0.418227
0.421459
0.424753
0.428154
0.431441
0.433921
0.434696
0.43301
0.428222
0.419463
0.406919
0.389158
0.364535
0.335335
0.304896
0.27579
0.249735
0.227626
0.209604
0.194918
0.182789
0.172515
0.163455
0.155127
0.14722
0.139937
0.426136
0.433138
0.442539
0.454001
0.467425
0.48274
0.499974
0.518733
0.53822
0.556735
0.572629
0.58457
0.591269
0.591114
0.584054
0.568129
0.540246
0.502981
0.459988
0.415086
0.371079
0.330177
0.293859
0.262706
0.23659
0.214927
0.196905
0.181731
0.168665
0.157969
0.475912
0.494322
0.517703
0.545659
0.578059
0.614284
0.653645
0.694776
0.736243
0.774954
0.80857
0.835454
0.854299
0.863678
0.86259
0.849402
0.819978
0.776815
0.72337
0.663679
0.600663
0.537222
0.476053
0.41945
0.368892
0.324942
0.287546
0.256143
0.229858
0.209951
0.627074
0.66984
0.716986
0.768126
0.823342
0.880566
0.939492
0.997921
1.05463
1.10357
1.14371
1.17445
1.19498
1.20492
1.20375
1.18962
1.16107
1.1199
1.06791
1.00723
0.939032
0.865616
0.789482
0.713316
0.639931
0.571508
0.509632
0.454645
0.406469
0.370446
0.961623
1.00297
1.05158
1.10668
1.16325
1.21882
1.27653
1.32876
1.37333
1.40716
1.4309
1.44582
1.44998
1.44509
1.43173
1.40677
1.37671
1.34223
1.30456
1.26262
1.21425
1.16242
1.10815
1.0524
0.996034
0.939507
0.883505
0.828752
0.776041
0.734961
1.21003
1.20359
1.21766
1.24618
1.28068
1.31454
1.34486
1.36864
1.38596
1.39763
1.40256
1.40085
1.39253
1.37961
1.35753
1.32385
1.29299
1.26117
1.23054
1.20135
1.17548
1.15387
1.13781
1.12773
1.12284
1.12001
1.11776
1.11479
1.10933
1.09775
0.128578
0.141654
0.145026
0.145583
0.143908
0.140213
0.134968
0.128734
0.122001
0.115185
0.108536
0.102311
0.0966219
0.0916327
0.0873375
0.0837993
0.0809531
0.0791259
0.0790332
0.0810242
0.0838357
0.085336
0.0840224
0.0793259
0.071436
0.0608063
0.048521
0.0351801
0.0244101
0.0199588
0.214713
0.237721
0.240062
0.233946
0.222822
0.209301
0.194901
0.180558
0.166845
0.1541
0.142466
0.132146
0.12303
0.115154
0.108572
0.103317
0.0992386
0.0970418
0.09762
0.101555
0.107434
0.112676
0.115002
0.112972
0.106048
0.0945506
0.0797884
0.0627262
0.0479226
0.0369534
0.260934
0.286189
0.2902
0.284049
0.27219
0.257298
0.24097
0.224331
0.208158
0.192944
0.178934
0.166438
0.155462
0.146131
0.138435
0.132414
0.127949
0.125852
0.126885
0.131356
0.137785
0.143653
0.146636
0.14508
0.138012
0.125521
0.10878
0.0886824
0.0700724
0.0548563
0.291345
0.313167
0.316715
0.310945
0.299661
0.285195
0.26897
0.2521
0.235432
0.219527
0.204734
0.19143
0.179728
0.169843
0.161864
0.155863
0.15178
0.15034
0.151912
0.156525
0.162691
0.168153
0.170871
0.169276
0.16224
0.149556
0.132169
0.110786
0.0899637
0.0718373
0.311814
0.327327
0.32895
0.323187
0.31282
0.299536
0.284348
0.268337
0.252325
0.236803
0.222218
0.209003
0.197361
0.187596
0.17991
0.17443
0.171141
0.170579
0.172654
0.177149
0.182662
0.187241
0.189243
0.187311
0.180347
0.167939
0.150774
0.129275
0.107548
0.0875748
0.324836
0.332358
0.331368
0.325469
0.316059
0.303962
0.289994
0.275606
0.261129
0.24673
0.233066
0.220612
0.209627
0.200501
0.193542
0.18895
0.186728
0.187115
0.189633
0.193837
0.198486
0.201962
0.203028
0.200563
0.193629
0.181729
0.16526
0.144435
0.122764
0.102022
0.331916
0.331181
0.326423
0.31948
0.310878
0.300825
0.289546
0.276899
0.263785
0.250568
0.2384
0.227262
0.217398
0.209329
0.203436
0.200021
0.199055
0.200395
0.203302
0.207147
0.210855
0.213156
0.213191
0.210067
0.203089
0.191768
0.176276
0.156635
0.135675
0.114761
0.334188
0.325634
0.316109
0.307276
0.299105
0.290701
0.281559
0.271482
0.260832
0.250137
0.239546
0.22977
0.221334
0.21464
0.210085
0.208074
0.208455
0.21074
0.213991
0.217479
0.220275
0.221457
0.220429
0.216604
0.20953
0.198791
0.184444
0.166226
0.146336
0.125727
0.334669
0.317127
0.301955
0.290561
0.282426
0.275472
0.268554
0.261255
0.253423
0.245034
0.236673
0.228808
0.222042
0.216938
0.213915
0.213452
0.215186
0.218397
0.221973
0.225144
0.227125
0.227308
0.225284
0.22078
0.213636
0.203384
0.189956
0.173202
0.154636
0.134912
0.3337
0.308087
0.288911
0.275283
0.266159
0.259576
0.253993
0.248548
0.242801
0.236719
0.23076
0.225013
0.220105
0.216715
0.21532
0.216431
0.21949
0.223577
0.227469
0.23039
0.231714
0.231042
0.228158
0.223137
0.215769
0.20583
0.193272
0.177946
0.16091
0.142556
0.332617
0.303909
0.28046
0.263838
0.252745
0.245344
0.239967
0.235544
0.231325
0.227011
0.222786
0.219126
0.21612
0.21449
0.214706
0.21731
0.221581
0.226493
0.230688
0.233448
0.234278
0.232941
0.229388
0.223705
0.216091
0.206508
0.19488
0.18095
0.165562
0.148835
0.334743
0.304975
0.27939
0.258809
0.24429
0.235046
0.22859
0.224112
0.220546
0.217347
0.214463
0.212096
0.21081
0.210831
0.212504
0.21645
0.221784
0.227352
0.231854
0.234562
0.235013
0.233063
0.228986
0.223017
0.215379
0.206105
0.195295
0.18286
0.169238
0.154038
0.339867
0.309843
0.283229
0.260813
0.243496
0.230612
0.221781
0.216217
0.212219
0.209211
0.207001
0.205498
0.205094
0.206394
0.209273
0.21429
0.220402
0.226464
0.231219
0.233975
0.234183
0.231961
0.227642
0.221536
0.214032
0.205177
0.195241
0.184128
0.171869
0.158
0.348362
0.318754
0.291746
0.267857
0.248288
0.233032
0.221903
0.213709
0.208101
0.204187
0.20181
0.200484
0.200439
0.202073
0.20572
0.211391
0.217931
0.224232
0.229152
0.231947
0.232064
0.229767
0.225438
0.219511
0.21238
0.20417
0.194878
0.184621
0.173459
0.160824
0.36029
0.331592
0.304649
0.280141
0.25901
0.241531
0.227773
0.217189
0.209433
0.203989
0.200375
0.198347
0.197896
0.199171
0.202722
0.208471
0.214976
0.221176
0.226067
0.228856
0.228988
0.226802
0.222693
0.217321
0.210661
0.202937
0.194231
0.184596
0.174304
0.162742
0.375433
0.348093
0.322323
0.297962
0.275933
0.256701
0.240563
0.227398
0.217058
0.209279
0.203761
0.200241
0.198615
0.198877
0.201337
0.206422
0.212313
0.217979
0.222538
0.225213
0.225419
0.22358
0.219951
0.215001
0.208842
0.201617
0.193449
0.184366
0.174713
0.164028
0.393364
0.368146
0.344022
0.320438
0.298205
0.277837
0.259793
0.244233
0.231253
0.220828
0.212858
0.207166
0.203646
0.202209
0.202983
0.206311
0.21092
0.215528
0.219365
0.221762
0.222109
0.220511
0.217267
0.212768
0.207112
0.200368
0.192683
0.184087
0.174926
0.164933
0.413557
0.390695
0.368587
0.346315
0.324535
0.303726
0.28441
0.266942
0.251613
0.238605
0.228011
0.219775
0.213853
0.210158
0.208703
0.209627
0.212041
0.214992
0.217719
0.219536
0.219662
0.218093
0.215105
0.21099
0.20572
0.199375
0.192089
0.183896
0.175125
0.165664
0.434703
0.414426
0.39461
0.374112
0.353403
0.332874
0.313037
0.294358
0.277274
0.262119
0.249148
0.238411
0.229955
0.223713
0.219734
0.217885
0.217649
0.21831
0.21921
0.219716
0.219097
0.217156
0.214098
0.210048
0.204961
0.198847
0.191812
0.183896
0.175448
0.166404
0.455452
0.437939
0.420669
0.402366
0.383322
0.363811
0.344295
0.32528
0.307297
0.290794
0.276132
0.263426
0.252802
0.2442
0.237758
0.233098
0.229795
0.227511
0.225759
0.224079
0.221884
0.218945
0.215288
0.210744
0.205386
0.199157
0.192179
0.184426
0.176144
0.167373
0.474793
0.460152
0.445628
0.429916
0.413133
0.395431
0.377198
0.35894
0.341234
0.324589
0.309423
0.295858
0.284066
0.27394
0.26567
0.258583
0.252107
0.246209
0.240732
0.235614
0.230586
0.225507
0.220284
0.2147
0.208615
0.20181
0.194283
0.186143
0.177675
0.168922
0.492337
0.480607
0.469
0.456297
0.442458
0.427511
0.411768
0.395718
0.379942
0.364946
0.351148
0.338614
0.32752
0.317629
0.309044
0.300652
0.29133
0.281181
0.270525
0.260036
0.250073
0.240809
0.232203
0.224025
0.215981
0.207743
0.19913
0.190118
0.180857
0.171651
0.508591
0.499832
0.491441
0.482367
0.472438
0.461587
0.450062
0.438339
0.426952
0.41635
0.40685
0.398404
0.391164
0.384612
0.378526
0.371044
0.359881
0.34498
0.327219
0.30842
0.289988
0.27284
0.257407
0.243636
0.231181
0.219565
0.208417
0.197512
0.186756
0.176517
0.525571
0.520184
0.515769
0.511522
0.507183
0.502648
0.498145
0.494104
0.49094
0.488959
0.488255
0.488545
0.489893
0.491244
0.491833
0.488429
0.477086
0.457327
0.430536
0.39974
0.367854
0.337041
0.30883
0.28393
0.262274
0.24336
0.226629
0.211577
0.197758
0.185294
0.548438
0.547664
0.549184
0.552431
0.557004
0.562807
0.570026
0.578924
0.589653
0.60214
0.616031
0.630635
0.64568
0.659391
0.670517
0.673407
0.663046
0.638581
0.601912
0.556903
0.507602
0.457213
0.408732
0.364603
0.325904
0.292685
0.264499
0.240627
0.220212
0.203412
0.590108
0.597843
0.61017
0.626396
0.645825
0.668334
0.693791
0.721949
0.752337
0.784221
0.816491
0.848059
0.878224
0.904464
0.925107
0.932499
0.921575
0.892265
0.847325
0.790475
0.725351
0.654882
0.582616
0.513283
0.449763
0.393576
0.345512
0.305233
0.271768
0.246301
0.685347
0.710559
0.742174
0.778533
0.818638
0.862725
0.909582
0.95829
1.00762
1.05611
1.10223
1.14473
1.18227
1.21208
1.23229
1.23284
1.21484
1.18147
1.13363
1.07367
1.00347
0.924147
0.837739
0.750063
0.663969
0.582893
0.510792
0.448196
0.395007
0.355983
0.903838
0.948992
0.999952
1.05565
1.11398
1.17211
1.23013
1.28683
1.34051
1.38931
1.43206
1.46513
1.48883
1.50087
1.50067
1.47954
1.44567
1.40316
1.35634
1.30563
1.25011
1.19013
1.12323
1.04713
0.966329
0.882993
0.803499
0.729289
0.662302
0.612997
1.25454
1.2859
1.32824
1.37912
1.4338
1.4878
1.53832
1.58221
1.61816
1.64547
1.66459
1.67439
1.67345
1.66071
1.6346
1.58693
1.53621
1.48427
1.43643
1.39257
1.35212
1.31498
1.28125
1.25152
1.22477
1.19806
1.16161
1.12106
1.07804
1.04204
1.42164
1.42424
1.44452
1.47778
1.51704
1.55587
1.58996
1.61616
1.63365
1.64236
1.64274
1.63341
1.61364
1.58185
1.53477
1.4698
1.40878
1.35152
1.30307
1.26399
1.23569
1.21758
1.21025
1.21432
1.22859
1.24849
1.27142
1.29264
1.30722
1.31239
0.168212
0.183429
0.184488
0.181444
0.177183
0.171144
0.163547
0.154941
0.145876
0.136853
0.128169
0.120135
0.112828
0.106502
0.101138
0.0969183
0.0939161
0.093425
0.0979452
0.10767
0.117947
0.123874
0.123623
0.117489
0.106669
0.0922555
0.0756505
0.0576486
0.0424471
0.0306707
0.279756
0.306734
0.305303
0.295944
0.281339
0.264107
0.245831
0.227651
0.210233
0.19398
0.179077
0.165755
0.153916
0.143664
0.134853
0.127648
0.122339
0.121687
0.128862
0.144149
0.161534
0.174404
0.179341
0.175633
0.164232
0.146635
0.124761
0.0998031
0.0772904
0.0594156
0.341829
0.369212
0.369237
0.360128
0.344726
0.325946
0.305484
0.284612
0.264214
0.244891
0.226973
0.210802
0.196381
0.183956
0.173527
0.165278
0.159529
0.159283
0.167583
0.184287
0.203323
0.217951
0.224424
0.221637
0.210023
0.190925
0.166294
0.13716
0.109362
0.085839
0.3845
0.405544
0.405261
0.396353
0.381447
0.363057
0.342686
0.321486
0.300389
0.280094
0.261068
0.243727
0.228218
0.214887
0.20396
0.195646
0.190411
0.190999
0.199696
0.216003
0.234324
0.248525
0.255081
0.252793
0.241663
0.222731
0.197553
0.167035
0.136538
0.109564
0.414996
0.426946
0.424738
0.415429
0.401307
0.3841
0.364904
0.344616
0.324098
0.304098
0.285149
0.267723
0.252122
0.238784
0.228149
0.22044
0.216245
0.217778
0.226431
0.241316
0.257688
0.270231
0.275944
0.273676
0.263199
0.245203
0.220822
0.190671
0.159345
0.130218
0.435963
0.437958
0.432392
0.42215
0.408768
0.393164
0.375831
0.357249
0.33819
0.319405
0.301391
0.284699
0.269769
0.257125
0.247398
0.240829
0.238028
0.240493
0.248819
0.261761
0.275484
0.285671
0.289927
0.287229
0.277294
0.260556
0.237718
0.209053
0.178285
0.147985
0.448994
0.441736
0.433357
0.422076
0.409232
0.394817
0.378978
0.361714
0.344397
0.327564
0.311142
0.295848
0.282201
0.270833
0.262517
0.257539
0.256352
0.259695
0.267488
0.278282
0.289048
0.296524
0.298943
0.295456
0.28585
0.270486
0.249582
0.222974
0.19351
0.162979
0.456071
0.441841
0.426795
0.412963
0.400252
0.387572
0.374278
0.360356
0.345474
0.330196
0.31538
0.302052
0.290175
0.28056
0.274066
0.271036
0.271543
0.275696
0.282813
0.291425
0.299218
0.303902
0.304291
0.299778
0.290363
0.275853
0.256547
0.232223
0.204778
0.175379
0.46028
0.437126
0.415786
0.399007
0.385894
0.37465
0.363784
0.352436
0.340341
0.327893
0.315798
0.304203
0.294366
0.286834
0.282485
0.28163
0.283813
0.288636
0.295012
0.301536
0.30653
0.308573
0.306896
0.301002
0.291077
0.277247
0.259618
0.237686
0.212721
0.185278
0.462026
0.430029
0.401977
0.382268
0.368592
0.358292
0.349339
0.340437
0.331106
0.321567
0.312021
0.302911
0.295407
0.29019
0.288179
0.289574
0.293339
0.29865
0.30424
0.308876
0.311405
0.31103
0.307185
0.300142
0.289921
0.276464
0.260013
0.240502
0.218627
0.193423
0.461487
0.421586
0.389308
0.366953
0.35195
0.341694
0.333856
0.32681
0.31974
0.312545
0.305529
0.299043
0.293969
0.291163
0.291548
0.295104
0.300289
0.305875
0.310671
0.31367
0.314164
0.311601
0.306111
0.29819
0.287758
0.274727
0.2594
0.24217
0.222701
0.199541
0.458646
0.415968
0.381083
0.355233
0.338272
0.327091
0.319336
0.31329
0.307838
0.302564
0.297623
0.293374
0.290768
0.290338
0.293025
0.298518
0.304839
0.310521
0.314549
0.316178
0.314947
0.310737
0.304123
0.295567
0.285091
0.272656
0.258593
0.242731
0.224972
0.203743
0.458756
0.415561
0.37908
0.350116
0.329597
0.316621
0.307795
0.301734
0.297025
0.292988
0.289654
0.287173
0.286624
0.288322
0.293057
0.300186
0.307265
0.312863
0.316187
0.316677
0.314175
0.308879
0.301512
0.292698
0.282493
0.270815
0.25747
0.242474
0.226036
0.206487
0.461205
0.418592
0.381965
0.351849
0.328992
0.312199
0.301054
0.294001
0.289006
0.285346
0.282948
0.281738
0.282541
0.285889
0.292307
0.300615
0.308029
0.313348
0.316037
0.315632
0.312261
0.306362
0.298746
0.290189
0.2803
0.268948
0.256166
0.24188
0.226388
0.208229
0.466804
0.425559
0.3894
0.358535
0.333803
0.314836
0.301403
0.29174
0.28538
0.281129
0.278846
0.278223
0.279789
0.283952
0.291526
0.300519
0.307905
0.312673
0.314701
0.313666
0.309865
0.303905
0.296676
0.288134
0.278336
0.267242
0.254887
0.241169
0.226368
0.209315
0.47596
0.436671
0.401527
0.370273
0.344106
0.323159
0.307235
0.295415
0.28716
0.281713
0.278725
0.277788
0.279491
0.283795
0.291679
0.300812
0.307768
0.311796
0.313137
0.311755
0.308036
0.302336
0.295081
0.28654
0.276787
0.265855
0.253791
0.240502
0.226243
0.210034
0.488714
0.451768
0.418008
0.387476
0.360747
0.338193
0.319965
0.30573
0.295177
0.287832
0.283461
0.281622
0.282751
0.286759
0.294062
0.302789
0.308895
0.312057
0.312791
0.311405
0.307465
0.301548
0.294203
0.285625
0.275833
0.264934
0.253014
0.240003
0.226123
0.210578
0.504637
0.470269
0.438955
0.409587
0.382883
0.359288
0.339191
0.322673
0.309734
0.300189
0.293992
0.290782
0.29086
0.294051
0.300667
0.308192
0.313193
0.315468
0.315866
0.313971
0.309348
0.302522
0.294507
0.285612
0.275617
0.264605
0.252667
0.239767
0.226093
0.211076
0.522805