/*--------------------------------*- C++ -*----------------------------------*\
  =========                 |
  \\      /  F ield         | OpenFOAM: The Open Source CFD Toolbox
   \\    /   O peration     | Website:  https://openfoam.org
    \\  /    A nd           | Version:  12
     \\/     M anipulation  |
\*---------------------------------------------------------------------------*/
FoamFile
{
    format      ascii;
    class       volScalarField;
    location    "1900/air";
    object      nut;
}
// * * * * * * * * * * * * * * * * * * * * * * * * * * * * * * * * * * * * * //

dimensions      [0 2 -1 0 0 0 0];

internalField   nonuniform List<scalar> 
243000
(
0.000114344
0.000120351
0.000122496
0.000122281
0.000120508
0.000117687
0.000114214
0.000110397
0.000106467
0.000102605
9.89209e-05
9.54923e-05
9.23623e-05
8.95834e-05
8.71513e-05
8.50266e-05
8.31303e-05
8.14111e-05
7.98237e-05
7.83171e-05
7.68268e-05
7.51877e-05
7.32174e-05
0.000323257
7.04694e-05
0.000312118
0.000284498
0.000229827
0.000168682
0.000202895
0.000425376
0.000446548
0.000446574
0.000436244
0.000421158
0.000404039
0.000386277
0.000368752
0.000352025
0.000336449
0.000322201
0.000309407
0.000298143
0.000288472
0.00028036
0.000273705
0.000268331
0.00026422
0.000261263
0.000259408
0.000258478
0.000258272
0.000258667
0.000258939
0.000253777
0.000249294
0.000238137
0.000217048
0.000192906
0.0001903
0.000524934
0.000580696
0.000607451
0.000617631
0.000618773
0.000614201
0.000605944
0.000595356
0.000583328
0.000570512
0.00055731
0.000544074
0.000531029
0.000518462
0.000506486
0.000495135
0.000484318
0.000474243
0.000464815
0.000455988
0.000447528
0.000439082
0.000429887
0.000418785
0.00040378
0.000383819
0.000356991
0.000319756
0.000280837
0.000249316
0.000522797
0.000576078
0.000609316
0.000626709
0.000633217
0.000632198
0.000626434
0.0006176
0.000606804
0.000594855
0.000582282
0.000569526
0.000556851
0.000544591
0.000532932
0.000521974
0.000511679
0.000502307
0.000493704
0.000485695
0.000477922
0.000469968
0.000461155
0.000450359
0.000436116
0.000416755
0.000391106
0.000356243
0.000318657
0.000280478
0.000517633
0.00055684
0.000591756
0.000615126
0.000628046
0.000632696
0.000631455
0.000626188
0.000618171
0.000608427
0.000597609
0.000586274
0.000574761
0.000563475
0.000552683
0.000542567
0.000533151
0.000524718
0.000517058
0.000509856
0.000502628
0.000494932
0.000486189
0.000475508
0.000461675
0.000443172
0.000418942
0.000386751
0.000351044
0.000311861
0.00052122
0.000536815
0.000563767
0.000589543
0.000608425
0.00061945
0.000623977
0.000623599
0.000619588
0.000613053
0.000604914
0.000595821
0.000586146
0.0005764
0.000566923
0.000558017
0.000549758
0.00054244
0.000535792
0.000529393
0.000522672
0.000515164
0.000506387
0.00049568
0.000482088
0.00046435
0.000441494
0.000411846
0.000378299
0.0003403
0.000541486
0.000537845
0.000548911
0.000566493
0.00058399
0.000597545
0.000607163
0.000611933
0.000612657
0.000610222
0.000605526
0.000599223
0.000591951
0.000584237
0.00057647
0.000569092
0.000562225
0.000556151
0.000550569
0.000544983
0.000538774
0.000531463
0.000522652
0.000511868
0.000498416
0.000481298
0.000459677
0.000432296
0.00040099
0.000364973
0.00056697
0.000553414
0.000548738
0.000554736
0.00056615
0.000578305
0.000588616
0.000595541
0.000599785
0.000601303
0.000600339
0.000597375
0.000592919
0.000587627
0.000581926
0.000576351
0.000571078
0.000566361
0.000561896
0.000557153
0.000551485
0.000544423
0.00053563
0.000524788
0.000511428
0.000494811
0.000474268
0.000448853
0.000419784
0.000385938
0.000593489
0.000576069
0.000561631
0.000555202
0.000557224
0.000564215
0.000572734
0.000580147
0.000585674
0.000588975
0.000590946
0.000591184
0.000589764
0.000587145
0.00058377
0.000580225
0.000576717
0.000573464
0.000570177
0.000566317
0.000561241
0.000554501
0.000545815
0.000534979
0.000521713
0.000505515
0.000485929
0.000462263
0.000435212
0.000403542
0.000620346
0.000602148
0.000582728
0.000567515
0.000559268
0.000558068
0.000561683
0.000567186
0.000572618
0.00057689
0.00057998
0.000582154
0.000583339
0.000583391
0.000582458
0.000581083
0.000579467
0.000577776
0.000575735
0.000572814
0.000568397
0.00056207
0.000553595
0.00054286
0.000529735
0.000513946
0.0004952
0.000472936
0.000447691
0.000418155
0.000647017
0.000628518
0.000607812
0.0005881
0.000572117
0.00056209
0.00055827
0.000559031
0.000562196
0.000565982
0.000569489
0.000572419
0.000574947
0.000577128
0.000578495
0.0005793
0.000579624
0.000579567
0.000578839
0.000576927
0.000573249
0.000567431
0.000559285
0.000548768
0.000535892
0.00052048
0.000502397
0.000481332
0.000457676
0.000430245
0.00067322
0.000654733
0.00063476
0.00061333
0.00059307
0.000576178
0.000564484
0.000558374
0.00055677
0.000557968
0.00056049
0.000563398
0.000566321
0.000569452
0.00057256
0.000575319
0.000577522
0.000579103
0.000579734
0.000578912
0.000576051
0.000570843
0.000563151
0.000552999
0.000540422
0.00052538
0.000507903
0.000487859
0.000465577
0.000440048
0.000698576
0.000680258
0.000660909
0.000639638
0.000618073
0.000597541
0.000579915
0.000566794
0.000558733
0.000555124
0.000554691
0.000556172
0.000558654
0.000561766
0.000565563
0.000569732
0.000573556
0.000576682
0.000578662
0.000578938
0.000576999
0.000572563
0.000565443
0.000555716
0.000543511
0.000528899
0.000512007
0.000492855
0.000471755
0.000447911
0.000722842
0.000704812
0.000685993
0.000665604
0.000644335
0.000622721
0.000601938
0.00058361
0.000569213
0.000559481
0.000554176
0.00055239
0.000553042
0.00055529
0.00055867
0.000563311
0.000568239
0.000572664
0.000575899
0.000577297
0.000576297
0.000572581
0.00056617
0.000557063
0.000545366
0.000531262
0.000514984
0.000496651
0.000476605
0.000454433
0.000745879
0.000728214
0.000710009
0.000690843
0.000670447
0.000649146
0.000627439
0.000606349
0.000587308
0.00057176
0.000560596
0.000553886
0.000551015
0.000551069
0.000553202
0.000557057
0.000562259
0.000567517
0.00057178
0.000574225
0.000574174
0.000571335
0.000565616
0.000557166
0.000546162
0.000532795
0.000517504
0.000500275
0.000481349
0.000460615
0.000767527
0.000750308
0.000732803
0.000714703
0.000695493
0.000675206
0.000653931
0.000632096
0.000610622
0.000590883
0.000574317
0.000561967
0.00055415
0.00055048
0.000550123
0.00055235
0.000556572
0.000561879
0.000566741
0.000570026
0.000570881
0.000568924
0.000564065
0.000556396
0.000546426
0.000534157
0.000519891
0.000503734
0.000485905
0.000466464
0.000787621
0.000770933
0.000754197
0.000737069
0.000719166
0.000700161
0.000679952
0.000658593
0.000636499
0.000614582
0.000594172
0.000576743
0.000563467
0.000554867
0.000550649
0.000550119
0.00055244
0.000556641
0.000561397
0.00056513
0.000566732
0.000565633
0.000561853
0.000555359
0.000546464
0.000535298
0.000522085
0.000506983
0.000490224
0.000471971
0.000805986
0.000789884
0.000773953
0.000757881
0.000741273
0.000723624
0.000704728
0.00068446
0.00066289
0.000640454
0.000618055
0.000597034
0.000578919
0.00056503
0.000555918
0.000551427
0.000550824
0.000553036
0.000556715
0.000560262
0.000562362
0.000562156
0.000559424
0.000554064
0.00054626
0.000536191
0.00052404
0.000509987
0.000494274
0.000477133
0.000822429
0.000806957
0.000791858
0.000777032
0.000761627
0.000745316
0.000727829
0.000708938
0.000688512
0.00066665
0.000643808
0.000620921
0.000599388
0.000580844
0.000566579
0.000557256
0.000552661
0.000551922
0.00055369
0.000556361
0.000558428
0.00055877
0.000556887
0.00055256
0.000545821
0.000536823
0.000525728
0.000512711
0.000498027
0.000481945
0.000836804
0.000822038
0.000807937
0.00079414
0.000779945
0.000764998
0.000748979
0.000731605
0.000712643
0.000691991
0.00066977
0.000646488
0.00062317
0.000601304
0.000582503
0.000568161
0.00055883
0.000554157
0.000553079
0.000554019
0.000555376
0.000555781
0.000554444
0.000550974
0.000545204
0.000537218
0.000527148
0.000515151
0.000501476
0.000486407
0.000849038
0.000835269
0.000822279
0.000809407
0.000796332
0.000782687
0.000768117
0.000752305
0.000734962
0.000715866
0.000694925
0.000672304
0.00064862
0.000624971
0.000602874
0.000584082
0.000569861
0.000560573
0.000555718
0.000554
0.000553815
0.000553643
0.000552419
0.00054951
0.000544541
0.000537459
0.000528353
0.000517339
0.000504641
0.000490544
0.000859361
0.000846561
0.000834416
0.000822538
0.000810615
0.000798293
0.000785209
0.000771051
0.00075549
0.000738224
0.000719009
0.000697768
0.000674765
0.000650689
0.000626707
0.000604537
0.000585876
0.000571787
0.000562477
0.000557188
0.000554546
0.000553003
0.000551298
0.000548528
0.000544079
0.000537725
0.000529476
0.000519375
0.000507603
0.000494426
0.000867102
0.000855317
0.00084419
0.000833456
0.000822803
0.000811935
0.000800532
0.000788462
0.000775179
0.000760229
0.00074321
0.000723889
0.000702232
0.000678681
0.000653884
0.000629348
0.000606894
0.00058825
0.000574182
0.0005646
0.000558582
0.000554762
0.000551767
0.000548483
0.000544131
0.000538271
0.000530716
0.000521421
0.0005105
0.000498181
0.000872821
0.000862176
0.000852164
0.000842598
0.000833536
0.000824751
0.000815713
0.000805972
0.000795054
0.000782505
0.000767855
0.000750775
0.000731003
0.000708758
0.000684214
0.000658524
0.00063311
0.00061053
0.000591835
0.000577542
0.000567334
0.000560246
0.000555028
0.000550463
0.000545564
0.000539692
0.000532488
0.000523776
0.000513561
0.000502005
0.000876892
0.00086755
0.000858809
0.000850558
0.000843312
0.000836557
0.000829756
0.000822374
0.000813915
0.00080393
0.000791901
0.000777428
0.000760064
0.000739866
0.000716574
0.000691143
0.000665066
0.000639929
0.000617279
0.000598247
0.000583217
0.000571832
0.000563203
0.000556219
0.000549824
0.000543183
0.000535759
0.000527206
0.000517387
0.000506379
0.000879855
0.000872134
0.000865008
0.000858447
0.000852512
0.000847324
0.000842455
0.000837293
0.000831364
0.000824445
0.000815901
0.000805145
0.000791615
0.000775038
0.000755146
0.000732146
0.000706833
0.00068051
0.000654898
0.000631466
0.000611212
0.000594474
0.000580955
0.000569916
0.000560448
0.000551677
0.000542904
0.000533594
0.00052348
0.000512501
0.000884145
0.00087904
0.000874555
0.000870713
0.000867568
0.000865186
0.000863421
0.00086187
0.000860046
0.000857446
0.000853432
0.000847307
0.000838397
0.000826196
0.000810461
0.000790824
0.000767374
0.000741238
0.000713897
0.000686892
0.000661543
0.000638752
0.000618861
0.000601729
0.000586886
0.000573668
0.000561405
0.000549504
0.000537524
0.000525315
0.000900974
0.000900559
0.000900714
0.00090158
0.000903348
0.00090612
0.000909806
0.000914
0.000918163
0.000921585
0.000923533
0.000923155
0.000919758
0.000912733
0.000901759
0.000886217
0.000865583
0.000840996
0.000813608
0.000784805
0.000755834
0.000727756
0.000701292
0.000676872
0.000654618
0.000634293
0.000615527
0.000597919
0.000581065
0.000565226
0.000982334
0.000988518
0.000994305
0.00100114
0.00100978
0.00102022
0.00103174
0.00104335
0.00105435
0.00106424
0.00107217
0.00107726
0.00107888
0.00107681
0.00107065
0.0010597
0.0010429
0.00102192
0.000997843
0.000971661
0.000944188
0.000916214
0.000888435
0.000861415
0.000835601
0.000810509
0.000786169
0.000762667
0.000740054
0.000719806
0.00130899
0.00130921
0.00131053
0.00131708
0.00132722
0.00133864
0.00134813
0.00135574
0.00136231
0.00136834
0.0013728
0.00137467
0.00137486
0.00137382
0.00137056
0.00136484
0.00135456
0.00134366
0.00133242
0.00132149
0.0013108
0.00130073
0.00129134
0.00128281
0.00127524
0.00126502
0.00125333
0.00124125
0.00122948
0.00121974
0.000156254
0.000160478
0.000159347
0.000155865
0.000150925
0.000145116
0.000138877
0.000132556
0.000126409
0.000120643
0.000115363
0.000110651
0.000106548
0.000103112
0.000100316
9.81358e-05
9.64906e-05
9.53855e-05
9.48973e-05
9.51022e-05
9.58149e-05
9.65255e-05
9.65991e-05
9.53956e-05
9.23183e-05
8.69731e-05
7.92367e-05
0.000334591
0.000317559
0.000314418
0.000675602
0.000758916
0.000740669
0.000685144
0.000619514
0.000555868
0.000499107
0.000450307
0.000409111
0.000374621
0.000345451
0.000320945
0.000300647
0.000284223
0.000270649
0.000259386
0.000249464
0.000241211
0.000234348
0.00022946
0.000227323
0.000228698
0.000232787
0.000236803
0.000237373
0.000231756
0.000221792
0.000219813
0.000251433
0.000301924
0.00105938
0.00120921
0.00122086
0.00116823
0.00108833
0.00100001
0.000914363
0.000836619
0.000768442
0.000709928
0.000659906
0.000617703
0.000582168
0.000553149
0.000529215
0.000508969
0.000490201
0.000472895
0.000454939
0.000436442
0.000420145
0.000410051
0.000407014
0.000406872
0.000404216
0.000393247
0.000373548
0.000347363
0.000339583
0.000357951
0.00131729
0.00149275
0.00152899
0.00149396
0.00142143
0.00133167
0.001239
0.00115098
0.00107065
0.000999759
0.000938257
0.000885926
0.000841828
0.000806062
0.00077734
0.000753365
0.000731049
0.00070956
0.000684091
0.000653695
0.000622367
0.00059729
0.000581841
0.000572851
0.000563074
0.000545317
0.000517368
0.000477652
0.000446792
0.000440288
0.00147418
0.00165388
0.00170833
0.00169235
0.0016328
0.00155158
0.00146547
0.00138068
0.00129887
0.00122495
0.00116027
0.00110458
0.00105775
0.00102038
0.000991291
0.00096797
0.000946715
0.000925324
0.000896664
0.000858836
0.000815646
0.000776759
0.000748259
0.00072837
0.000710279
0.000685755
0.000651346
0.000603211
0.000557718
0.000533689
0.0015621
0.00172131
0.00178913
0.00179035
0.00175336
0.00169404
0.00161611
0.00153548
0.00145672
0.00138745
0.00132723
0.00127362
0.00122904
0.00119422
0.00116839
0.00114896
0.00113213
0.00111383
0.00108477
0.00104239
0.000991458
0.000942148
0.000902405
0.000872612
0.000845511
0.000814605
0.000774743
0.000721418
0.000667285
0.00063085
0.00161406
0.0017311
0.00178668
0.00179628
0.00177839
0.0017416
0.00168547
0.00162262
0.00156159
0.00150063
0.00144489
0.00139632
0.00135877
0.00133013
0.00131051
0.00129766
0.00128787
0.00127452
0.00124754
0.0012034
0.00114828
0.0010919
0.00104283
0.00100398
0.000969844
0.000932296
0.000887879
0.000831392
0.000771937
0.000726133
0.00165619
0.00171312
0.00173807
0.00174208
0.00173328
0.00171433
0.00168385
0.00164659
0.00160405
0.00156006
0.00151778
0.00148191
0.00145163
0.00143129
0.00142033
0.00141653
0.00141546
0.00140845
0.00138554
0.00134294
0.00128631
0.00122528
0.00116918
0.00112236
0.00108162
0.00103995
0.000991305
0.000933068
0.000870744
0.000818031
0.00168737
0.00169475
0.0016908
0.00168047
0.001669
0.00165619
0.00163926
0.00161869
0.00159493
0.00157357
0.00154899
0.00152748
0.00151037
0.0015011
0.00150072
0.00150801
0.00151668
0.00151744
0.00150007
0.00146102
0.00140524
0.00134246
0.0012817
0.00122856
0.00118174
0.00113626
0.0010865
0.00102746
0.000964023
0.000905264
0.00173339
0.00170803
0.00166379
0.00163133
0.0016066
0.00159001
0.00157749
0.00156674
0.00155636
0.00154852
0.00154223
0.00153904
0.00153797
0.0015427
0.00155454
0.00157401
0.00159349
0.00160336
0.00159285
0.00155885
0.00150615
0.00144399
0.00138085
0.00132336
0.00127142
0.00122324
0.00117208
0.00111293
0.001049
0.00098669
0.00179205
0.0017397
0.00167374
0.00160913
0.00156229
0.00153419
0.00151656
0.00150748
0.00150354
0.00150457
0.00150981
0.00152046
0.00153786
0.00155879
0.00158415
0.0016169
0.00164777
0.00166741
0.0016654
0.00163784
0.00159025
0.00153055
0.0014672
0.00140769
0.00135273
0.00130081
0.00124726
0.00118919
0.00112574
0.00106255
0.00187069
0.00179462
0.00170654
0.0016225
0.0015541
0.00150374
0.00147267
0.0014574
0.00145177
0.00145524
0.00146625
0.0014855
0.0015144
0.00155231
0.00159273
0.00163919
0.0016819
0.00171173
0.00171941
0.00170144
0.00165946
0.00160275
0.00154084
0.0014806
0.0014234
0.00136846
0.00131332
0.0012559
0.00119453
0.00113257
0.00196602
0.00187042
0.00176613
0.00166581
0.00157869
0.00151108
0.00146343
0.0014324
0.00141596
0.00141498
0.00142479
0.00144634
0.00148076
0.00152853
0.00158408
0.00164391
0.00169837
0.00173855
0.00175613
0.00174769
0.00171394
0.00166168
0.00160132
0.00154019
0.00148171
0.00142677
0.00137134
0.00131488
0.00125707
0.001198
0.00207262
0.00197292
0.00186082
0.00174792
0.00164477
0.00155813
0.0014913
0.00144316
0.00141271
0.00139797
0.00139922
0.00141552
0.00144913
0.00149869
0.0015633
0.00163492
0.00170023
0.00175038
0.00177815
0.00177952
0.00175473
0.00170891
0.00165223
0.00159274
0.00153382
0.00147781
0.00142445
0.00137051
0.00131574
0.0012587
0.00219491
0.00209664
0.00198381
0.00186571
0.00175228
0.00165053
0.00156561
0.00149823
0.00144817
0.00141612
0.00140251
0.00140714
0.00143161
0.00147592
0.00153857
0.00161749
0.00169124
0.00175023
0.00178755
0.0017987
0.00178335
0.00174548
0.00169401
0.00163839
0.00158154
0.00152585
0.00147222
0.00141895
0.0013659
0.00131147
0.0023292
0.00223758
0.00213088
0.00201417
0.00189651
0.00178517
0.00168619
0.00160054
0.00153037
0.00147794
0.00144468
0.00143164
0.00144036
0.00147137
0.0015246
0.00159796
0.00167616
0.00174175
0.00178696
0.00180741
0.00180177
0.00177316
0.00172882
0.00167852
0.00162395
0.00156838
0.00151348
0.00146054
0.00140841
0.00135625
0.00246822
0.00238979
0.00229472
0.00218525
0.00206942
0.0019541
0.00184608
0.00174649
0.00165897
0.00158671
0.00153201
0.00149729
0.00148449
0.00149564
0.00153119
0.00159023
0.00166116
0.00172935
0.00177988
0.00180845
0.00181288
0.00179484
0.0017573
0.00171082
0.00165976
0.00160556
0.00155044
0.00149662
0.00144448
0.00139379
0.00260764
0.00254459
0.00246441
0.00236674
0.00225848
0.00214596
0.00203469
0.00192748
0.00182775
0.00173905
0.00166431
0.00160676
0.00156928
0.00155486
0.00156645
0.00160293
0.0016581
0.00171835
0.0017707
0.00180526
0.00181756
0.00180762
0.00177737
0.00173592
0.00168923
0.00163761
0.00158313
0.00152819
0.00147549
0.00142557
0.0027406
0.00269312
0.00262888
0.00254681
0.00245164
0.00234802
0.00224048
0.00213203
0.0020259
0.00192558
0.00183421
0.00175532
0.00169249
0.00164962
0.00163269
0.00164047
0.00167056
0.00171609
0.00176168
0.00179687
0.00181392
0.00181166
0.00178963
0.00175429
0.00171304
0.00166456
0.00161133
0.00155591
0.00150275
0.00145305
0.00286133
0.00282852
0.00278165
0.00271787
0.00263955
0.00254945
0.00245086
0.00234645
0.00223897
0.0021316
0.00202736
0.00192979
0.00184302
0.00177277
0.00172372
0.00169976
0.00169886
0.00172068
0.00175346
0.00178439
0.00180366
0.00180663
0.00179359
0.00176604
0.00172979
0.00168463
0.00163317
0.00157968
0.00152715
0.00147795
0.00296632
0.0029476
0.00291775
0.00287275
0.00281279
0.00273859
0.00265183
0.00255447
0.00244857
0.0023368
0.00222201
0.00210788
0.00199923
0.00190326
0.00182329
0.00176647
0.00173357
0.0017268
0.00173992
0.00176135
0.00177993
0.00178887
0.00178496
0.00176632
0.00173577
0.00169672
0.00165105
0.00160145
0.00155098
0.00150288
0.00305428
0.00304686
0.00303149
0.00300336
0.00296051
0.00290149
0.00282615
0.00273523
0.00263015
0.00251323
0.00238756
0.00225756
0.00212908
0.00201005
0.00190426
0.00181764
0.00175512
0.00171934
0.00170927
0.00171693
0.0017321
0.00174642
0.00175323
0.00174736
0.00172886
0.00169973
0.00166143
0.0016183
0.00157205
0.00152694
0.00312028
0.00311955
0.00311395
0.00309791
0.00306715
0.00301821
0.0029492
0.00285903
0.0027495
0.00262333
0.00248475
0.00233979
0.00219567
0.00205938
0.00193802
0.00183156
0.00174387
0.00168244
0.00164808
0.0016378
0.00164513
0.00166218
0.00168019
0.00169063
0.00168952
0.00167685
0.00165337
0.00162101
0.00158359
0.00154528
0.00315028
0.0031502
0.00314729
0.00313522
0.00310669
0.0030572
0.00298504
0.00288928
0.00277129
0.00263501
0.00248674
0.00233466
0.00218625
0.00204635
0.00192221
0.00180926
0.00170778
0.00162576
0.00156671
0.00153228
0.0015214
0.00153025
0.00155167
0.00157575
0.00159442
0.00160403
0.00160288
0.00159105
0.00157023
0.00154473
0.00311377
0.00310616
0.00309671
0.00307856
0.00304239
0.00298547
0.00290619
0.00280496
0.00268503
0.00255222
0.00241324
0.00227592
0.00214514
0.00202285
0.00191421
0.00181132
0.00170841
0.00161285
0.00153039
0.00146571
0.0014222
0.00140148
0.00140208
0.00141772
0.00144114
0.00146589
0.00148666
0.00149998
0.00150437
0.00150141
0.00295522
0.00293339
0.00291103
0.00288351
0.00284545
0.00279265
0.00272438
0.00264261
0.00255115
0.00245425
0.00235656
0.00226159
0.00217031
0.00208087
0.00199827
0.00191662
0.00182493
0.00172886
0.00163303
0.00154298
0.00146349
0.0013991
0.00135315
0.0013263
0.00131694
0.00132165
0.00133581
0.00135455
0.00137349
0.00139169
0.00263464
0.00261647
0.00260691
0.00260329
0.00259922
0.00258916
0.00256988
0.00254121
0.00250511
0.0024626
0.00241561
0.00236576
0.00231331
0.00225769
0.00219933
0.00213954
0.00206508
0.00198025
0.00188791
0.0017925
0.00169718
0.00160578
0.00152199
0.00144917
0.00138958
0.00134409
0.00131236
0.00129288
0.00128351
0.00128852
0.00235034
0.00239192
0.0024465
0.00250402
0.00255267
0.00258858
0.00261068
0.00261961
0.00261835
0.00260392
0.00258074
0.00255143
0.00251635
0.00247712
0.00243405
0.00238875
0.00233316
0.00226959
0.00219886
0.00212348
0.002044
0.00196275
0.00188133
0.00180136
0.00172479
0.00165317
0.00158806
0.00153
0.00147971
0.0014531
0.00242473
0.00248703
0.002553
0.00261611
0.00266739
0.00270331
0.00272734
0.00273671
0.00273456
0.00272236
0.0027031
0.0026786
0.002647
0.00261362
0.00257879
0.00254023
0.0025001
0.00245713
0.00241204
0.00236731
0.00232257
0.00227973
0.00223863
0.00219863
0.00215892
0.00211834
0.00207728
0.00203621
0.00199663
0.00197522
0.00261605
0.00265461
0.00269182
0.00272664
0.00274969
0.00276097
0.00276429
0.00275973
0.00274909
0.00273408
0.00271549
0.00269361
0.00266666
0.00264037
0.00261182
0.00258406
0.00256001
0.00253676
0.00251567
0.00249905
0.00248864
0.00248489
0.00248701
0.00249333
0.0025017
0.00250875
0.00251505
0.00251946
0.00252203
0.00251684
0.000189248
0.000191223
0.000186432
0.00018019
0.000173071
0.000165324
0.000157294
0.000149323
0.000141677
0.000134576
0.000128125
0.000122437
0.00011755
0.000113544
0.000110394
0.000108134
0.000106719
0.000106368
0.000107593
0.000110669
0.000114763
0.00011843
0.000120565
0.00012051
0.000117922
0.000112417
0.000103949
9.18223e-05
7.93958e-05
7.13035e-05
0.000887179
0.00099079
0.000981442
0.000921353
0.000839684
0.00075768
0.00068382
0.000620058
0.00056618
0.000521
0.000482722
0.000451166
0.000424619
0.000402722
0.00038387
0.000367497
0.000351071
0.0003369
0.000325979
0.000321403
0.000325139
0.000335945
0.000349619
0.000359948
0.000360673
0.000348229
0.000324943
0.000292956
0.00026567
0.000242681
0.00141298
0.00161839
0.00164991
0.00159307
0.00149569
0.00138406
0.00127361
0.00117211
0.0010827
0.0010058
0.00093974
0.000884811
0.000838895
0.000801786
0.000770805
0.000743357
0.000714201
0.000685323
0.000654444
0.000626812
0.000611395
0.000611419
0.000621898
0.000632254
0.000628717
0.000607974
0.000568003
0.000510377
0.000454783
0.000416225
0.00178845
0.00203038
0.0020923
0.00205635
0.00196835
0.00185523
0.00173455
0.00161772
0.00151104
0.00141674
0.00133456
0.00126555
0.00120811
0.00116245
0.00112594
0.00109471
0.00106145
0.00102545
0.000980181
0.000931876
0.000893573
0.000875255
0.000874163
0.000878196
0.000870248
0.00084104
0.000789378
0.000714907
0.000637453
0.000579869
0.00205816
0.00230037
0.00237931
0.0023628
0.00229098
0.00218836
0.00207083
0.00195263
0.00184201
0.00174138
0.00165241
0.00157719
0.00151502
0.00146627
0.00142922
0.00139897
0.00136673
0.00132762
0.00127107
0.00120795
0.00115128
0.00111381
0.00109822
0.00109306
0.0010802
0.00104524
0.000986937
0.000902651
0.00081137
0.000736239
0.0022567
0.00247177
0.00255978
0.00256244
0.00250751
0.00241462
0.00230155
0.00219163
0.00208793
0.00198904
0.00190065
0.00182584
0.00176445
0.00171743
0.00168381
0.00165792
0.00162963
0.00158937
0.00152512
0.00144843
0.00137754
0.00132442
0.00129468
0.00127913
0.00126071
0.00122443
0.00116231
0.00107399
0.000974686
0.000886526
0.00239996
0.00257728
0.00265885
0.0026693
0.00262973
0.00255927
0.00247231
0.00237046
0.00226834
0.00216916
0.00208775
0.00201933
0.00196317
0.00192216
0.00189519
0.00187637
0.00185405
0.00181363
0.00174388
0.00165653
0.00157459
0.00150875
0.00146637
0.00143998
0.0014152
0.00137793
0.00131828
0.00123008
0.00112802
0.0010292
0.00250103
0.00263689
0.00269664
0.00270438
0.002676
0.0026218
0.00255127
0.00246918
0.00238428
0.00230523
0.00222961
0.00216569
0.00211745
0.00208564
0.00206815
0.00205898
0.00204344
0.00200203
0.0019285
0.00183545
0.0017464
0.00167037
0.00161654
0.00157959
0.0015478
0.00150993
0.00145517
0.00137174
0.00126996
0.0011632
0.00259126
0.00266668
0.00268933
0.00268503
0.00266284
0.00262338
0.00257112
0.00251072
0.00244671
0.0023828
0.00232286
0.00227147
0.00223375
0.00221305
0.00220725
0.00220964
0.00220111
0.00216122
0.00208555
0.00199083
0.00189561
0.00181233
0.00174862
0.00170178
0.00166397
0.00162421
0.00157027
0.00149408
0.00139535
0.00128702
0.00266957
0.00267884
0.00267094
0.00265323
0.00262884
0.00259665
0.00255719
0.00251268
0.00246555
0.00241923
0.00237759
0.00234216
0.00231788
0.0023099
0.00231659
0.00233127
0.00233038
0.0022936
0.00221957
0.00212422
0.00202575
0.00193735
0.00186551
0.00181095
0.00176485
0.0017198
0.00166619
0.00159604
0.00150595
0.0014028
0.00274411
0.00271609
0.0026718
0.00262913
0.00259451
0.00256118
0.00252706
0.00249326
0.00245988
0.00242835
0.0024014
0.00238358
0.00237493
0.0023813
0.0024006
0.00242706
0.00243381
0.00240229
0.00233178
0.00223841
0.0021397
0.00204814
0.00197006
0.00190448
0.00184918
0.00179933
0.00174712
0.00168187
0.00160172
0.00150772
0.00282217
0.00277537
0.00271149
0.00264116
0.00257781
0.00253546
0.00249776
0.00246815
0.00244338
0.00242277
0.00240836
0.00240296
0.00241063
0.00243189
0.00246318
0.00250078
0.00251578
0.00249015
0.00242576
0.00233716
0.00223942
0.00214376
0.00206016
0.00198832
0.00192647
0.00187081
0.00181758
0.00175775
0.0016884
0.00160376
0.00290132
0.00283843
0.00275812
0.00267257
0.00259997
0.00253489
0.00248407
0.00245315
0.00243082
0.00241498
0.00240907
0.00241355
0.00243199
0.00246581
0.00250904
0.00255632
0.00257865
0.00256055
0.00250391
0.00242288
0.00232756
0.00223185
0.00214545
0.00206797
0.00200077
0.00194045
0.00188442
0.0018286
0.00176557
0.00168957
0.00299891
0.00292483
0.00283145
0.0027298
0.00263971
0.00256292
0.00250805
0.00246314
0.00243717
0.00241694
0.00241491
0.00242487
0.00245007
0.00248953
0.00254288
0.00259765
0.00262652
0.00261628
0.00256938
0.0024968
0.00240595
0.00231189
0.00222462
0.00214483
0.00207375
0.00200977
0.00194984
0.00189278
0.00183288
0.00176358
0.00311185
0.0030317
0.00292821
0.00282152
0.00272035
0.00263053
0.0025592
0.00250317
0.00246358
0.00244367
0.00243714
0.00244648
0.00247195
0.00251196
0.00256905
0.00262825
0.00266228
0.00265972
0.00262328
0.00256018
0.00247572
0.00238514
0.00229875
0.00221919
0.00214515
0.00207739
0.00201383
0.00195276
0.00189335
0.00182834
0.00323791
0.00315721
0.00306017
0.00295129
0.00284222
0.0027409
0.00265423
0.00258375
0.00253106
0.00249806
0.00248247
0.00248451
0.00250366
0.0025391
0.00259104
0.0026502
0.00268714
0.0026917
0.00266559
0.00261313
0.00253704
0.0024519
0.00236793
0.00228868
0.00221372
0.00214337
0.00207663
0.00201167
0.00194994
0.00188668
0.00337583
0.00330618
0.00321601
0.00311056
0.00299946
0.0028908
0.00279171
0.00270627
0.00263746
0.00258755
0.0025564
0.00254402
0.00254989
0.002573
0.00261285
0.00266278
0.00269927
0.00270972
0.00269389
0.00265332
0.00258729
0.00250894
0.00242932
0.00235265
0.00227866
0.00220699
0.00213776
0.00206906
0.00200407
0.00194066
0.00352646
0.00346564
0.00338661
0.00328945
0.00318189
0.00307101
0.00296379
0.0028654
0.00277994
0.00271053
0.00265855
0.00262469
0.00260904
0.00261159
0.00263098
0.00266387
0.0026924
0.00270608
0.00270011
0.00267278
0.00261965
0.00255192
0.00248026
0.00240906
0.00233727
0.00226577
0.00219487
0.00212337
0.00205554
0.0019912
0.00367705
0.00362769
0.0035615
0.00347593
0.00337624
0.00326791
0.00315697
0.00304871
0.00294771
0.00285762
0.00278092
0.00271929
0.00267409
0.00264676
0.00263785
0.00264491
0.00265906
0.00267013
0.00267169
0.00265837
0.00262406
0.00257229
0.00251249
0.00244801
0.00238164
0.0023127
0.00224194
0.00217042
0.00210236
0.00203791
0.00381812
0.00378145
0.00372901
0.00365662
0.00356732
0.00346468
0.00335328
0.00323768
0.00312226
0.00301083
0.00290655
0.00281225
0.00273104
0.0026663
0.00262191
0.00259596
0.00258613
0.00258778
0.00259318
0.00259384
0.00258078
0.00255198
0.00251157
0.00246071
0.00240399
0.00234219
0.00227738
0.00221001
0.00214358
0.00208039
0.00394339
0.00391759
0.00387733
0.0038173
0.00373837
0.00364198
0.00353089
0.00340842
0.00327826
0.00314424
0.00301028
0.00288069
0.0027609
0.00265626
0.00257384
0.00251181
0.00247176
0.00245479
0.00245516
0.0024641
0.00247082
0.0024683
0.00245487
0.00242969
0.00239452
0.00234878
0.00229654
0.00223968
0.00218109
0.00212116
0.00404318
0.00402439
0.00399233
0.00394108
0.00386938
0.00377652
0.00366327
0.0035316
0.00338476
0.00322709
0.00306379
0.00290163
0.0027486
0.00261134
0.00249802
0.00240663
0.0023379
0.00229601
0.00227863
0.0022807
0.00229389
0.00230994
0.00232286
0.00232782
0.00232252
0.00230494
0.00227537
0.00223522
0.00218953
0.00214134
0.00410269
0.00408434
0.00405379
0.0040047
0.00393392
0.00383876
0.00371851
0.0035745
0.00341077
0.00323338
0.00304926
0.00286846
0.00270045
0.00255125
0.00242625
0.0023248
0.00223966
0.00217478
0.00213015
0.00210608
0.00210057
0.00211004
0.00212962
0.00215296
0.00217405
0.0021874
0.00218934
0.00217801
0.00215441
0.00212617
0.00409393
0.00406787
0.00403002
0.00397479
0.00389784
0.00379524
0.0036665
0.0035137
0.00334253
0.00316181
0.00298171
0.00281159
0.00265985
0.00252876
0.00241791
0.00232871
0.00224417
0.00216643
0.00209595
0.0020363
0.00199124
0.0019636
0.00195464
0.00196248
0.00198248
0.00200816
0.00203263
0.00205008
0.0020569
0.00205277
0.00397218
0.00393103
0.00387874
0.00381243
0.0037292
0.00362653
0.00350433
0.00336586
0.00321789
0.00306924
0.00292871
0.00280165
0.00269247
0.00260031
0.00252189
0.00245457
0.00238085
0.0023013
0.00221596
0.00212881
0.00204538
0.00197108
0.00191152
0.00187096
0.00185065
0.00184874
0.00186058
0.00187999
0.00190059
0.00191812
0.00368824
0.00363491
0.00358087
0.00352496
0.00346535
0.00339711
0.00331856
0.00323147
0.00314046
0.00305121
0.00296877
0.00289458
0.00283087
0.00277594
0.00272605
0.00267592
0.00261257
0.00253781
0.00245114
0.00235538
0.0022546
0.00215255
0.00205388
0.00196505
0.00189113
0.00183524
0.00179819
0.00177805
0.00177146
0.00178032
0.0032966
0.00326858
0.00325905
0.00326313
0.00327011
0.00326761
0.00325325
0.00322761
0.00319376
0.00315564
0.00311685