/*--------------------------------*- C++ -*----------------------------------*\
  =========                 |
  \\      /  F ield         | OpenFOAM: The Open Source CFD Toolbox
   \\    /   O peration     | Website:  https://openfoam.org
    \\  /    A nd           | Version:  12
     \\/     M anipulation  |
\*---------------------------------------------------------------------------*/
FoamFile
{
    format      ascii;
    class       volScalarField;
    location    "1900/air";
    object      p_rgh;
}
// * * * * * * * * * * * * * * * * * * * * * * * * * * * * * * * * * * * * * //

dimensions      [1 -1 -2 0 0 0 0];

internalField   nonuniform List<scalar> 
243000
(
30.3292
30.2019
30.07
29.8966
29.7241
29.5714
29.4398
29.3318
29.2458
29.1813
29.1348
29.1081
29.0963
29.101
29.1152
29.1489
29.1987
29.2704
29.3566
29.4593
29.5713
29.6841
29.7885
29.8776
29.9563
30.0184
30.0702
30.0962
30.1267
30.1249
30.3255
30.1736
30.0521
29.887
29.7246
29.5752
29.4458
29.3392
29.2537
29.1892
29.1435
29.1182
29.1072
29.112
29.1257
29.1586
29.2072
29.2773
29.3636
29.4665
29.5785
29.6912
29.7954
29.8865
29.9666
30.0257
30.0754
30.0985
30.1289
30.1134
30.3074
30.1245
30.0059
29.8413
29.6835
29.5397
29.4161
29.3149
29.2347
29.1751
29.1331
29.1107
29.1016
29.1076
29.1216
29.1542
29.2018
29.2708
29.3568
29.4597
29.5717
29.6849
29.7887
29.8807
29.9603
30.0196
30.072
30.0933
30.1305
30.1082
30.2754
30.0711
29.9393
29.7749
29.6223
29.4874
29.3731
29.2799
29.2061
29.1513
29.1128
29.093
29.0854
29.0924
29.1062
29.1382
29.1846
29.2517
29.3349
29.435
29.5447
29.6573
29.7648
29.8609
29.9448
30.0079
30.065
30.0837
30.1287
30.1032
30.2338
30.0211
29.8765
29.7125
29.5633
29.4361
29.3292
29.2425
29.1736
29.1225
29.0866
29.0686
29.0618
29.0691
29.0824
29.1133
29.1581
29.2231
29.3033
29.4004
29.5079
29.6198
29.7286
29.8273
29.9152
29.9827
30.0456
30.066
30.1204
30.0937
30.1838
29.9707
29.8201
29.6598
29.5136
29.3908
29.2899
29.208
29.1427
29.0937
29.0593
29.0421
29.0353
29.0422
29.0543
29.0836
29.1262
29.1887
29.2655
29.3593
29.4642
29.5752
29.6853
29.7865
29.8785
29.9506
30.0198
30.0436
30.1067
30.0796
30.1251
29.915
29.7685
29.6152
29.4753
29.3552
29.2568
29.1782
29.1145
29.0664
29.0319
29.0141
29.0061
29.0117
29.022
29.049
29.0889
29.1482
29.221
29.3111
29.4134
29.5236
29.6349
29.7389
29.8351
29.9122
29.9877
30.0162
30.0872
30.061
30.0581
29.8512
29.7178
29.5756
29.4433
29.3282
29.2313
29.1539
29.0907
29.0419
29.0061
28.9862
28.9754
28.9786
28.9862
29.0103
29.0468
29.1022
29.1706
29.2568
29.3564
29.4659
29.5784
29.6852
29.7858
29.8679
29.9497
29.9839
30.062
30.0378
29.984
29.7787
29.6581
29.5365
29.4142
29.3059
29.2113
29.1337
29.0708
29.021
28.9828
28.9596
28.9445
28.9439
28.9479
28.9683
29.0008
29.0516
29.1151
29.1972
29.2941
29.4029
29.5167
29.6264
29.7313
29.8185
29.9066
29.9472
30.0317
30.0104
29.9033
29.6961
29.5904
29.4861
29.3805
29.2819
29.1934
29.1169
29.0532
29.0024
28.9618
28.9348
28.9145
28.9086
28.9079
28.9239
28.9514
28.997
29.0554
29.1332
29.2275
29.3357
29.4509
29.5636
29.6728
29.7651
29.8592
29.9066
29.997
29.9794
29.8171
29.6072
29.5175
29.4286
29.3364
29.2493
29.1703
29.0988
29.0364
28.985
28.942
28.9113
28.8857
28.8735
28.8668
28.8778
28.8997
28.9394
28.9924
29.0658
29.1574
29.2651
29.3817
29.4975
29.6111
29.7085
29.8083
29.8628
29.9583
29.9456
29.7253
29.5169
29.4408
29.3671
29.2869
29.2112
29.1411
29.0765
29.0178
28.9673
28.9226
28.8883
28.8576
28.8389
28.8254
28.8306
28.8462
28.8796
28.9268
28.9958
29.0847
29.192
29.3102
29.4291
29.547
29.6495
29.7545
29.8165
29.9166
29.91
29.6282
29.427
29.3612
29.3021
29.2339
29.1686
29.1069
29.049
28.9954
28.9472
28.9023
28.8651
28.8294
28.8046
28.784
28.7827
28.7917
28.8183
28.8593
28.9238
29.0101
29.117
29.2368
29.3589
29.481
29.5886
29.6986
29.7684
29.8726
29.8728
29.526
29.3362
29.2799
29.2332
29.1769
29.122
29.0686
29.0165
28.9677
28.9229
28.8789
28.8403
28.8003
28.7693
28.7424
28.7344
28.7365
28.756
28.7907
28.8505
28.9341
29.0407
29.1621
29.2876
29.4137
29.5265
29.6413
29.7186
29.8256
29.8347
29.42
29.2435
29.1972
29.1608
29.1151
29.07
29.025
28.9796
28.9349
28.8931
28.851
28.8121
28.7692
28.7326
28.6997
28.6854
28.6809
28.693
28.7213
28.7762
28.8573
28.9634
29.0866
29.2153
29.3456
29.4635
29.5827
29.6674
29.7764
29.7959
29.3098
29.1488
29.1121
29.0856
29.0489
29.0125
28.9752
28.9366
28.8968
28.8576
28.8173
28.7788
28.7341
28.6935
28.6548
28.6349
28.6247
28.6296
28.6512
28.7012
28.7796
28.8854
29.0102
29.1423
29.2767
29.3996
29.5229
29.615
29.7257
29.7564
29.1952
29.0521
29.0233
29.0069
28.9786
28.9497
28.9196
28.8868
28.852
28.8161
28.7773
28.7394
28.6937
28.6503
28.607
28.5818
28.5666
28.5655
28.5805
28.6256
28.7013
28.8067
28.9331
29.0684
29.2069
29.3348
29.462
29.5612
29.6735
29.716
29.0763
28.9531
28.9307
28.9232
28.9037
28.8811
28.8575
28.8307
28.8003
28.7677
28.7304
28.693
28.6466
28.6013
28.5546
28.525
28.5054
28.4995
28.5085
28.549
28.6219
28.7267
28.8544
28.9931
29.1356
29.2689
29.3993
29.5056
29.6196
29.674
28.9528
28.8509
28.8342
28.8336
28.8221
28.806
28.7879
28.7668
28.7409
28.7117
28.6761
28.639
28.5917
28.5448
28.4958
28.463
28.44
28.4301
28.4341
28.4702
28.5403
28.644
28.7735
28.916
29.0627
29.201
29.3354
29.4478
29.5641
29.63
28.824
28.7441
28.7335
28.7375
28.7326
28.7227
28.7095
28.6933
28.6719
28.6462
28.6129
28.5764
28.5284
28.4797
28.4285
28.3939
28.3687
28.3557
28.3556
28.3879
28.4551
28.5584
28.69
28.8364
28.987
29.1305
29.2692
29.3878
29.5068
29.5832
28.6883
28.6306
28.6266
28.6345
28.6351
28.6307
28.6224
28.6104
28.5932
28.5707
28.5396
28.5036
28.4554
28.4052
28.352
28.3158
28.2894
28.2745
28.2716
28.3006
28.3655
28.469
28.603
28.7528
28.9075
29.0564
29.1998
29.3248
29.4474
29.5329
28.5444
28.509
28.5108
28.5219
28.527
28.5283
28.5255
28.518
28.5046
28.4852
28.4558
28.4202
28.3715
28.3204
28.2658
28.2285
28.2009
28.1847
28.1801
28.2068
28.2704
28.3744
28.5107
28.6638
28.8227
28.9771
29.1258
29.2573
29.3841
29.4782
28.3931
28.3758
28.3825
28.3977
28.4081
28.4148
28.4174
28.4146
28.405
28.3886
28.361
28.3256
28.2761
28.2241
28.1681
28.1302
28.1018
28.085
28.0794
28.1047
28.1683
28.2729
28.4116
28.568
28.7313
28.8913
29.0455
29.1839
29.3156
29.4181
28.2263
28.2232
28.2352
28.2559
28.2729
28.2863
28.295
28.2974
28.2922
28.2792
28.2536
28.2185
28.1684
28.1152
28.0576
28.0185
27.9899
27.9732
27.9676
27.993
28.0573
28.1629
28.3037
28.4631
28.6307
28.7963
28.9562
29.1014
29.2384
29.3493
28.0491
28.0558
28.0745
28.1015
28.1257
28.1462
28.161
28.1681
28.1676
28.1588
28.1355
28.1007
28.05
27.9958
27.9369
27.8964
27.8671
27.8504
27.8453
27.872
27.9375
28.0441
28.1868
28.3491
28.5209
28.6921
28.8577
29.01
29.1527
29.2723
27.8266
27.8399
27.8687
27.908
27.9466
27.9812
28.0075
28.0236
28.0306
28.0287
28.0097
27.9763
27.9259
27.8713
27.8112
27.7689
27.7377
27.7201
27.7148
27.7412
27.8065
27.9129
28.0557
28.2191
28.3936
28.569
28.739
28.897
29.0442
29.1709
27.6275
27.6505
27.6902
27.7416
27.7944
27.8415
27.8774
27.9004
27.913
27.9156
27.899
27.8658
27.8143
27.7585
27.6975
27.6537
27.6208
27.603
27.5973
27.6222
27.6855
27.7894
27.9308
28.095
28.2723
28.4524
28.6279
28.7929
28.9465
29.0846
27.2167
27.2702
27.3487
27.4456
27.5435
27.6287
27.6925
27.7358
27.764
27.7779
27.7714
27.7432
27.6949
27.6402
27.5772
27.5291
27.4899
27.4685
27.4588
27.4787
27.5348
27.6287
27.7581
27.9129
28.0838
28.2597
28.4306
28.5921
28.7395
28.8775
27.2313
27.3086
27.4091
27.524
27.6327
27.7175
27.7732
27.8074
27.8244
27.8262
27.8078
27.7727
27.7189
27.6597
27.5923
27.5414
27.5018
27.4827
27.4767
27.502
27.5633
27.6624
27.797
27.9583
28.1369
28.3233
28.5063
28.6832
28.8456
29.0048
25.9541
26.1043
26.3303
26.5836
26.812
26.9844
27.1072
27.195
27.2523
27.2818
27.2795
27.2564
27.211
27.1568
27.0915
27.0322
26.9754
26.938
26.9098
26.9078
26.9344
26.9936
27.0853
27.2023
27.3353
27.4693
27.5933
27.7108
27.8186
27.9528
30.1135
29.9506
29.8123
29.6187
29.4465
29.3042
29.192
29.1068
29.0441
28.9999
28.9684
28.9513
28.9427
28.9481
28.9572
28.9845
29.0249
29.0905
29.1752
29.283
29.4048
29.5327
29.656
29.7685
29.8697
29.9536
30.0264
30.0651
30.1119
30.1006
30.1131
29.9267
29.7895
29.6032
29.4425
29.3062
29.1964
29.1126
29.0503
29.0061
28.9753
28.9589
28.9505
28.9558
28.9644
28.991
29.0302
29.0951
29.1801
29.2884
29.4107
29.5391
29.6626
29.7752
29.8769
29.9598
30.0322
30.0704
30.1197
30.0968
30.1046
29.8982
29.7622
29.5808
29.4262
29.294
29.1876
29.1062
29.0457
29.0022
28.9712
28.9556
28.9474
28.9525
28.96
28.9854
29.0226
29.0848
29.1662
29.2717
29.3932
29.5225
29.6479
29.7631
29.8674
29.9518
30.0271
30.0622
30.1183
30.0907
30.0784
29.8618
29.7259
29.5484
29.3998
29.2736
29.1729
29.0959
29.0382
28.9959
28.9659
28.9508
28.9423
28.9468
28.9528
28.9764
29.0107
29.0697
29.1467
29.2475
29.365
29.4923
29.6198
29.7382
29.8464
29.9335
30.0142
30.0489
30.1132
30.0825
30.0362
29.8179
29.6868
29.515
29.3721
29.2512
29.1551
29.0815
29.0261
28.9862
28.9572
28.9422
28.9327
28.936
28.9398
28.9609
28.9915
29.0463
29.1183
29.2143
29.3277
29.4527
29.5798
29.6995
29.8111
29.9031
29.9889
30.0266
30.1013
30.0695
29.9817
29.7671
29.6454
29.4822
29.3458
29.2306
29.1385
29.0676
29.014
28.9758
28.9472
28.9315
28.9202
28.9217
28.9226
28.9404
28.9664
29.0164
29.0828
29.1735
29.2827
29.4055
29.5325
29.6537
29.7685
29.8641
29.9564
29.9975
30.0831
30.0515
29.917
29.7065
29.5992
29.4497
29.3222
29.2129
29.1248
29.0563
29.0034
28.9662
28.9372
28.9199
28.9061
28.9046
28.902
28.9158
28.9367
28.9811
29.0412
29.1263
29.2313
29.3523
29.4793
29.6024
29.7205
29.8201
29.9185
29.9636
30.059
30.0285
29.8471
29.6379
29.5477
29.4183
29.3025
29.2
29.1154
29.048
28.995
28.9575
28.9277
28.908
28.891
28.8857
28.8788
28.8881
28.9031
28.9412
28.9946
29.0739
29.1749
29.2941
29.4216
29.5466
29.6682
29.7718
29.8763
29.9259
30.0298
30.0012
29.7752
29.5635
29.4895
29.3837
29.283
29.1907
29.1105
29.0437
28.9898
28.9499
28.9188
28.8963
28.8754
28.8658
28.8536
28.8578
28.8665
28.8976
28.944
29.0176
29.1146
29.2323
29.3603
29.4874
29.6125
29.7202
29.8306
29.8854
29.9962
29.9708
29.7016
29.4876
29.4286
29.3383
29.257
29.1785
29.1066
29.0428
28.9881
28.9448
28.9106
28.8846
28.8595
28.8451
28.8268
28.8256
28.8276
28.8513
28.8905
28.9582
29.0515
29.1679
29.2966
29.4259
29.5546
29.6664
29.7822
29.843
29.959
29.9379
29.6253
29.4125
29.3666
29.2912
29.2242
29.1595
29.0985
29.0409
28.9875
28.9421
28.9034
28.8733
28.8432
28.8234
28.7991
28.7919
28.787
28.8031
28.8348
28.8968
28.9865
29.1018
29.2314
29.363
29.4951
29.611
29.7318
29.7995
29.919
29.9032
29.5465
29.3383
29.3043
29.2431
29.1887
29.1344
29.0826
29.0338
28.9845
28.9392
28.8966
28.8627
28.827
28.8011
28.7707
28.757
28.7452
28.7538
28.778
28.8341
28.9204
29.0348
29.1654
29.2994
29.4348
29.5547
29.68
29.7553
29.877
29.8676
29.4663
29.2646
29.2425
29.1927
29.1485
29.1047
29.0615
29.0192
28.9752
28.9328
28.8888
28.8518
28.8108
28.7787
28.7416
28.7209
28.7022
28.7035
28.7205
28.7709
28.8539
28.9676
29.0992
29.2356
29.3743
29.4982
29.6273
29.7107
29.8335
29.8317
29.3856
29.1916
29.1802
29.1412
29.106
29.071
29.0358
28.9995
28.9605
28.9213
28.8783
28.8396
28.794
28.7561
28.7116
28.6838
28.6581
28.6528
28.663
28.7078
28.7876
28.9007
29.0334
29.1723
29.3141
29.4419
29.5738
29.665
29.788
29.796
29.3037
29.1186
29.1164
29.0889
29.0622
29.0345
29.0058
28.9749
28.9409
28.9054
28.8639
28.8245
28.7757
28.7326
28.6808
28.6456
28.6129
28.6017
28.6054
28.645
28.7219
28.8346
28.9686
29.11
29.2545
29.386
29.5194
29.6184
29.7411
29.761
29.219
29.0446
29.0499
29.0335
29.0148
28.9942
28.9711
28.9456
28.9161
28.8845
28.845
28.8056
28.7545
28.707
28.6488
28.6064
28.5666
28.55
28.5481
28.5826
28.6569
28.7695
28.9046
29.0486
29.1956
29.3301
29.4649
29.5711
29.6935
29.7273
29.1309
28.9698
28.9801
28.9738
28.9627
28.9492
28.9317
28.9111
28.8858
28.8579
28.8208
28.7818
28.7288
28.6782
28.6146
28.566
28.5192
28.4974
28.4908
28.5207
28.5925
28.7052
28.8417
28.9876
29.1371
29.2754
29.4122
29.5234
29.6453
29.6946
29.0392
28.8942
28.9084
28.9103
28.9063
28.8991
28.8874
28.8714
28.8502
28.8255
28.7905
28.7523
28.6979
28.6449
28.5768
28.5232
28.4703
28.4437
28.4329
28.4587
28.5286
28.642
28.7792
28.9266
29.0791
29.2217
29.3605
29.4761
29.5966
29.6614
28.9432
28.8175
28.8358
28.8441
28.8462
28.8447
28.8379
28.8262
28.8089
28.7873
28.7542
28.7168
28.6607
28.6061
28.5347
28.4768
28.4189
28.3886
28.3741
28.3968
28.4659
28.5792
28.716
28.8656
29.0211
29.1683
29.3097
29.43
29.5504
29.6263
28.8416
28.7388
28.761
28.7752
28.7823
28.7856
28.7833
28.7756
28.7619
28.7431
28.7117
28.6747
28.6172
28.5611
28.4872
28.426
28.3643
28.3317
28.3149
28.335
28.4031
28.5149
28.6519
28.8044
28.9628
29.1147
29.2591
29.384
29.5052
29.59
28.7336
28.6566
28.6826
28.7022
28.7139
28.7213
28.7234
28.7198
28.7096
28.6934
28.6633
28.6264
28.5678
28.5101
28.4349
28.3711
28.3057
28.2715
28.253
28.2712
28.3379
28.449
28.5871
28.7421
28.9034
29.0602
29.208
29.3376
29.46
29.5521
28.6184
28.5694
28.5994
28.6238
28.6401
28.6517
28.6578
28.6585
28.6519
28.6384
28.6094
28.5724
28.5127
28.4538
28.3771
28.3122
28.2436
28.2066
28.1866
28.2041
28.2701
28.3815
28.5209
28.6782
28.8425
29.0037
29.1554
29.2897
29.4138
29.512
28.4967
28.4763
28.5101
28.5391
28.5599
28.576
28.5865
28.5914
28.5892
28.5786
28.551
28.5138
28.4533
28.393
28.3127
28.2474
28.1769
28.1378
28.1166
28.134
28.1999
28.3118
28.4524
28.6117
28.7792
28.9442
29.1004
29.2396
29.3657
29.4696
28.3687
28.3738
28.4121
28.4457
28.4716
28.4932
28.5095
28.5204
28.5231
28.5163
28.4903
28.453
28.3923
28.3307
28.2454
28.1766
28.1028
28.0637
28.0426
28.0605
28.1274
28.2399
28.3819
28.5432
28.7136
28.8822
29.0417
29.1856
29.3145
29.4248
28.2395
28.2639
28.3069
28.3451
28.3778
28.4068
28.4309
28.4488
28.4568
28.4542
28.4298
28.3921
28.3314
28.2688
28.1793
28.1047
28.0254
27.9848
27.9644
27.9847
28.0532
28.1659
28.3098
28.4745
28.6484
28.8212
28.984
29.1319
29.2631
29.3799
28.0974
28.141
28.1889
28.233
28.2747
28.3146
28.3497
28.3769
28.3911
28.3925
28.3701
28.3325
28.2717
28.2083
28.116
28.0381
27.9541
27.9099
27.8899
27.9131
27.9826
28.0946
28.2386
28.4046
28.5811
28.7579
28.925
29.0774
29.2105
29.3329
27.9753
28.0362
28.0849
28.1324
28.1833
28.2349
28.2818
28.3188
28.3395
28.3434
28.3221
28.2858
28.2262
28.163
28.0683
27.9874
27.8994
27.8504
27.8301
27.8562
27.9248
28.0362
28.1802
28.3466
28.5248
28.7047
28.8757
29.0336
29.1699
29.3022
27.8254
27.902
27.9528
28.0133
28.0862
28.1626
28.2315
28.285
28.3188
28.3291
28.3125
28.2818
28.2287
28.1681
28.074
27.991
27.897
27.8434
27.8211
27.8462
27.9063
28.0067
28.1415
28.303
28.4782
28.6572
28.8257
28.9819
29.1149
29.251
27.8744
27.9484
27.9997
28.079
28.1784
28.2813
28.3694
28.4352
28.4771
28.495
28.4858
28.4621
28.4145
28.3593
28.2697
28.1875
28.0858
28.0262
27.9967
28.0139
28.0643
28.1541
28.2767
28.4251
28.5892
28.7597
28.9273
29.0839
29.2142
29.351
28.5003
28.5795
28.6111
28.6798
28.7734
28.8684
28.9447
28.9972
29.0226
29.0226
29.0014
28.9677
28.9128
28.8549
28.7657
28.688
28.5882
28.5299
28.5008
28.5222
28.5798
28.6766
28.8049
28.9584
29.1272
29.3028
29.4746
29.6353
29.7681
29.9114
30.0521
29.848
29.7346
29.5237
29.3439
29.1999
29.0944
29.0206
28.9709
28.9405
28.9216
28.9174
28.9153
28.9269
28.9297
28.9474
28.9615
28.9969
29.0445
29.1192
29.216
29.3324
29.4593
29.5887
29.718
29.8347
29.9441
30.0134
30.0874
30.0795
30.0405
29.8008
29.6967
29.4965
29.3339
29.201
29.0987
29.0264
28.9774
28.9482
28.9305
28.9268
28.9247
28.9362
28.9388
28.957
28.971
29.0064
29.0533
29.1286
29.226
29.3429
29.47
29.5993
29.7283
29.8439
29.9525
30.0193
30.0948
30.0826
30.0204
29.7575
29.6614
29.4715
29.32
29.1938
29.0969
29.0271
28.9788
28.95
28.932
28.929
28.9266
28.9379
28.9398
28.9577
28.9704
29.0039
29.0467
29.1183
29.2133
29.3306
29.4594
29.5905
29.7208
29.8365
29.9476
30.0125
30.0963
30.0778
29.9805
29.7082
29.6161
29.4348
29.2939
29.1767
29.0876
29.0235
28.9787
28.9507
28.9326
28.93
28.9273
28.9382
28.9387
28.9558
28.966
28.9966
29.0344
29.1003
29.1894
29.304
29.4346
29.5684
29.7011
29.8178
29.9323
29.9964
30.09
30.0668
29.9241
29.6538
29.5648
29.3938
29.2635
29.1553
29.0735
29.0147
28.9733
28.947
28.9295
28.9278
28.9243
28.9343
28.9326
28.9483
28.9546
28.9812
29.0127
29.072
29.1552
29.2655
29.3939
29.5292
29.6661
29.7854
29.9057
29.97
30.0736
30.0486
29.8554
29.5956
29.5082
29.3506
29.2314
29.1323
29.0577
29.004
28.9658
28.9415
28.9247
28.9235
28.9187
28.9275
28.9229
28.9364
28.9378
28.9591
28.9835
29.0357
29.1129
29.2194
29.3461
29.4811
29.6204
29.7439
29.8688
29.9363
30.0495
30.0243
29.7793
29.5345
29.4493
29.3083
29.2003
29.1102
29.0425
28.9934
28.9581
28.9357
28.9192
28.9179
28.9112
28.9185
28.9102
28.9206
28.9165
28.9315
28.9481
28.9929
29.0641
29.1672
29.2927
29.4281
29.569
29.6958
29.8254
29.8978
30.0197
29.9953
29.6992
29.4686
29.3909
29.2668
29.1709
29.0899
29.0286
28.9838
28.9509
28.93
28.9134
28.9114
28.9022
28.9075
28.8948
28.9016
28.8912
28.8991
28.9077
28.9449
29.0103
29.1105
29.2353
29.3715
29.5143
29.6435
29.7777
29.856
29.9849
29.9627
29.6169
29.399
29.3341
29.2264
29.1434
29.0719
29.0169
28.9757
28.9444
28.9245
28.9075
28.9045
28.8922
28.8952
28.8773
28.8798
28.8624
28.8628
28.8634
28.893
28.9528
29.0505
29.1752
29.3125
29.4574
29.5888
29.7273
29.8121
29.9462
29.9277
29.5346
29.3316
29.2802
29.1871
29.1174
29.0558
29.0069
28.969
28.9389
28.9194
28.9016
28.8972
28.8815
28.8817
28.8582
28.8559
28.8305
28.8235
28.8166
28.8384
28.8927
28.9883
29.1133
29.2523
29.3994
29.5329
29.675
29.7671
29.9044
29.8913
29.4558
29.2649
29.2275
29.1485
29.0904
29.0386
28.9965
28.9625
28.934
28.9147
28.8958
28.8897
28.8702
28.8673
28.8376
28.8301
28.7961
28.7817
28.7676
28.782
28.8309
28.9248
29.0505
29.1916
29.341
29.4771
29.6223
29.7216
29.8609
29.8542
29.3806
29.1988
29.1755
29.1108
29.0642
29.0208
28.9845
28.9548
28.9283
28.9098
28.8899
28.8819
28.8583
28.852
28.8158
28.8029
28.7597
28.7381
28.7171
28.7244
28.7682
28.8609
28.9877
29.1313
29.283
29.4227
29.5697
29.6762
29.816
29.8172
29.3074
29.134
29.124
29.0729
29.0375
29.0024
28.9719
28.946
28.9215
28.9041
28.8833
28.8737
28.8459
28.8358
28.7929
28.7746
28.722
28.6932
28.6656
28.6665
28.7052
28.797
28.9254
29.072
29.2257
29.3699
29.5176
29.6299
29.7691
29.7818
29.2356
29.0705
29.0716
29.0341
29.009
28.9821
28.9575
28.9357
28.9134
28.897
28.8755
28.8645
28.8329
28.8189
28.769
28.7454
28.6831
28.6473
28.6132
28.6086
28.6424
28.7338
28.8642
29.0142
29.1698
29.3178
29.4657
29.5828
29.721
29.7476
29.1638
29.0069
29.0174
28.9939
28.9785
28.9595
28.9407
28.9228
28.9031
28.888
28.8659
28.8537
28.8186
28.8011
28.744
28.7154
28.6436
28.6007
28.5604
28.5508
28.5801
28.6714
28.8042
28.957
29.1152
29.2661
29.4151
29.536
29.6721
29.7148
29.0916
28.9437
28.9627
28.9516
28.945
28.9336
28.9206
28.9068
28.89
28.8764
28.854
28.841
28.8025
28.782
28.7181
28.6845
28.6034
28.5535
28.5071
28.4931
28.5182
28.6094
28.7445
28.9
29.0612
29.2155
29.3661
29.4905
29.6239
29.6837
29.0185
28.8805
28.9061
28.9064
28.9077
28.9036
28.8963
28.887
28.8733
28.8615
28.8391
28.8257
28.784
28.761
28.6907
28.6529
28.5626
28.5056
28.4534
28.4353
28.4564
28.5477
28.6845
28.8431
29.0081
29.1662
29.3187
29.4468
29.5785
29.6525
28.9418
28.8156
28.8478
28.8575
28.8657
28.8685
28.8672
28.8627
28.8526
28.8429
28.8208
28.8073
28.7628
28.7377
28.6615
28.6205
28.5214
28.4573
28.3991
28.377
28.3943
28.4859
28.6239
28.7859
28.9553
29.1178
29.2726
29.4048
29.5357
29.6205
28.8592
28.7487
28.7871
28.8053
28.82
28.8291
28.8332
28.8335
28.8274
28.8205
28.7991
28.7857
28.7387
28.7121
28.6301
28.5869
28.4794
28.4084
28.3441
28.3183
28.3315
28.4225
28.5623
28.7278
28.9022
29.0693
29.2269
29.3634
29.4941
29.5879
28.7684
28.6801
28.724
28.75
28.7708
28.7857
28.7949
28.7996
28.7978
28.794
28.7739
28.7609
28.712
28.6843
28.5971
28.5521
28.4364
28.359
28.2876
28.2577
28.2663
28.3572
28.4995
28.6684
28.8479
29.02
29.1811
29.3219
29.4531
29.5546
28.6693
28.6084
28.6577
28.6911
28.718
28.7386
28.7529
28.7621
28.7645
28.7643
28.7459
28.7337
28.6834
28.6552
28.5629
28.5167
28.3929
28.3084
28.2285
28.1937
28.1989
28.2911
28.4349
28.6071
28.7917
28.9689
29.1342
29.2797
29.4119
29.5198
28.5619
28.5327
28.5875
28.6285
28.6616
28.6882
28.7079
28.7221
28.7289
28.7322
28.7164
28.7053
28.6544
28.626
28.5285
28.4814
28.349
28.2563
28.1671
28.1279
28.1318
28.2248
28.3685
28.5433
28.7331
28.9156
29.0853
29.236
29.3698
29.4837
28.4476
28.4519
28.5132
28.5623
28.6024
28.6355
28.6612
28.6811
28.6927
28.7
28.6875
28.6775
28.6261
28.5978
28.4955
28.4479
28.3058
28.2041
28.1053
28.0641
28.0677
28.1593
28.3015
28.4776
28.671
28.8602
29.0348
29.1903
29.3263
29.4463
28.33
28.3637
28.4348
28.493
28.5413
28.5818
28.6146
28.6411
28.6583
28.67
28.6608
28.6515
28.5996
28.5715
28.4645
28.4173
28.2656
28.1567
28.0491
28.0054
28.0073
28.0951
28.2349
28.4115
28.606
28.8007
28.9818
29.1436
29.2821
29.4083
28.2078
28.2734
28.357
28.4246
28.4814
28.5301
28.571
28.6051
28.6282
28.6443
28.6373
28.6283
28.576
28.5487
28.4367
28.3904
28.2293
28.115
27.9974
27.9487
27.9487
28.0329
28.1697
28.3462
28.5415
28.74
28.9262
29.0945
29.2371
29.3727
28.0815
28.1855
28.2812
28.3585
28.4243
28.4822
28.5325
28.5752
28.6042
28.6246
28.6194
28.6114
28.5602
28.5358
28.4218
28.3802
28.2114
28.0935
27.9647
27.9068
27.9018
27.9759
28.1068
28.2825
28.4784
28.6806
28.8719
29.0461
29.1926
29.337
27.9668
28.1093
28.214
28.3003
28.3762
28.4444
28.5053
28.5574
28.5934
28.6199
28.6172
28.6125
28.5635
28.5454
28.431
28.3967
28.2211
28.0959
27.957
27.892
27.8831
27.9491
28.0699
28.237
28.4343
28.6386
28.8329
29.0113
29.1601
29.3107
27.8715
28.039
28.1496
28.2463
28.3348
28.4184
28.4933
28.5558
28.6043
28.6385
28.6387
28.6386
28.5968
28.5888
28.4773
28.4583
28.2784
28.1513
28.0007
27.9247
27.9106
27.9656
28.0784
28.2394
28.431
28.6357
28.8325
29.0116
29.1561
29.3033
27.8523
28.0273
28.1438
28.2511
28.3525
28.4473
28.5306
28.6004
28.6538
28.6918
28.6954
28.7016
28.6671
28.6739
28.5719
28.579
28.4047
28.2866
28.1313
28.047
28.0196
28.0615
28.1548
28.3006
28.4789
28.6712
28.857
29.0325
29.1775
29.3289
27.917
28.0781
28.1944
28.3087
28.4166
28.5165
28.6022
28.6731
28.7262
28.7653
28.7738
28.7871
28.7607
28.7838
28.6975
28.7387
28.5782
28.477
28.3245
28.2381
28.2027
28.2359
28.3167
28.4465
28.6126
28.7995
28.99
29.1727
29.3258
29.4754
29.9568
29.7283
29.6487
29.406
29.2095
29.0594
28.9587
28.9006
28.8703
28.8594
28.8558
28.8703
28.8746
28.8882
28.8713
28.8617
28.824
28.8088
28.7971
28.8238
28.8918
29.006
29.1511
29.3122
29.482
29.6441
29.8024
29.9152
30.0339
30.0405
29.9367
29.6426
29.5823
29.3557
29.1842
29.0523
28.9604
28.9048
28.8762
28.8673
28.8649
28.8796
28.8833
28.8962
28.8786
28.8698
28.8332
28.8206
28.8102
28.8358
28.9034
29.0182
29.1635
29.3246
29.4939
29.6548
29.8126
29.9232
30.0429
30.0465
29.9079
29.5773
29.5247
29.3172
29.1639
29.043
28.959
28.9065
28.8791
28.8721
28.8704
28.885
28.8875
28.8992
28.8796
28.8699
28.8314
28.8171
28.8029
28.8229
28.886
29.005
29.1541
29.3169
29.4869
29.6474
29.8072
29.917
30.0441
30.042
29.8534
29.5114
29.4597
29.2693
29.1331
29.0251
28.9512
28.9061
28.881
28.8759
28.8754
28.8899
28.891
28.9015
28.8789
28.867
28.8242
28.8066
28.7878
28.8014
28.8579
28.973
29.1272
29.2935
29.4648
29.6254
29.7874
29.8989
30.0349
30.0288
29.7774
29.4426
29.3923
29.2193
29.1
29.0045
28.9403
28.9022
28.8813
28.878
28.8785
28.8928
28.8922
28.9008
28.874
28.8584
28.8089
28.7856
28.7606
28.7675
28.8181
28.9292
29.081
29.2526
29.4267
29.5891
29.7542
29.8688
30.0139
30.0069
29.6861
29.3703
29.3225
29.1667
29.0638
28.9824
28.928
28.8967
28.8803
28.8792
28.8806
28.8946
28.8918
28.8981
28.8661
28.8455
28.7868
28.7559
28.7238
28.7241
28.7694
28.8778
29.0282
29.2007
29.378
29.543
29.7121
29.8297
29.9826
29.9773
29.5859
29.295
29.2519
29.1135
29.0276
28.9595
28.9153
28.8909
28.8785
28.8799
28.882
28.8955
28.8899
28.8937
28.8555
28.8285
28.7585
28.7189
28.6791
28.6734
28.7139
28.8209
28.9709
29.1428
29.3232
29.4909
29.6633
29.7853
29.9435
29.9421
29.4817
29.2183
29.1828
29.0632
28.9943
28.9388
28.9039
28.8858
28.877
28.8805
28.8827
28.8957
28.887
28.888
28.8424
28.8079
28.7252
28.6756
28.6279
28.6169
28.6534
28.76
28.9108
29.0828
29.2651
29.4356
29.6101
29.7371
29.8987
29.9038
29.3774
29.1423
29.1172
29.0173
28.9642
28.9205
28.8941
28.8815
28.8759
28.8811
28.883
28.8955
28.8832
28.881
28.8272
28.7844
28.6879
28.6272
28.5716
28.556
28.5893
28.6968
28.8494
29.022
29.2061
29.3792
29.5548
29.6872
29.8503
29.8643
29.2764
29.0706
29.0567
28.9758
28.9372
28.9045
28.8858
28.878
28.8753
28.8815
28.8829
28.8949
28.8788
28.8732
28.8102
28.7586
28.647
28.5747
28.5116
28.4922
28.5234
28.6327
28.7882
28.9618
29.1483
29.3234
29.4996
29.6376
29.7997
29.8249
29.1815
29.0038
29.001
28.9388
28.9133
28.8906
28.8789
28.8755
28.875
28.8823
28.8828
28.894
28.8738
28.8645
28.7919
28.7307
28.6031
28.5194
28.4491
28.4266
28.4569
28.569
28.7283
28.9041
29.0931
29.2706
29.4477
29.5884
29.748
29.7862
29.0953
28.942
28.9485
28.9047
28.8913
28.878
28.8729
28.8735
28.8749
28.8835
28.8827
28.893
28.8682
28.8552
28.7722
28.7014
28.557
28.4621
28.3853
28.3603
28.3906
28.5065
28.67
28.8493
29.0412
29.2219
29.3983
29.5398
29.6969
29.7493
29.0173
28.8839
28.8988
28.8728
28.8705
28.8662
28.8671
28.8714
28.8746
28.8847
28.8829
28.8918
28.8619
28.8453
28.7514
28.6708
28.5093
28.4041
28.3209
28.2941
28.3254
28.4457
28.6133
28.798
28.993
29.1755
29.3502
29.4937
29.6482
29.7149
28.9449
28.8287
28.8519
28.8429
28.85
28.8541
28.8606
28.8686
28.8738
28.8855
28.8828
28.8905
28.855
28.8346
28.7296
28.6391
28.4605
28.3459
28.2567
28.2288
28.2617
28.3868
28.5587
28.749
28.9464
29.1304
29.3054
29.4509
29.6026
29.6829
28.877
28.7757
28.8081
28.8138
28.8293
28.8411
28.8529
28.8648
28.8724
28.8853
28.8824
28.889
28.8477
28.8233
28.7067
28.6067
28.4115
28.2884
28.1931
28.1649
28.1996
28.3295
28.5051
28.7006
28.9011
29.0881
29.2642
29.4121
29.5618
29.6515
28.8118
28.7243
28.7665
28.7839
28.8076
28.8267
28.8439
28.8598
28.8699
28.8844
28.8812
28.8867
28.8399
28.8115
28.6828
28.5739
28.3626
28.2319
28.1305
28.1025
28.1388
28.2722
28.451
28.6528
28.8578
29.0485
29.226
29.3765
29.5242
29.6219
28.7475
28.6745
28.7256
28.7533
28.7845
28.8105
28.8331
28.8531
28.8661
28.8821
28.8788
28.8834
28.8316
28.7994
28.6582
28.5411
28.3143
28.1767
28.0695
28.0406
28.0775
28.2137
28.3987
28.6062
28.8161
29.0111
29.1905
29.3435
29.4896
29.5938
28.6832
28.6254
28.6845
28.7214
28.7596
28.7923
28.8201
28.8444
28.8605
28.8782
28.875
28.8793
28.8226
28.7873
28.6336
28.5091
28.2674
28.1235
28.0085
27.9774
28.0154
28.156
28.3468
28.5596
28.7754
28.9753
29.157
29.3126
29.4572
29.5668
28.616
28.5752
28.642
28.6877
28.7328
28.7718
28.8049
28.8337
28.853
28.8729
28.8699
28.8744
28.8133
28.7756
28.6095
28.4791
28.2221
28.0712
27.9469
27.9144
27.9553
28.0985
28.2911
28.5118
28.7347
28.9403
29.125
29.2835
29.4269
29.541
28.5422
28.5224
28.5972
28.6518
28.7037
28.7491
28.7875
28.8211
28.844
28.8664
28.864
28.869
28.8042
28.7648
28.5866
28.4515
28.1777
28.0198
27.8879
27.8558
27.8966
28.0371
28.2327
28.4623
28.6926
28.905
29.0936
29.2554
29.3982
29.5165
28.461
28.4652
28.5492
28.6128
28.6723
28.7244
28.7684
28.8069
28.8337
28.8592
28.8583
28.8639
28.796
28.7558
28.5656
28.4266
28.1373
27.9761
27.8347
27.7996
27.8347
27.9724
28.1738
28.4102
28.6478
28.8679
29.0622
29.2278
29.3705
29.4929
28.3731
28.4012
28.4965
28.5712
28.639
28.6981
28.748
28.7916
28.823
28.8523
28.8534
28.8603
28.7895
28.7489
28.547
28.4053
28.1035
27.9399
27.7859
27.7441
27.7714
27.9077
28.1132
28.3555
28.6001
28.8273
29.0286
29.2002
29.3437
29.4702
28.2757
28.3321
28.4407
28.5275
28.6042
28.6707
28.727
28.7765
28.8129
28.8465
28.8498
28.8601
28.7865
28.747
28.531
28.3896
28.074
27.9042
27.7345
27.6863
27.7124
27.8483
28.0502
28.2978
28.5493
28.7839
28.9913
29.1701
29.317
29.4487
28.17
28.2607
28.3834
28.4828
28.569
28.6434
28.7068
28.7628
28.8044
28.8424
28.8479
28.8613
28.7867
28.7484
28.519
28.3824
28.0487
27.8726
27.6904
27.6386
27.6647
27.7942
27.989
28.2356
28.4955
28.7381
28.9525
29.1375
29.2883
29.429
28.0588
28.1914
28.3276
28.4391
28.5349
28.6177
28.6885
28.7506
28.7969
28.8391
28.8469
28.8639
28.7888
28.7537
28.5141
28.3813
28.0286
27.8524
27.6587
27.6026
27.6266
27.7503
27.9377
28.1789
28.4407
28.6921
28.9144
29.1065
29.2616
29.41
27.9496
28.1255
28.2746
28.3978
28.5028
28.5936
28.6713
28.7396
28.7904
28.8372
28.8494
28.8708
28.7949
28.7649
28.5175
28.3943
28.021
27.8469
27.6435
27.5829
27.6027
27.7169
27.8968
28.1382
28.3966
28.6504
28.8813
29.0805
29.2404
29.3948
27.8512
28.0658
28.2264
28.3598
28.4733
28.5716
28.6564
28.731
28.7869
28.8409
28.8591
28.887
28.8105
28.7907
28.5411
28.4421
28.0554
27.8888
27.6719
27.6016
27.6118
27.721
27.8972
28.1242
28.3722
28.6251
28.8603
29.0662
29.2307
29.388
27.7798
28.0152
28.1816
28.326
28.4478
28.5537
28.6464
28.7281
28.7927
28.8549
28.8773
28.9124
28.8384
28.8346
28.5835
28.521
28.1247
27.9685
27.7415
27.6652
27.6675
27.7624
27.9253
28.1416
28.382
28.626
28.8549
29.0665
29.2354
29.3944
27.733
27.9742
28.1457
28.2972
28.4274
28.5418
28.6417
28.7308
28.8034
28.8701
28.8965
28.94
28.8711
28.8894
28.6412
28.6289
28.2305
28.0895
27.8561
27.7749
27.7643
27.842
27.9844
28.1852
28.416
28.6552
28.8775
29.081
29.2457
29.4076
27.7297
27.9535
28.1238
28.2785
28.4134
28.5336
28.6386
28.733
28.811
28.8824
28.9137
28.9637
28.9025
28.9438
28.708
28.7577
28.3684
28.249
28.0156
27.9328
27.9085
27.9713
28.0908
28.2677
28.4764
28.6998
28.916
29.1201
29.293
29.4554
29.9363
29.6764
29.6205
29.3527
29.1334
28.97
28.8654
28.8158
28.798
28.8065
28.8272
28.8726
28.9032
28.9547
28.9528
28.9596
28.8821
28.799
28.6819
28.6216
28.63
28.7205
28.8735
29.0547
29.2492
29.4399
29.6354
29.7889
29.9616
29.9895
29.9015
29.5621
29.5314
29.2817
29.0944
28.9545
28.8648
28.8191
28.805
28.8166
28.8385
28.8844
28.9144
28.9655
28.9623
28.9713
28.8969
28.8203
28.7063
28.6431
28.6426
28.7307
28.883
29.0637
29.258
29.4489
29.6454
29.7984
29.9734
29.9991
29.8636
29.4654
29.4515
29.2258
29.0637
28.9396
28.8609
28.8207
28.8098
28.8248
28.8477
28.8939
28.9224
28.9739
28.9688
28.9797
28.9036
28.8231
28.7035
28.6391
28.6308
28.7182
28.8739
29.0561
29.2518
29.4428
29.6403
29.7913
29.9718
29.9949
29.7926
29.3754
29.367
29.1593
29.0213
28.9151
28.8495
28.8192
28.8128
28.8317
28.8557
28.9027
28.9297
28.9822
28.9742
28.9867
28.9036
28.8187
28.6931
28.6234
28.6064
28.6843
28.8429
29.0287
29.226
29.4174
29.6163
29.7688