/*--------------------------------*- C++ -*----------------------------------*\
  =========                 |
  \\      /  F ield         | OpenFOAM: The Open Source CFD Toolbox
   \\    /   O peration     | Website:  https://openfoam.org
    \\  /    A nd           | Version:  12
     \\/     M anipulation  |
\*---------------------------------------------------------------------------*/
FoamFile
{
    format      ascii;
    class       volScalarField;
    location    "1900/air";
    object      T;
}
// * * * * * * * * * * * * * * * * * * * * * * * * * * * * * * * * * * * * * //

dimensions      [0 0 0 1 0 0 0];

internalField   nonuniform List<scalar> 
243000
(
301.476
301.367
301.308
301.267
301.236
301.211
301.19
301.171
301.154
301.138
301.123
301.108
301.094
301.08
301.066
301.052
301.037
301.021
301.004
300.985
300.964
300.938
300.909
300.877
300.845
300.815
300.788
300.764
300.675
300.628
301.806
301.547
301.417
301.339
301.286
301.247
301.217
301.192
301.17
301.151
301.133
301.117
301.101
301.086
301.071
301.055
301.039
301.023
301.005
300.986
300.963
300.938
300.91
300.879
300.848
300.817
300.789
300.765
300.712
300.649
302.04
301.721
301.538
301.424
301.347
301.292
301.25
301.217
301.19
301.167
301.146
301.127
301.109
301.093
301.076
301.06
301.043
301.025
301.007
300.987
300.965
300.94
300.913
300.883
300.852
300.822
300.794
300.768
300.73
300.676
302.239
301.915
301.689
301.534
301.427
301.351
301.294
301.251
301.216
301.187
301.162
301.14
301.12
301.101
301.083
301.065
301.048
301.029
301.01
300.989
300.967
300.943
300.916
300.888
300.858
300.828
300.8
300.773
300.741
300.697
302.406
302.129
301.877
301.682
301.539
301.434
301.357
301.298
301.252
301.215
301.184
301.158
301.134
301.113
301.093
301.073
301.054
301.034
301.014
300.993
300.97
300.946
300.92
300.893
300.864
300.835
300.806
300.779
300.75
300.714
302.527
302.333
302.092
301.869
301.687
301.547
301.442
301.363
301.302
301.253
301.214
301.181
301.153
301.128
301.105
301.083
301.062
301.041
301.019
300.997
300.974
300.95
300.925
300.898
300.87
300.842
300.814
300.786
300.758
300.727
302.582
302.462
302.275
302.062
301.861
301.692
301.556
301.45
301.369
301.305
301.254
301.212
301.177
301.147
301.12
301.096
301.072
301.049
301.026
301.003
300.98
300.955
300.93
300.904
300.877
300.849
300.822
300.794
300.767
300.738
302.613
302.54
302.413
302.236
302.041
301.855
301.694
301.562
301.456
301.372
301.306
301.253
301.209
301.172
301.14
301.111
301.085
301.059
301.035
301.01
300.986
300.961
300.936
300.911
300.884
300.857
300.83
300.803
300.776
300.748
302.64
302.594
302.513
302.383
302.213
302.028
301.851
301.695
301.565
301.459
301.374
301.305
301.249
301.203
301.165
301.131
301.1
301.072
301.045
301.019
300.994
300.968
300.943
300.918
300.892
300.865
300.839
300.812
300.785
300.759
302.667
302.635
302.584
302.497
302.366
302.2
302.021
301.849
301.697
301.567
301.459
301.372
301.301
301.243
301.196
301.155
301.119
301.087
301.057
301.029
301.002
300.976
300.951
300.925
300.9
300.874
300.848
300.821
300.795
300.769
302.695
302.671
302.636
302.58
302.489
302.357
302.194
302.019
301.85
301.697
301.566
301.457
301.367
301.294
301.235
301.185
301.143
301.106
301.073
301.042
301.013
300.986
300.959
300.934
300.908
300.883
300.857
300.831
300.805
300.779
302.722
302.703
302.678
302.641
302.581
302.486
302.353
302.192
302.018
301.849
301.695
301.562
301.451
301.359
301.284
301.223
301.173
301.129
301.091
301.057
301.025
300.996
300.969
300.943
300.917
300.892
300.867
300.841
300.815
300.79
302.749
302.732
302.713
302.686
302.646
302.582
302.485
302.351
302.19
302.016
301.846
301.69
301.554
301.441
301.347
301.271
301.209
301.158
301.113
301.075
301.04
301.009
300.98
300.953
300.927
300.902
300.877
300.852
300.826
300.801
302.774
302.759
302.741
302.721
302.693
302.65
302.583
302.483
302.348
302.186
302.011
301.838
301.679
301.542
301.426
301.332
301.256
301.193
301.141
301.096
301.058
301.024
300.993
300.965
300.938
300.913
300.887
300.863
300.837
300.813
302.797
302.782
302.766
302.749
302.727
302.697
302.652
302.582
302.479
302.341
302.176
301.999
301.824
301.663
301.524
301.408
301.314
301.238
301.175
301.123
301.079
301.041
301.008
300.978
300.95
300.924
300.899
300.874
300.849
300.824
302.815
302.8
302.785
302.77
302.752
302.729
302.698
302.65
302.576
302.469
302.328
302.16
301.979
301.802
301.64
301.501
301.386
301.293
301.218
301.156
301.105
301.062
301.026
300.993
300.964
300.936
300.911
300.885
300.86
300.836
302.829
302.814
302.8
302.785
302.77
302.751
302.728
302.695
302.644
302.565
302.454
302.307
302.136
301.952
301.774
301.612
301.475
301.362
301.271
301.197
301.137
301.088
301.046
301.011
300.979
300.95
300.923
300.898
300.873
300.848
302.836
302.822
302.808
302.795
302.781
302.765
302.746
302.722
302.686
302.632
302.548
302.43
302.279
302.103
301.917
301.74
301.581
301.447
301.337
301.249
301.177
301.12
301.072
301.032
300.997
300.966
300.938
300.911
300.886
300.861
302.838
302.825
302.812
302.799
302.786
302.772
302.756
302.737
302.712
302.673
302.614
302.524
302.4
302.242
302.062
301.877
301.702
301.548
301.419
301.313
301.227
301.159
301.103
301.057
301.018
300.984
300.954
300.926
300.9
300.875
302.832
302.82
302.808
302.796
302.785
302.772
302.759
302.744
302.724
302.697
302.655
302.59
302.494
302.361
302.198
302.017
301.834
301.664
301.515
301.391
301.29
301.208
301.142
301.089
301.044
301.007
300.973
300.944
300.916
300.89
302.817
302.806
302.796
302.785
302.775
302.765
302.754
302.742
302.727
302.708
302.678
302.632
302.561
302.456
302.316
302.149
301.968
301.79
301.626
301.484
301.366
301.269
301.191
301.128
301.077
301.034
300.997
300.964
300.934
300.907
302.793
302.783
302.774
302.766
302.758
302.75
302.741
302.733
302.722
302.708
302.688
302.656
302.604
302.525
302.412
302.266
302.098
301.92
301.748
301.591
301.457
301.344
301.252
301.178
301.117
301.067
301.025
300.989
300.956
300.927
302.758
302.751
302.744
302.739
302.733
302.728
302.722
302.716
302.709
302.699
302.685
302.663
302.628
302.57
302.483
302.363
302.215
302.047
301.875
301.71
301.561
301.434
301.327
301.24
301.168
301.109
301.06
301.019
300.982
300.95
302.713
302.709
302.705
302.703
302.7
302.698
302.695
302.692
302.688
302.682
302.674
302.66
302.636
302.596
302.531
302.438
302.313
302.164
301.999
301.834
301.677
301.537
301.416
301.315
301.231
301.162
301.104
301.056
301.014
300.978
302.655
302.655
302.657
302.658
302.659
302.661
302.662
302.662
302.662
302.66
302.656
302.649
302.634
302.607
302.562
302.491
302.392
302.264
302.116
301.957
301.799
301.651
301.519
301.405
301.308
301.227
301.159
301.102
301.054
301.012
302.584
302.59
302.597
302.604
302.611
302.617
302.623
302.627
302.631
302.634
302.634
302.631
302.623
302.605
302.574
302.523
302.447
302.344
302.216
302.072
301.921
301.772
301.633
301.508
301.399
301.306
301.227
301.16
301.102
301.054
302.498
302.51
302.523
302.536
302.549
302.56
302.571
302.579
302.586
302.591
302.594
302.594
302.59
302.579
302.559
302.524
302.469
302.39
302.288
302.166
302.029
301.888
301.75
301.619
301.501
301.397
301.306
301.228
301.161
301.104
302.382
302.4
302.419
302.437
302.453
302.467
302.479
302.487
302.492
302.494
302.493
302.49
302.485
302.476
302.462
302.44
302.406
302.353
302.281
302.189
302.08
301.959
301.834
301.709
301.591
301.482
301.384
301.297
301.221
301.156
302.142
302.155
302.169
302.182
302.191
302.195
302.193
302.185
302.174
302.159
302.142
302.125
302.109
302.095
302.082
302.07
302.055
302.033
301.998
301.949
301.884
301.807
301.72
301.628
301.534
301.444
301.358
301.279
301.208
301.145
301.087
301.074
301.086
301.099
301.103
301.097
301.085
301.069
301.05
301.031
301.012
300.994
300.977
300.962
300.95
300.944
300.942
300.938
300.93
300.916
300.897
300.874
300.848
300.82
300.79
300.759
300.727
300.696
300.667
300.639
301.237
301.204
301.18
301.16
301.143
301.127
301.112
301.098
301.084
301.071
301.059
301.046
301.033
301.02
301.006
300.991
300.975
300.957
300.935
300.91
300.879
300.843
300.806
300.77
300.738
300.711
300.688
300.669
300.647
300.61
301.287
301.244
301.211
301.185
301.163
301.143
301.126
301.11
301.095
301.081
301.067
301.053
301.04
301.026
301.011
300.996
300.978
300.959
300.937
300.912
300.882
300.848
300.813
300.779
300.747
300.719
300.695
300.674
300.653
300.621
301.33
301.283
301.246
301.215
301.189
301.166
301.146
301.127
301.111
301.095
301.079
301.065
301.05
301.034
301.019
301.002
300.983
300.963
300.94
300.915
300.886
300.854
300.821
300.788
300.756
300.728
300.703
300.681
300.66
300.633
301.376
301.328
301.288
301.253
301.223
301.197
301.173
301.152
301.132
301.114
301.096
301.079
301.062
301.046
301.028
301.01
300.99
300.968
300.944
300.918
300.89
300.86
300.828
300.796
300.766
300.738
300.712
300.69
300.668
300.643
301.426
301.382
301.341
301.304
301.27
301.239
301.21
301.185
301.161
301.139
301.119
301.099
301.079
301.06
301.041
301.02
300.998
300.975
300.95
300.923
300.895
300.865
300.835
300.805
300.775
300.747
300.722
300.698
300.676
300.653
301.486
301.45
301.412
301.373
301.334
301.296
301.261
301.229
301.2
301.173
301.148
301.124
301.101
301.079
301.056
301.033
301.009
300.984
300.957
300.93
300.901
300.872
300.843
300.813
300.785
300.757
300.732
300.708
300.685
300.663
301.562
301.546
301.514
301.471
301.422
301.374
301.33
301.289
301.252
301.218
301.187
301.158
301.13
301.103
301.077
301.05
301.023
300.995
300.967
300.938
300.909
300.88
300.851
300.822
300.794
300.767
300.742
300.718
300.695
300.673
301.648
301.651
301.632
301.592
301.538
301.479
301.421
301.367
301.319
301.276
301.236
301.2
301.166
301.134
301.102
301.072
301.041
301.01
300.978
300.948
300.918
300.889
300.86
300.832
300.804
300.778
300.752
300.728
300.705
300.683
301.737
301.754
301.746
301.715
301.663
301.598
301.53
301.464
301.403
301.348
301.298
301.253
301.211
301.172
301.134
301.098
301.063
301.028
300.993
300.96
300.929
300.899
300.87
300.842
300.815
300.789
300.763
300.739
300.716
300.694
301.825
301.846
301.849
301.83
301.787
301.724
301.651
301.576
301.503
301.436
301.374
301.318
301.266
301.218
301.174
301.131
301.09
301.05
301.012
300.976
300.942
300.911
300.881
300.853
300.826
300.8
300.775
300.751
300.727
300.705
301.91
301.931
301.94
301.932
301.902
301.848
301.778
301.698
301.616
301.537
301.464
301.396
301.333
301.275
301.222
301.171
301.123
301.077
301.034
300.995
300.958
300.925
300.894
300.865
300.838
300.812
300.787
300.763
300.739
300.717
301.994
302.012
302.023
302.023
302.004
301.963
301.901
301.824
301.738
301.651
301.566
301.487
301.413
301.344
301.28
301.22
301.163
301.111
301.062
301.018
300.978
300.942
300.909
300.879
300.851
300.825
300.8
300.775
300.751
300.729
302.078
302.091
302.101
302.103
302.093
302.064
302.015
301.946
301.863
301.773
301.68
301.59
301.504
301.423
301.348
301.277
301.212
301.151
301.096
301.046
301.001
300.962
300.926
300.895
300.866
300.839
300.813
300.789
300.765
300.742
302.161
302.168
302.174
302.177
302.171
302.152
302.115
302.058
301.984
301.896
301.801
301.702
301.606
301.514
301.427
301.346
301.27
301.2
301.136
301.079
301.029
300.986
300.947
300.913
300.882
300.854
300.828
300.803
300.778
300.756
302.241
302.243
302.245
302.246
302.241
302.227
302.2
302.156
302.093
302.014
301.921
301.821
301.717
301.616
301.518
301.425
301.338
301.258
301.185
301.12
301.063
301.014
300.972
300.934
300.901
300.871
300.844
300.818
300.793
300.77
302.317
302.315
302.312
302.31
302.304
302.292
302.271
302.237
302.187
302.119
302.035
301.938
301.832
301.725
301.617
301.514
301.416
301.325
301.242
301.169
301.104
301.049
301.001
300.959
300.923
300.891
300.862
300.835
300.809
300.786
302.386
302.38
302.374
302.368
302.36
302.348
302.33
302.303
302.263
302.207
302.135
302.047
301.945
301.836
301.724
301.612
301.504
301.403
301.31
301.226
301.153
301.09
301.036
300.989
300.949
300.914
300.882
300.854
300.827
300.803
302.446
302.437
302.428
302.418
302.408
302.395
302.379
302.355
302.323
302.278
302.218
302.141
302.049
301.944
301.831
301.715
301.6
301.49
301.386
301.293
301.211
301.139
301.077
301.025
300.98
300.941
300.906
300.875
300.847
300.822
302.493
302.482
302.471
302.459
302.447
302.433
302.416
302.395
302.368
302.331
302.282
302.218
302.138
302.043
301.935
301.819
301.7
301.584
301.472
301.369
301.277
301.197
301.127
301.067
301.016
300.972
300.934
300.9
300.87
300.843
302.527
302.514
302.501
302.488
302.474
302.459
302.443
302.423
302.399
302.368
302.328
302.275
302.208
302.126
302.028
301.918
301.802
301.682
301.565
301.455
301.354
301.264
301.186
301.118
301.06
301.011
300.967
300.93
300.896
300.867
302.543
302.53
302.517
302.503
302.489
302.474
302.457
302.439
302.418
302.391
302.358
302.315
302.26
302.191
302.106
302.007
301.898
301.781
301.663
301.547
301.439
301.341
301.254
301.179
301.113
301.056
301.007
300.965
300.927
300.895
302.542
302.53
302.517
302.504
302.49
302.475
302.46
302.443
302.423
302.401
302.373
302.339
302.294
302.238
302.167
302.082
301.984
301.875
301.761
301.644
301.532
301.428
301.333
301.249
301.175
301.111
301.056
301.007
300.964
300.928
302.519
302.508
302.497
302.485
302.473
302.46
302.447
302.432
302.416
302.398
302.375
302.347
302.312
302.267
302.21
302.14
302.056
301.959
301.853
301.742
301.63
301.522
301.421
301.33
301.248
301.176
301.113
301.058
301.009
300.968
302.473
302.465
302.456
302.447
302.438
302.428
302.418
302.407
302.394
302.38
302.362
302.34
302.312
302.277
302.232
302.176
302.108
302.027
301.935
301.833
301.727
301.62
301.516
301.42
301.331
301.252
301.181
301.118
301.063
301.015
302.404
302.399
302.394
302.388
302.382
302.376
302.369
302.362
302.352
302.34
302.326
302.308
302.286
302.259
302.225
302.182
302.131
302.068
301.994
301.908
301.814
301.714
301.613
301.515
301.422
301.336
301.258
301.188
301.126
301.072
302.309
302.308
302.306
302.303
302.3
302.296
302.292
302.286
302.278
302.268
302.256
302.24
302.222
302.2
302.174
302.143
302.107
302.063
302.01
301.944
301.868
301.785
301.694
301.601
301.509
301.422
301.34
301.264
301.196
301.135
302.182
302.183
302.181
302.179
302.177
302.175
302.171
302.165
302.157
302.146
302.131
302.114
302.096
302.076
302.054
302.031
302.008
301.981
301.947
301.904
301.85
301.786
301.715
301.638
301.557
301.476
301.398
301.324
301.254
301.191
301.997
301.987
301.98
301.977
301.975
301.973
301.968
301.96
301.947
301.929
301.908
301.886
301.863
301.839
301.817
301.798
301.784
301.771
301.756
301.734
301.701
301.659
301.609
301.553
301.492
301.43
301.366
301.304
301.244
301.188
301.655
301.618
301.598
301.592
301.593
301.592
301.585
301.572
301.552
301.529
301.505
301.481
301.456
301.432
301.409
301.39
301.376
301.363
301.35
301.335
301.317
301.295
301.27
301.241
301.209
301.175
301.139
301.103
301.066
301.027
300.925
300.911
300.913
300.924
300.935
300.941
300.943
300.938
300.929
300.917
300.903
300.887
300.87
300.853
300.835
300.818
300.805
300.792
300.779
300.764
300.747
300.729
300.709
300.689
300.667
300.644
300.621
300.598
300.575
300.554
301.199
301.169
301.146
301.126
301.109
301.092
301.077
301.063
301.05
301.037
301.024
301.012
300.999
300.985
300.971
300.955
300.937
300.915
300.889
300.855
300.817
300.776
300.737
300.705
300.678
300.658
300.641
300.628
300.614
300.593
301.218
301.182
301.155
301.132
301.113
301.096
301.081
301.066
301.053
301.04
301.027
301.014
301.001
300.988
300.973
300.956
300.937
300.915
300.888
300.857
300.821
300.783
300.747
300.715
300.689
300.667
300.649
300.634
300.619
300.6
301.232
301.196
301.168
301.144
301.124
301.106
301.09
301.075
301.062
301.048
301.035
301.022
301.008
300.993
300.978
300.96
300.94
300.916
300.889
300.859
300.825
300.79
300.756
300.725
300.699
300.677
300.657
300.641
300.625
300.606
301.248
301.214
301.186
301.162
301.142
301.123
301.106
301.09
301.076
301.061
301.047
301.033
301.018
301.002
300.985
300.966
300.944
300.919
300.892
300.862
300.83
300.797
300.765
300.735
300.709
300.686
300.666
300.648
300.631
300.613
301.269
301.238
301.211
301.188
301.166
301.147
301.129
301.112
301.096
301.08
301.064
301.048
301.032
301.015
300.996
300.975
300.951
300.925
300.896
300.866
300.835
300.804
300.773
300.745
300.72
300.697
300.676
300.657
300.639
300.621
301.296
301.27
301.245
301.222
301.2
301.18
301.16
301.141
301.123
301.105
301.087
301.069
301.05
301.031
301.01
300.987
300.961
300.932
300.903
300.872
300.842
300.812
300.782
300.755
300.73
300.707
300.686
300.666
300.647
300.629
301.334
301.311
301.288
301.267
301.245
301.222
301.201
301.179
301.158
301.137
301.117
301.096
301.074
301.052
301.029
301.002
300.974
300.943
300.912
300.88
300.85
300.82
300.792
300.765
300.741
300.718
300.696
300.676
300.656
300.637
301.38
301.362
301.343
301.324
301.302
301.278
301.254
301.228
301.203
301.179
301.154
301.13
301.105
301.079
301.052
301.022
300.99
300.957
300.923
300.891
300.86
300.83
300.803
300.776
300.752
300.729
300.707
300.686
300.666
300.647
301.436
301.426
301.414
301.399
301.377
301.351
301.322
301.291
301.26
301.231
301.201
301.172
301.142
301.112
301.081
301.047
301.012
300.975
300.939
300.904
300.872
300.842
300.814
300.788
300.764
300.741
300.719
300.697
300.676
300.657
301.502
301.501
301.495
301.483
301.463
301.435
301.403
301.367
301.331
301.294
301.258
301.223
301.188
301.153
301.116
301.078
301.038
300.997
300.958
300.921
300.887
300.856
300.827
300.801
300.776
300.753
300.731
300.709
300.688
300.668
301.579
301.582
301.581
301.572
301.555
301.528
301.493
301.454
301.412
301.369
301.327
301.285
301.243
301.201
301.159
301.115
301.07
301.024
300.981
300.941
300.905
300.872
300.842
300.815
300.79
300.766
300.744
300.722
300.7
300.68
301.66
301.667
301.668
301.663
301.649
301.625
301.591
301.549
301.503
301.455
301.405
301.356
301.307
301.258
301.21
301.159
301.108
301.058
301.01
300.966
300.927
300.891
300.86
300.832
300.805
300.781
300.758
300.735
300.713
300.692
301.746
301.753
301.756
301.754
301.743
301.722
301.69
301.649
301.601
301.548
301.493
301.437
301.381
301.325
301.269
301.212
301.154
301.098
301.045
300.997
300.953
300.915
300.881
300.85
300.823
300.797
300.773
300.75
300.727
300.706
301.834
301.842
301.845
301.843
301.834
301.816
301.788
301.749
301.701
301.646
301.587
301.526
301.463
301.4
301.336
301.272
301.208
301.145
301.087
301.033
300.985
300.942
300.905
300.872
300.842
300.815
300.79
300.766
300.742
300.721
301.924
301.93
301.932
301.93
301.922
301.906
301.881
301.846
301.8
301.746
301.685
301.619
301.551
301.482
301.412
301.34
301.269
301.2
301.136
301.076
301.023
300.975
300.934
300.898
300.865
300.836
300.809
300.783
300.759
300.737
302.013
302.017
302.017
302.014
302.006
301.991
301.968
301.936
301.894
301.842
301.782
301.715
301.643
301.57
301.494
301.416
301.339
301.263
301.192
301.127
301.067
301.014
300.968
300.928
300.892
300.86
300.831
300.804
300.778
300.755
302.098
302.1
302.098
302.093
302.084
302.069
302.048
302.019
301.98
301.932
301.875
301.809
301.736
301.66
301.58
301.498
301.415
301.334
301.257
301.185
301.119
301.06
301.008
300.963
300.923
300.888
300.856
300.826
300.799
300.775
302.176
302.175
302.171
302.165
302.154
302.139
302.119
302.092
302.057
302.013
301.959
301.896
301.825
301.749
301.668
301.584
301.498
301.412
301.329
301.251
301.178
301.113
301.056
301.005
300.96
300.921
300.885
300.853
300.823
300.797
302.242
302.24
302.235
302.226
302.215
302.199
302.179
302.154
302.121
302.081
302.033
301.974
301.908
301.834
301.754
301.67
301.583
301.494
301.407
301.324
301.246
301.174
301.11
301.054
301.004
300.959
300.92
300.884
300.851
300.823
302.295
302.291
302.284
302.275
302.263
302.247
302.227
302.203
302.174
302.137
302.093
302.041
301.98
301.911
301.835
301.754
301.668
301.58
301.49
301.403
301.32
301.243
301.173
301.111
301.055
301.005
300.96
300.92
300.884
300.852
302.328
302.324
302.317
302.308
302.296
302.28
302.262
302.239
302.212
302.18
302.141
302.094
302.04
301.978
301.908
301.832
301.751
301.665
301.577
301.488
301.402
301.32
301.245
301.176
301.114
301.058
301.008
300.962
300.922
300.887
302.341
302.337
302.331
302.322
302.311
302.297
302.28
302.259
302.236
302.207
302.173
302.132
302.085
302.03
301.969
301.901
301.827
301.747
301.663
301.576
301.489
301.404
301.324
301.25
301.182
301.12
301.063
301.012
300.966
300.926
302.329
302.326
302.322
302.316
302.307
302.295
302.281
302.263
302.242
302.217
302.187
302.152
302.111
302.064
302.011
301.952
301.888
301.818
301.742
301.661
301.577
301.493
301.41
301.332
301.258
301.19
301.127
301.07
301.018
300.973
302.292
302.291
302.289
302.285
302.279
302.271
302.259
302.245
302.227
302.205
302.179
302.148
302.112
302.071
302.025
301.974
301.92
301.863
301.799
301.73
301.655
301.577
301.497
301.418
301.341
301.267
301.199
301.135
301.077
301.026
302.227
302.229
302.23
302.228
302.225
302.218
302.209
302.197
302.182
302.162
302.138
302.109
302.076
302.038
301.996
301.951
301.906
301.861
301.813
301.76
301.702
301.638
301.568
301.494
301.419
301.345
301.273
301.205
301.142
301.085
302.131
302.135
302.136
302.135
302.132
302.127
302.12
302.109
302.094
302.074
302.05
302.02
301.987
301.948
301.906
301.863
301.824
301.789
301.756
301.723
301.685
301.64
301.59
301.533
301.469
301.403
301.335
301.267
301.202
301.142
301.993
301.992
301.989
301.985
301.982
301.977
301.969
301.959
301.943
301.921
301.894
301.861
301.823
301.78
301.735
301.689
301.653
301.623
301.602
301.585
301.568
301.548
301.523
301.489
301.446
301.398
301.344
301.287
301.229
301.173
301.783
301.768
301.754
301.744
301.738
301.735
301.73
301.72
301.702
301.677
301.646
301.611
301.573
301.531
301.485
301.44
301.406
301.379
301.361
301.349
301.339
301.329
301.319
301.309
301.295
301.276
301.245
301.207
301.166
301.123
301.432
301.403
301.385
301.377
301.378
301.379
301.377
301.369
301.354
301.332
301.304
301.273
301.238
301.198
301.156
301.113
301.08
301.054
301.036
301.023
301.015
301.008
301.002
300.996
300.989
300.979
300.971
300.958
300.941
300.918
300.846
300.841
300.846
300.859
300.875
300.89
300.899
300.903
300.9
300.89
300.875
300.854
300.829
300.799
300.764
300.728
300.699
300.674
300.654
300.639
300.627
300.616
300.607
300.598
300.59
300.579
300.568
300.554
300.539
300.523
301.184
301.15
301.125
301.104
301.085
301.068
301.053
301.038
301.024
301.011
300.998
300.985
300.971
300.958
300.943
300.925
300.905
300.88
300.847
300.807
300.762
300.721
300.688
300.662
300.644
300.63
300.619
300.609
300.599
300.586
301.189
301.149
301.12
301.097
301.077
301.061
301.046
301.032
301.02
301.007
300.995
300.983
300.97
300.956
300.941
300.923
300.902
300.877
300.845
300.808
300.768
300.731
300.699
300.674
300.655
300.64
300.627
300.616
300.604
300.59
301.189
301.151
301.122
301.099
301.08
301.064
301.049
301.036
301.023
301.011
300.999
300.986
300.973
300.959
300.942
300.923
300.901
300.875
300.845
300.81
300.774
300.739
300.71
300.685
300.666
300.65
300.635
300.622
300.609
300.594
301.191
301.157
301.13
301.108
301.089
301.073
301.058
301.045
301.032
301.019
301.007
300.994
300.98
300.964
300.947
300.926
300.903
300.875
300.845
300.812
300.779
300.747
300.719
300.696
300.676
300.659
300.644
300.63
300.615
300.599
301.199
301.169
301.144
301.124
301.105
301.089
301.074
301.06
301.046
301.033
301.019
301.005
300.99
300.974
300.955
300.932
300.907
300.878
300.847
300.816
300.785
300.756
300.729
300.707
300.687
300.67
300.654
300.638
300.622
300.605
301.214
301.188
301.166
301.147
301.129
301.113
301.097
301.082
301.067
301.052
301.037
301.022
301.005
300.987
300.966
300.941
300.913
300.883
300.852
300.822
300.792
300.765
300.74
300.718
300.698
300.68
300.663
300.647
300.63
300.612
301.236
301.216
301.197
301.179
301.161
301.144
301.127
301.11
301.094
301.077
301.061
301.043
301.025
301.004
300.981
300.953
300.923
300.891
300.86
300.829
300.801
300.774
300.751
300.729
300.71
300.692
300.674
300.656
300.638
300.62
301.269
301.253
301.237
301.22
301.202
301.184
301.165
301.147
301.128
301.11
301.091
301.071
301.05
301.026
301
300.969
300.936
300.902
300.87
300.839
300.811
300.785
300.762
300.741
300.722
300.703
300.685
300.666
300.647
300.628
301.311
301.3
301.286
301.271
301.253
301.234
301.213
301.192
301.171
301.15
301.128
301.105
301.081
301.054
301.024
300.99
300.954
300.917
300.883
300.852
300.824
300.798
300.775
300.754
300.735
300.715
300.696
300.677
300.657
300.637
301.364
301.357
301.347
301.333
301.315
301.295
301.272
301.248
301.223
301.198
301.173
301.146
301.118
301.088
301.054
301.016
300.976
300.937
300.9
300.868
300.839
300.813
300.79
300.768
300.748
300.728
300.708
300.688
300.667
300.648
301.426
301.424
301.416
301.404
301.386
301.365
301.34
301.313
301.285
301.256
301.226
301.195
301.163
301.128
301.09
301.048
301.004
300.961
300.922
300.888
300.857
300.83
300.806
300.784
300.763
300.742
300.722
300.701
300.679
300.659
301.498
301.499
301.493
301.482
301.465
301.443
301.416
301.387
301.355
301.322
301.288
301.253
301.215
301.175
301.132
301.085
301.037
300.991
300.949
300.912
300.879
300.851
300.825
300.801
300.779
300.758
300.736
300.714
300.692
300.671
301.575
301.578
301.574
301.565
301.549
301.527
301.499
301.468
301.433
301.396
301.358
301.318
301.275
301.23
301.182
301.13
301.078
301.028
300.983
300.942
300.907
300.875
300.847
300.822
300.798
300.775
300.752
300.729
300.706
300.685
301.656
301.662
301.659
301.651
301.636
301.614
301.587
301.554
301.517
301.477
301.434
301.39
301.343
301.292
301.239
301.182
301.125
301.071
301.022
300.978
300.939
300.904
300.873
300.845
300.819
300.794
300.77
300.747
300.723
300.701
301.741
301.748
301.746
301.739
301.724
301.703
301.676
301.643
301.604
301.562
301.516
301.467
301.416
301.361
301.302
301.241
301.181
301.123
301.069
301.021
300.977
300.939
300.904
300.873
300.844
300.817
300.791
300.766
300.741
300.718
301.827
301.834
301.833
301.826
301.812
301.792
301.765
301.731
301.693
301.649
301.601
301.549
301.493
301.435
301.372
301.307
301.243
301.181
301.124
301.071
301.022
300.979
300.941
300.906
300.874
300.844
300.816
300.788
300.761
300.737
301.911
301.918
301.917
301.91
301.897
301.877
301.85
301.818
301.779
301.735
301.685
301.631
301.573
301.512
301.447
301.379
301.311
301.246
301.185
301.127
301.075
301.027
300.984
300.945
300.909
300.875
300.844
300.814
300.784
300.758
301.989
301.996
301.995
301.988
301.975
301.956
301.93
301.898
301.861
301.817
301.767
301.713
301.653
301.591
301.524
301.455
301.386
301.318
301.253
301.191
301.134
301.082
301.034
300.99
300.95
300.912
300.877
300.843
300.811
300.783
302.057
302.064
302.063
302.057
302.045
302.026
302.002
301.971
301.935
301.892
301.844
301.79
301.731
301.668
301.602
301.533
301.463
301.394
301.327
301.262
301.201
301.144
301.092
301.043
300.997
300.955
300.915
300.877
300.842
300.811
302.112
302.118
302.119
302.113
302.102
302.085
302.062
302.033
301.999
301.958
301.912
301.86
301.804
301.743
301.678
301.611
301.543
301.474
301.405
301.339
301.274
301.214
301.157
301.103
301.052
301.004
300.959
300.917
300.877
300.843
302.149
302.156
302.157
302.153
302.144
302.129
302.108
302.082
302.05
302.012
301.969
301.921
301.868
301.811
301.749
301.685
301.62
301.553
301.485
301.419
301.353
301.29
301.229
301.17
301.114
301.06
301.01
300.962
300.918
300.88
302.165
302.173
302.176
302.174
302.168
302.155
302.137
302.114
302.086
302.052
302.012
301.968
301.92
301.866
301.809
301.749
301.687
301.625
301.561
301.497
301.432
301.368
301.305
301.243
301.182
301.123
301.067
301.014
300.965
300.922
302.159
302.167
302.173
302.174
302.171
302.161
302.147
302.127
302.102
302.072
302.036
301.996
301.952
301.902
301.849
301.792
301.733
301.675
301.618
301.56
301.502
301.442
301.38
301.317
301.254
301.191
301.13
301.072
301.017
300.969
302.126
302.137
302.145
302.149
302.149
302.143
302.132
302.116
302.094
302.067
302.036
301.998
301.955
301.907
301.854
301.796
301.738
301.684
301.635
301.589
301.543
301.494
301.441
301.383
301.322
301.258
301.195
301.133
301.074
301.021
302.066
302.079
302.089
302.095
302.097
302.094
302.085
302.071
302.052
302.027
301.996
301.959
301.915
301.864
301.807
301.742
301.681
301.629
301.588
301.556
301.527
301.497
301.463
301.42
301.37
301.313
301.253
301.191
301.13
301.075
301.972
301.986
301.996
302.001
302.003
302.001
301.993
301.98
301.962
301.937
301.905
301.865
301.818
301.759
301.696
301.624
301.56
301.51
301.474
301.452
301.437
301.426
301.415
301.398
301.369
301.331
301.283
301.229
301.173
301.119
301.834
301.842
301.846
301.848
301.848
301.845
301.839
301.827
301.809
301.783
301.749
301.705
301.653
301.592
301.524
301.446
301.382
301.332
301.301
301.285
301.28
301.28
301.284
301.287
301.286
301.275
301.249
301.214
301.17
301.125
301.621
301.617
301.612
301.608
301.607
301.607
301.605
301.597
301.581
301.554
301.519
301.476
301.426
301.365
301.296
301.216
301.153
301.105
301.076
301.063
301.06
301.066
301.076
301.089
301.101
301.109
301.112
301.102
301.079
301.048
301.28
301.271
301.266
301.268
301.274
301.281
301.286
301.284
301.274
301.254
301.225
301.188
301.143
301.086
301.02
300.944
300.885
300.841
300.813
300.798
300.795
300.798
300.807
300.819
300.831
300.842
300.849
300.852
300.848
300.836
300.791
300.799
300.813
300.832
300.855
300.876
300.893
300.903
300.905
300.898
300.881
300.856
300.821
300.775
300.718
300.653
300.603
300.563
300.537
300.521
300.512
300.509
300.511
300.515
300.52
300.524
300.525
300.522
300.515
300.504
301.177
301.138
301.11
301.087
301.067
301.049
301.032
301.017
301.002
300.988
300.975
300.962
300.948
300.934
300.918
300.9
300.878
300.848
300.809
300.762
300.716
300.68
300.654
300.635
300.623
300.613
300.606
300.599
300.59
300.579
301.172
301.124
301.092
301.068
301.048
301.032
301.017
301.003
300.991
300.979
300.967
300.955
300.942
300.928
300.913
300.894
300.871
300.842
300.806
300.764
300.724
300.691
300.666
300.649
300.635
300.625
300.616
300.606
300.596
300.583
301.156
301.112
301.081
301.059
301.041
301.026
301.012
301
300.989
300.977
300.966
300.954
300.941
300.927
300.911
300.891
300.867
300.838
300.804
300.766
300.731
300.701
300.678
300.661
300.647
300.636
300.625
300.614
300.602
300.587
301.144
301.107
301.081
301.061
301.044
301.029
301.016
301.004
300.993
300.982
300.97
300.958
300.944
300.929
300.912
300.89
300.865
300.836
300.803
300.769
300.738
300.711
300.689
300.673