/*--------------------------------*- C++ -*----------------------------------*\
  =========                 |
  \\      /  F ield         | OpenFOAM: The Open Source CFD Toolbox
   \\    /   O peration     | Website:  https://openfoam.org
    \\  /    A nd           | Version:  12
     \\/     M anipulation  |
\*---------------------------------------------------------------------------*/
FoamFile
{
    format      ascii;
    class       volScalarField;
    location    "650/air";
    object      alphat;
}
// * * * * * * * * * * * * * * * * * * * * * * * * * * * * * * * * * * * * * //

dimensions      [1 -1 -1 0 0 0 0];

internalField   nonuniform List<scalar> 
243000
(
0.000216938
0.00021655
0.000210529
0.000202563
0.000193216
0.000183228
0.000173163
0.000163456
0.000154403
0.000146297
0.000139351
0.000133836
0.000129944
0.000127687
0.000126387
0.000125347
0.000124156
0.00012268
0.000120889
0.000118784
0.000116484
0.00011369
0.000107792
9.58689e-05
0.000100611
0.000119174
0.000130721
0.000144182
0.000157655
0.000172449
0.000807198
0.000816176
0.000789805
0.000754079
0.000714585
0.000674064
0.000634343
0.000596615
0.000561713
0.000530254
0.00050263
0.000479258
0.000459961
0.000443907
0.000429491
0.000416548
0.000405361
0.000396139
0.000388475
0.000381884
0.000375838
0.000369633
0.000358053
0.000333461
0.000353625
0.000440569
0.000494629
0.000548061
0.000607147
0.000676399
0.00104481
0.00110225
0.00111183
0.00110302
0.00108445
0.00105951
0.00103058
0.000999527
0.000967703
0.000936292
0.000906215
0.000878563
0.000853068
0.000828084
0.000801098
0.000772881
0.000745115
0.000719176
0.000694752
0.000671131
0.000647037
0.000620852
0.000587456
0.000536966
0.000526062
0.000644943
0.000717009
0.000771498
0.000825754
0.000887663
0.00109903
0.00115969
0.00117417
0.00116764
0.00115082
0.00112712
0.00109896
0.00106823
0.00103633
0.00100445
0.000973583
0.000944929
0.000918174
0.000891283
0.000861564
0.000830008
0.000798659
0.00076934
0.000741943
0.000715772
0.000689249
0.000659954
0.00062521
0.000575363
0.000542774
0.000655232
0.000745464
0.000810282
0.000871738
0.00094076
0.00113163
0.00119437
0.00121293
0.00120916
0.00119498
0.00117361
0.00114736
0.00111811
0.00108723
0.00105593
0.00102531
0.000996721
0.000969839
0.000942315
0.000911252
0.000877776
0.000844114
0.000812383
0.00078272
0.00075451
0.000726036
0.000694171
0.000658013
0.0006088
0.000564261
0.000642111
0.00075973
0.000833579
0.000900741
0.000975641
0.00115111
0.00121373
0.0012361
0.00123529
0.00122417
0.0012057
0.00118198
0.00115481
0.00112556
0.00109547
0.00106571
0.00103783
0.00101147
0.000984053
0.000952461
0.00091794
0.000882881
0.000849472
0.000818151
0.000788421
0.000758504
0.000724695
0.000687397
0.000638916
0.000587436
0.00061747
0.000762615
0.000846584
0.000919476
0.000999702
0.00116124
0.00122089
0.00124798
0.00125049
0.00124266
0.00122739
0.00120652
0.00118178
0.00115451
0.001126
0.00109752
0.00107073
0.0010453
0.00101845
0.000986847
0.000951889
0.000916059
0.000881544
0.000849072
0.000818274
0.000787328
0.000752096
0.000714109
0.000666465
0.000611114
0.000598179
0.000755414
0.00085243
0.00093226
0.00101504
0.00116325
0.00121982
0.00125071
0.00125743
0.00125319
0.00124126
0.00122342
0.00120128
0.00117619
0.0011495
0.00112256
0.0010971
0.00107286
0.00104685
0.00101562
0.00098066
0.000944522
0.000909364
0.000876152
0.000844663
0.000813011
0.000776962
0.000738588
0.000691753
0.000635048
0.000602928
0.000734062
0.000853224
0.000938691
0.00102278
0.00115934
0.00121363
0.00124724
0.00125808
0.00125757
0.00124909
0.00123433
0.00121486
0.00119206
0.00116733
0.00114211
0.00111816
0.00109525
0.00107026
0.00103966
0.00100504
0.000968939
0.000933551
0.000899942
0.000868059
0.000835943
0.00079957
0.000761093
0.000715001
0.000658316
0.000614251
0.00070744
0.000849669
0.000940676
0.00102457
0.00115079
0.0012035
0.00123929
0.00125425
0.00125753
0.00125221
0.00124038
0.00122363
0.00120316
0.00118048
0.0011571
0.00113478
0.0011133
0.0010894
0.00105965
0.00102563
0.000989859
0.000954583
0.000920876
0.000888847
0.000856441
0.000820123
0.00078181
0.00073645
0.00068048
0.000627987
0.000682889
0.000842007
0.000938341
0.00102045
0.00113814
0.00119017
0.00122785
0.00124694
0.00125373
0.00125197
0.00124286
0.00122847
0.00121026
0.00118969
0.00116822
0.00114761
0.00112761
0.00110485
0.0010761
0.0010429
0.00100772
0.000972828
0.000939322
0.000907347
0.000874793
0.000838815
0.000800892
0.000756311
0.000701468
0.000644306
0.000666096
0.000831577
0.000931548
0.00101135
0.00112178
0.00117411
0.00121377
0.00123667
0.00124698
0.00124851
0.00124256
0.00123042
0.00121417
0.00119555
0.00117602
0.00115716
0.00113862
0.00111704
0.00108942
0.00105724
0.00102289
0.000988617
0.000955558
0.000923831
0.000891247
0.000855837
0.000818481
0.000774717
0.000721114
0.00066131
0.000653616
0.000818352
0.000921566
0.000999679
0.00110225
0.00115568
0.00119756
0.00122395
0.00123785
0.00124246
0.00123941
0.00122994
0.00121561
0.00119868
0.00118095
0.00116382
0.00114671
0.00112636
0.00109996
0.00106897
0.00103566
0.00100223
0.00096981
0.000938534
0.000906043
0.000871371
0.000834708
0.00079187
0.000739569
0.00067866
0.000646497
0.000802451
0.00091063
0.000990126
0.00108151
0.00113529
0.00117952
0.00120916
0.00122674
0.00123425
0.001234
0.00122692
0.00121485
0.00119969
0.00118346
0.00116793
0.00115222
0.00113309
0.00110801
0.00107837
0.0010463
0.00101392
0.000982316
0.000951636
0.000919387
0.000885601
0.000849738
0.000807952
0.000756945
0.000696296
0.000654347
0.000779226
0.000898741
0.000979702
0.00106106
0.00111427
0.00116001
0.00119276
0.00121377
0.00122421
0.00122657
0.00122184
0.00121174
0.00119863
0.00118407
0.00116981
0.0011554
0.00113752
0.00111384
0.00108569
0.00105504
0.00102389
0.00099329
0.000963354
0.000931492
0.000898707
0.000863756
0.000823011
0.000773303
0.000713328
0.000663828
0.000757248
0.000886222
0.000968529
0.00104053
0.00109408
0.00113963
0.00117504
0.0011992
0.00121258
0.00121735
0.00121489
0.00120675
0.00119543
0.00118268
0.00116995
0.00115659
0.0011399
0.0011177
0.00109118
0.0010621
0.00103236
0.00100294
0.000973887
0.000942571
0.000910898
0.000876935
0.000837232
0.000788773
0.000729794
0.000674633
0.000737507
0.00087325
0.000957144
0.00101959
0.00107437
0.00112045
0.00115638
0.00118325
0.00119956
0.00120654
0.00120625
0.00120004
0.00119051
0.0011794
0.00116814
0.00115605
0.00114056
0.00111984
0.00109505
0.00106771
0.00103953
0.00101146
0.000983418
0.000952835
0.000922376
0.000889447
0.000850774
0.00080351
0.000745669
0.000686493
0.000720039
0.000860022
0.000945612
0.000998019
0.00105491
0.00110195
0.00113799
0.00116625
0.00118527
0.00119437
0.0011961
0.00119179
0.00118404
0.00117454
0.00116472
0.00115381
0.0011396
0.00112049
0.00109755
0.00107207
0.0010456
0.00101901
0.000992111
0.000962536
0.000933322
0.000901446
0.000863815
0.000817695
0.000761033
0.000699502
0.000705832
0.000846678
0.000933974
0.000975586
0.00103554
0.00108391
0.00112038
0.00114857
0.00116988
0.00118102
0.0011846
0.00118215
0.00117616
0.00116826
0.00115988
0.00115017
0.0011373
0.00111988
0.00109888
0.00107539
0.00105076
0.00102575
0.00100011
0.000971873
0.000943837
0.000913053
0.000876507
0.000831528
0.000776032
0.000713304
0.000695952
0.000833377
0.000922282
0.000952066
0.00101618
0.00106621
0.00110335
0.00113156
0.00115358
0.00116663
0.0011719
0.00117125
0.00116698
0.00116071
0.00115376
0.00114528
0.00113383
0.00111818
0.00109923
0.00107784
0.00105516
0.00103178
0.0010075
0.000980757
0.000953978
0.00092439
0.00088901
0.00084521
0.000790867
0.000727666
0.000691664
0.000820058
0.000910627
0.000927246
0.000996825
0.00104884
0.00108678
0.00111515
0.00113691
0.00115127
0.00115807
0.00115913
0.00115659
0.00115193
0.00114643
0.00113925
0.00112931
0.00111553
0.00109873
0.00107953
0.00105884
0.00103716
0.00101432
0.000989212
0.000963817
0.000935563
0.0009015
0.000858952
0.000805753
0.000742524
0.000697387
0.000804708
0.000899083
0.000899422
0.000977604
0.00103183
0.00107062
0.00109926
0.00112084
0.00113516
0.00114316
0.00114577
0.00114495
0.00114189
0.00113785
0.00113205
0.00112372
0.0011119
0.00109732
0.00108034
0.0010617
0.00104176
0.00102043
0.000997246
0.000973436
0.000946687
0.000914132
0.000872927
0.000820881
0.00075787
0.000705961
0.000790562
0.000887887
0.000869716
0.00095884
0.00101531
0.00105489
0.0010838
0.00110528
0.00111979
0.00112781
0.00113129
0.00113205
0.00113052
0.00112789
0.00112351
0.00111684
0.00110705
0.00109472
0.00107994
0.00106346
0.00104537
0.00102568
0.00100497
0.000983031
0.000957994
0.000927134
0.000887407
0.000836463
0.000773718
0.000716491
0.000779238
0.000877525
0.00084079
0.000941074
0.000999442
0.00103957
0.00106867
0.00109021
0.00110521
0.00111347
0.00111747
0.00111899
0.00111846
0.00111677
0.00111357
0.00110855
0.00110076
0.0010907
0.00107824
0.00106421
0.00104867
0.0010316
0.0010133
0.000993325
0.000970113
0.000941077
0.00090299
0.000853012
0.000790351
0.000729356
0.000771768
0.000868735
0.000816829
0.000925075
0.000984481
0.00102481
0.00105411
0.00107589
0.00109149
0.00110021
0.00110497
0.00110748
0.00110817
0.00110768
0.0011058
0.00110228
0.0010966
0.00108892
0.00107921
0.00106779
0.00105473
0.00104009
0.00102397
0.00100588
0.000984454
0.000957221
0.000920731
0.00087176
0.000808704
0.000744475
0.000769734
0.000862338
0.000802808
0.000912237
0.000971454
0.00101153
0.00104077
0.00106282
0.00107919
0.00108864
0.00109457
0.00109848
0.00110078
0.00110194
0.00110192
0.00110053
0.00109743
0.00109256
0.00108581
0.0010772
0.00106673
0.00105446
0.00104035
0.00102396
0.00100406
0.000978273
0.000943113
0.000894734
0.000830806
0.000762807
0.000774605
0.000859989
0.000803201
0.000905416
0.000962786
0.0010021
0.00103112
0.00105352
0.00107107
0.00108207
0.00108997
0.00109619
0.00110105
0.00110497
0.00110798
0.00110988
0.00111033
0.00110905
0.00110572
0.00110018
0.00109228
0.0010821
0.00106954
0.00105422
0.00103508
0.00101005
0.000975523
0.000927081
0.000861228
0.000788491
0.000789558
0.000865014
0.00083237
0.000916957
0.000970131
0.0010083
0.00103784
0.00106143
0.00108132
0.00109577
0.00110758
0.00111806
0.00112755
0.00113652
0.00114478
0.00115183
0.0011571
0.00115983
0.00115973
0.00115649
0.00114999
0.00114051
0.00112803
0.00111219
0.00109225
0.0010665
0.00103169
0.000982996
0.000915172
0.000836966
0.000831286
0.000890127
0.000957396
0.00101736
0.00106286
0.00109871
0.00112869
0.00115341
0.00117564
0.00119526
0.00121285
0.00122876
0.00124387
0.0012597
0.00127445
0.00128671
0.00129552
0.00130016
0.00130068
0.00129697
0.00128918
0.00127808
0.00126382
0.00124546
0.00122322
0.00119638
0.00116251
0.00111786
0.00105782
0.000986065
0.00097315
0.00100717
0.00143483
0.00146014
0.00148295
0.00150223
0.00151922
0.00152769
0.00153461
0.00154396
0.00155423
0.00156174
0.00157006
0.00158412
0.00159683
0.00160523
0.00160906
0.00160958
0.00160675
0.00160127
0.00159341
0.00158519
0.00157658
0.0015628
0.00154852
0.00153471
0.00151949
0.00150143
0.0014773
0.00145048
0.00144477
0.00145635
0.000259118
0.000267368
0.000262855
0.000254429
0.000243613
0.000231541
0.000219012
0.00020662
0.000194756
0.000183721
0.000173674
0.000164878
0.000157509
0.000151411
0.000145499
0.000139085
0.000132012
0.00012447
0.000116491
0.000107954
9.85272e-05
9.07762e-05
8.58893e-05
8.91724e-05
0.000104816
0.000120298
0.000128857
0.00014115
0.000159106
0.000186213
0.00111658
0.00126232
0.00121407
0.00112253
0.00102168
0.000924105
0.000836755
0.000760156
0.000692637
0.000632253
0.000577328
0.000527733
0.000477678
0.000423628
0.000371424
0.000332867
0.000309506
0.000299459
0.000296931
0.00029758
0.000297923
0.000299433
0.000281779
0.000274992
0.000423875
0.000581574
0.000720677
0.000798828
0.00087629
0.000917883
0.00187313
0.00218422
0.00217958
0.00205984
0.00190488
0.00174316
0.00159153
0.00145404
0.00132974
0.00121671
0.00111284
0.00101762
0.000920117
0.000813137
0.000711102
0.000636252
0.000590418
0.00056902
0.000561392
0.000560279
0.000558966
0.000556521
0.000516988
0.00046618
0.0006055
0.000835524
0.00111585
0.00134446
0.00151823
0.00158444
0.00247754
0.00288937
0.00293974
0.00282369
0.00265105
0.00245788
0.00226823
0.00208933
0.00192261
0.00176863
0.00162567
0.00148928
0.0013472
0.0011952
0.00105356
0.000949478
0.000883606
0.000850066
0.000835222
0.000829839
0.000824443
0.000814417
0.000737015
0.000622468
0.000685142
0.000924419
0.001317
0.00171978
0.00202931
0.00213482
0.00293348
0.00343685
0.00351962
0.0034217
0.00325084
0.00304815
0.0028401
0.00263635
0.00244106
0.00225682
0.00208075
0.00191175
0.00173552
0.00154809
0.00137588
0.0012498
0.00116731
0.00112252
0.00110087
0.00109211
0.00108428
0.00106883
0.000954073
0.000773071
0.000742004
0.000958044
0.00143909
0.00197256
0.00241508
0.00258857
0.00330312
0.00382379
0.00395566
0.00388293
0.00372504
0.00352788
0.00331446
0.0030981
0.00288501
0.00267814
0.00247911
0.00228613
0.0020829
0.00186959
0.00167522
0.00153261
0.00143683
0.0013816
0.00135378
0.00134335
0.00133585
0.00131737
0.00117015
0.000930644
0.000816251
0.000953538
0.00149976
0.00216105
0.00272645
0.00296973
0.00359232
0.00407467
0.00425518
0.00423163
0.00409557
0.00391412
0.00370428
0.00348402
0.00326114
0.00304
0.00282398
0.0026156
0.00239324
0.0021626
0.00195322
0.00179828
0.00169163
0.0016266
0.00159324
0.00158271
0.00157878
0.00155801
0.00138316
0.00109595
0.000907198
0.000969596
0.00151699
0.00228422
0.00296745
0.00329055
0.00379576
0.0042518
0.00445259
0.00447466
0.0043815
0.00422185
0.00402259
0.00380388
0.00357737
0.00335044
0.00312266
0.00290384
0.00267128
0.0024301
0.00221184
0.00204779
0.00193213
0.00185793
0.00181959
0.00180994
0.00181435
0.00178856
0.00158998
0.00126517
0.00101111
0.00101567
0.00150286
0.00235664
0.00313584
0.00355465
0.00394994
0.00438337
0.0045974
0.00464987
0.00459537
0.00446425
0.00428032
0.00406632
0.00384102
0.00361273
0.00338254
0.00315438
0.00292009
0.00267528
0.0024527
0.00228196
0.00215877
0.00207624
0.00203356
0.00202527
0.00204014
0.00200689
0.00178769
0.00143338
0.0011253
0.00107398
0.00147568
0.00239149
0.00324671
0.00376616
0.00407091
0.00447597
0.0046978
0.00477818
0.00475633
0.00465572
0.00448601
0.00427816
0.00405791
0.00383245
0.0036056
0.0033771
0.00313988
0.0028989
0.00267669
0.00250135
0.00237164
0.00228252
0.002236
0.00222953
0.00225476
0.00221171
0.00197419
0.00159649
0.00124486
0.00113676
0.00145736
0.00239965
0.00331198
0.00393652
0.00415279
0.00453201
0.004761
0.00486722
0.00487391
0.004802
0.00465977
0.00445494
0.00423471
0.00401499
0.00379511
0.00357283
0.00334008
0.00310243
0.0028841
0.00270625
0.00257134
0.00247719
0.00242762
0.00242419
0.002458
0.00240245
0.0021481
0.0017519
0.00136573
0.00120406
0.00146067
0.00238271
0.00334814
0.00407288
0.00418743
0.0045524
0.00479203
0.00492112
0.00495493
0.00490877
0.00479504
0.00460761
0.00438687
0.00416768
0.00395617
0.00374377
0.00352071
0.00329152
0.00307704
0.0028982
0.00275832
0.00266091
0.00260919
0.00261162
0.00265001
0.00257915
0.00230857
0.00189796
0.00148626
0.00127368
0.00147197
0.00234469
0.00335888
0.00417776
0.00416719
0.00453724
0.00479445
0.00494538
0.00500503
0.00498409
0.0048963
0.00473104
0.00452063
0.00430159
0.0040932
0.00389311
0.00368333
0.00346498
0.00325569
0.00307708
0.00293439
0.0028347
0.00278184
0.00279239
0.00283079
0.0027423
0.00245522
0.00203563
0.00160595
0.00134381
0.00148932
0.00229368
0.0033254
0.00419269
0.00408251
0.00448438
0.00477061
0.00494451
0.0050289
0.00503222
0.00496727
0.0048232
0.00462827
0.00442171
0.0042161
0.00402363
0.00382988
0.0036238
0.003421
0.00324381
0.00310075
0.00299967
0.00294704
0.00296557
0.00300036
0.00289283
0.00258986
0.00216404
0.00171864
0.00141323
0.00150675
0.00223599
0.00326273
0.00415583
0.00393138
0.00439315
0.00472095
0.00492306
0.00503069
0.00505703
0.0050125
0.0048927
0.00470817
0.0045196
0.00432835
0.00414198
0.00396248
0.00376933
0.00357407
0.00339983
0.0032585
0.00315682
0.00310664
0.00313132
0.0031589
0.00303207
0.00271441
0.00228113
0.00182329
0.00147971
0.00152564
0.00217463
0.00317973
0.00408364
0.00373704
0.00425442
0.00464545
0.00488454
0.00501441
0.00506223
0.0050365
0.00494136
0.00477225
0.00459556
0.0044245
0.0042511
0.00408371
0.00390338
0.00371635
0.0035465
0.00340834
0.00330698
0.00326288
0.00328966
0.0033064
0.00316141
0.00283113
0.00238966
0.00192206
0.00154937
0.00154205
0.0021132
0.00308386
0.00398568
0.00351879
0.00408579
0.00453477
0.00482809
0.00498437
0.00505193
0.00504469
0.00497183
0.00482291
0.00466031
0.0045053
0.00435175
0.00419778
0.00402815
0.00384981
0.00368509
0.00354972
0.00345085
0.00341586
0.00343888
0.00344241
0.00328165
0.002942
0.0024923
0.00201623
0.00162173
0.00156136
0.0020543
0.00298204
0.00387215
0.00329259
0.00390131
0.0044023
0.00475414
0.0049439
0.00503051
0.0050412
0.00498857
0.00486304
0.00471694
0.0045779
0.00444475
0.00430492
0.00414539
0.00397603
0.00381821
0.00368565
0.00358969
0.00356112
0.00357565
0.00356447
0.00339185
0.00304767
0.0025941
0.00210747
0.00169614
0.00158129
0.00200396
0.00288068
0.00375151
0.00307075
0.0037124
0.00425805
0.00465994
0.00489743
0.00500305
0.00503062
0.00499634
0.00489614
0.00476821
0.00464532
0.00453436
0.00440394
0.00425602
0.00409472
0.00394295
0.00381437
0.00372231
0.003692
0.00369465
0.00366704
0.0034882
0.00314596
0.00269254
0.0021997
0.00177301
0.00160756
0.00196765
0.0027853
0.00363077
0.00286252
0.0035286
0.00411078
0.00455493
0.00483771
0.00497379
0.00501808
0.00500035
0.00492474
0.00481739
0.00471706
0.00461497
0.00449618
0.00435687
0.00420373
0.00405641
0.00393015
0.00383852
0.00379813
0.00378484
0.0037404
0.00356157
0.00323058
0.00278403
0.00229361
0.00185317
0.0016493
0.00194592
0.00270016
0.00351573
0.00267518
0.00335872
0.003969
0.00444514
0.00476627
0.00494644
0.00500927
0.00500664
0.00494993
0.00486659
0.00477898
0.00468664
0.00457612
0.00444272
0.00429347
0.00414705
0.00401931
0.00391832
0.0038616
0.0038292
0.00376927
0.00359745
0.00328988
0.00286186
0.00238627
0.00193882
0.00170594
0.00195075
0.00262983
0.00341074
0.00251609
0.00321292
0.00383872
0.00433672
0.00468807
0.00490574
0.00500137
0.00501355
0.00497363
0.00490351
0.00482539
0.00473589
0.00462596
0.00449346
0.00434267
0.00419135
0.00404977
0.00393257
0.00385682
0.00380495
0.00373379
0.00357729
0.00330637
0.00291516
0.0024622
0.00202546
0.00176484
0.00198678
0.00258064
0.00331955
0.00239383
0.00309824
0.00372357
0.00423487
0.00460497
0.00482997
0.00494543
0.00499721
0.00497334
0.00491022
0.00483206
0.00473472
0.00461409
0.00447086
0.00431015
0.00414336
0.00398239
0.00384872
0.00375552
0.00368912
0.00361515
0.00348385
0.00326359
0.00293055
0.00251271
0.0021
0.00182988
0.00203666
0.00256255
0.00324404
0.00231825
0.00301306
0.00362349
0.00410848
0.00445499
0.00469645
0.00484862
0.00490756
0.00488561
0.00482213
0.0047348
0.00462527
0.00448506
0.00432161
0.00414068
0.00395926
0.00378888
0.00364851
0.00354623
0.00347513
0.00341054
0.00331492
0.00315641
0.00289867
0.00253123
0.00215596
0.00189854
0.00209015
0.00257238
0.0032061
0.00228719
0.00292819
0.00347128
0.00391662
0.00426394
0.00450999
0.0046506
0.00468556
0.00464829
0.00457049
0.00446592
0.0043401
0.00418775
0.00401436
0.003825
0.0036476
0.00349189
0.00336611
0.0032736
0.00321094
0.003163
0.00310506
0.00300588
0.00282581
0.00252625
0.00219098
0.00196036
0.00215358
0.00257626
0.00316069
0.00227283
0.00282076
0.00329898
0.00369224
0.00398186
0.00418481
0.00427697
0.00428015
0.00422888
0.00414497
0.00403792
0.00391355
0.00377453
0.00362456
0.00346813
0.00332755
0.00321186
0.00312163
0.0030517
0.00300381
0.0029695
0.00293333
0.00287203
0.00275034
0.0025231
0.00222174
0.00201005
0.00218328
0.00251861
0.00301836
0.00224109
0.00266556
0.00303179
0.00333091
0.00354222
0.00368849
0.00375338
0.00375193
0.00371721
0.00366105
0.00358857
0.00350449
0.00341421
0.0033215
0.00323089
0.00314992
0.00308439
0.00303166
0.00298491
0.00294836
0.00291711
0.00288303
0.00283201
0.0027384
0.00256531
0.00229747
0.00206977
0.00213584
0.00240985
0.00277114
0.00217267
0.00248182
0.00273868
0.00295023
0.00311327
0.00323759
0.00331279
0.00334216
0.00335217
0.00334559
0.00332488
0.00329443
0.00325934
0.00322321
0.00318596
0.00314365
0.00310595
0.00306909
0.00303467
0.00300334
0.0029738
0.00294177
0.00289838
0.00282547
0.00269491
0.00248475
0.00224296
0.00216983
0.00233759
0.00255989
0.00241943
0.00260065
0.00276583
0.00290788
0.00302625
0.00312276
0.00319116
0.00323194
0.00326099
0.00327491
0.00327657
0.0032697
0.00325178
0.00322827
0.00319808
0.0031677
0.00313864
0.00311095
0.00308559
0.00306353
0.00304438
0.00302483
0.00299902
0.00295451
0.00287212
0.00274752
0.00259007
0.00250432
0.00257648
0.00268961
0.00290451
0.00297137
0.00303502
0.00309108
0.00314159
0.00318255
0.00321169
0.00322981
0.0032427
0.00324189
0.00323592
0.00322975
0.00321806
0.00319785
0.00316915
0.00314259
0.00312118
0.00310566
0.00309625
0.00309231
0.00309139
0.00309044
0.00308841
0.00307954
0.00305731
0.00301523
0.00296779
0.00293735
0.00295979
0.00299491
0.000289568
0.000302292
0.000297246
0.000288377
0.00027687
0.000263775
0.000249939
0.000236004
0.000222379
0.000209353
0.000197047
0.000185599
0.000175012
0.000165015
0.000154374
0.000143218
0.000132293
0.000123197
0.000115508
0.00010833
9.76367e-05
0.000414722
7.96655e-05
9.1569e-05
0.000109269
0.0001256
0.000134793
0.000145216
0.000158001
0.000197233
0.00138908
0.00161546
0.00161072
0.00150389
0.00137111
0.00123761
0.00111668
0.00100929
0.0009131
0.00082515
0.000742147
0.000662162
0.000576628
0.000486386
0.000416643
0.000392895
0.000405266
0.00044229
0.000479802
0.000500424
0.00046354
0.000436033
0.000355806
0.000297065
0.000505474
0.000725458
0.000940165
0.0010941
0.001069
0.000965176
0.00233218
0.00279486
0.00288879
0.00277764
0.00259058
0.00237847
0.00217129
0.00197725
0.00179622
0.00162573
0.00146185
0.00130138
0.00112621
0.00094285
0.000806095
0.000761475
0.000781686
0.000838067
0.000894297
0.000929776
0.000882682
0.000804263
0.000670809
0.000545481
0.000812957
0.0011597
0.00154447
0.00184236
0.00186208
0.00176854
0.00311343
0.00369478
0.00387409
0.00378853
0.00359217
0.00334752
0.00309267
0.00284147
0.00259776
0.00236207
0.00213229
0.00190394
0.00164818
0.00138609
0.0011997
0.00114039
0.00116348
0.00122842
0.00129343
0.00133795
0.00130063
0.00120233
0.00100101
0.000813352
0.00102246
0.00140693
0.00193809
0.00239682
0.00252163
0.00248492
0.00372676
0.00441258
0.00463657
0.00458173
0.00439364
0.00414092
0.00386236
0.00357546
0.00328751
0.00300366
0.00272345
0.00243278
0.00211462
0.0017955
0.00157684
0.00150961
0.00153327
0.00160177
0.00167233
0.00172649
0.00171061
0.00160405
0.00135078
0.00110507
0.00121989
0.00160973
0.00224458
0.00281542
0.00306443
0.00309417
0.00423606
0.00495881
0.00523132
0.00520745
0.00503583
0.00478967
0.00450149
0.00419322
0.00387483
0.00355603
0.00323274
0.00289887
0.00253274
0.00217389
0.00193795
0.00186723
0.00188894
0.00195754
0.00203266
0.00210207
0.00211579
0.00199742
0.00170741
0.00141212
0.00145125
0.0017991
0.00248912
0.00318118
0.00352169
0.00363037
0.00466179
0.00534219
0.00566561
0.00569887
0.00555107
0.0053209
0.00503229
0.004712
0.00437347
0.0040298
0.00367453
0.00330966
0.00291157
0.00252849
0.00228714
0.00221484
0.00223174
0.00229733
0.00237682
0.00246914
0.00250412
0.00237476
0.00205868
0.00172485
0.00169033
0.00198977
0.0026881
0.0034856
0.00393425
0.00409933
0.00500185
0.00564147
0.00597771
0.00606244
0.00596445
0.00575519
0.00547392
0.00514682
0.00479591
0.0044358
0.00406213
0.00367222
0.00325737
0.00286658
0.00262802
0.00255374
0.00256345
0.00262303
0.00270711
0.00282471
0.00286695
0.00272904
0.00239451
0.00202932
0.00193082
0.00217564
0.0028554
0.00373449
0.00428655
0.00452085
0.00530287
0.00590308
0.00623964
0.00634797
0.00629102
0.00611038
0.00584043
0.00551008
0.00515256
0.00478384
0.00440273
0.00399931
0.00357589
0.00319425
0.00296273
0.00288483
0.00288508
0.00293582
0.00302557
0.00316324
0.00320192
0.00305445
0.00270749
0.00231468
0.00215969
0.00234951
0.00300018
0.00393679
0.00457788
0.00490215
0.00557514
0.00612786
0.00645646
0.00658259
0.00655511
0.00640301
0.00614244
0.0058121
0.00545194
0.00508273
0.00470195
0.00429963
0.00387525
0.00351315
0.00329174
0.00320832
0.00319719
0.00323723
0.00333501
0.00348082
0.00350716
0.00334749
0.00299164
0.00257421
0.00236711
0.002506
0.00312496
0.00409965
0.00483561
0.00524438
0.00580667
0.00631364
0.00663274
0.00677364
0.00676894
0.00664324
0.00640778
0.00607475
0.00570657
0.00533989
0.00496709
0.00457547
0.00416651
0.0038243
0.00361477
0.00352392
0.00350021
0.00352836
0.00363458
0.0037743
0.00378097
0.00360617
0.00324259
0.00280494
0.00254704
0.00264298
0.00323125
0.00422621
0.0050572
0.00554897
0.00598331
0.00645734
0.00677209
0.00692491
0.00693945
0.00683535
0.00663139
0.00631076
0.00593507
0.0055668
0.00520685
0.00483325
0.00445031
0.00413121
0.00393109
0.00383113
0.00379438
0.00381039
0.00392046
0.00404044
0.00402251
0.00382927
0.00345754
0.00300572
0.00269742
0.00276028
0.00332229
0.00432898
0.00524115
0.00581892
0.00609489
0.0065563
0.00687641
0.00704086
0.00707288
0.00698965
0.00681115
0.00651624
0.00614519
0.00577575
0.00542862
0.00507835
0.00472746
0.00443515
0.00423793
0.00412945
0.00407985
0.00408436
0.00419013
0.00427833
0.00423181
0.00401608
0.0036346
0.00317674
0.00282427
0.00285576
0.0033997
0.00441428
0.00539156
0.0060587
0.00613305
0.00660764
0.00694576
0.00712801
0.00717505
0.00711155
0.00695445
0.00668016
0.00633414
0.00597085
0.00563802
0.00531516
0.00499889
0.00473164
0.00453838
0.0044191
0.00435639
0.0043508
0.00444036
0.00448815
0.00440907
0.00416664
0.00377414
0.00331614
0.00293071
0.0029229
0.00345352
0.00448018
0.00551057
0.00623286
0.00609421
0.00660616
0.00697935
0.00718916
0.00725137
0.00720647
0.00706797
0.00682205
0.00649401
0.00615637
0.00584205
0.00554678
0.00526441
0.00501954
0.00482972
0.00469934
0.00462299
0.00460724
0.00466571
0.00466776
0.00455397
0.00428318
0.00387805
0.00342243
0.0030168
0.00295801
0.00347308
0.00448852
0.00556214
0.00634801
0.00598881
0.00655236
0.00697383
0.00722429
0.00730783
0.00728013
0.0071588
0.00694395
0.00663634
0.00633034
0.0060419
0.00577462
0.00552348
0.00529781
0.00510698
0.00496798
0.00487665
0.0048448
0.00485808
0.0048128
0.00466474
0.00436857
0.00394863
0.00348753
0.00308026
0.00296965
0.00344446
0.00445112
0.00555714
0.0064064
0.0058369
0.00645968
0.00693517
0.00723196
0.0073488
0.00733851
0.00723531
0.00704919
0.00677127
0.00649992
0.00623901
0.0059993
0.00577472
0.00556341
0.00537271
0.00522097
0.0051112
0.00505088
0.0050083
0.00491663
0.00473738
0.00442326
0.00399056
0.00351802
0.0031084
0.00297081
0.00339065
0.00438198
0.00550845
0.00641569
0.00564713
0.00633481
0.0068702
0.00721484
0.00737583
0.00738786
0.00730337
0.00714323
0.00690195
0.00666857
0.00643544
0.00621878
0.00601391
0.00581149
0.00561715
0.00544817
0.00531316
0.0052075
0.00510553
0.0049701
0.00476538
0.00444456
0.00400694
0.00352568
0.00311391
0.00296362
0.00334421
0.00429648
0.00542926
0.00638514
0.00543122
0.00618591
0.00678373
0.00717991
0.00738333
0.00742955
0.00736649
0.00723025
0.00702996
0.0068281
0.00662426
0.00642443
0.00623097
0.00603161
0.00582572
0.00563133
0.00545745
0.00529304
0.00513522
0.00496207
0.00474029
0.00442605
0.00399735
0.00352207
0.00310763
0.00294512
0.00331627
0.00420693
0.00533217
0.00632389
0.00520248
0.0060221
0.00668088
0.00712861
0.00737382
0.00745589
0.00742262
0.00731097
0.00715278
0.00697571
0.00679028
0.00659907
0.00640786
0.00620121
0.00597301
0.00574157
0.00551283
0.00528787
0.00508278
0.00488185
0.00465383
0.00435853
0.00395954
0.00349661
0.00309661
0.00292099
0.00330494
0.00412342
0.00522761
0.00623885
0.00497505
0.00585325
0.00656671
0.00706188
0.00734708
0.00746068
0.00745765
0.00739782
0.00725034
0.00708438
0.00691236
0.00671943
0.00651198
0.00628353
0.00602275
0.00574143
0.0054511
0.00517761
0.00493987
0.00472379
0.00450225
0.00423873
0.00388882
0.00345164
0.00307321
0.00290315
0.00328853
0.00406309
0.00511193
0.00613262
0.00476385
0.0056897
0.0064452
0.00697949
0.00729902
0.00742011
0.00744989
0.00740971
0.00727727
0.00711848
0.00694541
0.00674283
0.00650485
0.00623714
0.00593
0.00559824
0.00526449
0.00496415
0.00471175
0.00449483
0.00429299
0.00407204
0.00378389
0.00339268
0.00303441
0.00288525
0.00327562
0.00402577
0.0049921
0.00598898
0.00458423
0.00554109
0.0063105
0.0068214
0.00710403
0.00727194
0.00734472
0.00730886
0.00717789
0.00701503
0.00683036
0.0066098
0.00634112
0.00603098
0.00567669
0.00531539
0.00497351
0.00467265
0.00442642
0.00422367
0.0040517
0.0038786
0.00365565
0.00333025
0.00298994
0.00285899
0.00326025
0.00398926
0.00491113
0.00585399
0.00443517
0.00532584
0.00600562
0.00648031
0.00681044
0.00701201
0.00708615
0.00703041
0.00689143
0.00671857
0.00652076
0.00628541
0.00600215
0.00567344
0.00530113
0.00494585
0.00463224
0.00435877
0.00413753
0.00396167
0.0038229
0.00369468
0.00353297
0.00327978
0.00295778
0.00282196
0.00319232
0.00389905
0.00477433
0.00566651
0.00414213
0.00494067
0.005583
0.00605992
0.00637233
0.00655804
0.00660103
0.0065279
0.00638835
0.00621872
0.00602603
0.00579942
0.005532
0.00522709
0.00489177
0.00458143
0.004322
0.00409317
0.00390623
0.00376569
0.0036632
0.00357268
0.00345739
0.00326371
0.00296483
0.00278857
0.00305543
0.00373962
0.0044677
0.00526921
0.00387495
0.00452451
0.00505127
0.00544481
0.00571968
0.00587074
0.00590028
0.00583825
0.00572859
0.00559506
0.00544164
0.00525966
0.00504617
0.00480694
0.00454995
0.00431074
0.00410518
0.00393076
0.00379153
0.00368809
0.00360971
0.00353979
0.00345122
0.00329936
0.00303934
0.00280631
0.00290461
0.00346363
0.00402474
0.00464809
0.0034593
0.00396955
0.00438825
0.00471087
0.00494176
0.00508824
0.00514688
0.00513416
0.0050867
0.0050178
0.00492861
0.00481392
0.00467339
0.00451291
0.0043342
0.00415443
0.00400437
0.00387005
0.00376248
0.00368078
0.00361911
0.00356632
0.00350146
0.00338843
0.00318672
0.00293392
0.00287193
0.00316479
0.00357677
0.00400154
0.00321547
0.0035826
0.00389387
0.00415156
0.0043561
0.00450854
0.00460239
0.00464145
0.00465177
0.00463922
0.00460423
0.0045449
0.00445886
0.00434665
0.0042113
0.00407286
0.00394261
0.00382787
0.00373735
0.00367261
0.00362843
0.0035983
0.00356597
0.00350178
0.00337205
0.00318189
0.003072
0.00315822
0.00340224
0.00365038
0.00340936
0.00362776