/*--------------------------------*- C++ -*----------------------------------*\
  =========                 |
  \\      /  F ield         | OpenFOAM: The Open Source CFD Toolbox
   \\    /   O peration     | Website:  https://openfoam.org
    \\  /    A nd           | Version:  12
     \\/     M anipulation  |
\*---------------------------------------------------------------------------*/
FoamFile
{
    format      ascii;
    class       volScalarField;
    location    "650/air";
    object      epsilon;
}
// * * * * * * * * * * * * * * * * * * * * * * * * * * * * * * * * * * * * * //

dimensions      [0 2 -3 0 0 0 0];

internalField   nonuniform List<scalar> 
243000
(
7.62224
8.81396
9.38221
9.64353
9.6017
9.33023
8.90163
8.38346
7.82968
7.29202
6.81078
6.4298
6.17856
6.05617
5.96699
5.81504
5.55145
5.1766
4.71155
4.18786
3.64962
3.08384
2.34949
1.43496
1.58435
2.26669
2.61113
3.03715
3.42051
3.85338
4.82887
5.79937
6.08176
6.10328
5.95519
5.6925
5.35943
4.99022
4.61162
4.24518
3.90503
3.60477
3.34257
3.10181
2.85357
2.60227
2.35906
2.13114
1.91491
1.70674
1.50446
1.30375
1.06093
0.762246
0.855296
1.41948
1.73622
2.04674
2.40161
2.85295
5.39227
6.31911
6.46933
6.30885
5.98923
5.58029
5.13152
4.67824
4.24291
3.84083
3.48035
3.1693
2.8993
2.64924
2.39635
2.1512
1.92793
1.73417
1.56386
1.40962
1.26215
1.11266
0.936134
0.712586
0.705223
1.29357
1.75733
2.18655
2.68241
3.32455
6.27971
7.36058
7.6193
7.48334
7.15694
6.7175
6.22142
5.70998
5.2102
4.74087
4.31419
3.94162
3.61354
3.30171
2.97944
2.66295
2.37295
2.12201
1.90399
1.70956
1.52517
1.33644
1.13002
0.875988
0.758365
1.37208
1.98708
2.54587
3.17048
3.96684
6.86093
8.04136
8.39896
8.31021
8.01262
7.58338
7.08016
6.54752
6.01575
5.50708
5.03814
4.62508
4.25767
3.90113
3.52453
3.14902
2.8009
2.49781
2.23491
2.00195
1.78214
1.55481
1.31854
1.03761
0.840564
1.31249
2.11639
2.78359
3.51024
4.43197
7.22577
8.44405
8.89001
8.86093
8.61457
8.22288
7.74078
7.21386
6.67465
6.14875
5.65704
5.22074
4.82943
4.4425
4.02444
3.60112
3.20443
2.85532
2.55188
2.28379
2.0316
1.76874
1.50405
1.19982
0.939633
1.17692
2.15519
2.92834
3.74544
4.77734
7.42331
8.59995
9.15113
9.19258
9.01165
8.67536
8.23358
7.73156
7.20318
6.67728
6.17859
5.73293
5.33011
4.92475
4.47632
4.01564
3.57927
3.19077
2.85192
2.55282
2.27168
1.97741
1.68703
1.36272
1.05244
1.05659
2.11598
2.99496
3.89448
5.0041
7.46779
8.58044
9.21674
9.34855
9.24391
8.97405
8.58519
8.12111
7.61691
7.1042
6.61106
6.16705
5.7629
5.34852
4.87962
4.39104
3.92333
3.50228
3.1333
2.80754
2.50083
2.18022
1.86709
1.52501
1.17692
1.0381
1.98192
3.00874
3.97582
5.12485
7.39753
8.45378
9.14401
9.36624
9.3431
9.1461
8.81808
8.40046
7.9298
7.44018
6.9625
6.52899
6.13137
5.71558
5.23479
4.72694
4.23556
3.78909
3.3953
3.04707
2.71793
2.37597
2.04344
1.68532
1.30951
1.0854
1.78927
2.9799
4.00388
5.15706
7.23978
8.24742
8.97454
9.28388
9.34464
9.21665
8.94962
8.58438
8.15402
7.69479
7.24034
6.82446
6.43951
6.0279
5.54283
5.02367
4.51594
4.05091
3.63762
3.27098
2.92218
2.56372
2.21524
1.84287
1.44603
1.15341
1.6128
2.91297
3.98209
5.10411
7.00871
7.98016
8.73301
9.12554
9.26288
9.21373
9.00478
8.68783
8.29978
7.87648
7.45121
7.05858
6.69094
6.28802
5.8052
5.28202
4.765
4.2876
3.86047
3.47919
3.11341
2.74279
2.38179
1.99716
1.58457
1.23771
1.49246
2.81869
3.90748
4.97837
6.71635
7.66556
8.44062
8.90629
9.11692
9.13995
9.00014
8.73016
8.381
7.9937
7.60157
7.23611
6.88876
6.49863
6.02368
5.50316
4.98354
4.49978
4.064
3.67196
3.29175
2.91297
2.54256
2.14772
1.72262
1.33331
1.40082
2.69968
3.79355
4.80763
6.37651
7.31461
8.11142
8.63897
8.92123
9.01033
8.93383
8.7213
8.41157
8.05705
7.69764
7.36171
7.03664
6.66256
6.20037
5.6886
5.17272
4.68831
4.2485
3.84969
3.45789
3.07443
2.69728
2.29489
1.85959
1.43675
1.33706
2.56035
3.66234
4.65787
6.02185
6.93863
7.75487
8.33432
8.68619
8.8354
8.81941
8.65847
8.39665
8.07767
7.74686
7.43992
7.13831
6.78278
6.33766
5.84022
5.33396
4.85436
4.41499
4.01286
3.61264
3.22776
2.84635
2.43869
1.99515
1.54853
1.33692
2.3807
3.52368
4.50801
5.68736
6.56002
7.38081
8.00385
8.41759
8.62395
8.66314
8.5525
8.33309
8.05685
7.75899
7.47582
7.19738
6.8626
6.43836
5.96024
5.46902
4.99924
4.56475
4.16266
3.75747
3.37387
2.99049
2.57884
2.12882
1.66403
1.37556
2.19391
3.38045
4.35354
5.36579
6.21124
7.00105
7.65636
8.12195
8.38286
8.47106
8.40853
8.23104
7.99284
7.73194
7.47864
7.21944
6.9056
6.50564
6.05129
5.57996
5.12466
4.69934
4.30051
3.89426
3.51416
3.13049
2.71602
2.26066
1.78183
1.43243
2.02499
3.23597
4.20046
5.05193
5.88395
6.65448
7.3008
7.8059
8.11785
8.24911
8.23155
8.09509
7.89492
7.66812
7.44391
7.2092
6.91756
6.54344
6.11642
5.6692
5.23255
4.82032
4.42785
4.02507
3.64993
3.26731
2.85096
2.39112
1.90111
1.50007
1.87866
3.09223
4.04908
4.74289
5.57287
6.33131
6.95786
7.4771
7.83373
8.00331
8.02655
7.92967
7.76727
7.57388
7.37884
7.16743
6.90047
6.55525
6.15885
5.73947
5.32527
4.92934
4.54619
4.15155
3.78229
3.40197
2.98484
2.52116
2.02179
1.57954
1.75806
2.95119
3.90026
4.4365
5.27474
6.02679
6.64007
7.14442
7.53475
7.73923
7.79836
7.73933
7.61352
7.45343
7.28742
7.09985
6.85898
6.54495
6.18194
5.79363
5.40506
5.02792
4.65692
4.27403
3.91199
3.53558
3.1191
2.65236
2.14464
1.66894
1.66803
2.81465
3.75486
4.13132
4.98809
5.73824
6.34268
6.83137
7.22624
7.46079
7.55111
7.52772
7.43716
7.31025
7.1729
7.01002
6.79689
6.51599
6.18876
5.83418
5.47368
5.11739
4.76099
4.39249
4.03979
3.66947
3.2553
2.7865
2.27106
1.76815
1.61322
2.68355
3.61386
3.82687
4.71279
5.46429
6.0621
6.53846
6.91775
7.1708
7.28739
7.29694
7.24065
7.14598
7.03743
6.90027
6.71654
6.47054
6.18107
5.86228
5.53151
5.19782
4.85829
4.50728
4.16658
3.80493
3.39532
2.9258
2.40295
1.87626
1.61336
2.54774
3.47827
3.51106
4.45031
5.20483
5.79674
6.26295
6.62908
6.87435
7.0101
7.04816
7.02463
6.96112
6.88095
6.77073
6.61791
6.40838
6.1581
5.87601
5.57668
5.26721
4.94694
4.61855
4.29343
3.94344
3.54143
3.07234
2.54223
1.99386
1.65232
2.41954
3.35012
3.1936
4.20405
4.96062
5.54588
6.00283
6.35726
6.59949
6.73268
6.78504
6.79045
6.75585
6.70268
6.61947
6.49797
6.32562
6.11512
5.86991
5.60469
5.3222
5.02598
4.72846
4.42325
4.08814
3.69649
3.22942
2.69135
2.1213
1.71486
2.31472
3.23384
2.90205
3.97936
4.73324
5.30861
5.7553
6.10156
6.34569
6.48025
6.54158
6.56104
6.54545
6.5102
6.44866
6.35642
6.22051
6.05002
5.84607
5.62065
5.37701
5.11806
4.84985
4.56592
4.24752
3.86807
3.40478
2.85609
2.26126
1.79807
2.24343
3.13677
2.67084
3.78315
4.5249
5.08637
5.52374
5.86485
6.11327
6.25258
6.3267
6.36346
6.36982
6.35633
6.31935
6.25491
6.15626
6.02633
5.86624
5.68144
5.47478
5.24932
5.00776
4.74404
4.44142
4.07342
3.61203
3.05057
2.42301
1.9053
2.21688
3.06622
2.53701
3.6292
4.3481
4.89124
5.31713
5.6541
5.90961
6.05866
6.15177
6.21232
6.24634
6.2616
6.25734
6.23033
6.17553
6.09211
5.97912
5.83742
5.6681
5.47382
5.25544
5.00755
4.7153
4.35148
3.88518
3.3008
2.6279
2.04508
2.25
3.03767
2.53254
3.54685
4.23205
4.75537
5.17014
5.50665
5.7778
5.95021
6.07601
6.17565
6.25374
6.31693
6.36542
6.39551
6.40144
6.37804
6.31987
6.22449
6.09042
5.92039
5.71449
5.46852
5.16985
4.79369
4.30393
3.67548
2.92901
2.25649
2.37183
3.08603
2.79464
3.67605
4.32506
4.84066
5.26881
5.62882
5.94408
6.17816
6.37557
6.55407
6.71883
6.8778
7.02656
7.15548
7.25264
7.30295
7.29997
7.2376
7.11472
6.93814
6.70975
6.42633
6.07987
5.64928
5.09847
4.38905
3.52144
2.70261
2.74811
3.35327
4.18049
4.99147
5.66864
6.24815
6.76441
7.21112
7.6315
8.01362
8.36969
8.69989
9.02421
9.37289
9.70483
9.98669
10.1918
10.3002
10.3105
10.2199
10.0341
9.77401
9.44527
9.03315
8.55087
7.98985
7.31557
6.48404
5.4752
4.44958
4.36663
4.83365
13.8899
14.6394
15.3186
15.9129
16.451
16.7173
16.9459
17.2585
17.6073
17.8571
18.1536
18.6502
19.1
19.4001
19.5353
19.5498
19.4414
19.2376
18.9513
18.6564
18.3426
17.8578
17.3723
16.9096
16.4061
15.8182
15.0585
14.2979
14.1796
14.525
13.0057
16.5973
18.2679
19.1076
19.2373
18.8145
17.9906
16.9086
15.6825
14.4054
13.1412
11.9731
10.9517
10.0425
9.04619
7.88855
6.6235
5.3645
4.18176
3.11461
2.18364
1.55927
0.301795
1.22555
1.77286
2.3311
2.48048
2.83295
3.48112
4.83144
8.1512
9.55668
10.4838
10.9941
11.1231
10.9355
10.491
9.86695
9.13328
8.34858
7.55597
6.78589
6.08246
5.42081
4.74186
4.07662
3.46469
2.92982
2.45195
2.00963
1.56331
1.16306
0.8342
0.817012
0.963128
1.23797
1.53988
1.90956
2.50237
3.59739
7.17902
8.26411
8.96937
9.37202
9.50412
9.40194
9.09263
8.62552
8.05014
7.41244
6.7508
6.09877
5.48636
4.88868
4.25782
3.65054
3.11717
2.67728
2.30322
1.96221
1.61096
1.26727
0.940723
0.764957
0.839388
1.16587
1.57706
1.98588
2.56407
3.58374
6.72597
7.67927
8.29553
8.65999
8.80957
8.77137
8.55314
8.18903
7.71564
7.16765
6.58377
6.01406
5.47213
4.9099
4.28892
3.68342
3.15456
2.72627
2.37492
2.06555
1.75516
1.43882
1.09237
0.821856
0.781999
1.18538
1.66648
2.12592
2.69296
3.65233
6.41153
7.25777
7.82245
8.17685
8.35301
8.37283
8.23076
7.94934
7.55567
7.08096
6.57249
6.06715
5.57387
5.04063
4.42508
3.81246
3.27398
2.84003
2.49285
2.199
1.91788
1.62278
1.26511
0.926317
0.797233
1.13966
1.73175
2.24619
2.81058
3.72542
6.13804
6.88106
7.41011
7.76724
7.9749
8.04632
7.97208
7.76163
7.43656
7.03111
6.58413
6.13422
5.68728
5.17836
4.56747
3.94849
3.40051
2.95983
2.6145
2.33406
2.08054
1.80588
1.44532
1.05979
0.848694
1.04301
1.76138
2.33361
2.90286
3.7837
5.86955
6.5159
7.01991
7.3872
7.62758
7.74533
7.7316
7.58373
7.32034
6.97579
6.58806
6.18597
5.7808
5.29359
4.68888
4.06729
3.51391
3.06981
2.72848
2.46339
2.23745
1.98328
1.62645
1.21206
0.930563
0.969392
1.7527
2.39095
2.97067
3.8191
5.59051
6.15719
6.64332
7.02382
7.29621
7.45606
7.49395
7.4023
7.19438
6.90071
6.56936
6.21448
5.84448
5.37716
4.7813
4.16198
3.60853
3.16571
2.83175
2.58461
2.3865
2.15252
1.80481
1.37576
1.03323
0.987363
1.69123
2.42775
3.01592
3.82951
5.30455
5.80944
6.283
6.67593
6.97716
7.17447
7.25552
7.21371
7.05473
6.80857
6.5216
6.21913
5.87679
5.42688
4.84345
4.2317
3.68377
3.24717
2.92428
2.69698
2.52614
2.31267
1.97848
1.545
1.15507
1.04222
1.59966
2.44928
3.04378
3.80978
5.01513
5.47725
5.94218
6.34556
6.67109
6.90037
7.01703
7.01781
6.90158
6.69833
6.45091
6.18961
5.88307
5.44677
4.87718
4.27806
3.74098
3.31534
3.00709
2.80094
2.65619
2.46393
2.14657
1.71575
1.29152
1.11151
1.51201
2.45309
3.05427
3.75522
4.72943
5.16473
5.6232
6.03444
6.37909
6.63453
6.78116
6.81573
6.73645
6.57055
6.36019
6.13209
5.85332
5.43979
4.88594
4.30379
3.78239
3.3719
3.08148
2.8975
2.77737
2.60692
2.30896
1.88586
1.43866
1.1939
1.45825
2.42646
3.04471
3.6725
4.45684
4.87508
5.32709
5.74304
6.10174
6.37754
6.5487
6.61008
6.5619
6.4279
6.25085
6.05166
5.7958
5.40177
4.87063
4.31026
3.81084
3.41893
3.1488
2.98818
2.89094
2.74288
2.46613
2.05427
1.59363
1.28866
1.42834
2.37846
3.01422
3.57147
4.20974
4.61225
5.05454
5.47121
5.83915
6.12985
6.32021
6.4027
6.38051
6.27352
6.12521
5.95169
5.71545
5.34122
4.83596
4.30206
3.82776
3.45855
3.21073
3.07473
2.99896
2.8739
2.61947
2.2213
1.75409
1.39085
1.42578
2.31906
2.97012
3.4685
4.0067
4.38414
4.80732
5.21884
5.59108
5.89168
6.09629
6.19501
6.19443
6.11055
5.98686
5.83569
5.6168
5.26311
4.78633
4.28307
3.83641
3.49351
3.26957
3.15882
3.10441
3.00297
2.77153
2.38786
1.91807
1.5029
1.4507
2.2533
2.91944
3.37278
3.84376
4.19875
4.58967
4.98684
5.35727
5.66305
5.87753
5.98899
6.00559
5.94203
5.83982
5.7082
5.50533
5.17324
4.72728
4.2577
3.84113
3.52734
3.32878
3.24391
3.21129
3.13413
2.92591
2.55632
2.08449
1.62761
1.49452
2.18343
2.86556
3.28385
3.70645
4.05559
4.40822
4.77767
5.13847
5.44436
5.66472
5.78636
5.81696
5.77158
5.68864
5.5748
5.38759
5.07845
4.6655
4.23209
3.84793
3.56496
3.39363
3.33487
3.32492
3.27272
3.08766
2.73123
2.25537
1.76612
1.55372
2.1163
2.81005
3.20263
3.58591
3.94111
4.26583
4.59512
4.93723
5.23776
5.46016
5.58975
5.63249
5.60429
5.53929
5.44246
5.27166
4.98724
4.60916
4.21439
3.86634
3.61349
3.47198
3.43909
3.45249
3.42612
3.26404
2.9194
2.43605
1.91924
1.62311
2.04618
2.75364
3.1292
3.47608
3.84498
4.15128
4.44576
4.75794
5.04732
5.26848
5.40423
5.45806
5.44711
5.40008
5.32043
5.16798
4.91051
4.56931
4.21351
3.90407
3.68329
3.57265
3.56734
3.605
3.60488
3.46557
3.13127
2.63632
2.08833
1.71244
1.99917
2.69828
3.06369
3.37126
3.7598
4.0565
4.32649
4.60629
4.87912
5.09644
5.23759
5.3026
5.30961
5.28245
5.2216
5.09091
4.8633
4.56226
4.24839
3.97837
3.79061
3.71195
3.73585
3.79939
3.82439
3.70792
3.38216
2.86743
2.27937
1.82428
1.98129
2.64607
3.00612
3.26608
3.68083
3.97618
4.23208
4.49134
4.74293
4.95397
5.1012
5.17942
5.20612
5.20321
5.16489
5.06159
4.87048
4.61197
4.34296
4.11477
3.96247
3.91714
3.9719
4.06179
4.11007
4.0153
3.69445
3.1497
2.50599
1.96157
1.98761
2.59792
2.95613
3.1569
3.60582
3.90845
4.16039
4.4118
4.65158
4.85753
5.01356
5.10888
5.16109
5.18876
5.18149
5.11388
4.96647
4.75986
4.54274
4.3608
4.24796
4.23857
4.32303
4.43719
4.50484
4.42682
4.1029
3.51377
2.78576
2.1317
2.02316
2.55602
2.91375
3.04231
3.53663
3.854
4.11352
4.36843
4.61053
4.82194
4.9968
5.12552
5.21612
5.28662
5.32642
5.30963
5.22084
5.08507
4.93598
4.80866
4.7438
4.7691
4.8778
5.00873
5.08631
5.01022
4.66558
4.00551
3.14922
2.35032
2.08608
2.52679
2.88227
2.93159
3.48003
3.81786
4.09613
4.36935
4.64888
4.90228
5.11656
5.29425
5.4465
5.58621
5.70359
5.77371
5.77815
5.74363
5.68888
5.64031
5.63484
5.69305
5.81167
5.94051
6.00387
5.89292
5.4851
4.70337
3.64672
2.63443
2.19023
2.53083
2.87733
2.85115
3.44741
3.81421
4.15272
4.49189
4.83834
5.16413
5.45591
5.72764
5.99203
6.25578
6.51416
6.73619
6.90252
7.03859
7.14092
7.22039
7.30062
7.3914
7.49724
7.57684
7.55975
7.32873
6.75905
5.75285
4.37503
3.03161
2.35389
2.58184
2.91737
2.83505
3.48238
3.94376
4.38527
4.83602
5.30489
5.78042
6.23017
6.69038
7.17134
7.66928
8.18144
8.69363
9.16876
9.63702
10.0453
10.3644
10.5935
10.7182
10.7526
10.6609
10.383
9.82841
8.88704
7.44891
5.54642
3.65065
2.63053
2.7436
3.06254
3.04791
3.78198
4.41356
5.04454
5.71288
6.43546
7.22514
8.01252
8.87246
9.80106
10.7643
11.7494
12.8159
13.9125
15.0549
16.0826
16.8658
17.3412
17.4533
17.2325
16.6648
15.7334
14.4124
12.6591
10.4118
7.64953
4.78284
3.23372
3.21306
3.52256
3.92489
4.91369
5.91027
6.96368
8.12112
9.41484
10.8779
12.365
13.9983
15.7762
17.646
19.6046
21.7175
23.9417
26.2782
28.3493
29.7996
30.4831
30.3085
29.3699
27.737
25.4843
22.7108
19.489
15.863
11.7874
7.3785
4.91806
4.62281
4.94242
7.38352
9.00399
10.8878
12.9196
15.1243
17.5115
20.1417
22.898
25.8686
29.0446
32.3335
35.7464
39.3285
42.9883
46.4541
49.1564
50.4743
50.394
48.9362
46.4657
43.2467
39.4551
35.2217
30.5828
25.5585
20.0892
14.0159
10.1787
9.27845
9.61457
19.4179
22.3506
25.7844
29.3058
32.9341
36.6316
40.443
44.4006
48.4681
52.6304
56.7556
60.8198
64.3885
67.2236
68.7518
67.8899
65.5148
62.1773
58.3455
54.3541
50.5062
46.9405
43.6561
40.4248
36.9191
32.7313
27.806
24.0179
22.8658
23.4886
38.8055
43.1448
47.3692
51.2458
54.9721
58.3779
61.5905
64.6255
67.205
69.3613
71.1478
72.3516
72.0024
70.0555
66.3392
61.7965
57.1405
52.4685
48.2065
44.6086
41.7136
39.541
38.1575
37.3733
36.8047
36.3238
36.1251
36.7874
38.277
40.1473
18.1652
24.0004
26.425
27.8263
28.2411
27.8137
26.7316
25.1858
23.3313
21.2957
19.1709
17.0515
14.9913
12.9603
10.7638
8.58526
6.65797
5.22012
4.1184
3.19903
2.17238
1.50079
0.289173
1.34388
2.01818
2.68355
2.86492
3.11764
3.52618
5.74395
10.2653
11.9965
12.9971
13.67
13.9616
13.8972
13.4992
12.8393
11.9907
11.0176
9.97112
8.88032
7.78956
6.67151
5.57358
4.66318
3.97593
3.49633
3.03335
2.5415
1.8416
0.983096
0.559259
0.759511
0.975661
1.26425
1.56895
2.13856
2.8431
4.35623
9.13395
10.2595
10.9523
11.3635
11.5307
11.4803
11.2091
10.7455
10.1287
9.39788
8.59111
7.73227
6.8538
5.91299
4.9894
4.25669
3.72575
3.35132
2.9712
2.53102
1.86583
1.10096
0.68057
0.671588
0.837377
1.13852
1.57478
2.21873
3.07268
4.447
8.64266
9.53942
10.1202
10.4509
10.5896
10.5676
10.3737
10.0205
9.53068
8.92914
8.24472
7.49949
6.73529
5.87429
5.00069
4.29898
3.78009
3.40009
3.02926
2.60357
1.96945
1.29254
0.855277
0.712299
0.80159
1.15101
1.65513
2.34896
3.2913
4.5877
8.26021
9.00702
9.53377
9.84802
10.0022
10.0259
9.90298
9.63643
9.24084
8.73111
8.13337
7.49478
6.80055
5.98208
5.13054
4.42688
3.88902
3.48318
3.10863
2.69678
2.11755
1.50435
1.05186
0.816188
0.831399
1.16088
1.73385
2.4682
3.45449
4.69065
7.87693
8.50677
9.00117
9.32797
9.52035
9.59798
9.54577
9.35587
9.039
8.6053
8.09297
7.52582
6.8902
6.10459
5.26822
4.55641
3.9962
3.56665
3.191
2.79957
2.28694
1.72003
1.25635
0.956235
0.898791
1.1657
1.79659
2.5659
3.56384
4.74686
7.46547
8.00046
8.47801
8.83271
9.07359
9.20839
9.22447
9.10525
8.85774
8.49197
8.05464
7.55064
6.96233
6.20708
5.3864
4.66794
4.08917
3.64288
3.27295
2.91294
2.45743
1.93259
1.46193
1.11651
0.998859
1.18656
1.84293
2.64074
3.62762
4.76169
7.00872
7.4852
7.95987
8.34959
8.64213
8.83437
8.91139
8.85838
8.67313
8.36934
7.99316
7.55731
7.00762
6.28164
5.47947
4.75808
4.16656
3.71132
3.35337
3.03102
2.62238
2.13814
1.66499
1.28458
1.11266
1.23592
1.87427
2.69563
3.65354
4.73031
6.5287
6.97578
7.45671
7.88069
8.22241
8.46831
8.59946
8.60594
8.47678
8.22942
7.90685
7.53226
7.0257
6.32746
5.54811
4.82816
4.23012
3.77369
3.43305
3.14806
2.7804
2.33212
1.86338
1.45348
1.23261
1.30221
1.89329
2.73311
3.64707
4.65339
6.05444
6.48739
6.97753
7.43128
7.81625
8.10965
8.28876
8.34445
8.26648
8.06969
7.79881
7.47116
7.01673
6.35103
5.59527
4.88081
4.28231
3.8317
3.51404
3.2629
2.93248
2.51595
2.05598
1.62101
1.3531
1.37366
1.90169
2.75403
3.60324
4.53953
5.60176
6.0298
6.52841
7.00592
7.42657
7.75999
7.97995
8.07577
8.04311
7.89173
7.66977
7.3856
6.97527
6.3563
5.62342
4.91884
4.32588
3.88694
3.59757
3.37595
3.08069
2.69283
2.24161
1.78757
1.47215
1.4445
1.90482
2.76006
3.55002
4.39989
5.18262
5.61028
6.11366
6.60816
7.05604
7.42121
7.67451
7.8027
7.80884
7.69841
7.522
7.27984
6.91229
6.34096
5.6349
4.94533
4.36401
3.94195
3.68289
3.48905
3.22771
2.86678
2.4225
1.95534
1.59452
1.51197
1.90362
2.74715
3.48973
4.24576
4.80807
5.23496
5.73687
6.24046
6.70657
7.09485
7.37387
7.52858
7.56589
7.49343
7.35951
7.15901
6.8348
6.306
5.63553
4.96428
4.40088
4.00111
3.77318
3.60607
3.37775
3.04242
2.60313
2.12555
1.72374
1.57638
1.89904
2.71675
3.42202
4.08593
4.49307
4.91016
5.40132
5.90464
6.37951
6.78229
7.07967
7.25536
7.31833
7.28128
7.18775
7.02873
6.74775
6.26078
5.62458
4.98056
4.44234
4.07162
3.87456
3.73385
3.53694
3.22582
2.79215
2.30019
1.86264
1.64601
1.89662
2.67514
3.34862
3.92599
4.23236
4.64419
5.11102
5.60297
6.0765
6.48528
6.79418
6.98615
7.07095
7.06755
7.01328
6.89598
6.65751
6.21155
5.61194
5.00259
4.49703
4.16423
3.99616
3.8814
3.71419
3.42597
2.99781
2.48704
2.01176
1.72926
1.90094
2.62544
3.27232
3.78468
4.01204
4.42594
4.87299
5.33873
5.8004
6.20693
6.52112
6.72584
6.83085
6.85904
6.84421
6.76951
6.57254
6.16771
5.61312
5.04342
4.57864
4.28891
4.15053
4.06148
3.92231
3.65558
3.23115
2.69635
2.17587
1.82638
1.91566
2.57185
3.19538
3.65871
3.82145
4.24427
4.67552
5.11701
5.55553
5.95238
6.26689
6.48202
6.60706
6.66665
6.69106
6.66049
6.50525
6.14509
5.63938
5.12191
4.70955
4.46534
4.35607
4.29306
4.1801
3.93265
3.50808
2.94274
2.36457
1.94009
1.94666
2.51882
3.12063
3.54784
3.65886
4.09392
4.51235
4.93452
5.34812
5.72919
6.04074
6.26582
6.41219
6.50507
6.56991
6.58547
6.47497
6.16582
5.7204
5.26828
4.92293
4.72425
4.64331
4.60547
4.51595
4.28398
3.85339
3.2482
2.59473
2.08172
1.99791
2.47331
3.051
3.45209
3.52143
3.97029
4.37932
4.7865
5.18549
5.54909
5.85601
6.09313
6.26408
6.39404
6.50577
6.57163
6.51201
6.26468
5.89816
5.5311
5.26098
5.11035
5.05917
5.04509
4.97416
4.75065
4.30441
3.64574
2.8902
2.26328
2.0641
2.44287
2.99002
3.37186
3.4057
3.86986
4.27419
4.6728
5.06429
5.42665
5.73248
5.98865
6.18949
6.3653
6.53692
6.66399
6.66522
6.49984
6.2407
5.98459
5.79581
5.69788
5.68094
5.68804
5.62679
5.39796
4.91925
4.18264
3.28224
2.50077
2.16026
2.44261
2.94207
3.30842
3.30939
3.79122
4.1975
4.5956
4.98886
5.36042
5.68223
5.96947
6.22919
6.47374
6.72027
6.92706
7.02161
6.96896
6.85847
6.7328
6.6431
6.61618
6.63996
6.66416
6.59575
6.33435
5.79097
4.93041
3.82362
2.81557
2.29961
2.47288
2.91641
3.26535
3.23321
3.73666
4.15409
4.5603
4.96715
5.37467
5.76975
6.13053
6.46708
6.80215
7.15502
7.47931
7.7189
7.83405
7.91178
7.95894
8.01525
8.09166
8.16916
8.20285
8.0942
7.74488
7.07203
6.0113
4.59995
3.2498
2.48901
2.5434
2.93096
3.26316
3.18592
3.71548
4.15674
4.61489
5.09687
5.59403
6.08094
6.54268
7.0037
7.48681
8.00755
8.51584
8.96884
9.32797
9.69414
10.0132
10.2983
10.5377
10.6889
10.711
10.4952
9.94814
9.01925
7.62074
5.75763
3.88373
2.76823
2.67773
2.99852
3.31179
3.19931
3.79253
4.32992
4.88871
5.48727
6.11367
6.75771
7.39246
8.05923
8.78223
9.57132
10.375
11.1668
11.921
12.7645
13.5349
14.1938
14.6918
14.9372
14.8807
14.4208
13.4756
12.042
10.0639
7.54657
4.88022
3.24903
2.94468
3.18136
3.46874
3.42981
4.12979
4.82581
5.56268
6.3599
7.21343
8.1353
9.0711
10.0877
11.2122
12.4459
13.7393
15.0907
16.5024
18.1372
19.6331
20.8663
21.7286
22.0348
21.6767
20.5897
18.871
16.5959
13.7764
10.3826
6.61307
4.17048
3.51729
3.65329
3.92036
4.15274
5.07941
6.06617
7.13086
8.2979
9.56283
10.9699
12.4368
14.052
15.8515
17.8186
19.9098
22.1618
24.605
27.421
29.8788
31.7776
32.5408
32.1538
30.8745
28.8718
26.2315
23.0309
19.2746
14.9207
9.84305
6.20349
4.90289
4.84632
5.07618
6.3521
7.68846
9.24653
10.9324
12.7699
14.7603
16.9749
19.3225
21.8916
24.7291
27.7844
31.0211
34.5068
38.2434
42.2735
45.2005
46.1126
45.5159
43.7913
41.3217
38.3749
35.0109
31.209
26.8678
21.8806
15.8529
10.9951
8.53196
8.00366
8.13354
12.9457
14.9992
17.5502
20.2494
23.1078
26.1314
29.3992
32.8727
36.5972
40.612
44.8045
49.1316
53.5906
57.8797
61.2109
61.4583
59.8666
57.0341
53.6201
50.0058
46.4751
43.0432
39.5564
35.7189
31.2248
25.6636
20.6779
17.5739
16.346
16.2853
29.1564
32.3095
35.9904
39.6359
43.2702
46.9546
50.7363
54.708
58.8499
63.1471
67.4029
71.473
74.7504
75.9405
74.7263
70.6783
65.7111
60.4194
55.517
51.284
47.9009
45.3146
43.3256
41.51
39.3591
36.5501
33.9673
32.6842
32.8569
33.6831
44.8918
50.1027
54.8144
59.0438
62.6685
65.9658
69.0478
72.0748
74.9353
77.5559
79.7307
80.91
79.8131
76.1113
70.3854
63.0505
56.0802
49.7982
44.6752
40.8242
38.2331
36.7817
36.342
36.6199
37.1501
37.7167
38.7256
40.6382
43.2137
46.4838
23.5446
31.2618
34.2598
35.8465
36.4723
36.0846
34.8299
32.9065
30.4845
27.7103
24.6928
21.5298
18.2887
14.9719
11.597
8.98779
7.57046
7.86404
8.31756
8.08933
6.5541
3.59073
1.38767
1.70539
2.57133
3.45674
3.72116
4.06533
5.30051
6.98483
12.9715
14.945
15.9077
16.4695
16.7816
16.7613
16.3728
15.6632
14.6971
13.5309
12.2228
10.7971
9.28791
7.67842
6.28317
5.48324
5.21829
5.47608
5.54068
5.44989
4.73435
3.20313
1.24766
1.17145
1.47028
1.82318
2.28769
3.10061
4.1762
5.76772
11.6733
12.7339
13.292
13.5704
13.6679
13.5874
13.3028
12.8146
12.1416
11.3054
10.342
9.26514
8.0932
6.79771
5.71671
5.14668
4.94351
4.99977
4.90245
4.78156
4.27527
3.20063
1.56732
1.28882
1.49613
1.84104
2.38529
3.278
4.43898
5.96261
11.1332
11.8779
12.3054
12.4974
12.5384
12.4552
12.2329
11.8586
11.3322
10.6555
9.85135
8.92626
7.9056
6.73587
5.74964
5.20142
4.92734
4.80658
4.60035
4.42057
4.02039
3.20152
1.93973
1.51564
1.63077
1.98857
2.5711
3.49421
4.70403
6.16144
10.7187
11.2803
11.65
11.8254
11.8761
11.8299
11.6709
11.3828
10.9582
10.3861
9.68371
8.87699
7.95242
6.83712
5.89348
5.32317
4.96497
4.7085
4.42417
4.19899
3.87606
3.26584
2.26445
1.76482
1.80437
2.14882
2.74907
3.67763
4.89793
6.28728
10.2749
10.7122
11.0572
11.2548
11.3505
11.3647
11.2752
11.0634
10.7202
10.2282
9.61852
8.89706
8.02825
6.953
6.04306
5.44593
5.01507
4.66571
4.33048
4.09442
3.81439
3.33095
2.52385
2.00543
1.9818
2.29176
2.90096
3.81669
5.02156
6.33911
9.74921
10.1191
10.4657
10.709
10.8689
10.9516
10.9357
10.7958
10.5226
10.0991
9.56987
8.91583
8.09104
7.05269
6.17963
5.55895
5.06974
4.65577
4.30705
4.06169
3.78766
3.3811
2.72273
2.21668
2.14438
2.41196
3.02467
3.91585
5.08702
6.32808
9.1676
9.50252
9.86924
10.1723
10.4031
10.5571
10.6107
10.5396
10.3291
9.96704
9.50334
8.91824
8.13069
7.13798
6.30557
5.66413
5.12926
4.67422
4.3283
4.05749
3.78197
3.41898
2.87745
2.39031
2.28098
2.50917
3.11992
3.98894
5.10752
6.24563
8.55692
8.87699
9.28059
9.64624
9.94748
10.1698
10.2863
10.2788
10.1252
9.81941
9.40935
8.88804
8.14862
7.21847
6.42675
5.76546
5.19602
4.72618
4.38682
4.08218
3.79339
3.45218
2.98258
2.52854
2.38524
2.57994
3.18345
4.03342
5.07965
6.1101
7.94622
8.27496
8.71471
9.13736
9.5028
9.78676
9.95978
10.0065
9.90583
9.65216
9.29502
8.82844
8.15289
7.30243
6.5474
5.86628
5.27212
4.80622
4.4661
4.14189
3.83007
3.48792
3.05695
2.63646
2.4561
2.623
3.21398
4.04925
5.00409
5.93555
7.35395
7.70584
8.17983
8.65094
9.07166
9.40886
9.63083
9.72244
9.67057
9.46593
9.16336
8.74962
8.15379
7.39407
6.66924
5.96927
5.36007
4.9105
4.56474
4.22839
3.89901
3.53835
3.11752
2.71008
2.49972
2.64151
3.21441
4.02421
4.88455
5.73421
6.79271
7.17656
7.68082
8.19138
8.65721
9.0382
9.30093
9.4295
9.42186
9.26509
9.01977
8.66617
8.16165
7.49334
6.79286
6.07752
5.46363
5.03685
4.68769
4.34522
4.00114
3.61333
3.18
2.76378
2.52531
2.63301
3.17299
3.96107
4.74963
5.51859
6.28358
6.69622
7.22295
7.76299
8.26269
8.6773
8.97261
9.13249
9.16329
9.05589
8.87218
8.58831
8.18401
7.60091
6.91981
6.19602
5.59058
5.18911
4.84132
4.4986
4.14198
3.72891
3.25904
2.81587
2.53983
2.60281
3.10601
3.87287
4.60933
5.30044
5.83657
6.27068
6.81087
7.36957
7.89144
8.3295
8.64972
8.83668
8.90156
8.84655
8.73012
8.52464
8.22389
7.71781
7.05428
6.33337
5.7561
5.37567
5.03481
4.69842
4.33264
3.89055
3.37052
2.88045
2.55544
2.56488
3.0249
3.76849
4.46471
5.08699
5.45013
5.90401
6.44811
7.01443
7.54715
7.99922
8.33765
8.54855
8.64648
8.64732
8.60436
8.48584
8.29009
7.84835
7.20567
6.50394
5.97401
5.60879
5.28482
4.95915
4.58652
4.11663
3.54111
2.97376
2.5834
2.52992
2.93829
3.65422
4.3185
4.88525
5.118
5.59231
6.13868
6.70107
7.23408
7.69203
8.04355
8.27717
8.41126
8.47046
8.50664
8.4886
8.3882
8.00239
7.39123
6.73114
6.26102
5.91459
5.61468
5.30291
4.92508
4.42701
3.78722
3.11863
2.63723
2.51001
2.85596
3.53685
4.17484
4.70339
4.8355
5.32931
5.87755
6.43546
6.95806
7.41517
7.77695
8.03422
8.20932
8.33304
8.45377
8.53978
8.52752
8.19902
7.63985
7.05389
6.64523
6.32988
6.05906
5.76337
5.38082
4.8492
4.13402
3.34932
2.7366
2.51825
2.78852
3.42391
4.03791
4.5404
4.58821
5.10572
5.65452
6.20996
6.72703
7.17919
7.55093
7.83504
8.05799
8.25405
8.46265
8.66111
8.73458
8.47167
7.99792
7.52166
7.17243
6.90548
6.67042
6.39233
6.00435
5.42371
4.61637
3.68373
2.90603
2.55787
2.74709
3.3232
3.91223
4.39659
4.37691
4.91852
5.46881
6.02254
6.54292
6.9978
7.38517
7.70104
7.98327
8.24757
8.57634
8.88544
9.05425
8.87484
8.53953
8.18916
7.92043
7.71952
7.52969
7.27117
6.86406
6.21408
5.28757
4.16966
3.17245
2.65345
2.75367
3.24553
3.80334
4.27354
4.202
4.76654
5.32116
5.87683
6.40546
6.87777
7.29497
7.64786
8.00263
8.38624
8.83734
9.26731
9.55615
9.50165
9.35315
9.15026
9.0032
8.89308
8.7654
8.53136
8.0657
7.31172
6.22691
4.8709
3.57058
2.81826
2.80575
3.21114
3.72177
4.17519
4.06549
4.65216
5.2159
5.77987
6.32577
6.82374
7.28865
7.75473
8.21915
8.72319
9.31923
9.89788
10.3509
10.4937
10.5666
10.5716
10.5972
10.6175
10.5849
10.3262
9.75848
8.84494
7.54456
5.87917
4.16364
3.09052
2.90836
3.23746
3.69753
4.12042
3.97453
4.58377
5.16352
5.74405
6.32283
6.92106
7.51222
8.09346
8.69592
9.36657
10.1516
10.9299
11.6069
12.0113
12.4145
12.7123
12.9794
13.1999
13.2146
12.8742
12.135
10.9818
9.3849
7.32503
5.04804
3.53242
3.10485
3.32754
3.74025
4.13625
3.94372
4.57803
5.21276
5.88598
6.58623
7.3045
8.03467
8.77842
9.57851
10.4812
11.5262
12.5839
13.5786
14.366
15.2567
15.9634
16.5797
16.9607
16.9239
16.4096
15.4027
13.9113
11.9228
9.38246
6.39425
4.25606
3.45589
3.54297
3.87403
4.23724
4.07848
4.80244
5.55752
6.36332
7.21892
8.10889
9.0482
10.0421
11.1319
12.368
13.7852
15.2485
16.706
18.0561
19.6514
20.9018
21.8513
22.1805
21.92
21.088
19.7054
17.7904
15.3357
12.2609
8.46307
5.49714
4.1557
3.99985
4.23406
4.54433
4.56821
5.43868
6.39153
7.4144
8.51454
9.68075
10.9422
12.3191
13.8386
15.5615
17.5174
19.5699
21.6938
23.8423
26.3763
28.1772
28.9715
28.9048
28.1427
26.8169
24.981
22.6308
19.731
16.1689
11.6258
7.70341
5.60173
4.98739
5.06764
5.31636
5.86224
6.97445
8.25225
9.63732
11.1359
12.7338
14.4827
16.4284
18.5683
20.983
23.6887
26.5498
29.5575
32.6977
36.2333
37.6373
37.6457
36.5974
34.9911
33.0134
30.7469
28.1203
25.011
21.2255
16.2945
11.5913
8.59057
7.26788
6.9916
7.11336
9.17042
10.6387
12.4483
14.3951
16.4795
18.6915
21.1017
23.7993
26.7366
30.018
33.6265
37.4198
41.3508
45.302
48.8124
48.3321
46.4768
43.8298
41.108
38.4519
35.9341
33.3969
30.5918
27.1868
22.6447
17.8994
14.3877
12.4499
11.5332
11.3285
17.264
19.2119
21.6901
24.2916
27.0087
29.8407
32.8769
36.2682
39.9257
43.9554
48.2643
52.6684
56.9237
60.3462
61.3293
57.3108
52.8036
48.2186
44.349
41.1797
38.722
36.7559
34.9401
32.8187
29.833
26.3868
23.612
22.0001
21.2901
20.8304
32.7229
35.5567
38.5437
41.4611
44.3374
47.2533
50.3181
53.7415
57.4266
61.4155
65.4841
69.2906
72.0043
71.7266
68.4884
60.2673
53.1254
46.8553
42.1847
38.8529
36.7408
35.6362
35.2447
35.0949
34.6496
33.8298
33.4748
33.8929
34.95
36.255
43.5338
48.6013
53.0666
56.75
59.6299
62.2645
64.8644
67.6285
70.4493
73.2572
75.7363
77.2311
76.1118
71.496
64.2557
53.4025
44.911
38.2087
33.5402
30.4516
28.7929
28.3216
28.8961
30.1836
31.6437
33.2015
35.3097
38.0586
41.3252
45.2576
29.5419
38.7372
42.3543
44.0388
44.746
44.3706
42.94
40.63
37.6097
34.0308
30.0161
25.6641
21.0719
16.2858
12.0534
10.5641
12.6813
17.9687
20.0611
19.7222
17.4501
13.7166
8.3731
3.80577
4.06828
4.81304
5.50071
6.91104
8.3007
9.48014
15.9289
18.0655
19.0446
19.5215
19.7908
19.789
19.3922
18.6194
17.5208
16.1391
14.5394
12.7328
10.7578
8.61496
7.18346
7.14972
8.40563
10.6356
11.5809
11.6321
10.8171
9.41309
6.98539
3.99341
3.54051
3.74129
4.34747
5.3431
6.40179
7.83468
14.2411
15.282
15.7346
15.9193
15.9544
15.8482
15.5503
15.0339
14.2986
13.3459
12.208
10.8848
9.39465
7.74259
6.7496
6.77719
7.51843
8.82875
9.51259
9.6764
9.22673
8.33827
6.63725
4.51488
3.89309
3.9902
4.57704
5.53077
6.65255
8.07459
13.6114
14.2255
14.5187
14.6153
14.5831
14.4611
14.2247
13.836
13.2737
12.5159
11.5788
10.4525
9.16011
7.70293
6.83416
6.76571
7.12621
7.86096