/*--------------------------------*- C++ -*----------------------------------*\
  =========                 |
  \\      /  F ield         | OpenFOAM: The Open Source CFD Toolbox
   \\    /   O peration     | Website:  https://openfoam.org
    \\  /    A nd           | Version:  12
     \\/     M anipulation  |
\*---------------------------------------------------------------------------*/
FoamFile
{
    format      ascii;
    class       volScalarField;
    location    "650/air";
    object      k;
}
// * * * * * * * * * * * * * * * * * * * * * * * * * * * * * * * * * * * * * //

dimensions      [0 2 -2 0 0 0 0];

internalField   nonuniform List<scalar> 
243000
(
0.125747
0.135111
0.137458
0.136703
0.133227
0.127895
0.121447
0.114511
0.107558
0.101039
0.0953017
0.0907468
0.0876527
0.086024
0.0849554
0.083526
0.0812281
0.0779764
0.073853
0.0690252
0.0638151
0.057968
0.049292
0.0364085
0.0390085
0.0508172
0.0571214
0.0646905
0.071789
0.0796837
0.193053
0.212761
0.214357
0.209838
0.201788
0.191622
0.180378
0.168805
0.157463
0.14679
0.137074
0.128605
0.121324
0.114821
0.108333
0.101885
0.0956964
0.0899157
0.0844044
0.0790078
0.0735923
0.0679493
0.0603549
0.0493876
0.0536789
0.0772739
0.0906037
0.103547
0.118062
0.135801
0.232093
0.258092
0.262311
0.258028
0.249297
0.237866
0.224976
0.211558
0.198249
0.185542
0.173767
0.163278
0.153892
0.144944
0.135596
0.126194
0.1173
0.109294
0.10201
0.0951884
0.0884438
0.0813524
0.0726122
0.0605843
0.0595026
0.0891964
0.109703
0.126947
0.145462
0.167922
0.256874
0.285714
0.292547
0.289139
0.280737
0.269181
0.255807
0.241628
0.227348
0.213514
0.200533
0.188845
0.178245
0.167878
0.156803
0.145505
0.134734
0.125048
0.11632
0.10826
0.100347
0.0919246
0.0822955
0.0695312
0.0627641
0.092509
0.118908
0.140343
0.162448
0.188811
0.272441
0.303068
0.31218
0.310067
0.302693
0.291845
0.278838
0.264716
0.250221
0.235948
0.222392
0.210098
0.198853
0.187636
0.175396
0.16272
0.150491
0.139416
0.129443
0.120283
0.11133
0.101693
0.0911945
0.077841
0.0674114
0.089512
0.123834
0.14881
0.173724
0.203224
0.281978
0.31306
0.32423
0.323619
0.317668
0.308029
0.295923
0.282385
0.268176
0.253941
0.240257
0.227776
0.216284
0.204621
0.191615
0.177947
0.164623
0.152426
0.141416
0.131328
0.121498
0.110825
0.0995473
0.085748
0.0727439
0.083096
0.125153
0.153792
0.181326
0.213556
0.287051
0.316857
0.33053
0.33164
0.327352
0.319223
0.308349
0.295736
0.282152
0.268294
0.254809
0.242443
0.230988
0.219174
0.205702
0.191354
0.177226
0.164146
0.152298
0.141453
0.130896
0.119377
0.107456
0.0933298
0.0785383
0.0775994
0.123347
0.156055
0.186167
0.220226
0.288146
0.316354
0.332067
0.335367
0.332943
0.326501
0.317061
0.305584
0.292853
0.279612
0.266566
0.254534
0.24333
0.231573
0.217877
0.2031
0.188409
0.174666
0.162162
0.150716
0.139562
0.127397
0.114963
0.100582
0.0846798
0.0774056
0.11753
0.156471
0.188739
0.223703
0.286296
0.313207
0.330287
0.335765
0.335308
0.330652
0.322762
0.312547
0.300817
0.288359
0.275932
0.2644
0.253595
0.24205
0.228323
0.213328
0.198277
0.184078
0.171083
0.159175
0.147533
0.134913
0.122087
0.107494
0.0909476
0.079916
0.109617
0.155366
0.18959
0.224589
0.28217
0.308061
0.326159
0.333772
0.335326
0.332337
0.325956
0.317088
0.306458
0.294899
0.283226
0.272319
0.262023
0.250789
0.237193
0.222163
0.206933
0.192464
0.179131
0.166884
0.154843
0.141932
0.128833
0.114076
0.0971651
0.0833227
0.102255
0.152878
0.188808
0.22296
0.276089
0.301337
0.320244
0.329942
0.333346
0.332249
0.327284
0.319623
0.310096
0.299522
0.288699
0.278513
0.2688
0.257952
0.244618
0.229714
0.214473
0.199891
0.186376
0.173896
0.161534
0.14847
0.135208
0.120343
0.103267
0.0874495
0.097174
0.149381
0.186313
0.219189
0.268308
0.29333
0.31302
0.324602
0.329814
0.330454
0.327156
0.320653
0.312111
0.302486
0.29257
0.283164
0.274074
0.263681
0.250716
0.23608
0.220981
0.206433
0.192872
0.180265
0.167653
0.154552
0.141222
0.126303
0.109165
0.0919699
0.0933094
0.144968
0.182569
0.214208
0.259134
0.284269
0.304789
0.318036
0.325054
0.327303
0.325533
0.320427
0.312865
0.304079
0.29503
0.286433
0.277984
0.268097
0.255594
0.241353
0.226537
0.212159
0.198668
0.18604
0.173254
0.160214
0.146889
0.131993
0.11486
0.0967352
0.0908979
0.139625
0.178309
0.209834
0.249449
0.274405
0.295754
0.310476
0.319294
0.323034
0.322732
0.318876
0.31249
0.304596
0.296286
0.288459
0.280658
0.271314
0.259353
0.245621
0.231219
0.217138
0.203825
0.191264
0.17839
0.165496
0.152245
0.137437
0.120358
0.101723
0.0915188
0.132648
0.173748
0.205345
0.240119
0.264334
0.286127
0.30218
0.312646
0.317841
0.318892
0.31626
0.310905
0.304069
0.296595
0.289388
0.282207
0.273439
0.262092
0.248973
0.235104
0.221436
0.208407
0.195998
0.183126
0.170447
0.157333
0.142639
0.125656
0.106731
0.093531
0.125545
0.168987
0.200648
0.230959
0.254868
0.276213
0.293336
0.30525
0.31187
0.314146
0.312693
0.308358
0.302454
0.295903
0.289461
0.282785
0.274582
0.263914
0.2515
0.238269
0.225121
0.212482
0.200303
0.187535
0.175129
0.162194
0.14764
0.130773
0.11171
0.0962331
0.119059
0.164117
0.195929
0.221827
0.245813
0.267009
0.284153
0.297248
0.305244
0.308621
0.308281
0.304949
0.299977
0.294272
0.288565
0.282519
0.274899
0.264933
0.253298
0.240799
0.228267
0.216111
0.20424
0.191694
0.179598
0.166876
0.152478
0.135739
0.116633
0.0993772
0.11335
0.159208
0.191206
0.212636
0.237044
0.258281
0.275186
0.288817
0.298059
0.302449
0.303132
0.300777
0.296732
0.291855
0.28688
0.281428
0.274445
0.265249
0.254463
0.24278
0.23095
0.219355
0.207864
0.195663
0.183903
0.171422
0.157206
0.140603
0.121507
0.102953
0.108631
0.154323
0.186504
0.203311
0.228481
0.249917
0.266739
0.280165
0.290407
0.295749
0.297351
0.295941
0.2928
0.28875
0.284505
0.279655
0.273341
0.264967
0.255093
0.244299
0.233247
0.222268
0.211226
0.19948
0.188077
0.175875
0.161877
0.145426
0.126368
0.106876
0.105166
0.14952
0.181847
0.19379
0.220088
0.241858
0.258708
0.271924
0.282408
0.288604
0.291026
0.290518
0.288258
0.285037
0.281515
0.27729
0.271686
0.264179
0.255273
0.245431
0.235211
0.224895
0.214362
0.203146
0.192147
0.180282
0.166546
0.150276
0.131272
0.111119
0.103279
0.144765
0.17727
0.184035
0.211869
0.234079
0.251013
0.264096
0.27431
0.28107
0.284205
0.284545
0.283155
0.280748
0.277957
0.274385
0.269535
0.262942
0.255055
0.246213
0.236862
0.227245
0.217273
0.206668
0.196142
0.184684
0.171279
0.155231
0.136291
0.115635
0.103794
0.139718
0.172805
0.173553
0.203876
0.226589
0.243624
0.256624
0.266621
0.273266
0.276946
0.278036
0.277492
0.275882
0.273818
0.270937
0.266885
0.261249
0.254416
0.246592
0.238148
0.229264
0.219907
0.210051
0.200095
0.189127
0.176143
0.160355
0.14149
0.120429
0.105723
0.134963
0.168532
0.162705
0.19623
0.219426
0.236534
0.249465
0.259278
0.265928
0.26958
0.271067
0.271285
0.270427
0.269062
0.26688
0.263644
0.258988
0.253225
0.246417
0.238944
0.230857
0.222226
0.213354
0.204093
0.193709
0.181229
0.165757
0.146951
0.12551
0.108526
0.131076
0.164615
0.152449
0.189123
0.212653
0.229732
0.242556
0.252271
0.25906
0.262789
0.264524
0.265114
0.264752
0.263851
0.262243
0.259784
0.256095
0.251409
0.245716
0.239358
0.232399
0.224885
0.216963
0.208436
0.198688
0.18677
0.171679
0.152866
0.130967
0.112148
0.128451
0.161315
0.144127
0.182817
0.206356
0.223268
0.236001
0.2457
0.252686
0.256587
0.25868
0.259739
0.259964
0.259643
0.25868
0.256958
0.254273
0.250698
0.24624
0.241044
0.23517
0.228676
0.221617
0.213796
0.204662
0.193293
0.178549
0.159706
0.137132
0.116649
0.127558
0.158908
0.139267
0.177809
0.200941
0.21752
0.230076
0.239775
0.247035
0.251244
0.253871
0.255586
0.256566
0.257025
0.256945
0.256237
0.254754
0.252469
0.249345
0.245396
0.240634
0.235113
0.228832
0.22161
0.212959
0.201958
0.187405
0.168294
0.144747
0.122338
0.128949
0.157963
0.139215
0.175127
0.197357
0.213478
0.22582
0.235591
0.243344
0.248232
0.251768
0.25456
0.256742
0.258504
0.259856
0.2607
0.260879
0.260255
0.258679
0.256077
0.252396
0.247688
0.241931
0.234973
0.226398
0.215376
0.200596
0.18076
0.155581
0.130646
0.133709
0.159696
0.148939
0.179445
0.200286
0.216058
0.228714
0.239088
0.248002
0.25454
0.259975
0.264843
0.269294
0.27355
0.277501
0.280901
0.28345
0.28477
0.284703
0.28309
0.279891
0.275258
0.269212
0.261618
0.252191
0.240238
0.224506
0.203378
0.175833
0.147304
0.147725
0.168893
0.195557
0.220324
0.240047
0.256267
0.270279
0.282117
0.293017
0.302773
0.311699
0.319874
0.32778
0.336172
0.344071
0.350709
0.355504
0.358033
0.358287
0.356205
0.351896
0.345813
0.338056
0.328201
0.316471
0.302559
0.285415
0.263537
0.235625
0.205082
0.201563
0.215754
0.436655
0.452198
0.466203
0.478257
0.489028
0.494364
0.498859
0.504966
0.511728
0.516602
0.522244
0.531695
0.540225
0.545884
0.54844
0.548738
0.546741
0.542946
0.537572
0.532
0.52608
0.516834
0.507428
0.49839
0.488483
0.47681
0.461485
0.445519
0.442712
0.449846
0.179505
0.20601
0.214316
0.215659
0.211754
0.20417
0.194182
0.182857
0.170979
0.159166
0.147812
0.137477
0.128515
0.120665
0.112274
0.102517
0.0915273
0.0799904
0.0683307
0.056778
0.0454261
0.0368355
0.0337638
0.0323838
0.0421376
0.0517824
0.0553057
0.0618438
0.0728005
0.0927356
0.294927
0.33965
0.348968
0.343685
0.329858
0.311098
0.289985
0.268078
0.246225
0.22494
0.204512
0.185316
0.166944
0.148446
0.13
0.114072
0.101353
0.0916286
0.0834339
0.0756039
0.0667077
0.0576269
0.0489813
0.0463562
0.0624102
0.0827419
0.10284
0.12071
0.144957
0.177966
0.358532
0.415492
0.432511
0.429872
0.416358
0.3962
0.372344
0.346677
0.320317
0.29405
0.268406
0.243981
0.220076
0.195331
0.170467
0.149247
0.132781
0.120742
0.111191
0.102504
0.0927618
0.0820709
0.0683899
0.0583852
0.0694976
0.0962022
0.12933
0.159519
0.192995
0.233229
0.39904
0.460678
0.483082
0.48383
0.472903
0.454416
0.431121
0.404915
0.377074
0.34862
0.320367
0.293099
0.265954
0.237323
0.208236
0.183128
0.163404
0.148924
0.137727
0.128
0.117596
0.105825
0.0878632
0.0700069
0.0714393
0.101959
0.144313
0.186453
0.228486
0.273082
0.423894
0.488492
0.513308
0.517551
0.509925
0.494417
0.473233
0.448132
0.420451
0.391412
0.36213
0.333536
0.304644
0.273651
0.241691
0.213732
0.191326
0.174668
0.162003
0.151515
0.140974
0.128769
0.107589
0.0829036
0.0751244
0.101764
0.153641
0.205141
0.254443
0.30362
0.440117
0.50162
0.529658
0.537351
0.533351
0.521424
0.503124
0.480017
0.453463
0.424875
0.395618
0.366737
0.337108
0.304783
0.270917
0.240845
0.216321
0.197823
0.183984
0.173126
0.162971
0.150824
0.127361
0.0973378
0.081359
0.0970395
0.158047
0.218705
0.274623
0.327682
0.448808
0.503832
0.534598
0.547062
0.546926
0.538848
0.523798
0.503162
0.478327
0.450878
0.422356
0.393914
0.36429
0.331395
0.296364
0.264759
0.238591
0.218597
0.2039
0.193053
0.183715
0.171909
0.146892
0.112982
0.0898441
0.094478
0.158466
0.22744
0.289598
0.346508
0.450186
0.500289
0.53197
0.548468
0.553258
0.549067
0.537381
0.519419
0.496647
0.470776
0.443489
0.415993
0.386961
0.354023
0.318434
0.285777
0.258388
0.237245
0.221988
0.211466
0.203377
0.191911
0.165903
0.129333
0.0999979
0.0976075
0.154786
0.232661
0.299816
0.360583
0.447346
0.493403
0.525673
0.545058
0.554044
0.55383
0.545433
0.530147
0.509597
0.485572
0.459883
0.433715
0.405674
0.373132
0.337464
0.304171
0.275946
0.254002
0.238481
0.228501
0.221881
0.210732
0.184186
0.14588
0.111601
0.103165
0.149115
0.235306
0.306408
0.370163
0.441536
0.484097
0.516752
0.538651
0.551137
0.554645
0.549127
0.536346
0.518067
0.496047
0.47221
0.447679
0.420865
0.389093
0.353733
0.320179
0.29146
0.269102
0.253586
0.24432
0.239197
0.228363
0.201612
0.162232
0.124169
0.109628
0.144068
0.235789
0.309936
0.375672
0.433012
0.472984
0.506039
0.530131
0.545538
0.552309
0.550164
0.53937
0.522854
0.502848
0.481029
0.458306
0.432945
0.402227
0.367486
0.334019
0.305151
0.282723
0.267477
0.259106
0.25539
0.244837
0.21812
0.178163
0.137307
0.117013
0.141673
0.233527
0.31105
0.377822
0.422021
0.460517
0.494108
0.520007
0.537941
0.547478
0.548399
0.540187
0.525215
0.506716
0.486876
0.466033
0.442279
0.412823
0.37896
0.345908
0.31723
0.295055
0.280312
0.273085
0.270561
0.260238
0.233702
0.193536
0.150795
0.125103
0.140853
0.229261
0.30987
0.377141
0.409029
0.447118
0.481388
0.508778
0.528871
0.540826
0.544384
0.538701
0.525732
0.50856
0.490216
0.471273
0.449203
0.421152
0.388395
0.356072
0.327918
0.306295
0.292269
0.286434
0.284841
0.274709
0.248408
0.208413
0.164488
0.133578
0.141653
0.223854
0.305962
0.372106
0.394806
0.433271
0.468253
0.496838
0.518727
0.532754
0.538493
0.535022
0.524124
0.508857
0.491853
0.474394
0.454056
0.427511
0.396067
0.364772
0.33746
0.316668
0.303561
0.299197
0.298394
0.288453
0.262448
0.222808
0.177947
0.142444
0.143843
0.217871
0.300416
0.365228
0.379331
0.41956
0.45507
0.484602
0.507838
0.523585
0.531126
0.529811
0.520505
0.507297
0.492183
0.476011
0.457219
0.43225
0.40231
0.372323
0.346144
0.326423
0.314468
0.311567
0.311446
0.301734
0.276092
0.236702
0.191099
0.151793
0.14699
0.211539
0.293797
0.357172
0.363038
0.405674
0.442331
0.47244
0.496537
0.513625
0.522658
0.523334
0.515733
0.504139
0.491117
0.476552
0.459147
0.435801
0.407535
0.379113
0.354323
0.335867
0.325374
0.323808
0.32427
0.314883
0.289684
0.250437
0.204123
0.161937
0.150775
0.205359
0.286516
0.348427
0.346376
0.391798
0.429832
0.460595
0.485242
0.50326
0.513543
0.515927
0.510165
0.50025
0.489007
0.476379
0.460458
0.438698
0.412259
0.385625
0.362449
0.345413
0.336725
0.336227
0.337211
0.328285
0.303648
0.264456
0.217309
0.172814
0.155211
0.199149
0.278916
0.339446
0.32977
0.378053
0.4177
0.449485
0.474391
0.492965
0.504264
0.508124
0.504272
0.496157
0.486677
0.475982
0.461669
0.441581
0.417129
0.392479
0.371109
0.355662
0.348764
0.349207
0.350686
0.342379
0.318477
0.279456
0.23117
0.184423
0.160455
0.194545
0.271394
0.330598
0.313523
0.364586
0.406008
0.438946
0.464555
0.483345
0.495429
0.500596
0.498707
0.49249
0.48485
0.476249
0.463429
0.44526
0.422971
0.400471
0.381095
0.367389
0.361986
0.363287
0.365193
0.357646
0.334713
0.295908
0.246348
0.197064
0.167192
0.192037
0.264311
0.322179
0.297855
0.351612
0.39489
0.429161
0.455856
0.475137
0.487833
0.494212
0.494294
0.490146
0.484876
0.477821
0.466882
0.45081
0.430871
0.41067
0.393397
0.381442
0.377186
0.37917
0.381377
0.374653
0.352968
0.31449
0.263678
0.211307
0.17579
0.191428
0.257914
0.314412
0.283016
0.339462
0.384649
0.420307
0.448409
0.469204
0.482617
0.490237
0.492128
0.490482
0.487337
0.482262
0.473414
0.459671
0.442352
0.42466
0.409553
0.399049
0.395656
0.397934
0.400174
0.394205
0.373984
0.336016
0.284062
0.227916
0.186432
0.193577
0.252547
0.307486
0.269398
0.32876
0.375602
0.41277
0.442483
0.46517
0.480447
0.48972
0.494077
0.494919
0.49426
0.49149
0.484982
0.47396
0.459808
0.445013
0.431718
0.4225
0.419478
0.421415
0.423186
0.417686
0.398811
0.361622
0.308059
0.247704
0.199159
0.198549
0.248833
0.301744
0.257931
0.320222
0.368161
0.407003
0.438571
0.463466
0.481656
0.494711
0.502083
0.506028
0.508385
0.508499
0.505057
0.497345
0.48685
0.475034
0.463699
0.455587
0.452322
0.452997
0.453515
0.447803
0.429642
0.393071
0.337183
0.27142
0.214874
0.205897
0.248274
0.298092
0.250332
0.314318
0.362994
0.403644
0.437354
0.466162
0.489447
0.506221
0.51757
0.525955
0.532532
0.537109
0.537851
0.534442
0.528272
0.520307
0.511801
0.504976
0.500903
0.499421
0.497488
0.490092
0.471099
0.433849
0.374212
0.301195
0.234876
0.216328
0.251311
0.298434
0.247988
0.311483
0.361297
0.404942
0.443889
0.478289
0.507104
0.528532
0.545581
0.560137
0.572621
0.58307
0.590428
0.593686
0.594144
0.59237
0.588704
0.58432
0.579581
0.57494
0.568267
0.555794
0.53225
0.491009
0.425313
0.341795
0.261904
0.232259
0.259286
0.303647
0.256488
0.318623
0.372588
0.421676
0.466184
0.507399
0.543653
0.572807
0.599204
0.623551
0.64503
0.663489
0.680576
0.694904
0.70712
0.715891
0.720238
0.719949
0.7141
0.703977
0.688369
0.66488
0.629857
0.577933
0.502336
0.404113
0.303554
0.259356
0.277572
0.318291
0.289198
0.353163
0.413371
0.470576
0.524222
0.57612
0.624861
0.666169
0.705597
0.743459
0.778531
0.810996
0.842571
0.872611
0.901656
0.924701
0.938123
0.940646
0.930665
0.910512
0.880177
0.838824
0.784984
0.715301
0.624923
0.509972
0.382646
0.316535
0.325899
0.361344
0.390898
0.461544
0.533434
0.603342
0.670761
0.736184
0.798847
0.85563
0.91089
0.964329
1.01439
1.06175
1.10777
1.15175
1.19035
1.21635
1.22512
1.21684
1.19236
1.15586
1.10964
1.05423
0.988815
0.909942
0.812671
0.692032
0.549086
0.45945
0.454965
0.484619
0.669773
0.745038
0.825468
0.902534
0.976196
1.04595
1.11114
1.17175
1.2298
1.28432
1.3341
1.37964
1.41568
1.44129
1.45075
1.43476
1.40295
1.3607
1.31272
1.26249
1.2132
1.16587
1.11962
1.06949
1.00789
0.928327
0.830694
0.758565
0.75028
0.77692
1.03815
1.10716
1.17252
1.23084
1.28524
1.33312
1.37564
1.41315
1.44399
1.46685
1.48427
1.49536
1.48908
1.46421
1.41844
1.36326
1.30641
1.24873
1.19512
1.14893
1.11087
1.08141
1.06201
1.04959
1.0379
1.024
1.01302
1.01687
1.04095
1.07235
0.224251
0.263405
0.274101
0.277068
0.273518
0.26496
0.252865
0.238518
0.222855
0.206593
0.190178
0.174081
0.158512
0.143127
0.126176
0.108546
0.0918702
0.0784892
0.0674908
0.0575938
0.0450487
0.0338374
0.0311594
0.0342965
0.0458958
0.0567361
0.0607619
0.0657646
0.0729085
0.104054
0.369144
0.430487
0.447562
0.443607
0.428145
0.405886
0.380034
0.352397
0.323952
0.295227
0.266387
0.237495
0.207618
0.176502
0.149255
0.132434
0.12407
0.121469
0.117809
0.110177
0.0903732
0.0614492
0.044945
0.0462179
0.0683259
0.0932022
0.1184
0.149314
0.170862
0.200767
0.451208
0.52365
0.550235
0.549695
0.534849
0.511436
0.48291
0.451252
0.41762
0.382751
0.347062
0.310708
0.2722
0.231375
0.19643
0.176143
0.166802
0.163716
0.159204
0.149861
0.125458
0.0918389
0.0661035
0.058874
0.08014
0.111714
0.151919
0.197339
0.234173
0.274468
0.507038
0.580586
0.612525
0.615684
0.603571
0.582123
0.554438
0.522382
0.487176
0.449705
0.410619
0.370116
0.326429
0.279607
0.239874
0.216612
0.204986
0.19967
0.193352
0.182327
0.156413
0.121889
0.0904878
0.0741064
0.0879254
0.123608
0.174316
0.231461
0.281795
0.330242
0.54226
0.616567
0.650414
0.657274
0.648739
0.630627
0.605373
0.574633
0.539645
0.501454
0.460915
0.418238
0.371516
0.321099
0.278505
0.252879
0.238688
0.23079
0.222739
0.21079
0.185974
0.151857
0.116535
0.0925123
0.0977748
0.132703
0.191931
0.257117
0.318018
0.372519
0.564556
0.635106
0.67132
0.681974
0.677591
0.663592
0.641642
0.613165
0.579428
0.541664
0.500907
0.457476
0.409236
0.356862
0.312808
0.285299
0.268559
0.25819
0.248814
0.23697
0.214922
0.181177
0.143151
0.11324
0.110902
0.140553
0.205611
0.278609
0.346207
0.405848
0.576564
0.639218
0.677907
0.69422
0.694507
0.68507
0.666898
0.641217
0.609371
0.572799
0.532759
0.489602
0.441027
0.388017
0.343551
0.314478
0.295293
0.282693
0.2725
0.261953
0.242379
0.209398
0.169541
0.13529
0.126236
0.149144
0.21631
0.295746
0.369117
0.431897
0.578574
0.635363
0.674695
0.696062
0.702558
0.697845
0.683635
0.660997
0.63143
0.596594
0.557992
0.515923
0.46795
0.415541
0.37137
0.340904
0.319467
0.304908
0.294374
0.285811
0.267938
0.236119
0.195131
0.157457
0.142471
0.159187
0.224764
0.309187
0.386541
0.452059
0.574979
0.627416
0.667164
0.691956
0.703762
0.703984
0.693674
0.674107
0.647029
0.614342
0.577746
0.537482
0.490868
0.440163
0.396716
0.364972
0.341502
0.32529
0.31488
0.308263
0.291595
0.260899
0.219521
0.178938
0.158674
0.169854
0.231537
0.319565
0.398993
0.466872
0.567732
0.616456
0.65648
0.684214
0.70038
0.705183
0.698407
0.681738
0.657247
0.62705
0.592936
0.554989
0.510604
0.462391
0.419889
0.386975
0.361723
0.344212
0.334449
0.329252
0.313449
0.283714
0.242411
0.19935
0.174132
0.180231
0.236835
0.327281
0.407521
0.476919
0.557297
0.603243
0.643598
0.673885
0.693716
0.702603
0.699906
0.685646
0.663256
0.63557
0.604328
0.569177
0.527802
0.482561
0.441076
0.407135
0.380411
0.361952
0.353288
0.348798
0.33362
0.304683
0.263552
0.2186
0.188486
0.189885
0.241057
0.332593
0.413567
0.482926
0.5441
0.58844
0.62931
0.661731
0.684631
0.696939
0.698193
0.686904
0.666465
0.640907
0.612714
0.580733
0.542939
0.500879
0.460414
0.425653
0.39783
0.378803
0.371276
0.366959
0.352279
0.323992
0.282957
0.236758
0.201992
0.198602
0.244388
0.335763
0.417345
0.485737
0.528879
0.572717
0.614261
0.648422
0.673831
0.689074
0.693566
0.685596
0.66751
0.644046
0.618788
0.590256
0.556375
0.517491
0.47805
0.442764
0.414277
0.395125
0.388554
0.383953
0.369688
0.341868
0.300781
0.253862
0.215044
0.206329
0.246935
0.337125
0.419078
0.486141
0.512758
0.556767
0.598979
0.634614
0.66191
0.679557
0.686673
0.681438
0.66649
0.645465
0.623162
0.598284
0.568408
0.532547
0.494209
0.458786
0.430113
0.411385
0.405383
0.400227
0.386204
0.358627
0.317489
0.269899
0.227868
0.213295
0.248716
0.336986
0.419047
0.483241
0.495932
0.541302
0.584007
0.62081
0.649412
0.668914
0.678125
0.675716
0.663307
0.645694
0.626546
0.605326
0.579343
0.546318
0.509245
0.474162
0.445813
0.428144
0.422085
0.416209
0.402279
0.374792
0.333543
0.285196
0.240429
0.220038
0.249643
0.334145
0.416133
0.478772
0.478568
0.526194
0.569926
0.607427
0.636942
0.65772
0.66859
0.66887
0.659027
0.64498
0.629401
0.611891
0.589583
0.559249
0.523711
0.489521
0.462032
0.445612
0.439028
0.432387
0.418459
0.391065
0.349504
0.299862
0.252773
0.226746
0.24968
0.329348
0.410987
0.472848
0.460977
0.511533
0.55666
0.594933
0.625078
0.646653
0.658908
0.661543
0.654663
0.644273
0.63234
0.618591
0.599712
0.572022
0.538416
0.505732
0.479741
0.464317
0.456748
0.44938
0.435406
0.408222
0.366203
0.314741
0.264837
0.233927
0.249902
0.323425
0.404337
0.465921
0.443536
0.497417
0.544233
0.583495
0.614386
0.636526
0.649924
0.654694
0.651088
0.64458
0.636325
0.626205
0.610548
0.585609
0.55447
0.523967
0.500123
0.48502
0.4762
0.468033
0.453953
0.427156
0.384695
0.331194
0.277823
0.242138
0.251557
0.317386
0.396895
0.458459
0.426588
0.483961
0.532702
0.573238
0.605228
0.628177
0.642637
0.64948
0.649412
0.646605
0.642385
0.635763
0.623218
0.601351
0.573387
0.545855
0.524048
0.508675
0.498589
0.489527
0.475221
0.448929
0.406196
0.350814
0.293078
0.251769
0.254849
0.312173
0.389373
0.450892
0.410462
0.471339
0.522201
0.564316
0.597691
0.622255
0.638201
0.647419
0.651085
0.652039
0.651895
0.648821
0.639375
0.621087
0.597232
0.573377
0.552914
0.536953
0.52571
0.515624
0.500848
0.474904
0.432258
0.374526
0.311927
0.263743
0.260276
0.30907
0.38243
0.443597
0.395565
0.459858
0.512995
0.556966
0.592108
0.618608
0.636859
0.650161
0.657569
0.662617
0.666844
0.667484
0.661545
0.647378
0.628744
0.608238
0.588725
0.572634
0.560377
0.54906
0.53339
0.507345
0.464831
0.404113
0.335523
0.279234
0.267816
0.30891
0.376541
0.43692
0.382522
0.450051
0.505542
0.551537
0.588842
0.617719
0.641333
0.659353
0.671191
0.680796
0.689679
0.694769
0.693241
0.68388
0.670158
0.653109
0.635602
0.620165
0.607111
0.59426
0.577009
0.549854
0.506694
0.442482
0.365808
0.299246
0.278238
0.311896
0.373129
0.431627
0.372445
0.442834
0.500354
0.548486
0.58842
0.623764
0.653668
0.67646
0.69364
0.708988
0.723523
0.734005
0.737835
0.733866
0.725877
0.71391
0.700355
0.686702
0.673162
0.6583
0.638319
0.608172
0.562406
0.493628
0.406362
0.325752
0.292784
0.318641
0.374374
0.429931
0.367126
0.438636
0.498163
0.550138
0.597661
0.640252
0.676784
0.705165
0.729022
0.751444
0.772875
0.790059
0.801031
0.804718
0.804984
0.800719
0.793574
0.783194
0.769409
0.751509
0.726791
0.690796
0.638749
0.562887
0.462809
0.362879
0.313932
0.330456
0.380242
0.432907
0.367372
0.440801
0.506973
0.56736
0.62231
0.672481
0.716645
0.752642
0.785239
0.816841
0.847232
0.873344
0.894023
0.908859
0.921821
0.928218
0.929447
0.923025
0.908018
0.884239
0.850004
0.803732
0.741652
0.656807
0.543552
0.420112
0.348158
0.353875
0.394203
0.443804
0.391151
0.467872
0.540629
0.608842
0.673367
0.732527
0.786719
0.833381
0.877587
0.921252
0.963349
1.00124
1.0348
1.06427
1.09315
1.11075
1.11784
1.10686
1.08055
1.04428
0.999078
0.943115
0.872755
0.780931
0.659667
0.514477
0.414472
0.402119
0.431082
0.474306
0.457279
0.539279
0.622146
0.701228
0.776455
0.847254
0.914028
0.974133
1.0322
1.08972
1.14488
1.19569
1.24264
1.28561
1.32469
1.34106
1.32982
1.29881
1.2561
1.20683
1.15323
1.09353
1.02316
0.934138
0.817767
0.667728
0.549358
0.507396
0.522493
0.557169
0.629926
0.715951
0.807705
0.896131
0.98082
1.06131
1.1376
1.20818
1.27634
1.34284
1.40524
1.46212
1.5126
1.55212
1.57113
1.54821
1.50337
1.44583
1.38517
1.32601
1.27063
1.21777
1.16226
1.09466
1.00457
0.884597
0.779619
0.728065
0.728716
0.75338
0.974348
1.0581
1.14727
1.23128
1.31044
1.3852
1.45457
1.5191
1.58045
1.63802
1.68923
1.73191
1.7557
1.74908
1.7103
1.63611
1.55351
1.47009
1.39531
1.33259
1.28432
1.24846
1.22122
1.1932
1.15312
1.09677
1.04847
1.0355
1.05612
1.09175
1.25034
1.34007
1.42142
1.49423
1.55674
1.61244
1.66113
1.70423
1.74116
1.77044
1.79108
1.79647
1.76897
1.70731
1.61883
1.50863
1.40387
1.30953
1.23255
1.17512
1.13786
1.11912
1.11643
1.12446
1.13299
1.13913
1.15379
1.18655
1.23584
1.29712
0.266567
0.31414
0.325888
0.328005
0.324345
0.315158
0.301639
0.285056
0.266351
0.246247
0.225159
0.203399
0.181034
0.157659
0.132667
0.111848
0.0998208
0.10262
0.107223
0.1063
0.0934337
0.0632489
0.0341332
0.0399761
0.0537413
0.06708
0.0720477
0.0782957
0.0955551
0.118214
0.445062
0.515386
0.531662
0.527765
0.510713
0.485674
0.456122
0.423936
0.390005
0.354721
0.31794
0.279334
0.237388
0.193959
0.163827
0.159144
0.170077
0.191696
0.203103
0.204259
0.183631
0.135471
0.075932
0.0742336
0.103071
0.129612
0.156638
0.187606
0.207536
0.236078
0.550173
0.628645
0.654424
0.653345
0.636032
0.609271
0.576699
0.54009
0.50031
0.4578
0.412532
0.364022
0.310001
0.25373
0.217543
0.215111
0.229057
0.249482
0.259152
0.259938
0.239091
0.1894
0.122566
0.111208
0.137808
0.171679
0.21147
0.255021
0.288916
0.328881
0.622366
0.699199
0.731065
0.73277
0.717586
0.692343
0.660349
0.623107
0.581404
0.53564
0.485948
0.431674
0.370082
0.30595
0.266767
0.264304
0.276749
0.292374
0.298817
0.29802
0.278946
0.232948
0.16985
0.149094
0.169212
0.207019
0.254758
0.307218
0.352744
0.401041
0.672755
0.745215
0.779916
0.784677
0.772746
0.75056
0.720741
0.684547
0.64273
0.595705
0.54377
0.486058
0.419556
0.350812
0.310887
0.307598
0.316886
0.327183
0.330366
0.328007
0.311452
0.272431
0.214188
0.186787
0.200206
0.238363
0.290863
0.34967
0.403997
0.457592
0.704718
0.774524
0.809288
0.81747
0.809602
0.79146
0.764781
0.730587
0.68968
0.64259
0.589782
0.530267
0.460795
0.389844
0.350925
0.346333
0.351777
0.357154
0.35772
0.354853
0.340138
0.306837
0.253861
0.222951
0.230437
0.266258
0.321022
0.383893
0.444885
0.501183
0.723912
0.786741
0.824099
0.836038
0.832919
0.819444
0.796486
0.764878
0.72555
0.679221
0.626606
0.566589
0.495643
0.424892
0.388126
0.381706
0.382961
0.384092
0.383278
0.379195
0.365038
0.336051
0.288227
0.25586
0.258687
0.290828
0.346091
0.411546
0.476622
0.535329
0.731552
0.78604
0.824111
0.843573
0.846015
0.837494
0.818533
0.789831
0.752547
0.707633
0.656116
0.596682
0.525795
0.457619
0.423497
0.414659
0.41149
0.409026
0.407484
0.400964
0.386665
0.360518
0.317604
0.284496
0.283779
0.311811
0.367212
0.434995
0.502374
0.561698
0.730127
0.780147
0.818872
0.842129
0.851355
0.847816
0.832869
0.807193
0.772292
0.729369
0.679767
0.621834
0.552874
0.489351
0.457688
0.445816
0.438097
0.432649
0.429881
0.420592
0.405548
0.380911
0.341906
0.308636
0.304807
0.328505
0.384177
0.454039
0.522597
0.581802
0.724305
0.770434
0.809753
0.836474
0.850484
0.852132
0.840996
0.818295
0.786058
0.745684
0.698645
0.643326
0.578286
0.520901
0.491008
0.47554
0.463312
0.455669
0.450444
0.438478
0.422212
0.397878
0.361639
0.32834
0.321422
0.341515
0.397145
0.468829
0.537599
0.596576
0.71435
0.757707
0.797763
0.827584
0.84599
0.852351
0.844776
0.824724
0.794879
0.757649
0.713897
0.662409
0.603149
0.552571
0.523502
0.504041
0.487549
0.478062
0.469454
0.455063
0.437169
0.412299
0.37759
0.343981
0.333756
0.351077
0.406384
0.479618
0.547774
0.606674
0.700443
0.742593
0.783728
0.816351
0.838419
0.848695
0.84566
0.827971
0.800613
0.766383
0.726664
0.680186
0.628194
0.584242
0.555074
0.531437
0.511196
0.499733
0.487534
0.470826
0.450943
0.424737
0.390651
0.356355
0.34233
0.357597
0.41234
0.48685
0.554781
0.612875
0.683533
0.725898
0.76843
0.803548
0.828614
0.842115
0.842941
0.82879
0.803947
0.773141
0.738002
0.69759
0.653756
0.615663
0.585628
0.557957
0.53466
0.520845
0.505206
0.486265
0.464102
0.435857
0.401594
0.366451
0.347851
0.361474
0.415466
0.49101
0.559125
0.615991
0.664868
0.708458
0.752543
0.789939
0.817355
0.83359
0.837709
0.827112
0.805534
0.77872
0.748845
0.715324
0.679847
0.646524
0.615176
0.583938
0.558583
0.541715
0.522988
0.501926
0.477281
0.446512
0.410462
0.373916
0.351472
0.363077
0.416206
0.492549
0.561071
0.616775
0.645333
0.691041
0.736704
0.776114
0.805382
0.823843
0.830643
0.823335
0.806089
0.783788
0.760033
0.733874
0.706251
0.676638
0.643933
0.609896
0.583276
0.562753
0.541462
0.518421
0.491329
0.4576
0.4184
0.379481
0.353792
0.361968
0.412998
0.490333
0.56013
0.614814
0.625426
0.67395
0.721449
0.762511
0.793462
0.813632
0.822675
0.818938
0.806425
0.789308
0.77226
0.75347
0.732904
0.706084
0.672401
0.636624
0.608996
0.584922
0.561364
0.536475
0.507135
0.470249
0.426931
0.384552
0.355214
0.358978
0.407088
0.484416
0.555614
0.610723
0.605556
0.657424
0.706892
0.749631
0.782235
0.803754
0.814813
0.814926
0.807353
0.796265
0.786023
0.774463
0.759944
0.735319
0.701455
0.66535
0.636346
0.609224
0.583615
0.556994
0.525694
0.485677
0.437521
0.390461
0.35684
0.355732
0.400049
0.476348
0.548735
0.605025
0.586092
0.641667
0.693217
0.737635
0.771966
0.795128
0.808265
0.81224
0.809858
0.805244
0.802034
0.79736
0.787871
0.765227
0.732442
0.697254
0.666293
0.636839
0.609427
0.581171
0.548198
0.50526
0.452505
0.398829
0.359827
0.353748
0.393245
0.467333
0.540469
0.598283
0.567386
0.626831
0.680608
0.726775
0.762996
0.788396
0.804133
0.812043
0.815406
0.817219
0.821215
0.82301
0.817713
0.797276
0.767368
0.733126
0.700626
0.669407
0.64045
0.610665
0.575959
0.530603
0.473212
0.41204
0.365742
0.354879
0.388008
0.458412
0.531588
0.590995
0.549771
0.613109
0.669277
0.717342
0.755641
0.783692
0.802494
0.816071
0.825205
0.833555
0.844648
0.852678
0.851205
0.833638
0.80784
0.774501
0.741486
0.709221
0.679024
0.647875
0.610973
0.563482
0.501625
0.432952
0.376833
0.358706
0.386712
0.450878
0.522782
0.583509
0.533713