/*--------------------------------*- C++ -*----------------------------------*\
  =========                 |
  \\      /  F ield         | OpenFOAM: The Open Source CFD Toolbox
   \\    /   O peration     | Website:  https://openfoam.org
    \\  /    A nd           | Version:  12
     \\/     M anipulation  |
\*---------------------------------------------------------------------------*/
FoamFile
{
    format      ascii;
    class       volScalarField;
    location    "650/air";
    object      nut;
}
// * * * * * * * * * * * * * * * * * * * * * * * * * * * * * * * * * * * * * //

dimensions      [0 2 -1 0 0 0 0];

internalField   nonuniform List<scalar> 
243000
(
0.000186706
0.000186403
0.000181249
0.000174405
0.000166372
0.000157782
0.000149124
0.000140771
0.000132979
0.000126
0.000120018
0.000115268
0.000111914
0.000109972
0.00010886
0.000107977
0.000106967
0.000105712
0.000104187
0.000102392
0.000100425
9.80681e-05
9.30727e-05
8.31396e-05
8.64394e-05
0.000102535
0.000112463
0.00012401
0.000135602
0.0001483
0.000694628
0.000702501
0.000679971
0.000649303
0.00061537
0.000580535
0.000546375
0.00051392
0.000483889
0.000456815
0.000433042
0.000412931
0.000396331
0.000382534
0.000370147
0.000359013
0.000349377
0.000341431
0.00033483
0.000329166
0.000323985
0.000318726
0.000309015
0.000287994
0.000303203
0.0003786
0.00042553
0.000471476
0.000522349
0.00058177
0.000899077
0.000948715
0.000957232
0.000949785
0.000933913
0.000912535
0.000887707
0.000861034
0.000833685
0.000806682
0.000780828
0.000757064
0.000735157
0.000713713
0.000690535
0.000666249
0.00064231
0.00061993
0.000598861
0.000578507
0.000557787
0.000535329
0.000506902
0.000463581
0.000451844
0.000553538
0.000616348
0.000663332
0.000709936
0.000763351
0.000945674
0.000998146
0.00101092
0.00100545
0.000991092
0.000970786
0.000946624
0.000920242
0.000892836
0.000865439
0.000838913
0.000814293
0.000791307
0.000768231
0.000742704
0.000715541
0.000688511
0.00066321
0.00063957
0.00061701
0.000594199
0.000569057
0.000539399
0.000496711
0.000467506
0.000561345
0.0006404
0.000696283
0.000749109
0.000808821
0.000973651
0.001028
0.00104431
0.00104122
0.00102913
0.00101084
0.000988333
0.000963222
0.000936702
0.000909816
0.000883508
0.000858949
0.000835859
0.000812241
0.00078556
0.000756746
0.000727722
0.00070034
0.000674745
0.000650424
0.000625933
0.000598616
0.000567657
0.000525562
0.000486562
0.000549427
0.000652123
0.00071598
0.00077379
0.000838678
0.000990348
0.00104459
0.00106426
0.00106373
0.00105428
0.00103849
0.00101816
0.000994849
0.000969737
0.000943893
0.000918341
0.000894387
0.000871756
0.000848231
0.000821097
0.000791383
0.000761158
0.000732331
0.000705306
0.000679672
0.000653941
0.000624966
0.000592978
0.000551539
0.000506847
0.000528026
0.000654088
0.000726919
0.000790065
0.000859169
0.000998994
0.00105069
0.00107446
0.00107681
0.00107021
0.00105717
0.0010393
0.00101808
0.000994683
0.00097021
0.000945762
0.000922752
0.000900919
0.000877885
0.000850744
0.000820656
0.000789771
0.000759993
0.000731975
0.00070542
0.000678806
0.000648619
0.000615996
0.000575276
0.000527485
0.000512926
0.00064712
0.000731828
0.000800941
0.000872279
0.00100064
0.00104973
0.00107676
0.00108277
0.00107926
0.00106911
0.00105385
0.00103488
0.00101336
0.000990464
0.000967345
0.000945493
0.000924682
0.000902374
0.000875549
0.000845462
0.000814314
0.000783986
0.000755331
0.00072818
0.000700963
0.000669972
0.000637078
0.000597047
0.000548348
0.000519453
0.000627274
0.000732358
0.000806382
0.000878834
0.00099721
0.00104437
0.00107371
0.0010833
0.00108303
0.00107584
0.00106325
0.00104658
0.00102703
0.00100583
0.000984198
0.000963649
0.00094399
0.000922556
0.000896278
0.000866479
0.000835368
0.000804845
0.000775849
0.000748359
0.000720751
0.00068946
0.000656473
0.00061706
0.000568479
0.000529568
0.000604401
0.00072904
0.000807966
0.00088027
0.00098978
0.00103561
0.00106682
0.00107998
0.00108297
0.00107852
0.00106845
0.00105413
0.0010366
0.00101717
0.000997123
0.000977978
0.000959551
0.000939059
0.000913509
0.000884229
0.000853406
0.000822983
0.000793903
0.000766289
0.000738442
0.000707189
0.000674333
0.000635529
0.000587608
0.000541733
0.000583486
0.000722096
0.000805697
0.000876547
0.000978818
0.00102409
0.00105691
0.00107364
0.00107966
0.00107828
0.00107058
0.0010583
0.00104272
0.00102511
0.00100671
0.000989042
0.000971886
0.000952374
0.000927688
0.000899122
0.00086881
0.000838715
0.000809812
0.000782247
0.000754284
0.000723317
0.000690786
0.000652635
0.000605698
0.000556082
0.000569431
0.000712506
0.000799529
0.000868549
0.000964663
0.00101021
0.00104475
0.00106475
0.00107382
0.00107528
0.00107029
0.00105996
0.00104608
0.00103016
0.00101344
0.000997272
0.000981381
0.000962892
0.000939173
0.000911487
0.000881888
0.000852331
0.000823814
0.000796467
0.00076849
0.000738005
0.000705951
0.000668486
0.000622618
0.000570957
0.000559385
0.00070061
0.000790774
0.000858979
0.000947785
0.000994284
0.00103073
0.00105374
0.00106593
0.00107005
0.00106757
0.00105954
0.00104732
0.00103286
0.00101769
0.00100302
0.000988367
0.000970926
0.00094826
0.000921601
0.0008929
0.000864069
0.000836106
0.000809152
0.000781266
0.000751409
0.000719942
0.000683251
0.000638506
0.000586179
0.000556159
0.00068528
0.000781326
0.000850758
0.000929984
0.000976678
0.00101514
0.00104095
0.00105632
0.00106295
0.00106289
0.00105692
0.00104667
0.00103372
0.00101986
0.00100657
0.00099312
0.000976739
0.000955203
0.000929704
0.00090207
0.000874144
0.000846889
0.000820457
0.000792788
0.000763685
0.000732894
0.0006971
0.000653459
0.0006014
0.000563845
0.000665175
0.000771056
0.00084183
0.0009124
0.000958614
0.000998291
0.00102677
0.0010451
0.00105428
0.00105647
0.00105254
0.00104398
0.00103281
0.00102038
0.00100819
0.000995871
0.000980564
0.00096023
0.000936015
0.000909602
0.000882742
0.00085635
0.000830566
0.000803238
0.000774985
0.000744969
0.000710061
0.000667527
0.000616116
0.000572366
0.000646586
0.000760279
0.00083228
0.0008947
0.000941229
0.000980774
0.00101147
0.00103251
0.00104424
0.0010485
0.00104655
0.00103968
0.00103005
0.00101919
0.00100832
0.000996901
0.000982617
0.000963556
0.000940738
0.000915689
0.000890043
0.000864668
0.000839652
0.000812798
0.000785485
0.000756311
0.000722296
0.000680831
0.000630315
0.00058186
0.000630007
0.000749113
0.000822515
0.000876622
0.00092424
0.000964228
0.000995351
0.00101872
0.00103299
0.00103917
0.0010391
0.00103389
0.00102582
0.00101637
0.00100676
0.00099644
0.000983186
0.000965405
0.000944076
0.000920515
0.000896218
0.000872006
0.000847872
0.000821648
0.000795356
0.000767076
0.000733949
0.000693507
0.00064399
0.000592524
0.000615515
0.000737739
0.000812625
0.000857975
0.000907448
0.000948272
0.000979535
0.00100405
0.00102065
0.00102867
0.00103033
0.00102678
0.00102024
0.00101218
0.00100382
0.000994518
0.000982368
0.000965964
0.000946222
0.000924266
0.000901444
0.000878513
0.000855368
0.00082995
0.000804757
0.0007774
0.000745176
0.000705714
0.000657218
0.000603932
0.000604107
0.000726285
0.000802646
0.00083854
0.000890719
0.000932715
0.000964371
0.000988791
0.00100737
0.00101716
0.00102042
0.00101847
0.00101345
0.00100677
0.000999651
0.000991378
0.000980379
0.000965426
0.000947362
0.000927119
0.000905883
0.000884314
0.000862261
0.00083792
0.000813797
0.000787393
0.000756104
0.000717622
0.000670131
0.000615973
0.000596748
0.000714854
0.000792614
0.000818122
0.000873979
0.000917457
0.000949707
0.000974161
0.00099331
0.00100476
0.00100947
0.00100908
0.00100554
0.00100026
0.000994375
0.000987167
0.000977385
0.000963959
0.000947655
0.000929226
0.000909663
0.000889514
0.000868639
0.000845565
0.00082253
0.000797156
0.00076687
0.0007294
0.000682902
0.000628494
0.000595072
0.000702843
0.000782599
0.000796522
0.000857237
0.000902471
0.000935429
0.000960044
0.00097895
0.000991523
0.000997552
0.000998628
0.000996585
0.000992691
0.000988058
0.000981969
0.000973484
0.000961664
0.000947209
0.000930672
0.000912829
0.000894146
0.00087452
0.000852852
0.000831006
0.000806777
0.000777624
0.000741228
0.000695713
0.000641397
0.000600976
0.000689594
0.000772665
0.00077209
0.000840593
0.000887799
0.000921506
0.00094636
0.000965111
0.000977647
0.000984709
0.000987117
0.000986554
0.000984037
0.000980659
0.000975761
0.000968659
0.000958527
0.000945988
0.000931361
0.000915295
0.000898119
0.000879797
0.000859775
0.000839288
0.000816348
0.000788489
0.000753251
0.000708731
0.000654655
0.000608814
0.00067755
0.000763042
0.000746038
0.000824335
0.000873542
0.000907947
0.000933052
0.000951704
0.000964404
0.000971473
0.000974641
0.000975428
0.00097423
0.000972071
0.000968392
0.000962722
0.000954332
0.000943739
0.000931005
0.000916816
0.00090123
0.000884322
0.000866414
0.000847536
0.000826066
0.000799664
0.000765704
0.000722136
0.000668334
0.000618133
0.00066802
0.000754156
0.000720752
0.000808945
0.000859862
0.000894754
0.000920022
0.00093872
0.000951837
0.000959104
0.000962698
0.000964126
0.000963785
0.000962422
0.000959804
0.000955552
0.000948894
0.000940258
0.00092949
0.000917387
0.000904003
0.000889319
0.000873547
0.000856369
0.000836471
0.000811639
0.000779092
0.000736367
0.00068268
0.000629537
0.000661917
0.000746633
0.000699978
0.000795105
0.000846972
0.00088204
0.000907477
0.000926396
0.000940005
0.000947661
0.000951898
0.000954167
0.000954865
0.000954532
0.000953004
0.000950047
0.000945208
0.000938624
0.000930253
0.000920404
0.000909158
0.000896563
0.000882686
0.000867145
0.000848781
0.0008255
0.000794335
0.000752495
0.000698501
0.000642744
0.000660565
0.000741193
0.000688043
0.000784044
0.000835759
0.000870607
0.000895998
0.000915139
0.000929399
0.000937686
0.000942905
0.000946376
0.00094845
0.000949525
0.000949585
0.000948455
0.000945828
0.000941655
0.000935852
0.000928444
0.000919432
0.000908874
0.000896742
0.000882663
0.00086562
0.000843585
0.000813569
0.000772253
0.000717555
0.000658651
0.000665112
0.000739284
0.000688749
0.00077823
0.000828321
0.000862509
0.000887698
0.000907135
0.000922406
0.000932018
0.000938915
0.000944367
0.000948631
0.000952079
0.000954733
0.000956419
0.000956846
0.000955768
0.000952917
0.000948157
0.000941366
0.000932615
0.000921826
0.000908676
0.000892295
0.000870902
0.000841434
0.000800081
0.000743767
0.000680776
0.000678395
0.000743754
0.000714385
0.000788363
0.000834744
0.000867914
0.000893541
0.000913991
0.000931255
0.000943833
0.000954081
0.000963184
0.000971409
0.000979188
0.000986343
0.000992452
0.000997013
0.000999386
0.000999321
0.000996548
0.000990973
0.000982835
0.00097213
0.00095855
0.000941475
0.000919457
0.000889732
0.000848167
0.000790172
0.000722585
0.000714692
0.000765596
0.000823305
0.000875265
0.00091486
0.00094597
0.000971935
0.000993337
0.00101255
0.00102955
0.00104473
0.00105849
0.00107152
0.00108516
0.00109787
0.00110844
0.00111604
0.00112006
0.00112053
0.00111736
0.00111069
0.00110117
0.00108895
0.00107321
0.00105415
0.00103116
0.00100218
0.000964009
0.000912611
0.000850707
0.000837373
0.00086673
0.00123544
0.00125712
0.00127695
0.00129365
0.00130833
0.00131574
0.0013217
0.00132973
0.00133853
0.00134507
0.00135216
0.00136422
0.00137518
0.00138242
0.00138574
0.00138621
0.00138382
0.00137913
0.00137239
0.00136533
0.00135796
0.00134622
0.00133393
0.00132205
0.00130899
0.00129353
0.00127285
0.0012494
0.001244
0.00125388
0.000222978
0.000230134
0.000226289
0.000219065
0.000209778
0.000199404
0.000188632
0.000177974
0.000167769
0.000158277
0.000149633
0.000142068
0.000135726
0.000130485
0.00012541
0.000119905
0.00011383
0.000107347
0.000100488
9.31534e-05
8.50497e-05
7.83166e-05
0.000339964
7.70135e-05
9.01378e-05
0.000103525
0.00011098
0.000121506
0.000137023
0.000160199
0.000960394
0.00108643
0.00104543
0.000966951
0.000880375
0.000796519
0.000721405
0.000655515
0.000597419
0.000545461
0.000498185
0.000455474
0.000412389
0.000365863
0.000320762
0.000287274
0.000266839
0.000257908
0.000255515
0.000255984
0.000256182
0.000256976
0.000258841
0.000236717
0.000363973
0.00049772
0.000618135
0.000686746
0.000755735
0.000792374
0.00161151
0.00188006
0.00187704
0.00177455
0.00164159
0.00150264
0.00137228
0.00125403
0.00114709
0.00104984
0.00096044
0.000878444
0.000794515
0.000702416
0.000614234
0.000549159
0.00050904
0.000490075
0.000483114
0.000481923
0.000480724
0.000478354
0.00044747
0.000401061
0.000517869
0.000714435
0.00095454
0.00115323
0.0013074
0.00136606
0.00213069
0.00248724
0.00253187
0.00243282
0.00228471
0.00211876
0.00195575
0.00180193
0.00165854
0.00152605
0.00140301
0.00128559
0.00116332
0.0010324
0.000909928
0.000819406
0.000761774
0.000732156
0.00071884
0.000713885
0.000709107
0.000700501
0.000636041
0.000536696
0.000587369
0.000789279
0.00112475
0.00147175
0.00174474
0.00183764
0.00252229
0.00295907
0.00303149
0.00294824
0.00280164
0.00262759
0.00244879
0.00227365
0.00210572
0.00194724
0.00179573
0.00165022
0.00149855
0.00133706
0.00118807
0.00107839
0.00100627
0.000966825
0.000947525
0.000939569
0.000932607
0.000919606
0.000823467
0.000667774
0.000637118
0.000817807
0.00122679
0.00168617
0.00207313
0.00222704
0.0028402
0.00329106
0.00340728
0.00334574
0.00321028
0.00304107
0.00285772
0.0026718
0.00248859
0.00231069
0.00213942
0.0019733
0.00179835
0.00161448
0.00144624
0.00132217
0.0012385
0.00118995
0.00116524
0.00115572
0.00114891
0.00113369
0.00101008
0.000804611
0.000701945
0.000812552
0.00127632
0.00184472
0.00233825
0.00255406
0.00308859
0.00350622
0.00366409
0.00364616
0.0035295
0.00337392
0.00319375
0.00300452
0.00281295
0.00262281
0.00243693
0.00225755
0.00206609
0.00186717
0.00168587
0.00155109
0.00145801
0.00140094
0.00137137
0.00136164
0.00135762
0.00134108
0.00119399
0.000947845
0.000780685
0.000828713
0.00128945
0.00194717
0.00254085
0.00282948
0.00326269
0.00365849
0.00383382
0.00385453
0.00377572
0.00363901
0.00346813
0.00328028
0.00308563
0.00289053
0.00269454
0.00250617
0.00230585
0.00209775
0.00190869
0.00176603
0.00166516
0.00160017
0.0015662
0.00155714
0.00155985
0.00153991
0.00137253
0.00109427
0.000871018
0.000868424
0.00127498
0.00200671
0.00268245
0.00305569
0.00339533
0.00377148
0.00395828
0.00400513
0.00395961
0.00384774
0.00369026
0.00350652
0.00331295
0.0031167
0.00291865
0.00272221
0.00252033
0.00230896
0.00211613
0.00196772
0.00186036
0.00178818
0.00175038
0.00174238
0.00175398
0.00172818
0.00154321
0.00123966
0.00097044
0.000919078
0.001251
0.00203456
0.00277607
0.0032369
0.00349859
0.00385075
0.00404446
0.00411517
0.00409793
0.00401236
0.00386754
0.00368918
0.00349998
0.00330614
0.00311095
0.00291416
0.00270972
0.00250156
0.002309
0.00215665
0.00204369
0.00196585
0.00192462
0.00191804
0.00193864
0.00190487
0.00170423
0.00138058
0.0010744
0.000973137
0.00123544
0.00203975
0.00283061
0.00338239
0.00356806
0.00389841
0.00409851
0.00419153
0.00419888
0.00413807
0.00401719
0.00384153
0.00365235
0.0034635
0.00327427
0.00308279
0.00288207
0.00267672
0.00248758
0.0023331
0.00221567
0.00213349
0.00208957
0.00208533
0.00211358
0.00206952
0.00185446
0.00151484
0.00117943
0.00103215
0.00123876
0.00202276
0.00285994
0.00349828
0.00359653
0.00391518
0.00412475
0.0042376
0.00426832
0.00422982
0.00413315
0.00397305
0.00378345
0.00359503
0.00341303
0.00322999
0.00303754
0.00283945
0.00265365
0.00249838
0.00237667
0.0022917
0.00224586
0.00224611
0.00227895
0.00222218
0.0019932
0.001641
0.00128418
0.00109305
0.0012501
0.00198887
0.002867
0.00358429
0.0035768
0.00390099
0.00412621
0.0042581
0.00431113
0.00429446
0.00422008
0.00407921
0.00389866
0.00371036
0.003531
0.00335852
0.00317744
0.00298869
0.00280742
0.00265241
0.0025283
0.00244134
0.00239444
0.00240151
0.00243487
0.0023633
0.00212012
0.00175989
0.00138822
0.0011546
0.00126661
0.00194474
0.00283662
0.00359281
0.00350125
0.0038537
0.00410488
0.00425695
0.00433136
0.00433567
0.00428092
0.00415856
0.00399125
0.00381376
0.00363676
0.00347079
0.00330348
0.00312531
0.0029497
0.00279597
0.00267154
0.00258338
0.00253655
0.00255054
0.00258134
0.00249367
0.00223672
0.00187109
0.0014858
0.00121507
0.00128364
0.00189592
0.0027822
0.00355944
0.00336918
0.0037732
0.00406086
0.00423826
0.0043326
0.00435678
0.0043196
0.00421824
0.00406011
0.00389792
0.00373333
0.00357255
0.00341748
0.0032505
0.00308144
0.00293027
0.00280735
0.00271866
0.00267369
0.00269326
0.00271849
0.00261441
0.00234471
0.00197256
0.00157673
0.00127408
0.00130111
0.00184452
0.00271099
0.00349634
0.00320029
0.00365211
0.00399461
0.00420455
0.00431829
0.00436102
0.0043401
0.00425985
0.00411525
0.00396321
0.00381596
0.00366635
0.00352169
0.00336579
0.00320386
0.00305649
0.00293639
0.00284789
0.00280766
0.00282969
0.00284625
0.00272666
0.00244602
0.00206672
0.00166269
0.00133634
0.00131683
0.00179346
0.00262922
0.00341162
0.0030112
0.00350549
0.00389795
0.00415512
0.00429217
0.00435192
0.004347
0.00428574
0.00415876
0.00401879
0.00388525
0.00375277
0.00361973
0.00347308
0.00331865
0.0031757
0.003058
0.00297163
0.0029391
0.00295844
0.00296424
0.00283101
0.00254231
0.00215603
0.00174466
0.00140047
0.00133579
0.00174444
0.00254263
0.00331398
0.00281564
0.00334544
0.00378259
0.00409003
0.00425693
0.00433325
0.00434382
0.00429979
0.0041931
0.00406737
0.00394751
0.00383246
0.00371178
0.00357385
0.00342715
0.00329027
0.00317489
0.00309088
0.00306418
0.00307655
0.00307024
0.00292661
0.00263406
0.00224466
0.00182434
0.0014658
0.0013531
0.00170385
0.00245672
0.0032107
0.00262416
0.00318184
0.00365729
0.004008
0.00421663
0.00430938
0.0043345
0.00430611
0.00422129
0.00411126
0.00400517
0.00390938
0.00379677
0.00366893
0.00352926
0.0033975
0.00328552
0.00320469
0.00317705
0.00317945
0.00315917
0.00301014
0.00271929
0.00233004
0.00190479
0.00153335
0.00137906
0.0016752
0.00237613
0.00310765
0.0024447
0.0030229
0.00352962
0.00391677
0.00416412
0.00428384
0.00432345
0.00430921
0.00424552
0.00415317
0.00406661
0.00397844
0.00387587
0.00375541
0.00362285
0.00349497
0.00338499
0.00330472
0.00326878
0.00325772
0.00322281
0.00307364
0.00279251
0.00240939
0.00198664
0.00160358
0.00141784
0.00165928
0.00230444
0.00300966
0.00228351
0.00287621
0.00340696
0.00382158
0.00410181
0.00425957
0.00431551
0.00431428
0.00426652
0.00419514
0.00411944
0.00403975
0.00394434
0.00382904
0.00369985
0.00357279
0.00346176
0.00337377
0.00332399
0.00329669
0.00324812
0.00310461
0.00284352
0.00247669
0.00206678
0.00167822
0.00146743
0.00166695
0.00224576
0.00292039
0.00214697
0.00275049
0.00329448
0.00372774
0.00403377
0.00422392
0.00430835
0.00431963
0.0042864
0.00422632
0.00415887
0.00408165
0.00398685
0.00387245
0.00374194
0.0036109
0.00348834
0.00338665
0.00332067
0.00327671
0.00321795
0.00308702
0.00285706
0.00252259
0.00213232
0.0017535
0.00151885
0.00170078
0.00220541
0.00284306
0.00204243
0.00265192
0.00319519
0.00363969
0.00396192
0.00415844
0.00425911
0.00430494
0.00428538
0.0042313
0.004164
0.00408014
0.00397621
0.00385273
0.00371404
0.00356998
0.00343093
0.00331515
0.00323439
0.00317784
0.00311604
0.00300598
0.0028192
0.00253513
0.00217553
0.00181813
0.00157733
0.00174202
0.00219202
0.00277941
0.00197813
0.00257922
0.00310911
0.00353108
0.00383248
0.00404222
0.004175
0.00422723
0.00420925
0.00415494
0.00407993
0.00398574
0.00386502
0.00372422
0.00356838
0.00341199
0.00326501
0.00314357
0.00305509
0.00299416
0.00293981
0.0028595
0.00272544
0.0025063
0.00219077
0.0018662
0.00163774
0.0017893
0.00220158
0.00274757
0.00195228
0.00250747
0.00297894
0.00336536
0.00366694
0.00388102
0.00400385
0.00403539
0.00400415
0.00393759
0.00384789
0.00373985
0.00360891
0.00345975
0.00329673
0.00314389
0.00300949
0.0029007
0.00282066
0.00276676
0.00272618
0.00267761
0.00259412
0.00244154
0.00218559
0.00189566
0.00169105
0.00184563
0.00220537
0.00270957
0.00194257
0.00241589
0.00283082
0.00317233
0.00342376
0.0036005
0.00368163
0.00368545
0.00364207
0.00357037
0.00347869
0.00337205
0.00325273
0.00312382
0.00298917
0.00286801
0.00276814
0.00269009
0.00262956
0.00258828
0.00255909
0.00252876
0.00247737
0.00237462
0.00218125
0.00192138
0.00173392
0.00187211
0.00215812
0.00258841
0.00191782
0.00228446
0.00260205
0.00286196
0.00304549
0.00317289
0.00323047
0.00323011
0.00320095
0.00315322
0.00309135
0.0030194
0.00294203
0.00286238
0.00278438
0.00271458
0.00265798
0.00261238
0.00257196
0.00254045
0.00251376
0.00248492
0.00244192
0.00236282
0.00221569
0.00198572
0.00178595
0.00183355
0.00206777
0.00237763
0.00186254
0.00212928
0.00235215
0.00253583
0.00267734
0.00278543
0.0028515
0.00287751
0.0028867
0.00288156
0.00286416
0.00283825
0.00280824
0.00277723
0.00274518
0.00270879
0.00267626
0.00264443
0.00261472
0.00258775
0.00256244
0.00253517
0.0024984
0.00243664
0.00232561
0.00214552
0.00193598
0.0018665
0.00200781
0.00219843
0.00207919
0.00223516
0.00237841
0.00250159
0.00260418
0.00268788
0.00274751
0.00278305
0.00280837
0.00282068
0.00282235
0.00281663
0.00280132
0.00278113
0.00275514
0.00272895
0.00270389
0.00268001
0.00265815
0.00263917
0.00262278
0.00260613
0.00258426
0.00254654
0.00247639
0.00236964
0.0022335
0.00215622
0.00221566
0.0023128
0.00249958
0.00255704
0.00261208
0.00266066
0.00270437
0.00273989
0.00276528
0.00278108
0.00279236
0.00279189
0.00278682
0.00278156
0.00277161
0.00275426
0.00272957
0.00270666
0.00268817
0.00267475
0.00266661
0.00266323
0.00266252
0.00266181
0.00266023
0.00265289
0.00263419
0.00259807
0.00255666
0.00252974
0.0025478
0.00257785
0.000249157
0.000260179
0.000255887
0.00024829
0.000238414
0.000227166
0.000215275
0.000203296
0.000191579
0.000180377
0.000169794
0.000159949
0.000150845
0.000142256
0.000133116
0.000123514
0.000114091
0.000106214
9.95412e-05
9.33203e-05
8.40759e-05
6.86619e-05
0.000302179
7.8774e-05
9.39349e-05
0.000107957
0.000115983
0.000124853
0.000135673
0.000169647
0.00119471
0.0013903
0.00138709
0.00129559
0.00118165
0.0010669
0.000962894
0.000870491
0.000787696
0.000711982
0.00064051
0.000571639
0.000498037
0.000420259
0.000359721
0.0003385
0.000348448
0.000379803
0.000411791
0.000429865
0.000399142
0.000345684
0.000325081
0.000253121
0.000430639
0.000618389
0.000804153
0.000938263
0.000924151
0.000832758
0.00200603
0.00240547
0.0024879
0.00239317
0.0022328
0.00205055
0.00187242
0.00170551
0.00154972
0.00140296
0.00126185
0.00112367
0.000972939
0.000814834
0.000696003
0.000656
0.000672094
0.000719798
0.000767747
0.000798589
0.000759221
0.000689484
0.000577854
0.000464501
0.000690272
0.000986553
0.001319
0.00157966
0.0016062
0.00152461
0.00267717
0.0031802
0.00333658
0.00326441
0.00309613
0.00288599
0.00266694
0.00245092
0.00224125
0.0020384
0.00184054
0.00164394
0.00142385
0.00119779
0.00103557
0.000982291
0.00100044
0.0010553
0.00111072
0.00114914
0.001118
0.0010345
0.00086162
0.000693891
0.000867998
0.00119469
0.00165228
0.0020527
0.0021714
0.0021395
0.00320381
0.00379859
0.00399353
0.00394809
0.00378692
0.00356997
0.0033306
0.00308395
0.00283627
0.002592
0.00235079
0.00210054
0.00182664
0.0015512
0.00136065
0.00130008
0.00131845
0.00137626
0.00143637
0.00148285
0.00146999
0.00137963
0.00116198
0.000943738
0.00103487
0.00136526
0.00191215
0.0024106
0.00263489
0.0026626
0.00364166
0.00426746
0.00450612
0.00448736
0.00434036
0.00412919
0.00388165
0.0036167
0.00334288
0.00306857
0.00279029
0.0025028
0.00218755
0.00187752
0.00167161
0.00160776
0.00162433
0.00168214
0.00174609
0.00180525
0.00181782
0.00171756
0.00146799
0.00120692
0.00123158
0.00152524
0.00211781
0.00272265
0.00302689
0.00312294
0.00400756
0.00459649
0.00487853
0.00491069
0.00478427
0.004587
0.0043393
0.00406407
0.00377297
0.00347726
0.00317144
0.00285722
0.00251431
0.00218301
0.00197209
0.00190677
0.00191917
0.00197437
0.00204191
0.00212011
0.00215155
0.00204197
0.00176956
0.0014754
0.00143584
0.00168718
0.002285
0.00298094
0.00338024
0.00352566
0.00429855
0.00485382
0.00514697
0.00522243
0.00514028
0.00496118
0.00472003
0.00443902
0.0041373
0.00382744
0.00350574
0.0031699
0.00281235
0.00247399
0.00226526
0.00219824
0.00220454
0.00225451
0.00232574
0.00242556
0.00246387
0.00234676
0.00205819
0.00173703
0.00164184
0.00184531
0.00242586
0.00319172
0.00368062
0.00388816
0.00455742
0.0050788
0.0053723
0.00546808
0.0054212
0.00526709
0.00503596
0.00475228
0.00444487
0.00412756
0.00379939
0.00345179
0.00308661
0.00275575
0.00255304
0.00248302
0.00248129
0.00252359
0.00259928
0.0027167
0.0027523
0.00262685
0.00232752
0.00198261
0.00183836
0.00199395
0.00254839
0.00336282
0.00392853
0.00421569
0.00479132
0.00527202
0.00555884
0.00566973
0.00564821
0.00551879
0.00529627
0.00501279
0.00470305
0.00438521
0.00405723
0.00371043
0.00334407
0.00302982
0.0028359
0.00276132
0.0027499
0.00278293
0.00286481
0.00299017
0.00301536
0.00287939
0.00257235
0.00220643
0.00201682
0.00212825
0.00265458
0.00350039
0.0041481
0.00450942
0.0049899
0.00543156
0.00571037
0.00583376
0.005832
0.00572534
0.00552487
0.00523912
0.00492245
0.00460677
0.00428555
0.00394777
0.00359437
0.00329718
0.00311365
0.00303289
0.00301074
0.00303345
0.00312241
0.00324335
0.00325162
0.00310263
0.00278879
0.00240592
0.00217194
0.0022465
0.00274555
0.00360704
0.00433614
0.00477048
0.00514103
0.00555472
0.00583002
0.00596383
0.00597853
0.00589058
0.00571667
0.00544239
0.0051193
0.00480211
0.00449184
0.00416939
0.00383815
0.00356085
0.00338574
0.0032973
0.00326402
0.00327612
0.00336859
0.00347352
0.00346037
0.00329547
0.00297454
0.00258005
0.00230292
0.00234784
0.00282371
0.00369338
0.00449202
0.00500137
0.00523582
0.00563909
0.00591934
0.00606376
0.00609318
0.00602325
0.00587115
0.00561909
0.00530027
0.0049819
0.00468249
0.00437996
0.00407616
0.00382202
0.00364968
0.00355412
0.00350981
0.00351181
0.00360113
0.00367929
0.00364155
0.00345732
0.00312787
0.00272877
0.00241449
0.00243053
0.00288985
0.00376509
0.00461902
0.00520566
0.00526653
0.0056819
0.00597814
0.00613859
0.00618092
0.00612798
0.00599417
0.00576018
0.00546283
0.00514968
0.00486241
0.00458331
0.00430928
0.0040769
0.00390818
0.00380351
0.00374796
0.00374087
0.00381725
0.00386098
0.00379531
0.0035883
0.00324909
0.00285024
0.00250889
0.00248756
0.0029354
0.00382049
0.00471957
0.00535328
0.00523004
0.00567822
0.00600581
0.00619074
0.0062464
0.00620946
0.00609152
0.00588211
0.00560008
0.00530917
0.00503764
0.00478217
0.00453735
0.00432447
0.00415895
0.00404484
0.00397762
0.00396175
0.00401237
0.00401677
0.00392132
0.00369012
0.00333996
0.00294339
0.00258607
0.00251986
0.00295062
0.00382747
0.00476266
0.00545093
0.00513766
0.00563027
0.00599907
0.00622003
0.00629483
0.00627261
0.00616936
0.00598659
0.00572235
0.00545848
0.00520923
0.00497776
0.00475992
0.00456383
0.00439766
0.00427622
0.00419613
0.00416685
0.00417949
0.00414289
0.00401796
0.00376517
0.00340243
0.00300129
0.00264285
0.00253356
0.0029288
0.00379584
0.00475747
0.00549992
0.00500464
0.00554866
0.00596475
0.00622533
0.00632973
0.00632258
0.00623505
0.00607642
0.00583808
0.0056037
0.00537834
0.00517063
0.00497581
0.00479225
0.00462644
0.00449419
0.00439821
0.00434528
0.00431024
0.00423353
0.00408173
0.00381372
0.00344047
0.00302969
0.00266962
0.00253853
0.0028873
0.00373758
0.00471506
0.00550686
0.00483897
0.00543931
0.00590757
0.00620972
0.0063522
0.00636476
0.00629328
0.0061566
0.00594997
0.00574836
0.00554678
0.00535906
0.00518137
0.00500572
0.00483696
0.00469009
0.0045727
0.00448157
0.00439536
0.00428076
0.0041069
0.00383327
0.00345646
0.00303923
0.00267723
0.00253481
0.00285062
0.00366554
0.00464679
0.00547975
0.00465095
0.00530934
0.00583181
0.00617867
0.00635757
0.00640007
0.00634706
0.00623064
0.00605935
0.00588498
0.00570867
0.00553553
0.00536794
0.00519518
0.00501673
0.00484826
0.00469804
0.00455694
0.0044223
0.00427492
0.00408615
0.00381808
0.00344986
0.00303816
0.00267473
0.00252063
0.00283191
0.00359032
0.00456353
0.00542647
0.00445228
0.00516672
0.005742
0.00613352
0.0063486
0.00642167
0.00639461
0.00629918
0.00616401
0.00601133
0.00585092
0.00568537
0.00551999
0.00534126
0.00514393
0.00494411
0.00474727
0.00455409
0.0043784
0.00420675
0.0040123
0.00376031
0.00341845
0.00301825
0.00266795
0.0025034
0.00282231
0.00351967
0.00447398
0.00535302
0.0042553
0.00502009
0.00564259
0.00607515
0.00632474
0.00642502
0.00642406
0.00637306
0.00624733
0.00610398
0.00595531
0.00578862
0.00560951
0.00541241
0.00518756
0.00494531
0.00469566
0.00446056
0.00425636
0.00407133
0.00388211
0.00365718
0.00335801
0.00298102
0.0026498
0.00249237
0.00280712
0.003473
0.00437542
0.00526157
0.00407306
0.00487845
0.00553707
0.00600342
0.0062825
0.00638959
0.00641584
0.00638234
0.0062694
0.00613239
0.00598309
0.00580847
0.00560345
0.00537299
0.00510885
0.00482347
0.00453624
0.00427779
0.0040607
0.00387464
0.00370198
0.00351336
0.00326731
0.00293134
0.00261815
0.00247994
0.00279929
0.0034423
0.00427515
0.00513833
0.00391862
0.00475017
0.00542055
0.00586695
0.00611384
0.00625978
0.00632391
0.00629464
0.00618277
0.0060426
0.00588366
0.00569394
0.00546292
0.00519624
0.00489169
0.00458095
0.00428659
0.00402749
0.00381548
0.00364135
0.00349402
0.00334621
0.00315625
0.0028777
0.00258121
0.00245906
0.00278699
0.00341255
0.00420674
0.00502316
0.00379155
0.00456586
0.00515827
0.00557175
0.00585863
0.00603452
0.00610018
0.00605389
0.00593513
0.0057867
0.0056168
0.0054147
0.00517143
0.00488899
0.00456891
0.00426331
0.00399317
0.00375756
0.00356688
0.00341576
0.00329664
0.00318709
0.00304934
0.00283347
0.00255444
0.00242843
0.00272999
0.00333759
0.00409026
0.00486249
0.00354148
0.00423448
0.00479337
0.00520806
0.00548033
0.00564237
0.00568168
0.0056203
0.00550117
0.00535584
0.00519065
0.00499632
0.00476685
0.00450495
0.00421662
0.0039496
0.00372604
0.00352889
0.00336761
0.0032463
0.00315816
0.00308084
0.00298293
0.00281827
0.00256105
0.00240198
0.00261584
0.0032043
0.00382823
0.00452168
0.00331586
0.00387867
0.00433637
0.00467854
0.00491788
0.00505014
0.00507786
0.00502597
0.00493271
0.00481867
0.00468746
0.00453163
0.00434857
0.00414311
0.00392212
0.00371632
0.00353902
0.00338844
0.00326816
0.0031789
0.00311148
0.00305174
0.00297656
0.00284762
0.00262484
0.00242016
0.00249228
0.00296825
0.00345103
0.00398862
0.00296271
0.00340432
0.00376745
0.00404803
0.00424899
0.00437696
0.00442949
0.00441993
0.00438019
0.00432181
0.00424586
0.00414784
0.00402743
0.0038896
0.00373599
0.00358095
0.00345152
0.00333556
0.00324266
0.00317215
0.00311908
0.00307395
0.00301892
0.00292303
0.00275069
0.00253124
0.00247033
0.00271574
0.00306983
0.00343508