/*--------------------------------*- C++ -*----------------------------------*\
  =========                 |
  \\      /  F ield         | OpenFOAM: The Open Source CFD Toolbox
   \\    /   O peration     | Website:  https://openfoam.org
    \\  /    A nd           | Version:  12
     \\/     M anipulation  |
\*---------------------------------------------------------------------------*/
FoamFile
{
    format      ascii;
    class       volScalarField;
    location    "1350/porous";
    object      rho;
}
// * * * * * * * * * * * * * * * * * * * * * * * * * * * * * * * * * * * * * //

dimensions      [1 -3 0 0 0 0 0];

internalField   nonuniform List<scalar> 
140000
(
933.891
933.891
933.891
933.891
933.891
933.891
933.891
933.891
933.892
933.898
934.182
934.405
934.604
934.791
934.97
935.143
935.313
935.48
935.644
935.806
935.966
936.125
936.281
936.436
936.59
936.742
936.893
937.042
937.189
937.335
937.48
937.622
937.763
937.903
938.04
938.176
938.311
938.444
938.576
938.707
938.836
938.964
939.092
939.218
939.343
939.466
939.588
939.709
939.828
939.946
940.062
940.177
940.289
940.4
940.508
940.614
940.716
940.815
940.908
940.973
940.579
940.327
940.132
939.97
939.831
939.708
939.598
939.498
939.407
939.327
933.891
933.891
933.891
933.891
933.891
933.891
933.891
933.891
933.891
933.896
934.113
934.289
934.448
934.599
934.743
934.885
935.023
935.16
935.294
935.427
935.559
935.69
935.82
935.95
936.078
936.205
936.332
936.458
936.583
936.708
936.831
936.954
937.077
937.198
937.319
937.439
937.558
937.677
937.795
937.912
938.029
938.145
938.261
938.376
938.491
938.605
938.718
938.83
938.941
939.051
939.16
939.268
939.375
939.48
939.583
939.684
939.783
939.879
939.973
940.048
939.811
939.655
939.533
939.429
939.338
939.255
939.18
939.11
939.046
938.988
933.891
933.891
933.891
933.891
933.891
933.891
933.891
933.891
933.891
933.895
934.094
934.253
934.394
934.527
934.653
934.775
934.894
935.011
935.125
935.238
935.349
935.46
935.569
935.677
935.784
935.891
935.996
936.101
936.206
936.31
936.413
936.516
936.618
936.72
936.821
936.921
937.022
937.122
937.221
937.321
937.42
937.519
937.617
937.716
937.814
937.912
938.009
938.106
938.202
938.297
938.392
938.485
938.578
938.67
938.76
938.849
938.936
939.022
939.103
939.174
938.984
938.865
938.775
938.7
938.636
938.578
938.527
938.48
938.437
938.398
933.891
933.891
933.891
933.891
933.891
933.891
933.891
933.891
933.891
933.895
934.089
934.244
934.38
934.506
934.626
934.741
934.852
934.961
935.067
935.171
935.273
935.373
935.473
935.57
935.667
935.763
935.858
935.952
936.045
936.138
936.23
936.321
936.411
936.501
936.59
936.679
936.767
936.855
936.942
937.029
937.116
937.202
937.289
937.375
937.461
937.546
937.631
937.715
937.799
937.882
937.965
938.047
938.127
938.207
938.286
938.363
938.438
938.512
938.583
938.644
938.466
938.354
938.27
938.201
938.142
938.091
938.045
938.003
937.966
937.931
933.891
933.891
933.891
933.891
933.891
933.891
933.891
933.891
933.891
933.895
934.088
934.241
934.376
934.5
934.618
934.731
934.84
934.946
935.049
935.15
935.248
935.345
935.441
935.534
935.627
935.718
935.809
935.898
935.986
936.074
936.16
936.246
936.331
936.415
936.499
936.582
936.664
936.745
936.827
936.907
936.988
937.068
937.148
937.227
937.306
937.385
937.463
937.54
937.617
937.693
937.769
937.843
937.917
937.989
938.06
938.13
938.198
938.264
938.327
938.382
938.207
938.095
938.011
937.941
937.882
937.83
937.783
937.741
937.703
937.668
933.891
933.891
933.891
933.891
933.891
933.891
933.891
933.891
933.891
933.895
934.089
934.241
934.376
934.5
934.618
934.73
934.839
934.944
935.046
935.146
935.243
935.339
935.433
935.526
935.617
935.706
935.795
935.883
935.969
936.054
936.139
936.222
936.305
936.387
936.468
936.548
936.628
936.706
936.785
936.863
936.94
937.017
937.094
937.17
937.246
937.322
937.396
937.47
937.544
937.616
937.688
937.759
937.829
937.897
937.964
938.03
938.094
938.156
938.215
938.266
938.091
937.979
937.894
937.824
937.763
937.71
937.662
937.618
937.579
937.543
933.891
933.891
933.891
933.891
933.891
933.891
933.891
933.891
933.891
933.895
934.089
934.241
934.376
934.5
934.618
934.731
934.839
934.944
935.046
935.146
935.243
935.339
935.433
935.525
935.616
935.705
935.793
935.88
935.966
936.05
936.134
936.217
936.299
936.379
936.459
936.539
936.617
936.695
936.772
936.849
936.925
937.001
937.076
937.151
937.226
937.3
937.373
937.445
937.517
937.588
937.658
937.727
937.795
937.862
937.927
937.991
938.053
938.112
938.17
938.218
938.044
937.932
937.846
937.775
937.714
937.659
937.611
937.567
937.526
937.489
933.891
933.891
933.891
933.891
933.891
933.891
933.891
933.891
933.891
933.895
934.089
934.242
934.377
934.501
934.619
934.732
934.841
934.946
935.048
935.148
935.246
935.341
935.435
935.527
935.618
935.707
935.795
935.882
935.968
936.052
936.136
936.218
936.3
936.38
936.46
936.539
936.617
936.694
936.771
936.847
936.922
936.998
937.073
937.147
937.221
937.295
937.367
937.439
937.51
937.581
937.65
937.718
937.785
937.851
937.915
937.978
938.039
938.098
938.154
938.201
938.027
937.915
937.829
937.757
937.696
937.641
937.592
937.547
937.506
937.469
933.891
933.891
933.891
933.891
933.891
933.891
933.891
933.891
933.891
933.895
934.089
934.242
934.377
934.502
934.62
934.733
934.842
934.947
935.05
935.15
935.248
935.344
935.438
935.53
935.621
935.71
935.798
935.885
935.971
936.055
936.139
936.221
936.303
936.383
936.462
936.541
936.619
936.696
936.773
936.849
936.924
937
937.074
937.149
937.223
937.296
937.368
937.44
937.511
937.581
937.65
937.718
937.785
937.85
937.914
937.976
938.036
938.094
938.15
938.197
938.023
937.911
937.824
937.753
937.691
937.636
937.587
937.542
937.501
937.463
933.891
933.891
933.891
933.891
933.891
933.891
933.891
933.891
933.891
933.895
934.089
934.242
934.377
934.502
934.62
934.734
934.843
934.949
935.051
935.152
935.25
935.346
935.44
935.533
935.623
935.713
935.801
935.888
935.974
936.059
936.142
936.224
936.306
936.386
936.466
936.544
936.622
936.699
936.776
936.852
936.928
937.003
937.078
937.152
937.226
937.299
937.371
937.443
937.514
937.584
937.653
937.721
937.787
937.853
937.916
937.978
938.038
938.096
938.151
938.198
938.024
937.911
937.825
937.753
937.691
937.637
937.587
937.542
937.501
937.463
933.891
933.891
933.891
933.891
933.891
933.891
933.891
933.891
933.891
933.895
934.09
934.242
934.377
934.502
934.621
934.734
934.843
934.949
935.052
935.153
935.251
935.347
935.442
935.534
935.626
935.715
935.804
935.891
935.976
936.061
936.145
936.227
936.309
936.389
936.469
936.547
936.625
936.702
936.779
936.855
936.93
937.006
937.081
937.155
937.229
937.302
937.375
937.446
937.517
937.587
937.656
937.724
937.791
937.856
937.919
937.981
938.041
938.099
938.154
938.2
938.026
937.914
937.827
937.756
937.694
937.639
937.589
937.544
937.503
937.465
933.891
933.891
933.891
933.891
933.891
933.891
933.891
933.891
933.891
933.895
934.09
934.243
934.377
934.502
934.621
934.734
934.844
934.95
935.053
935.154
935.252
935.349
935.443
935.536
935.627
935.717
935.806
935.893
935.979
936.063
936.147
936.23
936.311
936.391
936.471
936.55
936.627
936.704
936.781
936.857
936.933
937.009
937.084
937.158
937.232
937.305
937.378
937.449
937.52
937.59
937.659
937.727
937.794
937.859
937.922
937.984
938.044
938.101
938.156
938.203
938.029
937.916
937.83
937.758
937.696
937.641
937.592
937.547
937.505
937.468
933.891
933.891
933.891
933.891
933.891
933.891
933.891
933.891
933.891
933.895
934.089
934.242
934.377
934.502
934.621
934.734
934.844
934.95
935.054
935.155
935.253
935.35
935.444
935.537
935.628
935.718
935.807
935.894
935.98
936.065
936.148
936.231
936.312
936.393
936.472
936.551
936.629
936.706
936.783
936.859
936.935
937.01
937.086
937.16
937.234
937.307
937.38
937.452
937.523
937.593
937.662
937.73
937.796
937.861
937.925
937.987
938.046
938.104
938.159
938.205
938.031
937.918
937.832
937.76
937.698
937.643
937.594
937.549
937.507
937.47
933.891
933.891
933.891
933.891
933.891
933.891
933.891
933.891
933.891
933.895
934.09
934.243
934.377
934.502
934.621
934.734
934.844
934.95
935.054
935.155
935.253
935.35
935.445
935.538
935.629
935.719
935.808
935.895
935.981
936.066
936.149
936.232
936.313
936.394
936.473
936.552
936.63
936.707
936.784
936.86
936.936
937.012
937.087
937.162
937.236
937.309
937.382
937.454
937.525
937.595
937.664
937.732
937.798
937.863
937.927
937.988
938.048
938.105
938.16
938.206
938.033
937.92
937.834
937.762
937.7
937.645
937.595
937.55
937.509
937.471
933.891
933.891
933.891
933.891
933.891
933.891
933.891
933.891
933.891
933.895
934.089
934.242
934.377
934.502
934.62
934.734
934.844
934.95
935.054
935.155
935.254
935.35
935.445
935.538
935.63
935.72
935.808
935.895
935.981
936.066
936.15
936.232
936.314
936.394
936.474
936.552
936.63
936.708
936.784
936.861
936.937
937.013
937.088
937.163
937.237
937.31
937.383
937.455
937.526
937.596
937.665
937.733
937.799
937.864
937.928
937.99
938.049
938.107
938.161
938.207
938.033
937.921
937.834
937.763
937.701
937.646
937.596
937.551
937.51
937.472
933.891
933.891
933.891
933.891
933.891
933.891
933.891
933.891
933.891
933.895
934.089
934.242
934.377
934.502
934.62
934.733
934.843
934.95
935.053
935.155
935.253
935.35
935.445
935.538
935.63
935.72
935.808
935.896
935.982
936.066
936.15
936.232
936.314
936.394
936.474
936.552
936.63
936.708
936.785
936.861
936.937
937.013
937.088
937.163
937.237
937.31
937.383
937.455
937.526
937.596
937.665
937.733
937.8
937.865
937.928
937.99
938.05
938.107
938.161
938.207
938.034
937.921
937.835
937.763
937.701
937.646
937.596
937.551
937.51
937.472
933.891
933.891
933.891
933.891
933.891
933.891
933.891
933.891
933.891
933.895
934.089
934.242
934.377
934.501
934.619
934.733
934.843
934.949
935.053
935.154
935.253
935.35
935.445
935.538
935.63
935.72
935.808
935.895
935.981
936.066
936.15
936.232
936.313
936.394
936.473
936.552
936.63
936.708
936.784
936.861
936.937
937.013
937.088
937.163
937.237
937.31
937.383
937.455
937.526
937.596
937.665
937.733
937.8
937.865
937.929
937.99
938.05
938.107
938.161
938.207
938.034
937.921
937.835
937.763
937.701
937.646
937.596
937.551
937.51
937.472
933.891
933.891
933.891
933.891
933.891
933.891
933.891
933.891
933.891
933.895
934.089
934.241
934.376
934.501
934.619
934.732
934.842
934.949
935.053
935.154
935.253
935.35
935.445
935.538
935.629
935.719
935.808
935.895
935.981
936.066
936.149
936.231
936.312
936.393
936.473
936.552
936.63
936.707
936.784
936.861
936.937
937.012
937.088
937.162
937.237
937.31
937.383
937.455
937.526
937.596
937.665
937.733
937.8
937.865
937.928
937.99
938.049
938.107
938.161
938.207
938.033
937.921
937.834
937.762
937.7
937.645
937.596
937.551
937.509
937.472
933.891
933.891
933.891
933.891
933.891
933.891
933.891
933.891
933.891
933.895
934.089
934.241
934.376
934.5
934.618
934.732
934.842
934.948
935.052
935.153
935.252
935.349
935.444
935.538
935.629
935.719
935.808
935.895
935.981
936.065
936.148
936.23
936.312
936.392
936.472
936.552
936.63
936.707
936.784
936.86
936.936
937.012
937.087
937.162
937.236
937.31
937.382
937.454
937.525
937.596
937.665
937.733
937.799
937.864
937.928
937.989
938.049
938.106
938.161
938.206
938.033
937.92
937.834
937.762
937.7
937.645
937.595
937.55
937.509
937.471
933.891
933.891
933.891
933.891
933.891
933.891
933.891
933.891
933.891
933.895
934.089
934.241
934.376
934.5
934.618
934.731
934.841
934.948
935.052
935.153
935.252
935.349
935.444
935.537
935.629
935.719
935.807
935.894
935.98
936.065
936.148
936.23
936.311
936.392
936.472
936.552
936.63
936.708
936.784
936.86
936.936
937.012
937.087
937.162
937.236
937.309
937.382
937.454
937.525
937.595
937.665
937.732
937.799
937.864
937.928
937.989
938.049
938.106
938.16
938.206
938.032
937.92
937.833
937.762
937.7
937.645
937.595
937.55
937.508
937.471
933.891
933.891
933.891
933.891
933.891
933.891
933.891
933.891
933.891
933.895
934.089
934.241
934.375
934.499
934.617
934.731
934.841
934.947
935.051
935.152
935.251
935.349
935.444
935.537
935.629
935.719
935.807
935.894
935.98
936.064
936.148
936.23
936.312
936.393
936.473
936.552
936.631
936.708
936.785
936.861
936.937
937.012
937.088
937.162
937.236
937.309
937.382
937.454
937.525
937.595
937.664
937.732
937.799
937.864
937.928
937.989
938.049
938.106
938.16
938.206
938.032
937.92
937.833
937.761
937.699
937.644
937.595
937.55
937.508
937.471
933.891
933.891
933.891
933.891
933.891
933.891
933.891
933.891
933.891
933.895
934.089
934.241
934.375
934.499
934.617
934.73
934.84
934.947
935.051
935.152
935.251
935.348
935.443
935.537
935.628
935.718
935.807
935.894
935.98
936.064
936.148
936.23
936.312
936.393
936.473
936.553
936.631
936.709
936.786
936.862
936.937
937.013
937.088
937.162
937.236
937.31
937.382
937.454
937.525
937.595
937.665
937.733
937.799
937.864
937.928
937.989
938.049
938.106
938.16
938.206
938.032
937.92
937.833
937.762
937.699
937.644
937.595
937.55
937.508
937.471
933.891
933.891
933.891
933.891
933.891
933.891
933.891
933.891
933.891
933.895
934.088
934.24
934.374
934.499
934.617
934.73
934.84
934.946
935.05
935.152
935.251
935.348
935.443
935.537
935.628
935.718
935.807
935.894
935.98
936.064
936.148
936.23
936.312
936.393
936.474
936.553
936.632
936.709
936.786
936.862
936.938
937.013
937.088
937.163
937.237
937.31
937.382
937.454
937.525
937.596
937.665
937.733
937.799
937.864
937.928
937.989
938.049
938.106
938.161
938.207
938.033
937.92
937.834
937.762
937.7
937.645
937.595
937.55
937.508
937.471
933.891
933.891
933.891
933.891
933.891
933.891
933.891
933.891
933.891
933.895
934.088
934.24
934.374
934.498
934.616
934.729
934.839
934.946
935.05
935.151
935.251
935.348
935.443
935.536
935.628
935.718
935.807
935.894
935.98
936.064
936.148
936.231
936.313
936.394
936.474
936.553
936.632
936.71
936.787
936.863
936.939
937.014
937.089
937.163
937.237
937.31
937.383
937.454
937.525
937.595
937.665
937.733
937.799
937.864
937.928
937.989
938.049
938.106
938.161
938.207
938.033
937.92
937.834
937.762
937.7
937.645
937.595
937.55
937.508
937.471
933.891
933.891
933.891
933.891
933.891
933.891
933.891
933.891
933.891
933.895
934.088
934.24
934.374
934.498
934.616
934.729
934.839
934.945
935.049
935.151
935.25
935.348
935.443
935.536
935.628
935.718
935.807
935.894
935.98
936.064
936.148
936.231
936.313
936.394
936.474
936.554
936.632
936.71
936.787
936.863
936.939
937.014
937.089
937.163
937.237
937.31
937.382
937.454
937.525
937.595
937.664
937.732
937.799
937.864
937.928
937.989
938.049
938.106
938.161
938.207
938.033
937.92
937.834
937.762
937.7
937.645
937.595
937.55
937.509
937.471
933.891
933.891
933.891
933.891
933.891
933.891
933.891
933.891
933.891
933.895
934.088
934.24
934.373
934.497
934.615
934.728
934.838
934.945
935.049
935.15
935.25
935.347
935.443
935.536
935.628
935.718
935.807
935.894
935.98
936.065
936.148
936.231
936.313
936.394
936.474
936.554
936.632
936.71
936.787
936.863
936.939
937.014
937.088
937.163
937.236
937.309
937.382
937.454
937.525
937.595
937.664
937.732
937.799
937.864
937.928
937.989
938.049
938.107
938.162
938.208
938.034
937.921
937.834
937.762
937.7
937.645
937.595
937.55
937.509
937.471
933.891
933.891
933.891
933.891
933.891
933.891
933.891
933.891
933.891
933.895
934.088
934.239
934.373
934.497
934.615
934.728
934.838
934.945
935.049
935.15
935.25
935.347
935.442
935.536
935.628
935.718
935.807
935.894
935.98
936.065
936.148
936.231
936.313
936.394
936.474
936.554
936.632
936.71
936.787
936.863
936.938
937.013
937.088
937.162
937.236
937.309
937.381
937.453
937.524
937.594
937.663
937.731
937.798
937.864
937.927
937.989
938.049
938.106
938.161
938.207
938.033
937.921
937.834
937.762
937.7
937.645
937.595
937.55
937.509
937.471
933.891
933.891
933.891
933.891
933.891
933.891
933.891
933.891
933.891
933.895
934.088
934.239
934.373
934.497
934.615
934.728
934.837
934.944
935.048
935.15
935.249
935.347
935.442
935.536
935.628
935.718
935.807
935.894
935.98
936.065
936.148
936.231
936.312
936.394
936.474
936.553
936.632
936.709
936.786
936.862
936.938
937.013
937.087
937.161
937.235
937.308
937.381
937.452
937.523
937.594
937.663
937.731
937.798
937.863
937.927
937.989
938.049
938.107
938.162
938.208
938.034
937.921
937.834
937.762
937.7
937.645
937.595
937.55
937.509
937.471
933.891
933.891
933.891
933.891
933.891
933.891
933.891
933.891
933.891
933.895
934.088
934.239
934.373
934.496
934.614
934.727
934.837
934.944
935.048
935.15
935.249
935.346
935.442
935.536
935.628
935.718
935.807
935.894
935.98
936.064
936.148
936.23
936.312
936.393
936.473
936.552
936.631
936.709
936.785
936.861
936.937
937.012
937.086
937.161
937.234
937.307
937.38
937.451
937.523
937.593
937.662
937.73
937.797
937.862
937.926
937.988
938.048
938.106
938.162
938.208
938.034
937.921
937.834
937.762
937.7
937.645
937.595
937.55
937.509
937.471
933.891
933.891
933.891
933.891
933.891
933.891
933.891
933.891
933.891
933.895
934.088
934.239
934.372
934.496
934.614
934.727
934.837
934.943
935.047
935.149
935.249
935.346
935.441
935.535
935.627
935.718
935.806
935.894
935.98
936.064
936.147
936.23
936.311
936.392
936.472
936.552
936.63
936.707
936.784
936.86
936.936
937.011
937.085
937.16
937.233
937.306
937.379
937.451
937.522
937.592
937.661
937.729
937.796
937.862
937.926
937.988
938.048
938.106
938.161
938.208
938.034
937.921
937.834
937.762
937.7
937.645
937.595
937.55
937.509
937.471
933.891
933.891
933.891
933.891
933.891
933.891
933.891
933.891
933.891
933.895
934.087
934.239
934.372
934.496
934.614
934.727
934.836
934.943
935.047
935.149
935.248
935.346
935.441
935.535
935.627
935.717
935.806
935.894
935.98
936.064
936.147
936.229
936.311
936.391
936.472
936.551
936.629
936.706
936.783
936.859
936.935
937.01
937.085
937.159
937.232
937.305
937.378
937.45
937.521
937.591
937.66
937.729
937.796
937.862
937.926
937.988
938.048
938.107
938.162
938.209
938.034
937.921
937.835
937.763
937.7
937.645
937.596
937.551
937.509
937.471
933.891
933.891
933.891
933.891
933.891
933.891
933.891
933.891
933.891
933.895
934.087
934.239
934.372
934.496
934.613
934.727
934.836
934.943
935.047
935.148
935.248
935.345
935.44
935.534
935.626
935.717
935.806
935.893
935.979
936.064
936.147
936.229
936.31
936.391
936.471
936.55
936.628
936.705
936.782
936.858
936.934
937.009
937.084
937.158
937.232
937.305
937.377
937.449
937.52
937.591
937.66
937.728
937.796
937.861
937.926
937.988
938.049
938.107
938.163
938.209
938.035
937.922
937.835
937.763
937.701
937.646
937.596
937.551
937.509
937.472
933.891
933.891
933.891
933.891
933.891
933.891
933.891
933.891
933.891
933.895
934.087
934.238
934.372
934.496
934.613
934.726
934.836
934.942
935.046
935.148
935.247
935.344
935.44
935.533
935.626
935.716
935.805
935.892
935.978
936.063
936.146
936.228
936.309
936.39
936.47
936.549
936.627
936.704
936.781
936.857
936.933
937.009
937.084
937.158
937.231
937.305
937.377
937.449
937.52
937.59
937.66
937.728
937.796
937.862
937.926
937.989
938.05
938.108
938.164
938.21
938.036
937.923
937.836
937.764
937.702
937.646
937.597
937.552
937.51
937.472
933.891
933.891
933.891
933.891
933.891
933.891
933.891
933.891
933.891
933.895
934.087
934.238
934.372
934.495
934.613
934.726
934.835
934.942
935.045
935.147
935.246
935.344
935.439
935.533
935.625
935.715
935.804
935.891
935.977
936.062
936.145
936.227
936.308
936.389
936.469
936.548
936.626
936.703
936.78
936.857
936.933
937.008
937.083
937.157
937.231
937.304
937.377
937.449
937.52
937.59
937.659
937.728
937.795
937.862
937.926
937.989
938.05
938.109
938.165
938.212
938.037
937.924
937.837
937.765
937.702
937.647
937.598
937.552
937.511
937.473
933.891
933.891
933.891
933.891
933.891
933.891
933.891
933.891
933.891
933.895
934.087
934.238
934.371
934.495
934.612
934.725
934.835
934.941
935.045
935.146
935.245
935.343
935.438
935.531
935.623
935.714
935.803
935.89
935.976
936.061
936.144
936.226
936.307
936.388
936.467
936.546
936.624
936.702
936.779
936.856
936.932
937.008
937.083
937.157
937.231
937.304
937.376
937.448
937.519
937.589
937.659
937.728
937.795
937.862
937.926
937.989
938.051
938.109
938.165
938.212
938.037
937.924
937.837
937.765
937.703
937.648
937.598
937.553
937.511
937.473
933.891
933.891
933.891
933.891
933.891
933.891
933.891
933.891
933.891
933.895
934.087
934.238
934.371
934.495
934.612
934.725
934.834
934.94
935.044
935.145
935.244
935.341
935.437
935.53
935.622
935.712
935.801
935.889
935.975
936.059
936.142
936.224
936.306
936.386
936.466
936.545
936.623
936.701
936.778
936.855
936.931
937.006
937.081
937.156
937.229
937.303
937.375
937.447
937.518
937.588
937.658
937.727
937.794
937.861
937.926
937.989
938.05
938.11
938.166
938.213
938.038
937.924
937.837
937.765
937.703
937.648
937.598
937.553
937.511
937.473
933.891
933.891
933.891
933.891
933.891
933.891
933.891
933.891
933.891
933.895
934.087
934.238
934.371
934.494
934.611
934.724
934.833
934.939
935.043
935.144
935.243
935.34
935.435
935.529
935.62
935.711
935.799
935.887
935.973
936.057
936.14
936.222
936.304
936.384
936.464
936.543
936.621
936.699
936.776
936.853
936.929
937.005
937.08
937.154
937.228
937.301
937.374
937.445
937.517
937.587
937.657
937.725
937.793
937.86
937.925
937.989
938.05
938.109
938.165
938.213
938.038
937.924
937.837
937.765
937.702
937.647
937.598
937.552
937.511
937.473
933.891
933.891
933.891
933.891
933.891
933.891
933.891
933.891
933.891
933.895
934.087
934.237
934.371
934.494
934.611
934.723
934.832
934.938
935.041
935.143
935.241
935.338
935.433
935.527
935.618
935.709
935.797
935.885
935.97
936.055
936.138
936.22
936.301
936.382
936.461
936.54
936.619
936.697
936.774
936.851
936.927
937.003
937.078
937.152
937.226
937.299
937.371
937.443
937.514
937.585
937.654
937.723
937.791
937.858
937.923
937.987
938.049
938.108
938.164
938.212
938.037
937.923
937.836
937.764
937.701
937.646
937.596
937.551
937.51
937.472
933.891
933.891
933.891
933.891
933.891
933.891
933.891
933.891
933.891
933.895
934.087
934.237
934.37
934.493
934.61
934.722
934.831
934.937
935.04
935.141
935.24
935.337
935.432
935.525
935.616
935.706
935.795
935.882
935.968
936.052
936.135
936.217
936.298
936.379
936.459
936.538
936.616
936.694
936.772
936.848
936.925
937
937.075
937.149
937.223
937.296
937.369
937.44
937.512
937.582
937.652
937.721
937.789
937.855
937.921
937.985
938.047
938.106
938.163
938.211
938.035
937.922
937.834
937.762
937.7
937.645
937.595
937.55
937.508
937.47
933.891
933.891
933.891
933.891
933.891
933.891
933.891
933.891
933.891
933.895
934.087
934.237
934.37
934.493
934.609
934.721
934.83
934.935
935.039
935.139
935.238
935.334
935.429
935.522
935.614
935.704
935.792
935.879
935.965
936.049
936.132
936.214
936.295
936.376
936.455
936.535
936.613
936.691
936.768
936.845
936.921
936.997
937.072
937.146
937.22
937.293
937.365
937.437
937.508
937.579
937.648
937.717
937.785
937.852
937.918
937.982
938.045
938.104
938.161
938.209
938.033
937.92
937.832
937.76
937.698
937.642
937.593
937.548
937.506
937.468
933.891
933.891
933.891
933.891
933.891
933.891
933.891
933.891
933.891
933.895
934.086
934.237
934.369
934.492
934.608
934.72
934.829
934.934
935.037
935.137
935.236
935.332
935.427
935.52
935.611
935.701
935.789
935.876
935.962
936.046
936.129
936.211
936.292
936.372
936.452
936.531
936.61
936.688
936.765
936.842
936.918
936.994
937.068
937.143
937.216
937.289
937.362
937.434
937.505
937.575
937.645
937.714
937.782
937.849
937.915
937.98
938.042
938.102
938.159
938.207
938.031
937.918
937.83
937.758
937.696
937.641
937.591
937.546
937.504
937.467
933.891
933.891
933.891
933.891
933.891
933.891
933.891
933.891
933.891
933.895
934.086
934.236
934.368
934.491
934.607
934.719
934.827
934.932
935.035
935.135
935.233
935.33
935.424
935.517
935.608
935.698
935.786
935.873
935.958
936.042
936.125
936.207
936.289
936.369
936.449
936.528
936.607
936.684
936.762
936.838
936.915
936.99
937.065
937.139
937.213
937.286
937.358
937.43
937.502
937.572
937.642
937.711
937.779
937.847
937.913
937.978
938.041
938.101
938.158
938.207
938.031
937.917
937.83
937.758
937.696
937.641
937.591
937.546
937.504
937.467
933.891
933.891
933.891
933.891
933.891
933.891
933.891
933.891
933.891
933.895
934.086
934.236
934.368
934.49
934.606
934.718
934.826
934.931
935.033
935.133
935.231
935.327
935.422
935.514
935.605
935.695
935.783
935.87
935.955
936.039
936.122
936.205
936.286
936.366
936.446
936.526
936.604
936.682
936.76
936.837
936.913
936.988
937.063
937.138
937.212
937.285
937.358
937.43
937.501
937.572
937.642
937.711
937.78
937.848
937.914
937.98
938.043
938.104
938.162
938.211
938.035
937.922
937.835
937.763
937.701
937.646
937.596
937.552
937.51
937.473
933.891
933.891
933.891
933.891
933.891
933.891
933.891
933.891
933.891
933.895
934.085
934.235
934.367
934.49
934.605
934.717
934.824
934.929
935.031
935.131
935.229
935.325
935.419
935.512
935.603
935.693
935.781
935.868
935.954
936.038
936.121
936.204
936.285
936.366
936.447
936.526
936.605
936.684
936.761
936.839
936.915
936.991
937.067
937.142
937.216
937.29
937.363
937.436
937.508
937.58
937.65
937.721
937.79
937.859
937.926
937.992
938.057
938.119
938.179
938.229
938.052
937.939
937.852
937.781
937.719
937.664
937.616
937.571
937.53
937.493
933.891
933.891
933.891
933.891
933.891
933.891
933.891
933.891
933.891
933.895
934.086
934.235
934.367
934.49
934.605
934.716
934.824
934.929
935.031
935.131
935.229
935.326
935.42
935.513
935.605
935.695
935.784
935.871
935.958
936.043
936.127
936.21
936.293
936.375
936.456
936.536
936.616
936.696
936.775
936.853
936.931
937.008
937.085
937.161
937.237
937.312
937.387
937.461
937.535
937.608
937.68
937.752
937.823
937.894
937.963
938.031
938.098
938.162
938.224
938.276
938.1
937.987
937.901
937.83
937.769
937.715
937.667
937.623
937.583
937.547
933.891
933.891
933.891
933.891
933.891
933.891
933.891
933.891
933.891
933.895
934.085
934.235
934.368
934.49
934.606
934.718
934.827
934.932
935.035
935.136
935.235
935.333
935.429
935.523
935.616
935.708
935.799
935.888
935.976
936.063
936.15
936.235
936.32
936.404
936.488
936.571
936.654
936.736
936.818
936.899
936.98
937.06
937.14
937.219
937.298
937.376
937.454
937.531
937.608
937.685
937.761
937.837
937.911
937.986
938.059
938.131
938.202
938.271
938.336
938.392
938.215
938.103
938.017
937.947
937.887
937.835
937.788
937.746
937.707
937.672
933.891
933.891
933.891
933.891
933.891
933.891
933.891
933.891
933.891
933.895
934.086
934.238
934.372
934.496
934.614
934.729
934.839
934.948
935.054
935.158
935.261
935.362
935.462
935.561
935.658
935.754
935.849
935.944
936.037
936.129
936.22
936.311
936.402
936.491
936.581
936.67
936.758
936.846
936.934
937.022
937.109
937.195
937.281
937.367
937.453
937.538
937.623
937.707
937.791
937.874
937.957
938.04
938.122
938.203
938.284
938.364
938.442
938.518
938.592
938.654
938.475
938.362
938.277
938.207
938.148
938.096
938.05
938.008
937.971
937.936
933.891
933.891
933.891
933.891
933.891
933.891
933.891
933.891
933.891
933.895
934.091
934.247
934.387
934.517
934.642
934.764
934.882
934.999
935.114
935.227
935.339
935.45
935.56
935.668
935.776
935.883
935.989
936.094
936.199
936.303
936.406
936.508
936.61
936.712
936.813
936.914
937.015
937.115
937.215
937.314
937.414
937.512
937.611
937.709
937.807
937.904
938.001
938.097
938.193
938.289
938.384
938.478
938.572
938.666
938.758
938.85
938.939
939.027
939.111
939.184
938.993
938.873
938.782
938.706
938.642
938.584
938.533
938.486
938.443
938.404
933.891
933.891
933.891
933.891
933.891
933.891
933.891
933.891
933.891
933.896
934.109
934.284
934.441
934.59
934.733
934.874
935.012
935.149
935.284
935.418
935.55
935.682
935.813
935.943
936.072
936.2
936.327
936.453
936.579
936.703
936.826
936.949
937.071
937.192
937.313
937.433
937.553
937.672
937.79
937.907
938.024
938.14
938.256
938.37
938.484
938.597
938.71
938.821
938.932
939.042
939.152
939.26
939.368
939.474
939.58
939.684
939.786
939.885
939.981
940.059
939.82
939.664
939.541
939.437
939.345
939.262
939.187
939.117
939.053
938.995
933.891
933.891
933.891
933.891
933.891
933.891
933.891
933.891
933.892
933.898
934.179
934.399
934.596
934.781
934.959
935.132
935.302
935.469
935.634
935.797
935.959
936.118
936.276
936.432
936.587
936.74
936.891
937.04
937.187
937.333
937.477
937.619
937.76
937.899
938.036
938.172
938.307
938.44
938.572
938.703
938.832
938.96
939.086
939.211
939.335
939.458
939.579
939.699
939.818
939.935
940.052
940.167
940.281
940.394
940.504
940.613
940.72
940.822
940.92
940.988
940.591
940.337
940.142
939.979
939.84
939.716
939.606
939.506
939.414
939.334
933.891
933.891
933.891
933.891
933.891
933.891
933.891
933.891
933.891
933.896
934.111
934.313
934.504
934.687
934.864
935.036
935.205
935.372
935.536
935.698
935.859
936.018
936.175
936.331
936.485
936.638
936.789
936.939
937.087
937.234
937.379
937.522
937.664
937.804
937.943
938.079
938.215
938.348
938.481
938.612
938.742
938.871
938.998
939.125
939.25
939.374
939.497
939.618
939.738
939.856
939.973
940.088
940.201
940.313
940.421
940.528
940.631
940.731
940.826
940.897
940.571
940.33
940.138
939.978
939.839
939.716
939.605
939.505
939.413
939.333
933.891
933.891
933.891
933.891
933.891
933.891
933.891
933.891
933.891
933.894
934.047
934.2
934.347
934.491
934.632
934.769
934.905
935.04
935.173
935.305
935.435
935.565
935.695
935.823
935.951
936.078
936.204
936.33
936.455
936.579
936.702
936.825
936.947
937.069
937.189
937.309
937.429
937.547
937.665
937.783
937.9
938.016
938.132
938.248
938.363
938.477
938.59
938.702
938.814
938.924
939.034
939.142
939.249
939.355
939.459
939.561
939.661
939.759
939.853
939.934
939.767
939.631
939.517
939.418
939.33
939.25
939.176
939.108
939.045
938.988
933.891
933.891
933.891
933.891
933.891
933.891
933.891
933.891
933.891
933.894
934.031
934.167
934.297
934.423
934.545
934.663
934.78
934.894
935.007
935.118
935.228
935.337
935.445
935.552
935.659
935.764
935.869
935.974
936.077
936.181
936.283
936.385
936.487
936.588
936.689
936.79
936.89
936.989
937.088
937.187
937.286
937.385
937.483
937.581
937.679
937.777
937.874
937.97
938.066
938.162
938.256
938.35
938.443
938.535
938.626
938.716
938.803
938.89
938.972
939.047
938.924
938.824
938.742
938.672
938.611
938.557
938.508
938.462
938.421
938.383
933.891
933.891
933.891