/*--------------------------------*- C++ -*----------------------------------*\
  =========                 |
  \\      /  F ield         | OpenFOAM: The Open Source CFD Toolbox
   \\    /   O peration     | Website:  https://openfoam.org
    \\  /    A nd           | Version:  12
     \\/     M anipulation  |
\*---------------------------------------------------------------------------*/
FoamFile
{
    format      ascii;
    class       volScalarField;
    location    "1350/porous";
    object      T;
}
// * * * * * * * * * * * * * * * * * * * * * * * * * * * * * * * * * * * * * //

dimensions      [0 0 0 1 0 0 0];

internalField   nonuniform List<scalar> 
140000
(
400
400
400
400
400
400
400
400
400
399.993
399.688
399.449
399.235
399.034
398.84
398.653
398.469
398.289
398.111
397.936
397.762
397.59
397.42
397.251
397.084
396.918
396.754
396.591
396.43
396.27
396.112
395.956
395.801
395.648
395.497
395.347
395.199
395.053
394.907
394.763
394.62
394.478
394.338
394.198
394.059
393.922
393.787
393.653
393.52
393.389
393.26
393.133
393.007
392.883
392.763
392.645
392.53
392.42
392.315
392.243
392.684
392.965
393.183
393.363
393.518
393.654
393.777
393.888
393.989
394.077
400
400
400
400
400
400
400
400
400
399.995
399.763
399.573
399.402
399.24
399.084
398.932
398.783
398.636
398.49
398.346
398.203
398.061
397.92
397.78
397.641
397.503
397.365
397.228
397.091
396.956
396.821
396.687
396.553
396.42
396.288
396.157
396.026
395.896
395.767
395.638
395.51
395.382
395.254
395.127
395.001
394.875
394.751
394.627
394.504
394.382
394.261
394.142
394.024
393.908
393.793
393.681
393.57
393.464
393.36
393.276
393.54
393.713
393.848
393.964
394.065
394.157
394.24
394.317
394.388
394.452
400
400
400
400
400
400
400
400
400
399.996
399.782
399.612
399.46
399.318
399.182
399.05
398.922
398.796
398.673
398.551
398.43
398.311
398.193
398.076
397.96
397.844
397.73
397.616
397.502
397.389
397.277
397.165
397.054
396.943
396.833
396.723
396.613
396.504
396.395
396.286
396.178
396.07
395.961
395.853
395.746
395.638
395.532
395.425
395.32
395.215
395.111
395.007
394.905
394.804
394.704
394.606
394.51
394.415
394.325
394.247
394.456
394.588
394.688
394.771
394.842
394.905
394.961
395.013
395.06
395.103
400
400
400
400
400
400
400
400
400
399.996
399.788
399.622
399.476
399.34
399.211
399.087
398.967
398.85
398.736
398.624
398.513
398.405
398.297
398.191
398.086
397.983
397.88
397.778
397.676
397.576
397.476
397.377
397.279
397.181
397.084
396.987
396.891
396.796
396.7
396.605
396.51
396.416
396.321
396.227
396.133
396.04
395.946
395.854
395.762
395.671
395.58
395.49
395.401
395.314
395.227
395.143
395.059
394.978
394.9
394.832
395.028
395.152
395.245
395.32
395.385
395.442
395.492
395.538
395.579
395.617
400
400
400
400
400
400
400
400
400
399.996
399.789
399.625
399.48
399.346
399.219
399.097
398.98
398.866
398.755
398.646
398.54
398.435
398.332
398.23
398.13
398.031
397.933
397.836
397.74
397.645
397.551
397.458
397.366
397.274
397.183
397.093
397.004
396.915
396.826
396.738
396.65
396.563
396.475
396.389
396.302
396.216
396.131
396.046
395.961
395.878
395.795
395.714
395.633
395.553
395.475
395.399
395.324
395.251
395.181
395.121
395.314
395.437
395.53
395.606
395.671
395.729
395.78
395.826
395.868
395.906
400
400
400
400
400
400
400
400
400
399.996
399.788
399.625
399.48
399.346
399.22
399.099
398.982
398.869
398.758
398.651
398.545
398.442
398.34
398.24
398.141
398.044
397.948
397.853
397.759
397.667
397.575
397.484
397.394
397.305
397.217
397.13
397.043
396.957
396.872
396.787
396.702
396.618
396.534
396.451
396.368
396.285
396.204
396.122
396.042
395.962
395.884
395.806
395.73
395.655
395.581
395.509
395.438
395.37
395.305
395.249
395.441
395.564
395.658
395.735
395.802
395.86
395.913
395.96
396.004
396.043
400
400
400
400
400
400
400
400
400
399.996
399.789
399.624
399.48
399.346
399.219
399.098
398.981
398.868
398.758
398.65
398.545
398.442
398.34
398.241
398.142
398.046
397.95
397.856
397.763
397.671
397.58
397.49
397.401
397.313
397.226
397.14
397.055
396.97
396.886
396.802
396.719
396.636
396.554
396.472
396.39
396.309
396.229
396.15
396.071
395.993
395.916
395.841
395.766
395.693
395.622
395.552
395.484
395.418
395.355
395.302
395.493
395.616
395.711
395.789
395.856
395.915
395.969
396.017
396.061
396.102
400
400
400
400
400
400
400
400
400
399.996
399.788
399.624
399.479
399.345
399.218
399.097
398.98
398.866
398.756
398.648
398.543
398.439
398.338
398.238
398.14
398.043
397.948
397.854
397.761
397.669
397.578
397.489
397.4
397.312
397.226
397.14
397.055
396.971
396.887
396.804
396.722
396.639
396.557
396.476
396.395
396.315
396.235
396.157
396.079
396.002
395.926
395.851
395.777
395.705
395.634
395.566
395.499
395.434
395.373
395.32
395.511
395.635
395.73
395.808
395.876
395.935
395.989
396.038
396.083
396.124
400
400
400
400
400
400
400
400
400
399.996
399.788
399.624
399.479
399.345
399.218
399.096
398.978
398.865
398.754
398.646
398.54
398.437
398.335
398.235
398.137
398.04
397.945
397.85
397.757
397.666
397.575
397.485
397.397
397.309
397.223
397.137
397.052
396.968
396.885
396.802
396.719
396.637
396.556
396.474
396.394
396.314
396.234
396.156
396.078
396.001
395.926
395.851
395.778
395.706
395.636
395.568
395.501
395.438
395.376
395.325
395.516
395.64
395.734
395.813
395.881
395.941
395.995
396.044
396.089
396.13
400
400
400
400
400
400
400
400
400
399.996
399.788
399.624
399.479
399.344
399.217
399.095
398.977
398.863
398.752
398.644
398.538
398.434
398.332
398.232
398.134
398.037
397.941
397.847
397.754
397.662
397.571
397.482
397.393
397.306
397.219
397.134
397.049
396.965
396.881
396.799
396.716
396.634
396.552
396.471
396.39
396.31
396.231
396.152
396.075
395.998
395.922
395.848
395.775
395.703
395.634
395.565
395.5
395.436
395.375
395.324
395.515
395.639
395.734
395.812
395.88
395.94
395.994
396.044
396.089
396.13
400
400
400
400
400
400
400
400
400
399.996
399.787
399.623
399.479
399.344
399.217
399.094
398.977
398.862
398.751
398.643
398.536
398.433
398.33
398.23
398.132
398.034
397.939
397.844
397.751
397.659
397.568
397.479
397.39
397.303
397.216
397.131
397.046
396.962
396.878
396.795
396.713
396.63
396.549
396.467
396.387
396.307
396.227
396.149
396.071
395.994
395.919
395.844
395.771
395.7
395.63
395.562
395.496
395.433
395.373
395.321
395.512
395.636
395.731
395.81
395.878
395.938
395.992
396.041
396.087
396.128
400
400
400
400
400
400
400
400
400
399.996
399.788
399.623
399.478
399.344
399.216
399.094
398.976
398.862
398.75
398.642
398.535
398.431
398.329
398.228
398.13
398.032
397.937
397.842
397.749
397.657
397.566
397.476
397.388
397.3
397.214
397.128
397.043
396.959
396.876
396.793
396.71
396.628
396.546
396.464
396.383
396.303
396.224
396.145
396.068
395.991
395.915
395.841
395.768
395.696
395.627
395.559
395.493
395.43
395.369
395.318
395.51
395.633
395.728
395.807
395.875
395.935
395.989
396.039
396.084
396.125
400
400
400
400
400
400
400
400
400
399.996
399.788
399.623
399.478
399.344
399.217
399.094
398.976
398.861
398.75
398.641
398.535
398.43
398.328
398.227
398.128
398.031
397.935
397.841
397.747
397.655
397.564
397.475
397.386
397.299
397.212
397.127
397.042
396.958
396.874
396.791
396.708
396.625
396.543
396.462
396.381
396.301
396.221
396.143
396.065
395.988
395.913
395.838
395.765
395.694
395.624
395.556
395.49
395.427
395.367
395.316
395.507
395.631
395.726
395.805
395.873
395.933
395.987
396.037
396.082
396.123
400
400
400
400
400
400
400
400
400
399.996
399.787
399.623
399.479
399.344
399.216
399.094
398.976
398.861
398.75
398.641
398.534
398.43
398.327
398.227
398.128
398.03
397.934
397.84
397.746
397.654
397.563
397.474
397.385
397.298
397.211
397.125
397.041
396.956
396.873
396.789
396.706
396.624
396.542
396.46
396.379
396.299
396.22
396.141
396.063
395.986
395.911
395.836
395.763
395.691
395.622
395.554
395.488
395.425
395.365
395.314
395.506
395.629
395.724
395.803
395.871
395.931
395.986
396.035
396.08
396.121
400
400
400
400
400
400
400
400
400
399.996
399.788
399.623
399.479
399.344
399.217
399.095
398.976
398.862
398.75
398.641
398.534
398.429
398.327
398.226
398.127
398.03
397.934
397.839
397.746
397.654
397.563
397.473
397.385
397.297
397.211
397.125
397.04
396.956
396.872
396.789
396.706
396.623
396.541
396.459
396.378
396.298
396.218
396.14
396.062
395.985
395.909
395.835
395.762
395.69
395.621
395.553
395.487
395.424
395.364
395.314
395.505
395.628
395.723
395.802
395.87
395.93
395.985
396.034
396.079
396.121
400
400
400
400
400
400
400
400
400
399.996
399.788
399.624
399.479
399.345
399.217
399.095
398.977
398.862
398.75
398.641
398.534
398.43
398.327
398.226
398.127
398.03
397.934
397.839
397.746
397.654
397.563
397.473
397.385
397.297
397.211
397.125
397.04
396.956
396.872
396.788
396.705
396.623
396.54
396.459
396.378
396.298
396.218
396.139
396.061
395.985
395.909
395.834
395.761
395.69
395.62
395.552
395.487
395.424
395.364
395.313
395.504
395.628
395.723
395.802
395.87
395.93
395.984
396.034
396.079
396.12
400
400
400
400
400
400
400
400
400
399.996
399.788
399.624
399.479
399.345
399.218
399.095
398.977
398.862
398.751
398.641
398.534
398.43
398.327
398.226
398.127
398.03
397.934
397.839
397.746
397.654
397.563
397.474
397.385
397.298
397.211
397.125
397.04
396.956
396.872
396.789
396.706
396.623
396.541
396.459
396.378
396.298
396.218
396.139
396.061
395.985
395.909
395.834
395.761
395.69
395.62
395.552
395.487
395.424
395.364
395.313
395.504
395.628
395.723
395.802
395.87
395.93
395.984
396.034
396.079
396.12
400
400
400
400
400
400
400
400
400
399.996
399.788
399.624
399.48
399.346
399.218
399.096
398.978
398.863
398.751
398.642
398.535
398.43
398.327
398.227
398.127
398.03
397.934
397.84
397.746
397.654
397.564
397.474
397.386
397.299
397.212
397.126
397.041
396.956
396.873
396.789
396.706
396.623
396.541
396.459
396.378
396.298
396.218
396.14
396.062
395.985
395.909
395.834
395.761
395.69
395.62
395.553
395.487
395.424
395.364
395.314
395.505
395.629
395.724
395.802
395.87
395.931
395.985
396.034
396.08
396.121
400
400
400
400
400
400
400
400
400
399.996
399.788
399.624
399.48
399.346
399.219
399.097
398.979
398.864
398.752
398.642
398.535
398.431
398.328
398.227
398.128
398.03
397.934
397.84
397.747
397.655
397.564
397.475
397.387
397.299
397.212
397.126
397.041
396.956
396.873
396.789
396.706
396.624
396.541
396.46
396.379
396.298
396.219
396.14
396.062
395.985
395.909
395.835
395.762
395.69
395.621
395.553
395.487
395.425
395.365
395.314
395.505
395.629
395.724
395.803
395.871
395.931
395.986
396.035
396.08
396.122
400
400
400
400
400
400
400
400
400
399.996
399.788
399.625
399.48
399.347
399.22
399.097
398.979
398.864
398.752
398.643
398.536
398.431
398.328
398.227
398.128
398.031
397.935
397.84
397.747
397.655
397.565
397.476
397.387
397.299
397.212
397.126
397.04
396.956
396.873
396.789
396.706
396.624
396.542
396.46
396.379
396.299
396.219
396.14
396.062
395.985
395.91
395.835
395.762
395.69
395.621
395.553
395.488
395.425
395.365
395.315
395.506
395.629
395.724
395.803
395.871
395.932
395.986
396.035
396.081
396.122
400
400
400
400
400
400
400
400
400
399.996
399.789
399.625
399.481
399.347
399.22
399.098
398.98
398.865
398.753
398.643
398.536
398.431
398.328
398.227
398.128
398.031
397.935
397.841
397.747
397.656
397.565
397.476
397.387
397.299
397.212
397.125
397.04
396.955
396.872
396.789
396.706
396.623
396.541
396.46
396.379
396.299
396.219
396.14
396.062
395.985
395.91
395.835
395.762
395.691
395.621
395.553
395.488
395.425
395.365
395.315
395.506
395.63
395.725
395.803
395.871
395.932
395.986
396.036
396.081
396.122
400
400
400
400
400
400
400
400
400
399.996
399.788
399.625
399.481
399.348
399.221
399.099
398.98
398.865
398.753
398.644
398.537
398.432
398.329
398.228
398.128
398.031
397.935
397.841
397.748
397.656
397.565
397.476
397.387
397.299
397.211
397.125
397.039
396.955
396.871
396.788
396.705
396.623
396.541
396.459
396.379
396.298
396.219
396.14
396.062
395.985
395.91
395.835
395.762
395.69
395.621
395.553
395.488
395.425
395.365
395.315
395.506
395.629
395.724
395.803
395.871
395.932
395.986
396.036
396.081
396.122
400
400
400
400
400
400
400
400
400
399.996
399.789
399.626
399.482
399.348
399.221
399.099
398.981
398.866
398.754
398.644
398.537
398.432
398.329
398.228
398.129
398.031
397.935
397.841
397.748
397.656
397.565
397.475
397.386
397.298
397.211
397.124
397.039
396.954
396.87
396.787
396.704
396.622
396.54
396.459
396.378
396.298
396.219
396.14
396.062
395.985
395.909
395.835
395.762
395.69
395.621
395.553
395.488
395.425
395.365
395.314
395.505
395.629
395.724
395.803
395.871
395.931
395.986
396.035
396.081
396.122
400
400
400
400
400
400
400
400
400
399.996
399.789
399.626
399.482
399.348
399.222
399.1
398.981
398.866
398.754
398.645
398.537
398.432
398.329
398.228
398.129
398.031
397.935
397.841
397.748
397.656
397.565
397.475
397.386
397.298
397.21
397.124
397.038
396.953
396.87
396.787
396.704
396.622
396.54
396.459
396.378
396.298
396.219
396.14
396.062
395.985
395.91
395.835
395.762
395.69
395.621
395.553
395.487
395.424
395.365
395.314
395.505
395.629
395.724
395.803
395.871
395.931
395.986
396.035
396.081
396.122
400
400
400
400
400
400
400
400
400
399.996
399.789
399.626
399.482
399.349
399.222
399.1
398.982
398.867
398.754
398.645
398.538
398.432
398.329
398.228
398.129
398.031
397.935
397.841
397.747
397.656
397.565
397.475
397.386
397.298
397.21
397.124
397.038
396.953
396.869
396.786
396.704
396.622
396.54
396.459
396.378
396.298
396.219
396.14
396.062
395.986
395.91
395.835
395.762
395.691
395.621
395.553
395.488
395.425
395.365
395.314
395.505
395.629
395.724
395.803
395.871
395.931
395.986
396.035
396.081
396.122
400
400
400
400
400
400
400
400
400
399.996
399.789
399.626
399.483
399.349
399.223
399.101
398.982
398.867
398.755
398.645
398.538
398.433
398.33
398.228
398.129
398.031
397.935
397.841
397.747
397.656
397.565
397.475
397.386
397.298
397.21
397.124
397.038
396.953
396.869
396.786
396.704
396.622
396.54
396.459
396.379
396.299
396.219
396.141
396.063
395.986
395.91
395.836
395.762
395.691
395.621
395.553
395.487
395.424
395.364
395.313
395.504
395.628
395.723
395.802
395.871
395.931
395.985
396.035
396.08
396.122
400
400
400
400
400
400
400
400
400
399.996
399.789
399.627
399.483
399.35
399.223
399.101
398.983
398.868
398.755
398.646
398.538
398.433
398.33
398.229
398.129
398.031
397.935
397.84
397.747
397.656
397.565
397.475
397.386
397.298
397.21
397.124
397.038
396.953
396.87
396.787
396.704
396.622
396.541
396.46
396.379
396.299
396.22
396.141
396.064
395.987
395.911
395.836
395.763
395.691
395.621
395.554
395.488
395.424
395.364
395.313
395.505
395.628
395.724
395.802
395.871
395.931
395.985
396.035
396.08
396.122
400
400
400
400
400
400
400
400
400
399.996
399.789
399.627
399.483
399.35
399.223
399.101
398.983
398.868
398.756
398.646
398.539
398.433
398.33
398.229
398.129
398.031
397.935
397.84
397.747
397.656
397.565
397.475
397.386
397.298
397.211
397.124
397.039
396.954
396.87
396.787
396.705
396.623
396.542
396.46
396.38
396.3
396.221
396.142
396.064
395.987
395.912
395.837
395.764
395.692
395.622
395.554
395.488
395.424
395.364
395.313
395.504
395.628
395.723
395.802
395.871
395.931
395.985
396.035
396.08
396.122
400
400
400
400
400
400
400
400
400
399.996
399.79
399.627
399.483
399.35
399.224
399.102
398.983
398.868
398.756
398.646
398.539
398.434
398.33
398.229
398.129
398.032
397.935
397.841
397.747
397.656
397.565
397.476
397.387
397.299
397.211
397.125
397.039
396.955
396.871
396.788
396.706
396.624
396.542
396.461
396.381
396.301
396.222
396.143
396.065
395.988
395.913
395.838
395.764
395.692
395.622
395.554
395.488
395.424
395.364
395.313
395.504
395.628
395.723
395.802
395.871
395.931
395.985
396.035
396.081
396.122
400
400
400
400
400
400
400
400
400
399.996
399.79
399.627
399.484
399.35
399.224
399.102
398.984
398.869
398.757
398.647
398.539
398.434
398.331
398.229
398.13
398.032
397.936
397.841
397.748
397.656
397.565
397.476
397.387
397.299
397.212
397.126
397.04
396.956
396.873
396.79
396.707
396.625
396.544
396.463
396.382
396.302
396.223
396.144
396.066
395.989
395.913
395.839
395.765
395.693
395.623
395.554
395.488
395.424
395.364
395.313
395.504
395.628
395.723
395.802
395.871
395.931
395.985
396.035
396.081
396.122
400
400
400
400
400
400
400
400
400
399.996
399.79
399.627
399.484
399.351
399.224
399.102
398.984
398.869
398.757
398.647
398.54
398.435
398.331
398.23
398.13
398.032
397.936
397.841
397.748
397.656
397.566
397.477
397.388
397.3
397.213
397.127
397.042
396.957
396.874
396.791
396.708
396.626
396.544
396.463
396.383
396.303
396.224
396.145
396.067
395.99
395.914
395.839
395.766
395.693
395.623
395.555
395.488
395.424
395.363
395.312
395.504
395.628
395.723
395.802
395.87
395.931
395.985
396.035
396.08
396.121
400
400
400
400
400
400
400
400
400
399.996
399.79
399.627
399.484
399.351
399.224
399.103
398.985
398.87
398.757
398.648
398.54
398.435
398.332
398.23
398.131
398.033
397.936
397.842
397.748
397.657
397.566
397.477
397.389
397.301
397.214
397.128
397.043
396.959
396.875
396.792
396.709
396.627
396.545
396.464
396.384
396.304
396.224
396.146
396.068
395.991
395.915
395.84
395.766
395.694
395.623
395.554
395.488
395.424
395.363
395.311
395.503
395.627
395.722
395.802
395.87
395.93
395.985
396.034
396.08
396.121
400
400
400
400
400
400
400
400
400
399.996
399.79
399.628
399.484
399.351
399.225
399.103
398.985
398.87
398.758
398.648
398.541
398.436
398.333
398.231
398.132
398.034
397.937
397.842
397.749
397.657
397.567
397.478
397.389
397.302
397.215
397.129
397.044
396.96
396.876
396.793
396.71
396.627
396.546
396.464
396.384
396.304
396.225
396.146
396.068
395.991
395.915
395.84
395.766
395.693
395.623
395.554
395.487
395.423
395.361
395.31
395.502
395.626
395.722
395.801
395.869
395.929
395.984
396.033
396.079
396.12
400
400
400
400
400
400
400
400
400
399.996
399.79
399.628
399.484
399.351
399.225
399.103
398.986
398.871
398.759
398.649
398.542
398.437
398.334
398.232
398.133
398.035
397.938
397.843
397.75
397.658
397.568
397.479
397.39
397.303
397.216
397.13
397.045
396.961
396.877
396.793
396.71
396.628
396.546
396.465
396.384
396.304
396.225
396.146
396.068
395.991
395.915
395.84
395.766
395.693
395.622
395.553
395.486
395.422
395.36
395.308
395.501
395.625
395.721
395.8
395.868
395.929
395.983
396.033
396.078
396.119
400
400
400
400
400
400
400
400
400
399.996
399.79
399.628
399.485
399.352
399.225
399.104
398.986
398.871
398.76
398.65
398.543
398.438
398.335
398.233
398.134
398.036
397.94
397.845
397.752
397.66
397.569
397.48
397.392
397.304
397.218
397.132
397.046
396.962
396.878
396.794
396.711
396.629
396.547
396.466
396.385
396.305
396.226
396.147
396.069
395.992
395.916
395.84
395.766
395.693
395.622
395.553
395.486
395.421
395.36
395.308
395.5
395.625
395.72
395.799
395.868
395.928
395.983
396.032
396.078
396.119
400
400
400
400
400
400
400
400
400
399.996
399.79
399.628
399.485
399.352
399.226
399.105
398.987
398.872
398.761
398.651
398.544
398.439
398.336
398.235
398.135
398.038
397.941
397.847
397.753
397.661
397.571
397.482
397.394
397.306
397.22
397.134
397.048
396.963
396.879
396.795
396.712
396.63
396.548
396.467
396.386
396.306
396.227
396.148
396.07
395.993
395.917
395.841
395.767
395.694
395.623
395.553
395.486
395.421
395.359
395.307
395.5
395.624
395.72
395.799
395.868
395.928
395.983
396.032
396.078
396.119
400
400
400
400
400
400
400
400
400
399.996
399.79
399.628
399.485
399.353
399.227
399.105
398.988
398.873
398.762
398.652
398.545
398.441
398.338
398.237
398.137
398.039
397.943
397.848
397.755
397.664
397.573
397.484
397.396
397.308
397.222
397.136
397.05
396.965
396.881
396.797
396.714
396.632
396.55
396.468
396.388
396.308
396.228
396.15
396.072
395.995
395.918
395.843
395.769
395.695
395.624
395.554
395.486
395.422
395.36
395.307
395.5
395.625
395.72
395.8
395.868
395.929
395.983
396.033
396.078
396.12
400
400
400
400
400
400
400
400
400
399.996
399.79
399.629
399.486
399.353
399.227
399.106
398.989
398.875
398.763
398.654
398.547
398.442
398.34
398.239
398.139
398.042
397.945
397.851
397.758
397.666
397.576
397.487
397.398
397.311
397.224
397.138
397.053
396.968
396.883
396.8
396.716
396.634
396.552
396.471
396.39
396.31
396.231
396.152
396.074
395.997
395.921
395.845
395.771
395.697
395.626
395.556
395.488
395.422
395.361
395.308
395.501
395.626
395.722
395.801
395.869
395.93
395.984
396.034
396.08
396.121
400
400
400
400
400
400
400
400
400
399.996
399.791
399.629
399.486
399.354
399.228
399.107
398.99
398.876
398.764
398.656
398.549
398.444
398.342
398.241
398.142
398.044
397.948
397.854
397.761
397.669
397.579
397.49
397.401
397.314
397.227
397.141
397.055
396.97
396.886
396.802
396.719
396.637
396.555
396.474
396.393
396.313
396.234
396.155
396.077
396
395.924
395.848
395.774
395.7
395.628
395.558
395.49
395.424
395.362
395.309
395.503
395.628
395.723
395.803
395.871
395.932
395.986
396.036
396.081
396.123
400
400
400
400
400
400
400
400
400
399.996
399.791
399.629
399.487
399.354
399.229
399.108
398.991
398.877
398.766
398.657
398.551
398.447
398.344
398.243
398.144
398.047
397.951
397.857
397.764
397.672
397.582
397.493
397.405
397.317
397.231
397.144
397.059
396.974
396.89
396.806
396.723
396.64
396.558
396.477
396.397
396.317
396.237
396.159
396.081
396.004
395.927
395.852
395.777
395.704
395.631
395.561
395.492
395.427
395.364
395.312
395.505
395.63
395.725
395.805
395.873
395.934
395.988
396.038
396.083
396.125
400
400
400
400
400
400
400
400
400
399.996
399.791
399.63
399.487
399.355
399.23
399.109
398.993
398.879
398.768
398.659
398.553
398.449
398.347
398.246
398.147
398.05
397.954
397.86
397.767
397.676
397.586
397.497
397.408
397.321
397.234
397.148
397.062
396.977
396.893
396.809
396.726
396.644
396.562
396.481
396.401
396.321
396.241
396.163
396.085
396.008
395.931
395.855
395.781
395.707
395.635
395.564
395.495
395.429
395.366
395.314
395.507
395.632
395.728
395.807
395.875
395.936
395.99
396.04
396.085
396.127
400
400
400
400
400
400
400
400
400
399.996
399.791
399.63
399.488
399.356
399.231
399.111
398.994
398.881
398.77
398.662
398.556
398.452
398.35
398.249
398.151
398.053
397.958
397.864
397.771
397.68
397.59
397.5
397.412
397.325
397.238
397.152
397.066
396.981
396.897
396.813
396.73
396.648
396.566
396.485
396.404
396.324
396.245
396.166
396.088
396.011
395.934
395.859
395.784
395.71
395.637
395.566
395.497
395.431
395.367
395.314
395.507
395.632
395.728
395.807
395.875
395.936
395.99
396.04
396.085
396.126
400
400
400
400
400
400
400
400
400
399.996
399.792
399.631
399.488
399.357
399.232
399.112
398.996
398.883
398.772
398.664
398.558
398.454
398.352
398.252
398.153
398.056
397.961
397.867
397.774
397.683
397.593
397.503
397.415
397.327
397.241
397.154
397.069
396.983
396.899
396.815
396.732
396.65
396.568
396.486
396.406
396.325
396.246
396.167
396.089
396.011
395.934
395.858
395.783
395.709
395.635
395.564
395.494
395.427
395.363
395.309
395.502
395.627
395.723
395.802
395.87
395.93
395.984
396.033
396.079
396.119
400
400
400
400
400
400
400
400
400
399.996
399.792
399.631
399.489
399.358
399.233
399.113
398.997
398.884
398.774
398.666
398.56
398.457
398.355
398.254
398.156
398.059
397.963
397.869
397.776
397.684
397.594
397.504
397.416
397.328
397.24
397.154
397.067
396.982
396.897
396.813
396.729
396.646
396.564
396.482
396.401
396.32
396.24
396.16
396.081
396.003
395.925
395.848
395.772
395.697
395.622
395.55
395.479
395.41
395.345
395.29
395.484
395.608
395.704
395.782
395.85
395.91
395.963
396.012
396.057
396.097
400
400
400
400
400
400
400
400
400
399.996
399.792
399.631
399.489
399.358
399.233
399.113
398.997
398.884
398.774
398.666
398.56
398.456
398.354
398.253
398.154
398.056
397.96
397.865
397.772
397.679
397.588
397.497
397.408
397.319
397.23
397.142
397.055
396.969
396.883
396.797
396.712
396.628
396.544
396.46
396.378
396.295
396.214
396.133
396.052
395.972
395.892
395.814
395.735
395.658
395.582
395.507
395.434
395.363
395.295
395.237
395.432
395.556
395.651
395.729
395.796
395.855
395.907
395.955
395.999
396.038
400
400
400
400
400
400
400
400
400
399.996
399.792
399.631
399.489
399.357
399.232
399.112
398.995
398.881
398.77
398.661
398.554
398.448
398.344
398.242
398.141
398.042
397.944
397.847
397.751
397.657
397.563
397.47
397.378
397.286
397.195
397.105
397.015
396.925
396.836
396.747
396.659
396.572
396.484
396.398
396.311
396.226
396.14
396.055
395.971
395.887
395.804
395.721
395.639
395.557
395.477
395.397
395.319
395.244
395.172
395.11
395.305
395.429
395.522
395.599
395.665
395.723
395.774
395.821
395.863
395.901
400
400
400
400
400
400
400
400
400
399.996
399.791
399.628
399.485
399.351
399.223
399.1
398.981
398.864
398.749
398.637
398.526
398.416
398.309
398.202
398.096
397.992
397.889
397.787
397.686
397.586
397.486
397.387
397.289
397.191
397.094
396.997
396.901
396.805
396.709
396.613
396.518
396.424
396.329
396.235
396.142
396.049
395.956
395.863
395.771
395.679
395.588
395.497
395.407
395.318
395.229
395.141
395.055
394.971
394.89
394.821
395.019
395.144
395.237
395.314
395.379
395.436
395.486
395.532
395.574
395.611
400
400
400
400
400
400
400
400
400
399.996
399.786
399.618
399.468
399.328
399.193
399.063
398.935
398.809
398.685
398.563
398.442
398.322
398.203
398.085
397.968
397.852
397.737
397.623
397.51
397.397
397.285
397.173
397.062
396.951
396.841
396.731
396.621
396.511
396.402
396.293
396.185
396.076
395.968
395.861
395.754
395.647
395.54
395.434
395.329
395.224
395.119
395.015
394.911
394.808
394.706
394.605
394.506
394.409
394.316
394.235
394.447
394.58
394.68
394.763
394.835
394.898
394.955
395.007
395.054
395.097
400
400
400
400
400
400
400
400
400
399.995
399.766
399.579
399.41
399.25
399.096
398.944
398.795
398.647
398.501
398.356
398.213
398.07
397.929
397.788
397.648
397.508
397.37
397.233
397.097
396.961
396.827
396.693
396.559
396.427
396.295
396.163
396.032
395.902
395.772
395.643
395.515
395.387
395.26
395.134
395.008
394.884
394.76
394.636
394.514
394.392
394.271
394.151
394.032
393.913
393.796
393.681
393.567
393.457
393.351
393.264
393.53
393.703
393.84
393.955
394.057
394.149
394.232
394.309
394.381
394.445
400
400
400
400
400
400
400
400
400
399.993
399.692
399.455
399.244
399.044
398.852
398.665
398.481
398.301
398.122
397.945
397.771
397.598
397.426
397.256
397.088
396.921
396.756
396.593
396.432
396.273
396.116
395.96
395.805
395.653
395.502
395.352
395.204
395.057
394.911
394.767
394.625
394.483
394.344
394.205
394.068
393.932
393.798
393.664
393.532
393.402
393.272
393.144
393.017
392.891
392.767
392.645
392.526
392.411
392.303
392.226
392.671
392.954
393.172
393.352
393.508
393.645
393.768
393.879
393.98
394.069
400
400
400
400
400
400
400
400
400
399.995
399.765
399.547
399.342
399.145
398.955
398.769
398.586
398.406
398.229
398.053
397.879
397.707
397.536
397.366
397.198
397.032
396.867
396.704
396.542
396.381
396.223
396.066
395.91
395.756
395.604
395.454
395.305
395.158
395.012
394.867
394.724
394.582
394.441
394.301
394.162
394.024
393.888
393.754
393.621
393.489
393.359
393.232
393.106
392.981
392.86
392.741
392.625
392.514
392.408
392.328
392.692
392.962
393.175
393.354
393.509
393.646
393.768
393.88
393.981
394.071
400
400
400
400
400
400
400
400
400
399.997
399.833
399.669
399.51
399.356
399.205
399.056
398.91
398.765
398.621
398.479
398.337
398.197
398.057
397.918
397.779
397.641
397.504
397.368
397.232
397.096
396.962
396.828
396.694
396.562
396.43
396.299
396.168
396.038
395.909
395.78
395.651
395.523
395.396
395.269
395.143
395.017
394.892
394.768
394.645
394.523
394.402
394.282
394.163
394.046
393.931
393.817
393.706
393.598
393.493
393.403
393.588
393.74
393.866
393.976
394.074
394.163
394.244
394.319
394.389
394.453
400
400
400
400
400
400
400
400
400
399.998
399.85
399.704
399.564
399.43
399.299
399.171
399.045
398.922
398.801
398.681
398.562
398.444
398.327
398.211
398.096
397.981
397.868
397.754
397.642
397.529
397.418
397.307
397.196
397.086
396.976
396.867
396.757
396.649
396.54
396.432
396.324
396.216
396.109
396.001
395.894
395.787
395.68
395.574
395.469
395.364
395.259
395.156
395.054
394.952
394.852
394.753
394.656
394.561
394.47
394.386
394.523
394.633
394.724
394.801
394.868
394.928
394.983
395.033
395.078
395.12
400
400
400
400
400
400
400
400
400
399.998
399.854
399.713
399.579
399.45
399.326
399.206
399.088
398.974
398.861
398.751
398.642
398.534
398.428
398.323
398.219
398.116
398.014
397.913
397.812
397.712
397.613
397.515
397.417
397.32
397.223
397.127
397.031
396.936
396.841
396.747
396.652
396.558
396.464
396.37
396.277
396.184
396.091
395.999
395.907
395.816
395.725
395.635
395.546
395.459
395.372
395.286
395.202
395.121
395.041
394.97
395.094
395.197
395.281
395.352
395.413
395.468
395.516
395.56
395.6
395.637
400
400
400
400
400
400
400
400
400
399.998
399.855
399.715
399.582
399.455
399.333
399.215
399.101
398.989
398.88
398.773
398.667
398.564
398.462
398.361
398.261
398.163
398.066
397.97
397.874
397.78
397.687
397.594
397.502
397.411
397.32
397.23
397.141
397.052
396.964
396.876
396.789
396.702
396.615
396.528
396.442
396.356
396.271
396.187
396.102
396.019
395.936
395.855
395.774
395.694
395.616
395.538
395.463
395.389
395.318
395.254
395.377
395.479
395.563
395.634
395.696
395.751
395.801
395.845
395.886
395.923
400
400
400
400
400
400
400
400
400
399.998
399.855
399.715
399.582
399.456
399.334
399.216
399.102
398.991
398.883
398.777
398.672
398.57
398.469
398.37
398.272
398.176
398.08
397.986
397.893
397.8
397.709
397.619
397.529
397.44
397.353
397.265
397.179
397.093
397.008
396.924
396.839
396.755
396.672
396.589
396.506
396.424
396.342
396.261
396.181
396.101
396.023
395.945
395.868
395.793
395.718
395.646
395.574
395.505
395.439
395.379
395.501
395.603
395.688
395.761
395.824
395.88
395.931
395.977
396.02
396.058
400
400
400
400
400
400
400
400
400
399.998
399.855
399.715
399.582
399.455
399.333
399.216
399.102
398.991
398.882
398.776
398.672
398.57
398.47
398.371
398.273
398.177
398.082
397.989
397.896
397.805
397.714
397.624
397.536
397.448
397.361
397.275
397.19
397.106
397.022
396.938
396.855
396.773
396.691
396.609
396.528
396.447
396.367
396.288
396.209
396.131
396.054