/*--------------------------------*- C++ -*----------------------------------*\
  =========                 |
  \\      /  F ield         | OpenFOAM: The Open Source CFD Toolbox
   \\    /   O peration     | Website:  https://openfoam.org
    \\  /    A nd           | Version:  12
     \\/     M anipulation  |
\*---------------------------------------------------------------------------*/
FoamFile
{
    format      ascii;
    class       volScalarField;
    location    "100/air";
    object      alphat;
}
// * * * * * * * * * * * * * * * * * * * * * * * * * * * * * * * * * * * * * //

dimensions      [1 -1 -1 0 0 0 0];

internalField   nonuniform List<scalar> 
243000
(
0.000118712
0.000122108
0.000121587
0.000116608
0.000108734
0.000101046
9.65588e-05
9.7894e-05
0.000101929
0.000106115
0.000109706
0.000112917
0.000115742
0.000118498
0.000120674
0.000122801
0.000123877
0.000123622
0.000121699
0.000120223
0.000118673
0.000117201
0.000115682
0.00011407
0.000112214
0.000110165
0.000108611
0.000108693
0.000111746
0.000116518
0.000479171
0.000480181
0.00047594
0.000455094
0.000423185
0.000394521
0.000381712
0.000387923
0.000399492
0.000411603
0.000422337
0.000433111
0.000442855
0.000453445
0.000462373
0.000471729
0.000477518
0.000477882
0.000470311
0.000463951
0.00045702
0.000450639
0.000444411
0.000438798
0.000433331
0.000427988
0.000424594
0.000427037
0.000439708
0.000459944
0.000621082
0.000643254
0.000664213
0.000663006
0.000643867
0.000626271
0.000632
0.000660431
0.000694075
0.000727464
0.000757581
0.000786039
0.00081136
0.000835895
0.000854681
0.000870596
0.000877255
0.000871768
0.000849309
0.000826008
0.000799389
0.000771868
0.000743358
0.000714694
0.000685798
0.000656993
0.000630669
0.00061184
0.000603644
0.000601505
0.000652449
0.000671419
0.000694705
0.000697905
0.000684232
0.000672461
0.000683553
0.000713012
0.000745966
0.000778335
0.000807513
0.000835242
0.000860241
0.000884617
0.000903282
0.000918536
0.000924585
0.000919657
0.000897899
0.000875065
0.000848514
0.000820739
0.000791978
0.000763011
0.000733749
0.000704609
0.000677878
0.000657953
0.000645851
0.000636794
0.000679151
0.000695543
0.00071845
0.000724024
0.000715774
0.000710772
0.000725849
0.000755705
0.000788007
0.000819653
0.000848466
0.000876229
0.0009014
0.000926117
0.000944971
0.000959761
0.000965014
0.000960533
0.000939363
0.000916889
0.000890012
0.000861523
0.000831998
0.000802352
0.000772615
0.000743253
0.000716459
0.00069545
0.000679406
0.000664205
0.00071176
0.000731971
0.000745008
0.000748905
0.000744564
0.000746154
0.000764219
0.000794447
0.000826577
0.00085817
0.00088756
0.000916281
0.00094241
0.000968274
0.000987969
0.00100288
0.00100751
0.00100332
0.000982264
0.00095964
0.000931722
0.000901713
0.000870631
0.000839587
0.000808826
0.000778938
0.000751894
0.000729636
0.000710141
0.000691006
0.000755578
0.000777673
0.000781253
0.000777066
0.000774363
0.000781521
0.000801947
0.000832872
0.000865385
0.000897821
0.000928598
0.000958928
0.000986608
0.00101428
0.00103546
0.00105115
0.00105557
0.00105169
0.00103037
0.00100707
0.00097754
0.00094543
0.000912061
0.000878923
0.000846438
0.000815451
0.00078792
0.000764477
0.000742626
0.000723632
0.000805337
0.000827853
0.000826334
0.000810948
0.000807919
0.000819395
0.000841724
0.000873548
0.00090699
0.000940865
0.000973365
0.00100548
0.00103482
0.00106451
0.00108755
0.00110454
0.00110927
0.00110596
0.00108441
0.00106019
0.00102885
0.000994586
0.000958724
0.000923185
0.000888583
0.000856057
0.000827883
0.000803772
0.00078118
0.000768628
0.000860343
0.000881628
0.00087652
0.000853406
0.000847793
0.000861861
0.000885616
0.000918409
0.00095293
0.000988279
0.0010223
0.00105593
0.00108653
0.00111795
0.00114283
0.00116134
0.00116681
0.00116447
0.00114326
0.00111837
0.00108557
0.00104958
0.00101166
0.000973947
0.000937288
0.000903317
0.000874751
0.000850794
0.000829606
0.000821867
0.00092388
0.00094159
0.000934193
0.000906064
0.000895944
0.000910645
0.000935171
0.000968579
0.00100379
0.00104001
0.00107492
0.0011095
0.00114069
0.00117311
0.00119948
0.00121952
0.00122595
0.00122496
0.00120497
0.0011801
0.00114667
0.0011098
0.00107073
0.00103163
0.000993603
0.00095876
0.00093034
0.000907586
0.000889417
0.000883752
0.000996678
0.00101164
0.00100075
0.000968477
0.000953345
0.000966675
0.000991021
0.00102425
0.00105926
0.00109542
0.00113026
0.00116499
0.00119609
0.00122866
0.00125593
0.00127732
0.00128485
0.00128549
0.00126768
0.00124367
0.00121069
0.00117408
0.00113512
0.00109576
0.0010574
0.0010226
0.000995067
0.000974492
0.000959901
0.000956492
0.00107702
0.00108908
0.00107497
0.00103966
0.00101994
0.00102983
0.00105281
0.00108473
0.0011184
0.00115337
0.00118715
0.00122116
0.00125153
0.00128347
0.00131093
0.00133349
0.0013422
0.00134462
0.00132963
0.00130738
0.00127599
0.00124085
0.00120323
0.00116502
0.00112759
0.00109397
0.00106818
0.00105054
0.00103966
0.00103792
0.00116302
0.00117182
0.00115493
0.00111777
0.00109415
0.00109893
0.00111932
0.00114875
0.00117984
0.0012125
0.00124427
0.00127678
0.00130584
0.00133653
0.00136363
0.00138708
0.00139702
0.00140129
0.00138949
0.00136973
0.00134089
0.00130831
0.00127316
0.00123737
0.00120223
0.00117096
0.00114771
0.00113359
0.00112653
0.00112632
0.0012521
0.00125723
0.00123796
0.00119999
0.00117328
0.00117231
0.00118848
0.00121431
0.00124183
0.00127126
0.0013002
0.00133055
0.00135779
0.00138686
0.00141321
0.00143733
0.00144853
0.00145466
0.00144614
0.00142939
0.00140377
0.00137457
0.00134278
0.00131041
0.0012787
0.00125081
0.00123082
0.00122059
0.0012174
0.00121879
0.00134088
0.00134218
0.00132097
0.00128294
0.00125383
0.00124737
0.00125804
0.00127911
0.00130223
0.00132773
0.00135332
0.00138102
0.00140609
0.00143339
0.00145872
0.0014834
0.00149588
0.00150388
0.0014986
0.00148512
0.0014631
0.00143776
0.00140996
0.00138167
0.00135416
0.00133036
0.00131416
0.00130793
0.00130839
0.00131152
0.00142593
0.00142362
0.00140078
0.00136312
0.00133221
0.00132072
0.00132516
0.00134035
0.00135852
0.00137966
0.00140169
0.00142651
0.00144928
0.00147482
0.00149902
0.00152417
0.00153795
0.00154786
0.00154571
0.00153557
0.00151725
0.00149596
0.0014725
0.00144872
0.00142581
0.00140656
0.00139443
0.00139213
0.00139572
0.00140076
0.00150425
0.00149864
0.00147435
0.00143707
0.00140468
0.00138844
0.00138623
0.00139479
0.00140768
0.00142446
0.00144308
0.00146515
0.00148573
0.00150961
0.00153271
0.00155821
0.00157325
0.00158499
0.00158576
0.00157885
0.00156411
0.0015468
0.00152776
0.00150874
0.00149075
0.00147638
0.00146862
0.00146997
0.00147633
0.00148331
0.00157291
0.00156405
0.00153811
0.00150078
0.00146684
0.0014458
0.00143698
0.00143872
0.00144658
0.00145958
0.00147534
0.00149509
0.00151381
0.00153622
0.00155828
0.00158399
0.00160019
0.00161356
0.00161673
0.00161265
0.00160106
0.00158739
0.00157258
0.00155828
0.00154538
0.00153625
0.00153333
0.00153818
0.00154728
0.00155622
0.0016279
0.00161552
0.00158748
0.00154958
0.00151379
0.00148793
0.00147302
0.00146891
0.00147285
0.00148305
0.0014967
0.00151463
0.00153187
0.0015529
0.0015741
0.00160004
0.00161732
0.00163216
0.00163706
0.00163505
0.00162577
0.00161486
0.00160351
0.00159335
0.0015853
0.00158159
0.00158383
0.00159239
0.00160458
0.0016156
0.00166338
0.00164767
0.00161723
0.00157828
0.00154046
0.00151089
0.0014918
0.00148382
0.00148506
0.00149335
0.00150559
0.00152207
0.00153801
0.00155774
0.00157804
0.00160431
0.00162261
0.00163918
0.00164549
0.00164498
0.0016372
0.001628
0.00161868
0.00161112
0.00160686
0.001608
0.00161474
0.00162703
0.00164248
0.00165556
0.0016742
0.00165603
0.00162408
0.00158483
0.00154592
0.00151438
0.00149294
0.00148306
0.00148253
0.0014909
0.00150353
0.00151941
0.00153445
0.00155197
0.00156974
0.00159571
0.00161453
0.00163243
0.00163989
0.00164043
0.00163369
0.0016251
0.00161706
0.00161149
0.00160944
0.00161291
0.00162254
0.00163756
0.00165576
0.00167057
0.00165737
0.00163782
0.00160605
0.00156778
0.00152963
0.00150264
0.00148469
0.00147752
0.00147902
0.00148775
0.00150056
0.00151605
0.00153052
0.00154674
0.00156332
0.00158475
0.00160045
0.0016152
0.00162067
0.00162108
0.00161485
0.00160659
0.00159897
0.00159393
0.00159276
0.00159693
0.0016074
0.00162314
0.00164221
0.00165759
0.00161377
0.00159472
0.00157032
0.0015409
0.00151027
0.00148738
0.00147322
0.00146916
0.00147269
0.00148239
0.00149569
0.00151111
0.0015254
0.00154074
0.00155599
0.00157391
0.00158712
0.00159944
0.00160374
0.00160242
0.00159461
0.00158466
0.00157526
0.00156837
0.00156512
0.00156635
0.001573
0.00158527
0.00160305
0.00161728
0.00156039
0.00154868
0.00153219
0.00151069
0.00148708
0.00146872
0.00145872
0.00145769
0.00146327
0.00147425
0.00148841
0.00150418
0.00151873
0.00153371
0.00154808
0.00156351
0.00157472
0.0015848
0.00158725
0.00158362
0.00157411
0.00156236
0.00155102
0.00154214
0.00153664
0.00153511
0.00153793
0.00154578
0.00155686
0.00156492
0.00150699
0.00150124
0.00149193
0.0014776
0.00146056
0.00144719
0.00144144
0.00144322
0.00145094
0.00146359
0.00147906
0.00149577
0.00151145
0.00152688
0.00154138
0.0015555
0.00156514
0.0015727
0.00157238
0.00156581
0.00155386
0.00153984
0.0015262
0.00151494
0.00150699
0.00150263
0.00150189
0.00150503
0.00150987
0.00151233
0.00145383
0.00145312
0.00145031
0.00144248
0.00143177
0.00142364
0.00142209
0.00142687
0.00143745
0.00145255
0.00147033
0.00148918
0.00150694
0.00152474
0.00154118
0.00155578
0.00156449
0.00156932
0.00156548
0.00155444
0.00153822
0.00152033
0.00150328
0.00148843
0.00147724
0.00146962
0.00146519
0.00146352
0.00146243
0.00145991
0.00140353
0.00140689
0.00140981
0.00140843
0.00140429
0.00140205
0.00140561
0.0014153
0.00143055
0.00145045
0.00147246
0.0014952
0.00151717
0.00153917
0.00156028
0.00157828
0.00158772
0.00159071
0.00158307
0.00156624
0.00154271
0.00151771
0.0014934
0.00147226
0.00145494
0.00144163
0.00143188
0.00142477
0.00141749
0.00141007
0.00137448
0.0013816
0.00139001
0.00139565
0.00140056
0.00140821
0.00142139
0.00144014
0.0014636
0.00148979
0.00151651
0.00154273
0.00156783
0.00159309
0.0016194
0.00164436
0.00165803
0.00166249
0.00165462
0.00163424
0.00160461
0.00157379
0.00154076
0.00150879
0.00147937
0.00145376
0.00143225
0.00141392
0.00139724
0.00138145
0.0014813
0.00148556
0.00149413
0.00150623
0.00152099
0.00153992
0.00156221
0.00158599
0.0016091
0.00163072
0.00165077
0.00166978
0.0016889
0.00171031
0.00173273
0.0017539
0.00176952
0.00177987
0.00178447
0.00178211
0.00177167
0.00175187
0.00172611
0.00169558
0.00166133
0.00162465
0.0015882
0.0015532
0.00152079
0.00149155
0.00178583
0.00177816
0.00176922
0.00176037
0.00175251
0.00174592
0.00174078
0.00173719
0.00173507
0.0017345
0.00173583
0.00173971
0.00174681
0.00175824
0.00177318
0.00179114
0.00180715
0.00182013
0.00183078
0.00183728
0.00183981
0.00183929
0.00183636
0.00183187
0.0018264
0.00182038
0.00181406
0.00180748
0.00180063
0.00179266
0.000182374
0.000187716
0.000181617
0.000169029
0.000155125
0.000143918
0.000139261
0.00014069
0.000143906
0.000147837
0.000151647
0.00015548
0.000159586
0.000163816
0.000167076
0.00017023
0.000171804
0.000171409
0.000168898
0.000166493
0.000163533
0.000161037
0.000158771
0.000156673
0.000154513
0.000152495
0.000151488
0.000153402
0.000160568
0.000171982
0.00139859
0.00148991
0.00142462
0.00130863
0.00110296
0.000970195
0.000941767
0.000977171
0.00103003
0.00109758
0.00116624
0.00124441
0.0012944
0.00134572
0.00138801
0.00141679
0.00143201
0.00142048
0.00138321
0.00133767
0.00128332
0.00122661
0.00115809
0.0011021
0.00105306
0.00101688
0.00099988
0.00102716
0.00113162
0.00128844
0.0024613
0.00256622
0.00248459
0.00234004
0.00209338
0.00192709
0.00190546
0.00197908
0.0020816
0.00220347
0.00232496
0.00243239
0.00252322
0.00261693
0.00269312
0.00274169
0.00276767
0.00275093
0.00268697
0.00260585
0.00250592
0.00240667
0.00230074
0.00218971
0.00208887
0.0020125
0.00196548
0.0019903
0.00210338
0.00228205
0.00318728
0.00328585
0.00324094
0.00311975
0.00291842
0.00279852
0.00280923
0.00290801
0.00302552
0.00316066
0.00328402
0.00340595
0.00352006
0.00363751
0.00373353
0.00379501
0.00382525
0.00380585
0.00372881
0.00362755
0.00350247
0.00337815
0.0032584
0.00313928
0.00301637
0.00290197
0.00282231
0.00282364
0.00289707
0.00302153
0.00372786
0.00381179
0.00381388
0.00374698
0.00362165
0.00355068
0.00358121
0.00368233
0.00380276
0.00393366
0.00405762
0.00418856
0.00431456
0.00444166
0.00454533
0.00461187
0.00463983
0.00461836
0.00453636
0.00442463
0.00428699
0.00414804
0.00401338
0.0038851
0.00375835
0.00363618
0.00354315
0.00352047
0.00354654
0.00359994
0.00418473
0.0042528
0.00429183
0.00427648
0.0042223
0.00419625
0.00424303
0.00434431
0.00446017
0.00458145
0.00470784
0.00484381
0.00497545
0.00510575
0.00521134
0.00527528
0.00529868
0.00527374
0.00518926
0.00507172
0.00492778
0.004781
0.00463924
0.00450569
0.00437817
0.00425662
0.00415402
0.00411147
0.0040935
0.00409308
0.00461804
0.00467439
0.00472887
0.00475193
0.00475121
0.0047588
0.00481387
0.0049187
0.00502842
0.00514852
0.0052777
0.00541688
0.0055509
0.00568074
0.00578515
0.00584493
0.00586341
0.00583475
0.00574962
0.00562937
0.00548275
0.00533181
0.00518554
0.00504713
0.00491588
0.00478993
0.0046853
0.00462871
0.00458361
0.00454936
0.00505617
0.00510282
0.00516066
0.00520267
0.00523334
0.00526589
0.0053235
0.00543022
0.00554095
0.00566321
0.0057953
0.0059361
0.00607003
0.00619601
0.00629641
0.00635083
0.00636482
0.00633404
0.00624953
0.00612885
0.00598163
0.0058288
0.00568002
0.00553864
0.00540461
0.00527379
0.00517344
0.00510935
0.00505168
0.00500089
0.00550502
0.00554357
0.0055985
0.00564486
0.00569121
0.0057364
0.00579632
0.00590412
0.00601808
0.00614264
0.00627651
0.00641666
0.00654726
0.00666574
0.00675895
0.00680677
0.00681702
0.0067867
0.00670466
0.00658602
0.00644068
0.00628847
0.00613975
0.00599776
0.00586341
0.00573171
0.00563833
0.00557246
0.00551243
0.00546096
0.00595209
0.00598501
0.00603542
0.00608043
0.00613384
0.00618595
0.00624928
0.00635349
0.00647009
0.00659537
0.00672861
0.0068648
0.00698814
0.00709447
0.00717713
0.00721926
0.0072273
0.00720093
0.0071244
0.00701121
0.00686955
0.00672016
0.00657375
0.00643334
0.00630065
0.00617219
0.00608582
0.00602139
0.00596428
0.00592095
0.006386
0.00641482
0.00646279
0.00650745
0.00656238
0.006619
0.00668707
0.00678377
0.00690028
0.0070238
0.00715281
0.00728102
0.00739258
0.0074828
0.00755272
0.00759085
0.00759773
0.00757893
0.00751265
0.00741019
0.00727672
0.00713172
0.00698916
0.00685173
0.00672147
0.00659909
0.00651722
0.00645484
0.00640262
0.00636708
0.00681275
0.00683767
0.00688178
0.00692654
0.00698085
0.00703797
0.00710842
0.00719891
0.00730807
0.00742625
0.00754728
0.00766334
0.00775889
0.00783014
0.00788622
0.00791916
0.00792612
0.00791602
0.00786559
0.00777968
0.0076604
0.00752577
0.00738934
0.00725623
0.00713033
0.00701751
0.00693952
0.00687963
0.00683263
0.00680283
0.00723219
0.00725254
0.00728948
0.0073336
0.00738647
0.00744281
0.00751148
0.00759629
0.00769381
0.00779918
0.00790709
0.00800765
0.00808349
0.00813468
0.00817357
0.00819871
0.00820601
0.00820559
0.00817583
0.00811162
0.00801217
0.00789424
0.00777076
0.00764666
0.00752778
0.00742562
0.00735138
0.00729465
0.00725314
0.00722841
0.00764135
0.00765424
0.00768042
0.00772162
0.00777202
0.0078261
0.00788988
0.00796527
0.00805007
0.00813914
0.00822641
0.00830801
0.00836185
0.00839007
0.00840881
0.00842395
0.00843141
0.00844167
0.00843468
0.00839619
0.00832051
0.00822457
0.00812089
0.0080138
0.00790928
0.00781896
0.0077477
0.00769577
0.00766084
0.00764141
0.00803212
0.00803443
0.0080487
0.00808244
0.00812777
0.0081772
0.00823321
0.00829616
0.00836456
0.00843456
0.00849946
0.00855591
0.00858557
0.00858929
0.00858622
0.00859118
0.00859931
0.00862106
0.00863571
0.00862458
0.00857597
0.00850675
0.00842639
0.00834072
0.00825555
0.00817898
0.0081175
0.00807407
0.00804802
0.00803554
0.00837859
0.00836995
0.00837506
0.00840166
0.00844074
0.00848281
0.00852768
0.00857471
0.008623
0.00867005
0.00871079
0.00874137
0.00874586
0.00872618
0.00870258
0.0086983
0.00870786
0.00874249
0.00877808
0.00879231
0.00877153
0.00872911
0.00867357
0.00861092
0.00854608
0.00848612
0.00843772
0.00840523
0.00838939
0.00838492
0.00865531
0.0086382
0.00863756
0.00865791
0.00868921
0.00872088
0.00875076
0.00877773
0.00880286
0.0088265
0.00884492
0.00885324
0.00883601
0.0087975
0.00875798
0.00874586
0.00875728
0.00880375
0.00885807
0.00889408
0.00889678
0.00887857
0.00884685
0.00880725
0.00876368
0.00872168
0.00868737
0.00866654
0.00866074
0.0086638
0.00883941
0.00881699
0.00881056
0.00882287
0.00884339
0.0088601
0.00887081
0.00887595
0.00888114
0.00888633
0.00888953
0.00888477
0.00885638
0.00880747
0.00875921
0.00874028
0.00875195
0.00880494
0.00887061
0.00891998
0.00893851
0.00893857
0.00892699
0.00890785
0.00888452
0.00886295
0.00884597
0.00883737
0.00884052
0.00884975
0.00890433
0.00887345
0.00885923
0.00886369
0.00886947
0.0088661
0.00885581
0.00884347
0.00884136
0.00884042
0.00884054
0.00883471
0.00880855
0.00876598
0.00872293
0.00870039
0.00871039
0.00876109
0.008824
0.00887012
0.00888823
0.00889282
0.00889094
0.00888413
0.00887731
0.00887895
0.00888334
0.00888905
0.00890328
0.00891915
0.00880911
0.00877201
0.00875276
0.00875507
0.00875569
0.00873678
0.00869901
0.00867521
0.00868052
0.00868555
0.00869436
0.00870099
0.00869082
0.00866986
0.00864765
0.00864031
0.00864978
0.00869543
0.00874525
0.00877278
0.00877169
0.00875835
0.00874263
0.00872365
0.00872065
0.00874365
0.00876704
0.00878427
0.00880939
0.00883045
0.00852285
0.00846822
0.00844357
0.00845141
0.00846106
0.008448
0.00841533
0.00839277
0.00839313
0.00841439
0.00844412
0.00847675
0.00849494
0.00850922
0.0085199
0.00854164
0.00856225
0.00861436
0.00864818
0.00864746
0.00861576
0.00856906
0.00852373
0.00848842
0.00846933
0.00847268
0.00847526
0.00848366
0.00852323
0.00855107
0.00806564
0.00802183
0.0080051
0.00800552
0.00799988
0.00798101
0.00796632
0.00795495
0.00798081
0.00802724
0.00808715
0.00816075
0.00821686
0.00827099
0.00831874
0.00837988
0.00842035
0.00848575
0.00850583
0.00847692
0.00840855
0.00832005
0.00824055
0.00817063
0.00812375
0.00809079
0.00807491
0.00806956
0.00808029
0.00809494
0.00749368
0.00744866
0.00742042
0.0074048
0.00740304
0.00740386
0.00741146
0.00744916
0.00751265
0.00759286
0.00769413
0.00780853
0.00791256
0.00800731
0.00809183
0.0081795
0.00823254
0.008295
0.00829289
0.00823694
0.00812307
0.00799276
0.00787278
0.00776717
0.00767929
0.00761602
0.00757715
0.00754814
0.00753218
0.00752981
0.00681227
0.00675902
0.00674941
0.00676033
0.00678925
0.00682727
0.00688072
0.0069559
0.00705653
0.00717733
0.00732367
0.00747898
0.0076201
0.00775494
0.00787261
0.00798154
0.0080463
0.00810059
0.00807804
0.00798243
0.00783132
0.00765245
0.00748054
0.0073274
0.0071906
0.00708096
0.00699419
0.00692706
0.00688402
0.00686364
0.00617421
0.00615307
0.00617604
0.00621813
0.00628007
0.00635191
0.00643641
0.00654298
0.00667782
0.00683684
0.00701575
0.00720143
0.00737398
0.00754007
0.00768644
0.00781592
0.00789235
0.00794389
0.00790251
0.00778034
0.00759381
0.0073786
0.00716154
0.00696038
0.00677928
0.00662483
0.00649417
0.00638315
0.0062917
0.00623276
0.0057405
0.00575077
0.00580155
0.00586704
0.00594596
0.00603331
0.00613395
0.00625991
0.00641634
0.0066023
0.00680193
0.00700521
0.0071973
0.00738734
0.00755904
0.00771056
0.00780024
0.00785583
0.00780823
0.00767034
0.00746491
0.00722304
0.00697042
0.00673098
0.00651686
0.0063308
0.00616655
0.00602132
0.00589197
0.00579843
0.00555409
0.00558824
0.00565517
0.00572962
0.00581101
0.00589709
0.00600216
0.00613778
0.00630678
0.00650302
0.00670679
0.00691731
0.00712222
0.00733245
0.00752984
0.00770738
0.0078129
0.00788185
0.00783858
0.00768846
0.00746697
0.00721185
0.00694596
0.00668745
0.00644899
0.00623139
0.00604403
0.00587982
0.00572684
0.0056065
0.00561424
0.00566769
0.0057405
0.00581426
0.0058932
0.00598253
0.00609322
0.00623346
0.00640209
0.00659744
0.00679717
0.00701041
0.00722466
0.00745597
0.00768555
0.00789847
0.00802896
0.00811511
0.00808224
0.00794334
0.00771913
0.00745432
0.00717092
0.00688563
0.00661408
0.00637617
0.00616837
0.0059822
0.00580881
0.00566009
0.00608123
0.00614949
0.00622707
0.00630178
0.00638212
0.00647093
0.00657731
0.00671153
0.00687089
0.00704588
0.00725249
0.00747269
0.00770212
0.0079671
0.00825284
0.00852424
0.00869986
0.00881353
0.00880533
0.0086706
0.00843719
0.00814822
0.0078363
0.00752634
0.00723481
0.0069702
0.00673463
0.00651999
0.0063171
0.0061308
0.00767722
0.00774678
0.00782475
0.00790848
0.0079992
0.00809876
0.00820637
0.00832556
0.00846119
0.00861223
0.00878093
0.00897202
0.00920002
0.00948223
0.00981204
0.0101447
0.0103852
0.010561
0.0106118
0.0105401
0.010359
0.0101074
0.00981204
0.00949826
0.00918181
0.00887246
0.00857548
0.00829074
0.00801523
0.00776135
0.000219078
0.000220715
0.000213898
0.000202458
0.000189211
0.000178466
0.000173015
0.000171977
0.000172356
0.0001738
0.000175574
0.000177811
0.000180091
0.000183417
0.000186286
0.000189475
0.000191084
0.00019159
0.000190136
0.000189071
0.000187829
0.000186956
0.000186372
0.000185948
0.00018563
0.000185844
0.000187159
0.000191136
0.000199593
0.000211602
0.00186598
0.00192264
0.00186936
0.00177854
0.00169397
0.0016245
0.00156889
0.0015426
0.0015324
0.00153492
0.00154504
0.001567
0.00159608
0.00164193
0.00168631
0.00172131
0.00173952
0.00173429
0.00170053
0.0016645
0.00162696
0.00159835
0.00157997
0.00157283
0.00157666
0.00159501
0.00162908
0.00168857
0.00175916
0.00183052
0.00333842
0.00345085
0.00339305
0.0032934
0.00321096
0.00313585
0.00307166
0.00305518
0.00306289
0.00308832
0.00312334
0.00317772
0.00324313
0.00334129
0.00343361
0.003504
0.00354128
0.00354218
0.0034809
0.00340974
0.00332826
0.00325535
0.00319453
0.003148
0.00311515
0.00310037
0.00310595
0.00314549
0.00320092
0.00326491
0.00445581
0.00455743
0.00452481
0.00448569
0.0044619
0.00442674
0.00438753
0.00439652
0.00443154
0.00448273
0.00454345
0.00462952
0.00473062
0.00487664
0.00501643
0.00512334
0.00517864
0.0051881
0.0051075
0.00500578
0.00488254
0.00476217
0.00465262
0.00455465
0.00446881
0.00439711
0.00434693
0.00432237
0.00431672
0.00434006
0.00526157
0.00536668
0.00539758
0.00541004
0.00543777
0.00547026
0.00550033
0.00554593
0.00561339
0.00569137
0.00577533
0.00589136
0.00602478
0.00621248
0.00639463
0.00653658
0.0066069
0.00662261
0.00652739
0.00639809
0.00623507
0.00606777
0.00590904
0.00575443
0.00561203
0.00547792
0.00536043
0.00526579
0.00519432
0.00516792
0.00591632
0.0060268
0.00610175
0.00616955
0.00625417
0.00634298
0.00642311
0.00651473
0.00661744
0.00672674
0.00684432
0.00698128
0.00714507
0.00736746
0.00758416
0.00775821
0.00783774
0.0078553
0.00774667
0.00759105
0.00739889
0.00719233
0.00697151
0.00676053
0.00655671
0.00636489
0.00619064
0.00603682
0.00591506
0.00584862
0.00649722
0.00660991
0.00670321
0.0068066
0.00692971
0.00706247
0.00719203
0.00732612
0.00747056
0.00761619
0.00776504
0.00793662
0.0081315
0.00838236
0.00862508
0.00882253
0.0089041
0.0089198
0.00879878
0.00861767
0.00838585
0.00813257
0.00786593
0.0076017
0.00734864
0.00711138
0.00689097
0.00669655
0.00654245
0.00645039
0.00704918
0.00715751
0.0072533
0.00737334
0.00751685
0.007679
0.00784903
0.00802194
0.00820629
0.00839258
0.00857915
0.00878571
0.00901126
0.00928615
0.00954946
0.00976147
0.00984146
0.00984836
0.00971399
0.00950852
0.00924238
0.00894608
0.0086351
0.00832864
0.00803578
0.00776435
0.00751212
0.00729469
0.00712423
0.0070189
0.00759879
0.0076976
0.00778757
0.00790935
0.00806019
0.00823764
0.00843488
0.00864278
0.00886029
0.0090844
0.00930905
0.00954916
0.00980262
0.0100955
0.0103719
0.0105905
0.0106651
0.0106588
0.0105143
0.0102895
0.00999687
0.00966595
0.00932146
0.00898212
0.00866068
0.00836449
0.0080952
0.00786817
0.00769242
0.00758238
0.00816149
0.00824784
0.00832736
0.00844283
0.00859214
0.00877416
0.00898656
0.00922082
0.00946416
0.00971874
0.00997453
0.0102421
0.0105173
0.010819
0.0110984
0.0113131
0.0113775
0.0113577
0.0112092
0.0109748
0.0106691
0.0103206
0.00995509
0.00959424
0.00925574
0.00894446
0.00866904
0.00844089
0.00826626
0.0081565
0.00874453
0.00881649
0.00888519
0.00899048
0.00913296
0.00931316
0.00953174
0.00978095
0.0100425
0.0103168
0.0105936
0.0108785
0.011165
0.0114639
0.0117313
0.0119299
0.0119815
0.0119508
0.0118071
0.0115755
0.0112726
0.0109248
0.0105548
0.0101871
0.00984204
0.00952529
0.00925042
0.00902579
0.0088553
0.00874805
0.00934818
0.00940622
0.00946418
0.00955814
0.00969178
0.00986712
0.0100861
0.0103401
0.0106111
0.0108943
0.0111801
0.0114698
0.0117546
0.0120365
0.0122755
0.0124482
0.0124851
0.0124511
0.0123196
0.0121044
0.0118181
0.0114854
0.0111289
0.0107705
0.0104292
0.0101155
0.00984546
0.00962658
0.00946152
0.00935808
0.00996565
0.0100109
0.010059
0.0101425
0.0102677
0.0104374
0.0106533
0.0109056
0.0111761
0.0114583
0.0117424
0.0120245
0.012293
0.0125431
0.012743
0.0128804
0.0129008
0.0128714
0.0127621
0.0125733
0.0123158
0.0120102
0.0116782
0.0113403
0.0110139
0.0107114
0.010449
0.0102373
0.0100789
0.00998029
0.0105776
0.0106125
0.0106535
0.0107297
0.010849
0.0110145
0.0112261
0.0114726
0.011736
0.0120088
0.0122805
0.0125433
0.0127837
0.012994
0.0131474
0.0132415
0.0132428
0.0132238
0.0131443
0.0129918
0.012772
0.0125017
0.0122009
0.0118888
0.0115823
0.0112946
0.0110424
0.0108393
0.0106887
0.0105963
0.0111546
0.0111813
0.0112191
0.011294
0.0114128
0.0115776
0.0117859
0.0120254
0.0122783
0.0125363
0.0127885
0.013024
0.0132287
0.0133937
0.0135001
0.0135456
0.0135251
0.0135196
0.0134739
0.013363
0.0131858
0.012955
0.0126876
0.0124034
0.0121182
0.0118447
0.0115993
0.0114035
0.0112614
0.0111759
0.0116725
0.0116919
0.0117291
0.0118057
0.0119288
0.0120977
0.0123062
0.0125403
0.0127832
0.0130252
0.0132554
0.0134602
0.0136259
0.0137446
0.0138064
0.0138048
0.0137599
0.0137685
0.0137565
0.0136868
0.0135517
0.0133597
0.0131226
0.0128643
0.0125992
0.0123369
0.0120965
0.011905
0.0117724
0.0116952
0.0120994
0.0121113
0.012152
0.0122338
0.0123665
0.0125451
0.0127587
0.0129906
0.0132271
0.0134562
0.0136646
0.0138398
0.0139682
0.0140447
0.014068
0.0140269
0.0139578
0.0139787
0.0139959
0.0139617
0.0138625
0.013703
0.0134893
0.0132496
0.0129976
0.0127418
0.012504
0.0123139
0.0121905
0.0121227
0.0124003
0.0124061
0.0124499
0.0125439
0.0126926
0.0128864
0.0131098
0.0133471
0.0135839
0.0138061
0.013998
0.0141483
0.0142447
0.0142883
0.0142829
0.0142151
0.0141278
0.0141572
0.0141958
0.0141867
0.0141118
0.0139738
0.0137754
0.0135371
0.013286
0.013031
0.012792
0.0125995
0.0124821
0.0124237
0.012544
0.012547
0.0125944
0.0127039
0.0128735
0.013087
0.0133275
0.0135816
0.0138348
0.0140592
0.0142435
0.014378
0.0144526
0.0144717
0.014447
0.014371
0.0142745
0.0143096
0.0143601
0.0143624
0.0142963
0.0141656
0.0139662
0.0137089
0.0134454
0.0131831
0.0129374
0.0127372
0.0126186
0.012567
0.012511
0.0125109
0.0125624
0.0126905
0.0128863
0.0131311
0.0134005
0.0136838
0.0139623
0.0142049
0.0143965
0.0145271
0.0145938
0.0146033
0.0145701
0.0144934
0.0144009
0.0144383
0.0144933
0.0144921
0.0144174
0.0142722
0.0140457
0.0137584
0.0134693
0.0131902
0.0129274
0.0127132
0.0125854
0.0125319
0.0122911
0.0123029
0.0123462
0.0124808
0.0127253
0.0130304
0.0133398
0.0136622
0.013971
0.0142431
0.0144586
0.0146023
0.014677
0.0146927
0.014669
0.014605
0.014522
0.0145517
0.0145995
0.014582
0.0144783
0.0142918
0.0140213
0.0136918
0.0133675
0.0130502
0.0127296
0.0125117
0.0123825
0.0123067
0.0118895
0.0119107
0.0120029
0.0121823
0.0124561
0.0127887
0.0131703
0.0135437
0.013887
0.0141955
0.0144449
0.0146169
0.014714
0.0147547
0.0147607
0.0147246
0.0146626
0.0146864
0.0147154
0.0146663
0.0145171
0.0142735
0.0139417
0.0135617
0.0131848
0.0127911
0.0124411
0.0121706
0.0120087
0.0119183
0.0114041
0.0114503
0.0115923
0.0118401
0.0121666
0.0125277
0.0129281
0.0133533
0.0137593
0.0140958
0.014386
0.0145946
0.0147276
0.0148101
0.0148643
0.0148715
0.0148433
0.0148679
0.0148743
0.014786
0.0145819
0.0142725
0.0138781
0.0134468
0.012986
0.0125365
0.012132
0.0117912
0.0115684
0.0114432
0.0109613
0.0110328
0.0112214
0.0115226
0.0118973
0.0123138
0.012747
0.0131787
0.0136005
0.0139997
0.0143264
0.0145687
0.0147463
0.0148843
0.0150012
0.0150675
0.0150856
0.0151212
0.0151078
0.0149795
0.0147194
0.0143474
0.0139021
0.0134
0.0128598
0.0123516
0.011895
0.0114949
0.0111872
0.0110104
0.0106777
0.0107726
0.0110063
0.0113391
0.011739
0.0121807
0.0126401
0.0130973
0.0135398
0.0139477
0.0142948
0.0145844
0.0148078
0.0150087
0.0152001
0.0153409
0.0154156
0.0154758
0.0154494
0.0152851
0.0149783
0.014559
0.0140641
0.0135025
0.0129076
0.0123379
0.0118175
0.0113562
0.0109733
0.0107327
0.01066
0.0107832
0.0110456
0.0113905
0.0117955
0.0122409
0.0127028
0.013163
0.0136068
0.0140181
0.014383
0.0146906
0.0149565
0.0152246
0.015499
0.0157287
0.0158676
0.0159686
0.0159399
0.0157596
0.0154287
0.0149683
0.0144249
0.0138034
0.0131534
0.0125227
0.0119558
0.0114509
0.011024
0.0107237
0.0110111
0.0111572
0.0114294
0.0117731
0.0121625
0.0125861
0.0130221
0.0134565
0.0138779
0.0142747
0.0146359
0.014954
0.0152538
0.0155888
0.0159521
0.0162805
0.0164917
0.0166508
0.0166393
0.0164496
0.0161005
0.0156189
0.0150297
0.0143805
0.0137091
0.0130498
0.0124381
0.0118911
0.0114216
0.0110799
0.0118648
0.0120263
0.012276
0.0126027
0.0129669
0.0133394
0.0137188
0.0140971
0.0144675
0.0148239
0.0151603
0.0154732
0.015795
0.0161883
0.0166416
0.0170776
0.0173664
0.0176059
0.0176331
0.0174484
0.0170833
0.0165859
0.016002
0.0153577
0.0146885
0.0140296
0.0134151
0.0128522
0.0123517
0.011954
0.0134519
0.013617
0.0138466
0.0141141
0.014408
0.0147012
0.0149912
0.015278
0.0155607
0.0158401
0.0161211
0.0164004
0.0167213
0.0171583
0.0176894
0.0182352
0.0186124
0.0189508
0.0190476
0.0189152
0.0185763
0.0181008
0.0175389
0.0169314
0.0163009
0.0156861
0.0150873
0.0145192
0.0139982
0.0135662
0.0163966
0.0164986
0.0166305
0.0167805
0.0169349
0.0170849
0.0172214
0.0173479
0.0174755
0.0176108
0.0177661
0.0179533
0.0182257
0.0186628
0.0192325
0.0198691
0.0203528
0.0208011
0.0210109
0.0209971
0.0207785
0.0204077
0.0199458
0.0194576
0.0189587
0.0184483
0.0179416
0.0174406
0.0169637
0.0165488
0.000234559
0.000232407
0.000224983
0.000214768
0.000204149
0.000194918
0.000188386
0.000184288
0.000181568
0.000180376
0.000179924
0.000180746
0.000182172
0.000185395