/*--------------------------------*- C++ -*----------------------------------*\
  =========                 |
  \\      /  F ield         | OpenFOAM: The Open Source CFD Toolbox
   \\    /   O peration     | Website:  https://openfoam.org
    \\  /    A nd           | Version:  12
     \\/     M anipulation  |
\*---------------------------------------------------------------------------*/
FoamFile
{
    format      ascii;
    class       volScalarField;
    location    "100/air";
    object      epsilon;
}
// * * * * * * * * * * * * * * * * * * * * * * * * * * * * * * * * * * * * * //

dimensions      [0 2 -3 0 0 0 0];

internalField   nonuniform List<scalar> 
243000
(
1.19474
1.52075
1.74124
1.76041
1.62088
1.48169
1.49678
1.78587
2.2281
2.729
3.22731
3.7146
4.15981
4.57884
4.89028
5.1404
5.18808
4.99261
4.55228
4.13967
3.70703
3.27969
2.86186
2.46127
2.07838
1.72423
1.43168
1.23258
1.14982
1.12771
0.944587
1.12123
1.2739
1.27745
1.16802
1.08157
1.13508
1.34705
1.62526
1.93296
2.23911
2.55135
2.84293
3.13537
3.365
3.56747
3.63625
3.52785
3.21217
2.90611
2.58323
2.27463
1.97885
1.70783
1.45836
1.23196
1.04318
0.912413
0.85488
0.841256
1.04506
1.18047
1.31178
1.29867
1.1804
1.09481
1.14947
1.32057
1.52948
1.75192
1.96657
2.18319
2.38802
2.59832
2.76548
2.91649
2.97826
2.9235
2.71123
2.50475
2.27997
2.06163
1.84902
1.64849
1.45874
1.28095
1.12763
1.0214
0.972762
0.956224
1.21067
1.3506
1.49936
1.5096
1.41354
1.3588
1.45314
1.65866
1.89774
2.14858
2.39009
2.63509
2.86814
3.10728
3.2953
3.45652
3.51644
3.46028
3.22925
3.00065
2.74432
2.49081
2.24365
2.00989
1.78781
1.57966
1.39903
1.26802
1.18577
1.12548
1.38961
1.54434
1.67002
1.68222
1.61675
1.60712
1.73828
1.97296
2.23874
2.51698
2.78959
3.0695
3.33676
3.61194
3.82643
4.00003
4.05511
3.9952
3.74266
3.48962
3.19616
2.90114
2.6139
2.34374
2.08973
1.85378
1.64978
1.4942
1.37515
1.27632
1.64437
1.83567
1.88995
1.85991
1.81852
1.8595
2.02594
2.29082
2.58694
2.90042
3.21576
3.54389
3.85865
4.18508
4.43971
4.63626
4.68903
4.62235
4.337
4.04788
3.70281
3.35171
3.01085
2.69363
2.40014
2.13271
1.90429
1.72235
1.56864
1.45402
1.98589
2.2077
2.20738
2.07886
2.04472
2.1352
2.33751
2.63812
2.97331
3.33518
3.70658
4.09666
4.47248
4.86657
5.17737
5.41107
5.46798
5.39468
5.06595
4.72617
4.31258
3.88907
3.47802
3.09919
2.75412
2.44653
2.18979
1.98089
1.80235
1.71199
2.41453
2.6588
2.61668
2.37594
2.32443
2.45894
2.69905
3.04304
3.42857
3.85197
4.29055
4.75246
5.19832
5.67168
6.05244
6.33711
6.40674
6.33273
5.95771
5.55573
5.05907
4.55016
4.05497
3.60062
3.19092
2.83252
2.54215
2.30855
2.12103
2.07715
2.94448
3.20026
3.1189
2.78619
2.69401
2.86187
3.14186
3.53731
3.98207
4.47569
4.98796
5.52691
6.04427
6.60041
7.05896
7.40501
7.49691
7.43222
7.01913
6.55248
5.96619
5.36433
4.77701
4.2372
3.7516
3.33344
3.0058
2.75138
2.56697
2.55515
3.61701
3.86718
3.74949
3.34461
3.19562
3.38212
3.70179
4.15296
4.66042
5.22502
5.8109
6.42696
7.01144
7.6442
8.18067
8.59433
8.71684
8.67398
8.24112
7.71822
7.04674
6.35306
5.67312
5.04469
4.47827
3.9956
3.62904
3.35889
3.1813
3.17085
4.52466
4.76893
4.59286
4.09677
3.87459
4.05928
4.41336
4.91779
5.48344
6.11264
6.76374
7.45037
8.09363
8.79016
9.39632
9.8801
10.04
10.0315
9.60473
9.04212
8.30205
7.5281
6.76438
6.05283
5.40794
4.86197
4.45849
4.18008
4.01375
4.00616
5.70535
5.93482
5.68572
5.08682
4.77604
4.92855
5.30464
5.85147
6.46212
7.14171
7.84336
8.58692
9.27686
10.0202
10.6823
11.2356
11.4391
11.4768
11.0806
10.5029
9.71984
8.88803
8.05877
7.27967
6.56809
5.96813
5.53548
5.2606
5.11505
5.11464
7.18737
7.38487
7.05162
6.34564
5.93267
6.01663
6.39217
6.96161
7.59576
8.30416
9.03598
9.81762
10.5379
11.3105
12.0133
12.6324
12.8853
12.9785
12.6346
12.0696
11.2742
10.4148
9.54714
8.72479
7.96884
7.3332
6.88567
6.63135
6.52203
6.53674
8.97428
9.11547
8.68903
7.87839
7.3524
7.33659
7.67326
8.23695
8.86732
9.57774
10.3152
11.1126
11.8438
12.6296
13.3588
14.0382
14.3456
14.5021
14.2279
13.7025
12.9258
12.0725
11.1993
10.3652
9.59525
8.95075
8.50947
8.29679
8.24312
8.28467
11.0307
11.0898
10.564
9.65471
9.00803
8.87118
9.12639
9.64228
10.2376
10.921
11.6386
12.4276
13.1506
13.9365
14.6787
15.4138
15.7799
16.0062
15.8144
15.3521
14.6222
13.8076
12.9638
12.1527
11.4035
10.7817
10.3732
10.2245
10.2438
10.3279
13.28
13.2372
12.6072
11.6053
10.8359
10.561
10.6931
11.1138
11.6403
12.2679
12.9428
13.7025
14.4011
15.1768
15.9211
16.7068
17.1343
17.4361
17.3361
16.955
16.2945
15.5469
14.7654
14.0131
13.3197
12.7553
12.4084
12.3449
12.4479
12.5925
15.6082
15.4512
14.7117
13.6199
12.727
12.2979
12.2673
12.55
12.9757
13.5271
14.1443
14.8612
15.5248
16.283
17.0211
17.8506
18.3388
18.7176
18.7127
18.4237
17.8473
17.1875
16.4962
15.8364
15.2361
14.7657
14.5124
14.5504
14.7476
14.9672
17.8635
17.5758
16.717
15.5313
14.5128
13.912
13.6951
13.8115
14.1218
14.5916
15.148
15.8178
16.4425
17.1775
17.9029
18.7667
19.3128
19.7638
19.8456
19.6467
19.1571
18.593
18.0088
17.4667
16.9922
16.6543
16.5347
16.689
16.9949
17.3011
19.8214
19.3817
18.3921
17.1112
15.9694
15.1931
14.7939
14.7528
14.9604
15.3592
15.8603
16.4824
17.0674
17.7704
18.4798
19.3709
19.9707
20.4894
20.6408
20.5167
20.0995
19.6162
19.1306
18.708
18.3746
18.1978
18.2453
18.5357
18.9712
19.3749
21.162
20.5717
19.4589
18.0934
16.8522
15.9498
15.4229
15.2685
15.3968
15.7411
16.1934
16.7642
17.3042
17.967
18.6511
19.5597
20.2042
20.7986
21.0096
20.9475
20.5887
20.1599
19.7371
19.3972
19.1794
19.1571
19.3627
19.7933
20.3655
20.8649
21.5894
20.8898
19.7179
18.3394
17.0638
16.1034
15.5147
15.3051
15.3811
15.6936
16.1331
16.6704
17.1694
17.7599
18.3811
19.2693
19.9292
20.5785
20.8437
20.8306
20.5172
20.1256
19.7507
19.4724
19.3299
19.3852
19.6811
20.2011
20.8783
21.4505
20.9456
20.2126
19.0782
17.7755
16.5637
15.7441
15.2743
15.1488
15.2769
15.6056
16.0412
16.5537
17.0249
17.5603
18.11
18.8255
19.3646
19.9006
20.1286
20.1413
19.8686
19.5052
19.153
18.8991
18.7871
18.8635
19.1725
19.6999
20.3817
20.9569
19.3268
18.6544
17.8166
16.8737
15.9494
15.2894
14.9456
14.9074
15.0868
15.4396
15.8826
16.3838
16.8424
17.3392
17.8327
18.4218
18.8676
19.311
19.4782
19.4142
19.1035
18.7022
18.308
18.0029
17.8256
17.8037
17.9692
18.3734
18.9645
19.4582
17.4435
17.0678
16.5461
15.9061
15.2381
14.7458
14.5321
14.575
14.8059
15.1889
15.6509
16.1566
16.6225
17.1064
17.5724
18.078
18.4495
18.7978
18.8745
18.7245
18.3629
17.9185
17.4786
17.1204
16.878
16.7696
16.8077
17.0307
17.3583
17.6021
15.702
15.5415
15.2813
14.8951
14.4544
14.1335
14.0437
14.1626
14.4489
14.8741
15.373
15.9093
16.4144
16.9242
17.407
17.8778
18.1921
18.4328
18.3931
18.1297
17.6834
17.1716
16.6707
16.248
15.9359
15.7433
15.6712
15.7248
15.8318
15.877
14.1036
14.1011
14.0531
13.8795
13.6423
13.4885
13.5165
13.7214
14.0893
14.5857
15.1603
15.7737
16.3688
16.973
17.5438
18.0509
18.3372
18.473
18.2901
17.8572
17.2515
16.6025
15.9903
15.4594
15.05
14.7594
14.5755
14.4763
14.3973
14.2897
12.7303
12.8424
12.9606
12.975
12.9342
12.9582
13.1392
13.4915
14.0039
14.6576
15.3854
16.1527
16.9155
17.703
18.4721
19.1313
19.4668
19.5434
19.2169
18.5635
17.6799
16.7457
15.861
15.1063
14.4958
14.0273
13.6785
13.411
13.1593
12.9164
12.1868
12.3954
12.6628
12.8812
13.0971
13.4067
13.8749
14.5127
15.3007
16.1862
17.1122
18.0493
18.9835
19.9824
21.0493
22.0265
22.5735
22.7447
22.4281
21.6346
20.4459
19.1365
17.8372
16.6479
15.6032
14.72
13.9931
13.3889
12.8529
12.3755
16.3346
16.4499
16.7293
17.1429
17.6642
18.3414
19.1302
19.9706
20.7947
21.5741
22.3069
23.0124
23.7349
24.5572
25.4492
26.3677
27.0622
27.521
27.733
27.6437
27.2408
26.5024
25.471
24.228
22.8562
21.4277
20.0408
18.7625
17.6274
16.6581
27.88
27.5329
27.1346
26.7466
26.3967
26.0969
25.8548
25.6756
25.5585
25.5086
25.541
25.6859
25.9746
26.4622
27.1229
27.9427
28.6866
29.2909
29.8022
30.1262
30.2663
30.2678
30.1581
29.9712
29.7357
29.4706
29.1866
28.885
28.5662
28.1945
4.5144
5.78588
6.01253
5.49034
4.7806
4.33586
4.51537
5.2587
6.2461
7.40038
8.61115
9.88368
11.1698
12.4239
13.3512
14.0953
14.2281
13.6591
12.4726
11.2331
9.87688
8.61074
7.46331
6.41288
5.44212
4.57728
3.88599
3.48104
3.48206
3.74882
2.40922
2.93534
3.11407
2.94449
2.71303
2.59247
2.70641
3.00518
3.37653
3.79072
4.23069
4.67966
5.16287
5.63478
6.00947
6.28868
6.33174
6.07896
5.62093
5.11866
4.59087
4.10777
3.68621
3.2972
2.93735
2.60193
2.32055
2.14905
2.12705
2.22319
2.28342
2.69139
2.82313
2.63721
2.37876
2.2661
2.35231
2.56331
2.82388
3.11897
3.43821
3.77914
4.12193
4.44656
4.70138
4.87394
4.89056
4.70994
4.39237
4.03368
3.65502
3.30017
2.991
2.72232
2.4805
2.25433
2.06947
1.9731
1.99422
2.11202
2.51746
2.83995
2.92015
2.72647
2.43775
2.30227
2.35521
2.53464
2.77387
3.05198
3.35042
3.65946
3.95348
4.22794
4.44105
4.57025
4.5765
4.42889
4.16254
3.85422
3.52058
3.20172
2.91572
2.66889
2.45506
2.28008
2.1521
2.10854
2.1682
2.30602
2.91435
3.16876
3.2054
3.01222
2.71371
2.55918
2.58772
2.75497
2.98954
3.26709
3.55941
3.85569
4.12972
4.38701
4.58853
4.70206
4.70864
4.58108
4.33764
4.04855
3.72614
3.41483
3.13326
2.89233
2.69186
2.53835
2.44978
2.4523
2.5366
2.66623
3.43612
3.63909
3.64769
3.45991
3.17199
3.00193
3.00348
3.15723
3.3882
3.65808
3.94291
4.23036
4.49324
4.744
4.94519
5.06086
5.07432
4.96692
4.7387
4.45853
4.13704
3.82486
3.54156
3.29952
3.10738
2.9771
2.92572
2.96381
3.0588
3.16783
4.07875
4.2495
4.2436
4.0657
3.80144
3.61048
3.58266
3.71594
3.92738
4.18238
4.45107
4.72681
4.97787
5.22228
5.42522
5.55059
5.57619
5.49312
5.2816
5.00985
4.69068
4.37938
4.09718
3.85588
3.67088
3.56304
3.5498
3.61356
3.71119
3.80397
4.84807
5.0034
4.98893
4.82216
4.58249
4.38269
4.32381
4.41588
4.59529
4.8223
5.06319
5.3187
5.55172
5.78374
5.98459
6.11915
6.15719
6.10204
5.91361
5.65684
5.34974
5.05017
4.7787
4.54637
4.37424
4.29102
4.30586
4.38842
4.48773
4.57066
5.73956
5.89118
5.86553
5.71033
5.49688
5.29414
5.20357
5.24585
5.38112
5.56486
5.76601
5.99069
6.19702
6.40687
6.59582
6.73075
6.78239
6.75984
6.60314
6.37232
6.09039
5.81612
5.56827
5.35551
5.2033
5.14803
5.1853
5.27965
5.37883
5.45999
6.72777
6.8887
6.85818
6.71117
6.51619
6.31412
6.1942
6.18539
6.26442
6.39134
6.54067
6.72441
6.89604
7.07263
7.24167
7.37439
7.44294
7.45879
7.34269
7.15098
6.90835
6.67301
6.46053
6.27536
6.14744
6.11529
6.16635
6.26748
6.36462
6.44714
7.86315
8.04112
8.00629
7.85604
7.64273
7.4257
7.27417
7.2148
7.22904
7.28947
7.37626
7.5104
7.64276
7.78366
7.92825
8.06021
8.15434
8.21076
8.14176
8.00035
7.81236
7.63461
7.47503
7.3308
7.23074
7.21381
7.27018
7.37537
7.48174
7.57977
9.19766
9.37819
9.33502
9.17863
8.93643
8.66777
8.46072
8.33455
8.27493
8.25975
8.27541
8.35401
8.44727
8.55427
8.67484
8.81106
8.92899
9.02345
9.00291
8.91887
8.79765
8.69418
8.60471
8.5238
8.47389
8.48681
8.56088
8.68114
8.80406
8.91814
10.7112
10.8817
10.827
10.6611
10.3871
10.0623
9.78169
9.56839
9.41706
9.31368
9.25032
9.26862
9.32443
9.40428
9.51045
9.64655
9.78492
9.91153
9.93569
9.91009
9.86255
9.84292
9.83635
9.83542
9.8554
9.91741
10.0248
10.1692
10.3127
10.4441
12.3559
12.5085
12.4436
12.2692
11.9664
11.5848
11.2197
10.9064
10.6532
10.4554
10.3104
10.266
10.2877
10.3531
10.4501
10.5911
10.7456
10.8973
10.9575
10.9847
11.0117
11.077
11.1578
11.2447
11.3441
11.4695
11.6236
11.7975
11.9609
12.1063
14.075
14.2088
14.1401
13.9653
13.6417
13.2057
12.7512
12.3303
11.9679
11.6739
11.4484
11.3454
11.3407
11.4043
11.5002
11.6605
11.8343
12.0028
12.0901
12.159
12.2533
12.3958
12.5631
12.739
12.9194
13.1118
13.3151
13.5164
13.6931
13.8482
15.8252
15.9489
15.896
15.7313
15.3886
14.8937
14.3417
13.8027
13.3225
12.9273
12.6291
12.4804
12.4654
12.5441
12.6541
12.842
13.0368
13.2314
13.3383
13.4371
13.5884
13.7982
14.0469
14.3099
14.5683
14.8241
15.0711
15.2928
15.4697
15.6243
17.5759
17.7129
17.6939
17.5405
17.162
16.5845
15.9058
15.2179
14.6069
14.1243
13.7836
13.6208
13.6249
13.7387
13.8847
14.0984
14.3114
14.5234
14.6429
14.7613
14.9502
15.2159
15.5387
15.8936
16.249
16.5835
16.8725
17.109
17.271
17.3979
19.3129
19.4625
19.4347
19.235
18.7778
18.0725
17.2319
16.3825
15.6854
15.1764
14.8523
14.7294
14.7965
14.9715
15.1701
15.3963
15.6022
15.7958
15.8963
16.0013
16.2018
16.5044
16.8925
17.3404
17.8085
18.265
18.6485
18.923
19.0773
19.1643
20.9131
20.9516
20.8419
20.5482
19.9592
19.0846
18.0942
17.1919
16.54
16.1058
15.872
15.8442
16.0051
16.2631
16.5317
16.7823
16.9589
17.0775
17.0813
17.0851
17.2226
17.4943
17.8945
18.3946
18.9698
19.5843
20.1159
20.4975
20.7287
20.8267
21.9472
21.8612
21.6161
21.1944
20.422
19.4664
18.5832
17.8245
17.277
16.9548
16.8435
16.9451
17.2226
17.579
17.9251
18.1993
18.3591
18.4131
18.3129
18.1904
18.1725
18.2891
18.552
18.959
19.5324
20.2445
20.8817
21.4092
21.7796
21.9437
22.0798
21.9091
21.5557
21.1577
20.4788
19.6576
18.8908
18.2809
17.8705
17.6904
17.7323
17.9862
18.3938
18.8529
19.2751
19.5733
19.7175
19.702
19.4945
19.2376
19.0569
19.008
19.117
19.3864
19.8053
20.3522
20.9382
21.5128
21.9337
22.1489
21.4928
21.3513
21.1964
20.8974
20.3592
19.669
19.0017
18.5398
18.2902
18.275
18.4905
18.9045
19.4424
19.9964
20.4814
20.8028
20.9362
20.8568
20.5523
20.1632
19.8178
19.6002
19.5413
19.6547
19.9175
20.3377
20.7831
21.1649
21.4435
21.5983
20.768
20.6897
20.6409
20.4192
19.9621
19.4104
18.932
18.6166
18.5304
18.6881
19.0678
19.6323
20.287
20.9164
21.4442
21.7834
21.9116
21.788
21.403
20.9003
20.4031
20.0143
19.7936
19.746
19.8731
20.1293
20.4431
20.6878
20.8173
20.884
19.9082
19.8657
19.8829
19.7519
19.4095
19.0001
18.6711
18.5191
18.5807
18.8856
19.4169
20.1061
20.8494
21.5303
22.0847
22.4391
22.5709
22.4285
21.9768
21.3874
20.7638
20.2164
19.8406
19.6478
19.6282
19.7346
19.9034
20.0235
20.0429
20.0384
18.9308
18.941
19.0117
18.9612
18.7282
18.446
18.2558
18.2365
18.4115
18.8411
19.5049
20.2784
21.0747
21.7835
22.3495
22.7217
22.8733
22.74
22.2546
21.6037
20.8899
20.2003
19.6658
19.3504
19.2052
19.181
19.216
19.2219
19.15
19.0755
17.9084
17.9545
18.0573
18.0614
17.9205
17.7421
17.6635
17.7351
18.0351
18.5798
19.3055
20.1124
20.9194
21.632
22.201
22.6034
22.7977
22.7023
22.2381
21.5545
20.777
20.015
19.3631
18.8834
18.6097
18.4783
18.3979
18.3163
18.1804
18.0588
16.8453
16.8973
16.987
16.9994
16.9171
16.809
16.8139
17.0212
17.4452
18.0553
18.7906
19.5735
20.3455
21.0336
21.6022
22.0564
22.3229
22.2945
21.9328
21.2944
20.5219
19.7178
18.9754
18.3635
17.9214
17.624
17.4378
17.3007
17.1326
16.993
15.6582
15.6581
15.6699
15.6509
15.632
15.682
15.8645
16.2008
16.6798
17.2698
17.9299
18.6154
19.2935
19.9281
20.4911
21.0152
21.3769
21.4632
21.2516
20.7596
20.102
19.3666
18.617
17.9148
17.3055
16.8135
16.4401
16.1642
15.9549
15.8099
15.0628
14.9389
14.8606
14.8204
14.8287
14.9133
15.0912
15.361
15.709
16.1201
16.5816
17.077
17.5982
18.1368
18.6661
19.2398
19.6857
19.9063
19.8883
19.6367
19.2271
18.7254
18.1611
17.5755
17.0093
16.4958
16.0534
15.6914
15.4135
15.2178
14.5335
14.2631
14.0204
13.8137
13.6461
13.5268
13.4697
13.4837
13.5671
13.7233
13.9519
14.2519
14.6197
15.0789
15.5909
16.1913
16.6735
16.963
17.0527
16.9613
16.731
16.4256
16.0919
15.7628
15.4641
15.2107
15.0068
14.8497
14.7417
14.6739
7.67495
9.16308
9.63441
9.39028
8.76022
8.38878
8.7021
9.59328
10.6899
11.9671
13.2697
14.6076
15.8513
17.2202
18.2568
19.1709
19.3162
18.8763
17.6418
16.3409
14.8862
13.4658
12.0805
10.7446
9.47309
8.3372
7.40144
6.81698
6.73837
6.94032
3.7739
4.33536
4.62699
4.6204
4.41718
4.28537
4.36841
4.63399
4.98182
5.38165
5.79641
6.21989
6.6495
7.10301
7.48359
7.78372
7.83355
7.62294
7.19411
6.71326
6.20504
5.72414
5.28416
4.87546
4.49412
4.14717
3.86
3.68306
3.64546
3.70678
3.29472
3.67973
3.8828
3.84593
3.65152
3.51382
3.5296
3.65956
3.84974
4.06858
4.2978
4.53498
4.78556
5.04459
5.26369
5.42517
5.45079
5.30652
5.04792
4.75143
4.44799
4.16915
3.92733
3.71804
3.53224
3.3718
3.25124
3.1975
3.20276
3.25777
3.26811
3.5952
3.73491
3.64349
3.4302
3.27829
3.25408
3.32164
3.44397
3.5882
3.74321
3.90502
4.07816
4.25421
4.40107
4.50181
4.51578
4.40862
4.22419
4.01053
3.79529
3.60187
3.44247
3.31796
3.21918
3.14877
3.11452
3.13233
3.16869
3.21832
3.48487
3.75297
3.82006
3.69247
3.46691
3.29052
3.21777
3.24429
3.32774
3.43237
3.55037
3.67277
3.80356
3.93379
4.04114
4.10694
4.11407
4.03058
3.88871
3.72323
3.55767
3.40991
3.2948
3.21907
3.17236
3.16051
3.18941
3.25786
3.32631
3.38584
3.83879
4.0552
4.06901
3.90721
3.65421
3.44983
3.34498
3.33854
3.39249
3.46921
3.55853
3.65933
3.76155
3.8613
3.94386
3.98685
3.99172
3.92581
3.81409
3.6829
3.54709
3.42808
3.34929
3.30737
3.30389
3.33919
3.42037
3.53398
3.63394
3.70438
4.30754
4.48396
4.46365
4.27647
3.99399
3.75625
3.61819
3.58232
3.60447
3.65337
3.71935
3.79419
3.87016
3.9452
4.00935
4.03725
4.04363
3.99337
3.90793
3.80726
3.70472
3.61405
3.5635
3.55322
3.58634
3.66595
3.79352
3.94673
4.07368
4.15415
4.88714
5.03823
4.99673
4.78885
4.47909
4.20967
4.03746
3.96583
3.95256
3.96782
4.00311
4.04893
4.09686
4.14662
4.19295
4.21022
4.22008
4.18817
4.13093
4.06312
3.99569
3.93854
3.92123
3.94394
4.01257
4.13303
4.30177
4.48775
4.63592
4.7257
5.57831
5.71579
5.65944
5.42895
5.10641
4.81011
4.60337
4.49191
4.43602
4.41034
4.40589
4.41606
4.43157
4.45307
4.48023
4.48819
4.50358
4.49337
4.46794
4.43737
4.41074
4.39599
4.41736
4.47668
4.58163
4.73882
4.94106
5.15128
5.31392
5.41186
6.37906
6.50871
6.43578
6.19541
5.86893
5.55304
5.31482
5.16216
5.05796
4.98368
4.93195
4.8985
4.87646
4.86588
4.87202
4.87104
4.89348
4.90779
4.91819
4.93001
4.95058
4.98591
5.05204
5.15159
5.29302
5.48199
5.70766
5.93188
6.10117
6.20472
7.27865
7.40301
7.32173
7.08046
6.75497
6.42928
6.16733
5.97562
5.82046
5.69181
5.58616
5.50226
5.43818
5.39234
5.37715
5.36621
5.39638
5.43675
5.48647
5.54493
5.61864
5.70964
5.82506
5.96805
6.14558
6.35839
6.59496
6.82161
6.98873
7.09499
8.26132
8.38262
8.29853
8.06482
7.74914
7.42455
7.14911
6.92415
6.7196
6.53386
6.37065
6.23227
6.12386
6.0415
6.00573
5.98281
6.01979
6.08565
6.1762
6.28395
6.41469
6.5649
6.73309
6.92009
7.13021
7.35591
7.58865
7.80568
7.96392
8.07072
9.3006
9.4186
9.33684
9.11942
8.8248
8.51452
8.23744
7.98895
7.7417
7.50121
7.28126
7.08886
6.93707
6.81967
6.76459
6.72808
6.76937
6.85665
6.98642
7.14229
7.33023
7.53954
7.76008
7.9884
8.22273
8.44452
8.65894
8.85583
9.00053
9.10634
10.358
10.4715
10.397
10.2048
9.94294
9.66088
9.39559
9.13701
8.86046
8.57459
8.30594
8.06487
7.87499
7.72627
7.65571
7.60519
7.64641
7.74726
7.90977
8.10733
8.34686
8.60789
8.87147
9.1321
9.37495
9.57939
9.76328
9.93147
10.0603
10.1646
11.3864
11.4949
11.433
11.274
11.0555
10.8143
10.5746
10.3226
10.037
9.72369
9.42147
9.14338
8.92566
8.75406
8.6747
8.61165
8.64675
8.74889
8.93247
9.15865
9.43674
9.73659
10.0166
10.2916
10.5242
10.7009
10.8481
10.9836
11.0962
11.2003
12.3248
12.4293
12.3874
12.2717
12.1074
11.9186
11.7182
11.4919
11.223
10.9104
10.5956
10.2992
10.0696
9.88842
9.81023
9.73821
9.75963
9.84755
10.0348
10.2696
10.5652
10.8826
11.1433
11.4045
11.6048
11.7442
11.8511
11.9519
12.0479
12.1517
13.113
13.215
13.2025
13.14
13.0403
12.915
12.7683
12.5889
12.3658
12.0954
11.7909
11.5011
11.2812
11.1081
11.0439
10.9686
10.9682
11.0241
11.1921
11.4102
11.6949
11.9988
12.2078
12.4149
12.56
12.6512
12.714
12.778
12.856
12.9576
13.7029
13.8037
13.8306
13.8304
13.8053
13.7546
13.6778
13.5698
13.423
13.2298
12.9687
12.7154
12.531
12.3865
12.3509
12.2794
12.2502
12.256
12.3793
12.5513
12.7921
13.0466
13.1814
13.2865
13.3519
13.381
13.393
13.4159
13.4724
13.5681
14.0675
14.1674
14.2437
14.319
14.3786
14.4149
14.4235
14.4076
14.3673
14.2732
14.0936
13.9076
13.7857
13.6928
13.703
13.6416
13.5815
13.5197
13.5736
13.6697
13.8328
14.0017
14.0383
14.0068
13.9697
13.9204
13.8695
13.8422
13.8717
13.9567
14.2165
14.3235
14.4601
14.6212
14.7734
14.8993
15.007
15.1039
15.1814
15.1997
15.136
15.0445
15.0087
14.9866
15.0615
15.0212
14.9323
14.7939
14.7571
14.7524
14.8088
14.8595
14.7676
14.5909
14.4308
14.2906
14.1662
14.0745
14.0659
14.1285
14.2054
14.3277
14.5521
14.7937
15.0267
15.2384
15.4476
15.6609
15.8591
15.9983
16.0673
16.091
16.1588
16.2224
16.3742
16.3639
16.2567
16.0509
15.9137
15.7914
15.7227
15.6279
15.4027
15.094
14.8041
14.5631
14.3551
14.1882
14.1184
14.1497
14.1601
14.3133
14.5774
14.883
15.1761
15.4585
15.7617
16.0773
16.3896
16.6492
16.854
17.0059
17.1844
17.3411
17.5728
17.6008
17.4884
17.2314
16.9994
16.7597
16.556
16.3139
15.9653
15.5391
15.1398
14.8064
14.5275
14.2984
14.1532
14.1252
14.1274
14.2894
14.5712
14.8909
15.2188
15.5659
15.9422
16.3401
16.7518
17.1244
17.4546
17.7286
18.015
18.2632
18.5697
18.6455
18.5418
18.2559
17.9466
17.6057
17.2813
16.9057
16.4461
15.9194
15.4321
15.0226
14.6859
14.4045
14.2002
14.1254
14.0755
14.2329
14.5089
14.8237
15.1523
15.5164
15.9348
16.4122
16.9037
17.37
17.8048
18.1828
18.562
18.8917
19.2606
19.3988
19.3256
19.0398
18.6793
18.2633
17.8399
17.352
16.8002
16.1991
15.6416
15.1688
14.7762
14.4532
14.211
14.1065
13.9433
14.0805
14.3241
14.6098
14.9253
15.2998
15.7459
16.2507
16.7828
17.3051
17.8193
18.2779
18.7256
19.1179
19.5414
19.7617
19.7406
19.4835
19.1035
18.6418
18.1433
17.5731
16.9557
16.2886
15.6632
15.1428
14.727
14.3905
14.1363
14.0029
13.6584
13.7551
13.9414
14.1769
14.4675
14.8311
15.2729
15.7785
16.3227
16.8771
17.4239
17.9245
18.4134
18.8504
19.3203
19.6424
19.6973
19.4924
19.1211
18.6337
18.0864
17.4708
16.8121
16.1289
15.4809
14.9302
14.4923
14.1456
13.8881
13.7392
13.158
13.1917
13.3076
13.4889
13.738
14.065
14.4715
14.9437
15.4627
16.0012
16.5398
17.0506
17.5569
18.0249
18.5366
18.976
19.1354
19.0017
18.6654
18.1893
17.6285
16.996
16.3227
15.6434
14.9939
14.4299
13.9815
13.6414
13.395
13.2487
12.3842
12.3426
12.3952
12.5191
12.715
12.9829
13.322
13.7236
14.1721
14.6489
15.1394
15.6283
16.1299
16.6283
17.1863
17.7526
18.0256
17.9875
17.6999
17.2434
16.6915
16.0739
15.4221
14.7707
14.1544
13.6031
13.1541
12.8222
12.6044
12.4741
11.2751
11.1876
11.1958
11.2613
11.3836
11.5656
11.8078
12.1071
12.4544
12.8423
13.2687
13.7185
14.2074
14.7411
15.3597
16.0537
16.4338
16.4776
16.2458
15.824
15.2955
14.7093
14.1008
13.5001
12.9374
12.4381
12.0176
11.6964
11.4838
11.3667
9.74963
9.63859
9.60547
9.62432
9.68702
9.79731
9.95882
10.1736
10.4392
10.7549
11.121
11.5336
12.011
12.5839
13.2702
14.0742
14.5345
14.6459
14.4646
14.0754
13.5613
12.9884
12.4071
11.8479
11.3355
10.8869
10.5094
10.2018
9.98425
9.85526
9.40795
10.6975
11.2162
11.2181
11.0151
10.9258
11.2063
11.7772
12.4889
13.3928
14.3325
15.4355
16.533
17.94
19.0781
20.1711
20.3985
20.3376
19.2863
18.1446
16.8111
15.53
14.2909
13.1216
11.998
10.9262
9.9545
9.17738
8.68175
8.48878
4.43941
4.8691
5.15714
5.25946
5.22807
5.18919
5.24616
5.38709
5.57728
5.81077
6.08062
6.40291
6.7719
7.22604
7.64622
8.01016
8.10837
8.00815
7.65371
7.24119
6.80237
6.39463
6.0284
5.70012
5.39995
5.11589
4.84927
4.61978
4.43842
4.36386
3.66418
3.94043
4.1299
4.15435
4.04051
3.93738
3.91802
3.96141
4.03839
4.13757
4.26314
4.41736
4.60824
4.83901
5.06466
5.25914
5.32495
5.24874
5.04966
4.81295
4.57747
4.37011
4.19923
4.06136
3.94839
3.85087
3.76572
3.70269
3.65276
3.64568
3.4706
3.67834
3.79261
3.7371
3.55968
3.41166
3.3447
3.34096
3.36851
3.41393
3.47894
3.56134
3.66995
3.79996
3.93141
4.04316
4.08519
4.027
3.8973
3.744
3.60092
3.48417
3.40111
3.35048
3.32682
3.3241
3.33806
3.37412
3.40359
3.43197
3.46464
3.64059
3.69238
3.56629
3.34914
3.17007
3.06487
3.02574
3.02035
3.03307
3.06234
3.10383
3.16519
3.23973
3.31972
3.38594
3.41303
3.36857
3.27926
3.17575
3.08627
3.02223
2.99088
2.9932
3.02584
3.08948
3.17126
3.27959
3.36526
3.41561
3.60553
3.74013
3.73112
3.57668
3.32045
3.09808
2.95375
2.88236
2.84634
2.83201
2.83441
2.84722
2.87718
2.91738
2.96706
3.00703
3.02586
2.99215
2.93049
2.86155
2.80893
2.78173
2.7879
2.83173
2.90702
3.02767
3.1801
3.3315
3.45546
3.53079
3.84722
3.94338
3.88834
3.6885
3.41086
3.15848
2.97805
2.863
2.79428
2.75193
2.7289
2.71688
2.7224
2.73829
2.7682
2.79199
2.80627
2.7818
2.74196
2.701
2.67909
2.68332
2.7247
2.80655
2.93068
3.09158
3.28813
3.49133
3.65523
3.7541
4.18666
4.25234
4.16166
3.92395
3.61219
3.32114
3.09875
2.94611
2.84327
2.77108
2.71977
2.68279
2.66531
2.66117
2.67631
2.68868
2.69973
2.68351
2.66312
2.64813
2.65658
2.69517
2.77028
2.88768
3.05136
3.26088
3.50683
3.75591
3.9568
4.07959
4.62829
4.67291
4.55303
4.27972
3.9308
3.59667
3.32858
3.13224
2.98937
2.88128
2.79817
2.73373
2.69327
2.67
2.67235
2.67491
2.68216
2.67285
2.671
2.68274
2.7235
2.79811
2.91225
3.07069
3.27838
3.53643
3.83147
4.12438
4.36073
4.50821
5.17758
5.20981
5.06529
4.75852
4.37082
3.99076
3.67298
3.4272
3.23795
3.08757
2.96696
2.87058
2.80467
2.7621
2.75251
2.74474
2.74613
2.74158
2.75745
2.79748
2.87494
2.99137
3.15038
3.35591
3.61246
3.9207
4.26422
4.59936
4.86962
5.04233
5.8363
5.86336
5.69883
5.36228
4.93702
4.51089
4.14099
3.84081
3.59866
3.39894
3.23429
3.10049
3.00615
2.94344
2.92267
2.90282
2.89424
2.89026
2.92262
2.99278
3.11211
3.2772
3.48848
3.74775
4.0578
4.41741
4.8076
5.18239
5.48438
5.68225
6.59897
6.62691
6.44792
6.08792
5.63029
5.1616
4.7402
4.38271
4.08226
3.82646
3.61127
3.43453
3.30914
3.22585
3.19538
3.16082
3.13564
3.12515
3.1716
3.27298
3.43916
3.66
3.93095
4.24996
4.61666
5.02693
5.45995
5.87013
6.20064
6.42277
7.45029
7.48462
7.29814
6.9242
6.44388
5.94076
5.47256
5.05842
4.69686
4.38014
4.10928
3.88545
3.72784
3.62526
3.58812
3.53545
3.48454
3.45609
3.51227
3.64386
3.86038
4.14265
4.47904
4.86156
5.28536
5.74253
6.21177
6.65099
7.0054
7.24974
8.36436
8.41062
8.22524
7.85002
7.36099
6.83639
6.33105
5.86572
5.44461
5.06585
4.73731
4.46516
4.2774
4.15948
4.12111
4.04666
3.95817
3.89494
3.95382
4.11116
4.37814
4.72418
5.12809
5.57396
6.05123
6.54789
7.04377
7.50326
7.87559
8.13918
9.30515
9.36931
9.19526
8.83421
8.35427
7.82553
7.29786
6.7925
6.31901
5.88247
5.49913
5.1821
4.9708
4.84532
4.81415
4.71435
4.57452
4.45384
4.50512
4.67927
4.99152
5.39837
5.8663
6.36972
6.89167
7.41663
7.92676
8.39543
8.77828
9.05705
10.2273
10.3158
10.1651
9.83614
9.38637
8.87473
8.34438
7.8157
7.30338
6.81972
6.39075
6.03848
5.81544
5.6938
5.6816
5.55319
5.3476
5.14292
5.17273
5.34997
5.6956
6.1533
6.67484
7.2235
7.7757
8.31365
8.82278
9.2871
9.67119
9.96002
11.0796
11.1989
11.0847
10.8078
10.4115
9.94146
9.43181
8.90188
8.37038
7.85707
7.3983
7.02677
6.80867
6.70459
6.72602
6.56541
6.28146
5.96646
5.95779
6.12067
6.48105
6.97181
7.52951
8.10426
8.66695
9.19863
9.68884
10.1325
10.5066
10.7989
11.8113
11.9656
11.9021
11.6974
11.3789
10.9764
10.5137
10.0083
9.48241
8.96255
8.49629
8.12705
7.93336
7.86011
7.93151
7.73332
7.36306
6.91882
6.85201
6.98147
7.33305
7.83234
8.40235
8.97847
9.52746
10.0304
10.4815
10.886
11.2366
11.5247
12.3791
12.5681
12.5696
12.4558
12.2373
11.9273
11.538
11.0847
10.5923
10.0933
9.64638
9.3039
9.15409
9.12313
9.25823
9.01532
8.55784
7.97811
7.83487
7.91199
8.23005
8.70907
9.26252
9.81231
10.3213
10.7717
11.1624
11.5083
11.8205
12.0954
12.7562
12.9705
13.0532
13.0425
12.9401
12.7424
12.4503
12.0759
11.645
11.1962
10.7971
10.5058
10.4156
10.4354
10.6423
10.3465
9.80983
9.10404
8.87205
8.8792
9.14178
9.57147
10.0779
10.5735
11.0174
11.3931
11.7042
11.9733
12.2314
12.4844
12.9409
13.1628
13.3272
13.4293
13.4486
13.3743
13.1961
12.9242
12.5807
12.2093
11.8851
11.665
11.6442
11.7218
12.0008
11.6457
11.0486
10.2405
9.91597
9.83642
10.0283
10.3836
10.8152
11.2319
11.5906
11.8745
12.0924
12.2717
12.4614
12.6869
12.9233
13.1454
13.3833
13.5909
13.7349
13.7825
13.724
13.5717
13.3377
13.0659
12.8378
12.7018
12.757
12.8944
13.242
12.8317
12.196
11.322
10.9083
10.7289
10.841
11.1034
11.4396
11.7585
12.0189
12.2011
12.3218
12.4071
12.5275
12.7291
12.7517
12.9706
13.246
13.5253
13.77
13.9307
13.987
13.969
13.8569
13.6988
13.5793
13.532
13.667
13.8644
14.2762
13.8316
13.1855
12.2814
11.7866
11.5028
11.5268
11.6859
11.9143
12.1254
12.2802
12.3581
12.386
12.3964
12.4353
12.5904
12.414
12.6257
12.9186
13.25
13.5546
13.7926
13.9441
14.0804
14.0876
14.0466
14.0375
14.0806
14.2912
14.55
15.0285
14.5906
13.9687
13.0612
12.4979
12.1124
12.0352
12.0882
12.2043
12.3069
12.3484
12.3286
12.2742
12.215
12.1897
12.2903
11.933
12.118
12.4108
12.752
13.0788
13.3579
13.6398
13.879
13.9904
14.0599
14.1545
14.2878
14.5625
14.8846
15.4493
15.0781
14.5162
13.621
13.0039
12.5242
12.3297
12.2753
12.2797
12.2847
12.229
12.0849
11.9606
11.8637
11.7988
11.8472
11.2995
11.4659
11.728
12.0294
12.3493
12.6934
13.0587
13.3465
13.5421
13.7096
13.8972
14.1103
14.4408
14.8364
15.5155
15.2857
14.8165
13.9496
13.2814
12.7131
12.3955
12.2285
12.1241
12.0259
11.8963
11.6936
11.4801
11.3271
11.2386
11.2479
10.5433
10.6553
10.8534
11.1244
11.4505
11.8254
12.1863
12.4887
12.7476
12.992
13.2552
13.5405
13.9287
14.4181
15.2329
15.2246
14.8772
14.057
13.338
12.6628
12.2304
11.9448
11.73
11.5377
11.3403
11.1126
10.8742
10.6684
10.541
10.5167
9.64605
9.70468
9.85414
10.0956
10.4001
10.7283
11.0527
11.3535
11.6504
11.9477
12.2685
12.6157
13.0661
13.6698
14.6372
14.9233
14.7232
13.9657
13.2022
12.4216
11.8521
11.4415
11.1183
10.8371
10.5752
10.3252
10.0853
9.87961
9.72854
9.6598
8.6254
8.64628
8.7506
8.93207
9.17699
9.44729
9.72975
10.0254
10.3384
10.6659
11.027
11.4267
11.9405
12.6726
13.7938
14.4258
14.3988
13.7269
12.9127
12.0185
11.3049
10.7645
10.3345
9.9677
9.64448
9.35809
9.11039
8.90438
8.75002
8.66236
7.45131
7.45493
7.53046
7.67222
7.87123
8.09947
8.35387
8.63648
8.9473
9.28462
9.66563
10.1046
10.6812
11.5419
12.8086
13.7955
13.9656
13.3974
12.528
11.5197
10.6637
9.98597
9.45274
9.00344
8.6195
8.29007
8.01413
7.79086
7.62142
7.50669
10.6049
11.6898
12.1446
12.2194
12.121
11.9497
11.8857
12.1138
12.5523
13.2485
13.9934
15.0499
16.1669
17.8869
19.4079
21.0326
21.1561
21.5144
20.4182
19.1998
17.7283
16.4052
15.1887
14.1157
13.1283
12.1809
11.2834
10.462
9.88377
9.54119
4.76487
5.10258
5.35557
5.46444
5.43935
5.35502
5.30161
5.3264
5.41626
5.57349
5.77939
6.06221
6.40571
6.87237
7.35102
7.83155
7.96527
7.98106
7.63381
7.22695
6.80015
6.42669
6.10866
5.841
5.60552
5.37701
5.1498
4.92852
4.74476
4.64375
3.72381
3.91546
4.07435
4.11363
4.02453
3.90938
3.83416
3.81314
3.83369
3.88875
3.97666
4.10055
4.26695
4.48696
4.73452
4.99105
5.0955
5.06136
4.85919
4.62562
4.40685
4.22948
4.09639
4.00168
3.93366
3.87756
3.82575
3.77616
3.72117
3.69276
3.33579
3.46261
3.55389
3.52397
3.38291
3.24347
3.15171
3.10875
3.09997
3.11463
3.15168
3.20943
3.29806
3.41933
3.57054
3.73893
3.82016
3.77784
3.63785
3.48091
3.34774
3.25136
3.19421
3.17226