/*--------------------------------*- C++ -*----------------------------------*\
  =========                 |
  \\      /  F ield         | OpenFOAM: The Open Source CFD Toolbox
   \\    /   O peration     | Website:  https://openfoam.org
    \\  /    A nd           | Version:  12
     \\/     M anipulation  |
\*---------------------------------------------------------------------------*/
FoamFile
{
    format      ascii;
    class       volScalarField;
    location    "100/air";
    object      k;
}
// * * * * * * * * * * * * * * * * * * * * * * * * * * * * * * * * * * * * * //

dimensions      [0 2 -2 0 0 0 0];

internalField   nonuniform List<scalar> 
243000
(
0.0369059
0.0422187
0.0450816
0.0444074
0.0411683
0.0379473
0.0372512
0.0409049
0.0466289
0.0526766
0.0582735
0.0634568
0.0680116
0.0722233
0.0753392
0.0779288
0.0786313
0.0770574
0.0729987
0.0691746
0.0650211
0.0607661
0.0563819
0.051911
0.0473064
0.042694
0.0386377
0.0358747
0.0351361
0.0355232
0.0660015
0.0719568
0.0763318
0.0747593
0.0689566
0.0640645
0.0644828
0.0707731
0.0789018
0.0873755
0.0952987
0.103057
0.110043
0.116967
0.122383
0.127287
0.129295
0.127405
0.120596
0.113912
0.10657
0.0992764
0.0919353
0.0848498
0.0779079
0.0711634
0.0652365
0.0612015
0.0601194
0.0609937
0.0791066
0.0855368
0.0915621
0.0910141
0.0855226
0.0812096
0.083503
0.0914627
0.100926
0.110622
0.119651
0.128463
0.136541
0.144597
0.15087
0.156382
0.158638
0.156679
0.148913
0.141129
0.132435
0.123718
0.114954
0.106409
0.0980409
0.0899223
0.0826763
0.077523
0.0751656
0.0744168
0.0873236
0.0935224
0.100154
0.100705
0.0964877
0.093742
0.0976512
0.106529
0.116572
0.126736
0.136197
0.145483
0.154071
0.162654
0.169291
0.174857
0.176957
0.175066
0.167091
0.158977
0.149685
0.140224
0.130708
0.121408
0.112278
0.103425
0.0954857
0.0895865
0.0858672
0.0831209
0.0954664
0.101782
0.107494
0.108298
0.105554
0.104808
0.110069
0.119631
0.130144
0.140768
0.150808
0.160786
0.170056
0.179363
0.186509
0.192199
0.194065
0.192178
0.183927
0.175435
0.165398
0.155021
0.144588
0.13444
0.124567
0.115081
0.106612
0.0999981
0.0948718
0.0904413
0.106124
0.113576
0.116421
0.115819
0.114187
0.11551
0.121943
0.132186
0.143287
0.154607
0.165566
0.176602
0.186894
0.197302
0.205291
0.211382
0.213095
0.211142
0.202357
0.19321
0.182077
0.170418
0.158713
0.14742
0.136592
0.126375
0.117354
0.109989
0.103621
0.0984798
0.120072
0.128298
0.128671
0.12473
0.123488
0.126684
0.134195
0.145253
0.157177
0.169551
0.18176
0.194161
0.205766
0.217623
0.226804
0.233632
0.235375
0.233381
0.223862
0.213758
0.201185
0.187908
0.174557
0.161773
0.149679
0.138498
0.128839
0.120756
0.113602
0.10924
0.13664
0.14525
0.14402
0.136231
0.134495
0.139213
0.147747
0.159774
0.172781
0.186497
0.200155
0.214058
0.227088
0.240559
0.251172
0.25902
0.261018
0.259148
0.248919
0.237688
0.223468
0.208408
0.193202
0.178683
0.165065
0.15269
0.1423
0.133674
0.126388
0.123876
0.155939
0.164466
0.161937
0.151317
0.148316
0.154035
0.163521
0.176629
0.190848
0.205998
0.221117
0.236493
0.250829
0.265843
0.277949
0.28698
0.289457
0.287952
0.277306
0.265031
0.24921
0.232409
0.215371
0.199068
0.183805
0.170144
0.159045
0.150124
0.143231
0.142006
0.179194
0.186958
0.183399
0.170774
0.16603
0.172116
0.18239
0.196533
0.211884
0.228298
0.244684
0.261358
0.276741
0.292996
0.30647
0.316738
0.319852
0.318977
0.308404
0.295412
0.278309
0.260045
0.24143
0.223524
0.206742
0.191887
0.180198
0.171276
0.165018
0.164108
0.208164
0.215224
0.210107
0.195351
0.188534
0.194247
0.204993
0.219909
0.236078
0.253399
0.270663
0.288314
0.304425
0.321504
0.33605
0.347522
0.351383
0.351364
0.341456
0.328209
0.310375
0.29114
0.271422
0.252319
0.234348
0.218578
0.206528
0.197932
0.192484
0.191873
0.242978
0.249134
0.242289
0.225482
0.216436
0.220878
0.231615
0.246839
0.263319
0.281033
0.298692
0.316877
0.333363
0.350816
0.36606
0.378647
0.383341
0.384362
0.375598
0.362667
0.344765
0.325213
0.305008
0.28531
0.26668
0.25045
0.238386
0.230488
0.226078
0.225824
0.283383
0.28828
0.279676
0.261072
0.249766
0.252047
0.262126
0.277045
0.293205
0.310702
0.328209
0.346444
0.362914
0.380343
0.39593
0.409494
0.415093
0.417273
0.410013
0.397949
0.380643
0.361483
0.341491
0.321895
0.303294
0.287195
0.275557
0.268764
0.26569
0.26593
0.328541
0.331748
0.321409
0.30135
0.287849
0.287405
0.2959
0.309814
0.324997
0.341654
0.358464
0.376261
0.392324
0.409417
0.425053
0.439457
0.446011
0.449435
0.443904
0.433174
0.417037
0.398927
0.379841
0.361057
0.343216
0.327909
0.317192
0.311904
0.310472
0.31141
0.37691
0.378063
0.366061
0.344878
0.329299
0.325935
0.331971
0.34401
0.357583
0.372827
0.38846
0.405374
0.420695
0.437247
0.452695
0.467837
0.475395
0.480121
0.476446
0.467391
0.452861
0.436336
0.41877
0.401438
0.38503
0.371133
0.361838
0.358384
0.358776
0.360665
0.426436
0.425376
0.411776
0.389705
0.372229
0.365878
0.368759
0.378042
0.389426
0.402782
0.416888
0.432606
0.44695
0.462839
0.477945
0.493735
0.502318
0.508411
0.506651
0.499485
0.486841
0.47229
0.456723
0.441397
0.42698
0.415052
0.407625
0.406244
0.408454
0.411557
0.474798
0.471504
0.456323
0.433444
0.414194
0.404774
0.403934
0.409776
0.418498
0.429724
0.442163
0.456561
0.46984
0.485019
0.499697
0.516025
0.525609
0.533053
0.533171
0.527968
0.517321
0.504947
0.491717
0.478841
0.46693
0.45749
0.45238
0.453178
0.457217
0.461692
0.519371
0.513711
0.496816
0.472988
0.451959
0.439292
0.434503
0.436548
0.442526
0.451721
0.462608
0.475764
0.488037
0.502498
0.516706
0.533431
0.543959
0.552639
0.554387
0.550997
0.542238
0.532005
0.52122
0.511045
0.502033
0.495595
0.493371
0.496448
0.502449
0.508409
0.556549
0.548244
0.529394
0.504457
0.481617
0.465693
0.45718
0.455823
0.459513
0.467077
0.476696
0.488754
0.500126
0.513816
0.527577
0.544641
0.556044
0.565867
0.568869
0.566897
0.559624
0.551104
0.542418
0.534764
0.528715
0.525613
0.526698
0.532313
0.540578
0.548162
0.581278
0.57041
0.549606
0.523514
0.499097
0.480788
0.4697
0.465988
0.467993
0.474397
0.483023
0.494062
0.504544
0.517414
0.530632
0.547958
0.560135
0.571271
0.575325
0.574469
0.568284
0.560862
0.55348
0.547496
0.543786
0.543739
0.547827
0.556009
0.566653
0.575822
0.589024
0.576268
0.554438
0.528163
0.503101
0.483629
0.471229
0.466341
0.467292
0.473294
0.4818
0.492274
0.502034
0.513521
0.525451
0.542376
0.554878
0.567011
0.572003
0.57198
0.566608
0.559821
0.553301
0.548547
0.546284
0.547755
0.553623
0.563523
0.576052
0.586486
0.57728
0.563756
0.542351
0.517187
0.493079
0.476359
0.466259
0.463073
0.465135
0.471425
0.479935
0.49001
0.499292
0.509775
0.520474
0.534318
0.544639
0.554702
0.558858
0.559039
0.554269
0.547886
0.541738
0.537395
0.535705
0.537606
0.543848
0.554027
0.566845
0.577472
0.547233
0.53446
0.518305
0.499593
0.480768
0.467038
0.459414
0.458049
0.461231
0.468041
0.476768
0.486692
0.495785
0.505584
0.515286
0.526789
0.5354
0.543775
0.546858
0.54573
0.540097
0.532824
0.52572
0.520286
0.517283
0.517272
0.520873
0.528772
0.540252
0.549678
0.511288
0.503844
0.493413
0.480297
0.466301
0.455761
0.450755
0.45113
0.455446
0.462937
0.472118
0.482195
0.491461
0.501033
0.510215
0.520122
0.527357
0.53403
0.535537
0.532823
0.526124
0.517859
0.509711
0.503113
0.498749
0.496993
0.498116
0.502732
0.509415
0.51434
0.476764
0.4734
0.467924
0.459668
0.450078
0.442892
0.440457
0.442474
0.448012
0.45644
0.466423
0.477136
0.48716
0.497207
0.506652
0.515835
0.521994
0.526731
0.526141
0.521315
0.512951
0.503268
0.493773
0.485777
0.479921
0.476418
0.475298
0.476674
0.479127
0.480249
0.443822
0.443654
0.442419
0.438402
0.432902
0.429095
0.429172
0.433022
0.440275
0.450252
0.461753
0.473967
0.485685
0.497433
0.508429
0.518167
0.523751
0.526539
0.523341
0.515363
0.503986
0.491642
0.479848
0.469627
0.461729
0.456164
0.45272
0.451
0.449672
0.447656
0.414262
0.416555
0.418841
0.418766
0.417367
0.417291
0.420572
0.427498
0.437761
0.45082
0.465301
0.480362
0.49511
0.510085
0.524519
0.536838
0.543161
0.544787
0.538991
0.527016
0.510599
0.493031
0.476157
0.461513
0.449558
0.44033
0.433462
0.42825
0.423196
0.418233
0.40076
0.405199
0.410728
0.415003
0.419031
0.424934
0.434133
0.446761
0.462317
0.479631
0.497491
0.515276
0.532681
0.55086
0.569702
0.587168
0.596882
0.599966
0.594382
0.580182
0.559402
0.53606
0.512223
0.489831
0.469726
0.452431
0.437996
0.425817
0.414859
0.404862
0.479725
0.482166
0.487663
0.495609
0.505474
0.518197
0.533019
0.54874
0.564046
0.578416
0.591821
0.604614
0.617582
0.632196
0.647978
0.66365
0.675343
0.683058
0.686575
0.684988
0.677637
0.664603
0.646695
0.62508
0.600935
0.575384
0.550195
0.526483
0.504981
0.486143
0.688572
0.682792
0.676109
0.669549
0.663656
0.658629
0.65461
0.651679
0.649815
0.649099
0.649785
0.652377
0.657394
0.665731
0.676885
0.690527
0.702793
0.712725
0.721028
0.726215
0.728373
0.728256
0.726326
0.723164
0.719214
0.714796
0.710087
0.705116
0.699881
0.69377
0.0887622
0.10191
0.102229
0.0943102
0.0843822
0.0774194
0.077658
0.0841961
0.0927945
0.102384
0.111876
0.121421
0.130722
0.139716
0.1463
0.151751
0.153182
0.149927
0.142197
0.133973
0.124488
0.115353
0.106627
0.0981744
0.0898106
0.0818356
0.0751741
0.0716081
0.0732396
0.0785883
0.179586
0.204595
0.206134
0.192163
0.169466
0.155322
0.156127
0.167481
0.182228
0.199297
0.217012
0.235921
0.25291
0.269426
0.282598
0.292078
0.294664
0.287611
0.272931
0.256157
0.237627
0.219549
0.202118
0.186496
0.172088
0.159209
0.149173
0.14549
0.151724
0.165219
0.232226
0.257514
0.259502
0.243368
0.218678
0.204654
0.207079
0.220291
0.237125
0.256416
0.276565
0.296801
0.315751
0.334024
0.348464
0.358
0.360318
0.352568
0.336491
0.317564
0.296442
0.276006
0.256823
0.239043
0.222877
0.208546
0.197579
0.194147
0.200577
0.214871
0.277803
0.299603
0.301615
0.285858
0.261373
0.248589
0.251764
0.265657
0.283487
0.303958
0.324839
0.345831
0.365463
0.384235
0.399009
0.408109
0.410029
0.402356
0.386086
0.366427
0.344108
0.322238
0.301944
0.283484
0.266544
0.252037
0.241507
0.239132
0.245603
0.258761
0.32347
0.34105
0.342915
0.329328
0.307153
0.295195
0.297999
0.311803
0.330113
0.351118
0.372302
0.393733
0.413592
0.432565
0.44757
0.45641
0.458125
0.450843
0.434769
0.414817
0.391707
0.368833
0.34749
0.328459
0.311618
0.297643
0.288703
0.28798
0.294034
0.303901
0.372268
0.386112
0.388124
0.377086
0.358551
0.347588
0.349501
0.362602
0.380685
0.401
0.422076
0.443486
0.463245
0.482212
0.497423
0.506317
0.508133
0.501558
0.485942
0.465979
0.442442
0.419014
0.397139
0.377763
0.361377
0.34879
0.34163
0.342175
0.347012
0.353332
0.42604
0.437371
0.439457
0.4309
0.416378
0.405966
0.406618
0.418617
0.435221
0.454518
0.47477
0.49567
0.514916
0.533543
0.548799
0.557976
0.560153
0.554633
0.53985
0.520242
0.496801
0.47338
0.45154
0.432162
0.416176
0.40479
0.39968
0.400932
0.40451
0.408275
0.485926
0.495771
0.497694
0.49102
0.479813
0.470523
0.469809
0.479526
0.494173
0.511823
0.530538
0.550305
0.568513
0.586248
0.601152
0.610501
0.613077
0.608889
0.595394
0.576682
0.554054
0.531413
0.5103
0.491521
0.476303
0.466101
0.462537
0.464192
0.46696
0.469162
0.551511
0.560564
0.561914
0.556496
0.548002
0.539783
0.537846
0.544981
0.557274
0.572565
0.589111
0.607097
0.623663
0.639809
0.653677
0.66268
0.66576
0.663232
0.651542
0.634385
0.613332
0.592267
0.572633
0.555077
0.541025
0.532177
0.529851
0.531665
0.533937
0.535697
0.620586
0.629608
0.630647
0.626019
0.619362
0.612138
0.609304
0.613862
0.623395
0.635742
0.649525
0.665136
0.679512
0.693316
0.705608
0.714203
0.717961
0.717507
0.70816
0.69334
0.674594
0.655776
0.638194
0.622243
0.609545
0.601832
0.600219
0.602048
0.603987
0.605864
0.69479
0.704123
0.70499
0.700618
0.693765
0.686649
0.683001
0.685026
0.691517
0.700552
0.711054
0.723779
0.735591
0.746793
0.757218
0.765502
0.770385
0.772192
0.765663
0.753892
0.738329
0.722635
0.707845
0.694074
0.682802
0.675867
0.674403
0.676141
0.678399
0.681073
0.776061
0.785005
0.785461
0.781249
0.773719
0.764974
0.759445
0.758435
0.761339
0.766682
0.773502
0.782982
0.792102
0.800715
0.809227
0.817344
0.823245
0.827178
0.823731
0.815529
0.803869
0.792195
0.780964
0.770255
0.761362
0.755977
0.755167
0.757297
0.760177
0.763543
0.862846
0.87082
0.870558
0.866318
0.85802
0.847568
0.839386
0.834737
0.833299
0.834242
0.836932
0.842917
0.849319
0.855601
0.86248
0.870035
0.876741
0.882501
0.882135
0.877706
0.870392
0.863272
0.856295
0.849454
0.84375
0.840695
0.841123
0.844015
0.847671
0.851721
0.952592
0.959122
0.957987
0.953585
0.944627
0.932508
0.921285
0.912526
0.906526
0.902888
0.901196
0.903498
0.907243
0.911606
0.916886
0.923952
0.931182
0.938452
0.940808
0.940032
0.93715
0.934702
0.932304
0.929843
0.927936
0.92782
0.929888
0.933805
0.938262
0.942846
1.04228
1.04721
1.04537
1.04084
1.03138
1.01766
1.00326
0.990178
0.979375
0.971147
0.965226
0.963796
0.965114
0.967969
0.971857
0.978979
0.986832
0.995248
0.99987
1.00227
1.00359
1.00552
1.00765
1.00964
1.01169
1.01458
1.01869
1.02376
1.02891
1.03401
1.12854
1.13218
1.13046
1.12617
1.11621
1.10066
1.08276
1.06499
1.04908
1.03605
1.02623
1.02169
1.02116
1.02318
1.02627
1.03374
1.04226
1.05227
1.05883
1.06382
1.06879
1.07459
1.08094
1.0872
1.09296
1.09875
1.10483
1.11091
1.1164
1.12176
1.20847
1.21181
1.21098
1.20695
1.19583
1.17749
1.15496
1.1313
1.10977
1.09254
1.08022
1.07403
1.07299
1.07507
1.07838
1.08607
1.09513
1.10633
1.11446
1.12144
1.12902
1.138
1.1481
1.15865
1.16874
1.17798
1.18596
1.19292
1.19825
1.20293
1.27978
1.28297
1.28148
1.27563
1.26167
1.23874
1.21014
1.18013
1.15493
1.13617
1.12397
1.11873
1.11931
1.12278
1.12717
1.13451
1.14303
1.15381
1.16195
1.16923
1.17799
1.18909
1.20234
1.21695
1.23175
1.24604
1.25792
1.26659
1.27202
1.27561
1.3362
1.33504
1.33038
1.3212
1.3024
1.27309
1.23875
1.20647
1.18305
1.16719
1.15848
1.15683
1.16082
1.16731
1.17411
1.18165
1.18873
1.19656
1.20112
1.20458
1.21091
1.2209
1.23478
1.25145
1.27052
1.29119
1.30897
1.32177
1.33028
1.33458
1.3611
1.35555
1.3463
1.33325
1.30901
1.2766
1.24437
1.21649
1.19768
1.18671
1.1832
1.18697
1.19582
1.20672
1.2171
1.22607
1.2323
1.23755
1.23787
1.23583
1.23538
1.23852
1.24638
1.25863
1.27758
1.30257
1.32462
1.34254
1.35602
1.36264
1.34241
1.33292
1.32013
1.30833
1.28783
1.26073
1.23334
1.21134
1.19757
1.19265
1.19596
1.20654
1.22135
1.23762
1.25235
1.26388
1.27026
1.27378
1.26973
1.26146
1.25343
1.24852
1.24891
1.25518
1.26737
1.28506
1.30355
1.32217
1.33812
1.34674
1.28824
1.2805
1.27439
1.26536
1.24841
1.22519
1.20295
1.18723
1.18081
1.18361
1.19452
1.21312
1.23445
1.25612
1.27509
1.29
1.29748
1.30019
1.29243
1.27815
1.26223
1.24886
1.24122
1.23961
1.24443
1.25487
1.26754
1.27876
1.28801
1.29377
1.22047
1.21446
1.21053
1.20262
1.18876
1.17207
1.15783
1.15079
1.15276
1.16362
1.18277
1.2088
1.23686
1.26356
1.28628
1.30364
1.31196
1.31332
1.30173
1.28203
1.2581
1.23646
1.22059
1.21101
1.20808
1.21098
1.21741
1.22251
1.22507
1.22684
1.13914
1.13338
1.13291
1.12989
1.12226
1.11323
1.10754
1.10877
1.1184
1.1368
1.16397
1.19674
1.23008
1.26105
1.28704
1.30649
1.3159
1.31626
1.30126
1.27632
1.24581
1.21547
1.19101
1.17301
1.1616
1.15596
1.15387
1.15188
1.14894
1.14716
1.05745
1.05581
1.05958
1.06157
1.06007
1.0578
1.05907
1.06687
1.08267
1.10791
1.14144
1.17897
1.21616
1.25036
1.27889
1.30054
1.3115
1.31205
1.2948
1.266
1.23024
1.19292
1.15985
1.13447
1.11557
1.10223
1.09239
1.08328
1.07356
1.06651
0.991748
0.993818
1.00089
1.00641
1.00902
1.01111
1.01692
1.02897
1.0501
1.08074
1.11784
1.15772
1.19676
1.23301
1.26369
1.28803
1.30132
1.30345
1.2864
1.25549
1.21623
1.17447
1.13519
1.10197
1.07674
1.05756
1.0416
1.02708
1.01229
1.00092
0.946249
0.950539
0.958621
0.965064
0.969342
0.973199
0.981477
0.99806
1.02372
1.05718
1.09499
1.13483
1.17396
1.21116
1.24394
1.27188
1.28853
1.29366
1.27985
1.24933
1.20898
1.16495
1.12184
1.08318
1.05094
1.02464
1.00409
0.986588
0.968968
0.954868
0.917354
0.921658
0.927817
0.932974
0.938402
0.946603
0.960396
0.981155
1.00848
1.0413
1.07671
1.11404
1.15129
1.18869
1.22388
1.25667
1.27813
1.28783
1.27921
1.25368
1.21646
1.17356
1.12868
1.08511
1.04565
1.01239
0.984836
0.961872
0.941826
0.925554
0.936043
0.937331
0.94067
0.944851
0.950843
0.959839
0.973074
0.991269
1.01384
1.03966
1.06943
1.10142
1.13497
1.17181
1.21001
1.24871
1.27632
1.29206
1.2912
1.27339
1.24321
1.20602
1.16511
1.12361
1.08405
1.04816
1.0166
0.989067
0.964994
0.944689
1.03134
1.02629
1.0226
1.02038
1.01985
1.02153
1.02595
1.03369
1.04505
1.06019
1.07923
1.10239
1.13062
1.16576
1.20597
1.24987
1.28353
1.30578
1.3126
1.30491
1.28499
1.25778
1.22678
1.19475
1.16361
1.13451
1.10788
1.08359
1.06147
1.04204
0.126942
0.139208
0.140541
0.135011
0.126094
0.11983
0.120126
0.125735
0.132884
0.141208
0.149485
0.157881
0.165559
0.174189
0.180793
0.186861
0.188377
0.186454
0.179535
0.172273
0.163851
0.155439
0.146969
0.138426
0.129851
0.121886
0.115259
0.111794
0.11354
0.118608
0.259826
0.282645
0.287967
0.28062
0.267725
0.258211
0.256207
0.261698
0.270508
0.281444
0.293101
0.305822
0.319169
0.334609
0.348098
0.358663
0.361712
0.356291
0.342728
0.327527
0.311273
0.296269
0.28297
0.271149
0.260606
0.25177
0.245464
0.244087
0.247834
0.254985
0.325009
0.349132
0.355626
0.348509
0.335192
0.32492
0.322296
0.327338
0.336244
0.347176
0.358901
0.371936
0.386039
0.402345
0.416677
0.42732
0.430606
0.424915
0.410802
0.394424
0.376983
0.360893
0.346933
0.335044
0.324822
0.316588
0.311168
0.310575
0.313615
0.319538
0.374096
0.396736
0.402846
0.395919
0.38297
0.372893
0.369881
0.37413
0.382567
0.392837
0.404014
0.416622
0.430443
0.446417
0.46057
0.470722
0.47398
0.468724
0.455196
0.43905
0.421757
0.405721
0.392002
0.380728
0.371446
0.3644
0.360349
0.360452
0.362419
0.366341
0.41983
0.439903
0.444958
0.437786
0.425105
0.415298
0.411809
0.415262
0.423211
0.432904
0.443615
0.45579
0.469127
0.484508
0.498269
0.507818
0.510964
0.506313
0.493686
0.478206
0.461388
0.445581
0.432162
0.421486
0.413213
0.407487
0.404981
0.405785
0.407368
0.41008
0.467225
0.484545
0.488231
0.480854
0.468006
0.45784
0.45366
0.456497
0.463888
0.473063
0.483388
0.495155
0.507942
0.522634
0.535958
0.544986
0.548074
0.544085
0.532517
0.517944
0.501808
0.486286
0.473206
0.463026
0.455744
0.451435
0.450668
0.452503
0.45436
0.456292
0.518609
0.533545
0.535933
0.528365
0.514991
0.504057
0.499172
0.501344
0.507917
0.516405
0.526213
0.537395
0.549436
0.563276
0.576047
0.584608
0.587747
0.584535
0.574275
0.560923
0.545789
0.530802
0.518327
0.508789
0.502579
0.499906
0.500706
0.503619
0.505903
0.507404
0.575342
0.588496
0.589816
0.581917
0.567982
0.556379
0.550788
0.551871
0.55732
0.564763
0.573617
0.583856
0.594844
0.607536
0.619554
0.627651
0.630931
0.628705
0.620106
0.608429
0.594833
0.580984
0.569531
0.560953
0.555815
0.554582
0.556679
0.560476
0.56314
0.564485
0.638172
0.650034
0.650407
0.641704
0.627996
0.615989
0.609662
0.609573
0.613393
0.619333
0.626673
0.635472
0.645005
0.656163
0.667116
0.674636
0.678118
0.67711
0.670611
0.661145
0.649745
0.63784
0.627918
0.620558
0.616531
0.616354
0.619331
0.623635
0.626478
0.627827
0.707245
0.718012
0.717205
0.708275
0.695168
0.68312
0.676202
0.674971
0.676887
0.680863
0.686175
0.692955
0.700607
0.709781
0.719304
0.72601
0.729699
0.730118
0.726142
0.719424
0.710897
0.701762
0.693876
0.687968
0.685058
0.685545
0.688856
0.693162
0.695865
0.697208
0.781945
0.791684
0.790188
0.781388
0.768983
0.757366
0.750265
0.747999
0.747978
0.74964
0.752495
0.756747
0.762105
0.768886
0.776596
0.782167
0.786012
0.787955
0.786858
0.78334
0.778267
0.77249
0.767125
0.763006
0.761225
0.761945
0.764923
0.768664
0.770824
0.772081
0.861258
0.870104
0.868206
0.859885
0.848511
0.837812
0.831015
0.827946
0.826151
0.825343
0.825482
0.826872
0.829637
0.833682
0.83927
0.843346
0.847162
0.850675
0.852566
0.852572
0.85132
0.849215
0.846798
0.844788
0.844071
0.844566
0.846506
0.849138
0.850503
0.85163
0.943371
0.95136
0.94933
0.941879
0.932007
0.922802
0.916818
0.913368
0.910089
0.906925
0.904375
0.902838
0.902836
0.903994
0.907297
0.909509
0.912984
0.917887
0.922751
0.926254
0.928916
0.930561
0.931191
0.931298
0.931445
0.931109
0.931447
0.932601
0.933071
0.934076
1.02536
1.03255
1.03073
1.02464
1.01681
1.00971
1.00509
1.00183
0.997691
0.992606
0.987719
0.983413
0.980802
0.979187
0.98024
0.980288
0.982967
0.988829
0.996331
1.00306
1.00937
1.01438
1.01761
1.01944
1.01977
1.01815
1.01651
1.01598
1.0156
1.01657
1.10361
1.11007
1.10883
1.10462
1.09944
1.09505
1.09238
1.09005
1.086
1.07986
1.07338
1.06685
1.06207
1.05807
1.05722
1.05497
1.05631
1.06244
1.07192
1.08118
1.09043
1.09814
1.10253
1.10525
1.105
1.10174
1.0979
1.09554
1.09443
1.09553
1.17408
1.17992
1.1797
1.17788
1.17593
1.17483
1.17478
1.17426
1.17154
1.16578
1.15874
1.15094
1.14476
1.13907
1.1369
1.1325
1.13192
1.1375
1.14797
1.15862
1.16962
1.17887
1.18249
1.1847
1.18286
1.1776
1.17149
1.16725
1.16554
1.16687
1.23245
1.23773
1.23914
1.24026
1.24213
1.24495
1.24828
1.25061
1.25061
1.24737
1.24087
1.2331
1.22665
1.22029
1.21759
1.21157
1.20862
1.21275
1.22289
1.23345
1.24453
1.25353
1.25467
1.25417
1.2495
1.24171
1.23322
1.22699
1.22468
1.22625
1.27485
1.27974
1.28313
1.2879
1.29429
1.30166
1.30919
1.31569
1.32007
1.32109
1.31687
1.31071
1.30538
1.29963
1.29738
1.29055
1.28515
1.28694
1.29532
1.30403
1.31318
1.31986
1.31728
1.31107
1.30208
1.29099
1.27975
1.27123
1.26803
1.2697
1.29857
1.30324
1.3091
1.31821
1.32973
1.34235
1.35499
1.36703
1.37775
1.38436
1.38445
1.38159
1.37893
1.37508
1.37435
1.36775
1.3603
1.35903
1.36426
1.36931
1.3744
1.37655
1.36849
1.35426
1.33942
1.32399
1.30923
1.29781
1.29316
1.29457
1.30314
1.30793
1.31677
1.33075
1.348
1.36647
1.38537
1.40441
1.42222
1.43549
1.44208
1.44411
1.44561
1.44499
1.44696
1.4414
1.43276
1.42811
1.42917
1.42894
1.42803
1.42322
1.40724
1.38437
1.36225
1.34148
1.32218
1.30694
1.29999
1.30012
1.29057
1.29667
1.30906
1.327
1.35025
1.37604
1.40188
1.42848
1.45363
1.47422
1.4886
1.49709
1.50406
1.50787
1.5138
1.51028
1.50134
1.4935
1.48963
1.48303
1.47448
1.46037
1.43574
1.40436
1.3743
1.34653
1.32035
1.30141
1.29142
1.28889
1.26685
1.27474
1.29133
1.31448
1.34225
1.37263
1.40642
1.44073
1.47292
1.50105
1.52355
1.53957
1.55284
1.56221
1.57314
1.57279
1.5648
1.55472
1.54582
1.53228
1.51504
1.49104
1.45746
1.4181
1.37994
1.34402
1.31285
1.28815
1.27297
1.2669
1.23899
1.24852
1.26853
1.29597
1.32813
1.36305
1.40126
1.44169
1.48205
1.51675
1.54706
1.57057
1.59056
1.60619
1.62285
1.62692
1.62123
1.61025
1.59697
1.57697
1.55139
1.51784
1.476
1.42922
1.38257
1.34017
1.30336
1.27241
1.25123
1.24113
1.21236
1.22304
1.24533
1.27551
1.31037
1.34907
1.39109
1.4355
1.48001
1.52222
1.55923
1.58908
1.61552
1.6377
1.66043
1.67046
1.66871
1.65857
1.64216
1.61679
1.58386
1.54205
1.49334
1.43931
1.38527
1.33681
1.29457
1.25845
1.2309
1.21654
1.19109
1.20218
1.22558
1.25628
1.29194
1.33245
1.37705
1.42407
1.47147
1.51668
1.55813
1.59413
1.62608
1.65445
1.68364
1.70138
1.70501
1.69754
1.67958
1.65025
1.61161
1.56357
1.5093
1.44917
1.38916
1.33512
1.28837
1.24827
1.21603
1.19684
1.17825
1.18919
1.2116
1.24064
1.27533
1.31539
1.3598
1.40698
1.455
1.50176
1.54566
1.58453
1.62068
1.65467
1.69057
1.71767
1.72807
1.72496
1.70713
1.67574
1.63339
1.58109
1.52235
1.45835
1.39444
1.33597
1.28588
1.24311
1.20844
1.18538
1.17591
1.18511
1.20461
1.23078
1.26243
1.29936
1.34062
1.38484
1.43054
1.47588
1.51938
1.55942
1.59835
1.63744
1.68008
1.71776
1.73653
1.73926
1.72345
1.69169
1.64764
1.59336
1.53158
1.46642
1.40148
1.34122
1.28879
1.24455
1.20853
1.1837
1.1848
1.19073
1.20549
1.22734
1.25467
1.2858
1.3208
1.35882
1.39876
1.43939
1.47971
1.51887
1.55912
1.6028
1.65241
1.70172
1.72957
1.74015
1.72779
1.6966
1.65172
1.59715
1.53652
1.47293
1.40996
1.35083
1.29888
1.25508
1.21977
1.19362
1.20424
1.20679
1.21728
1.23253
1.2519
1.27453
1.30032
1.32908
1.36025
1.39343
1.42873
1.46523
1.50567
1.55375
1.61062
1.6722
1.70964
1.72783
1.72032
1.69211
1.64869
1.59605
1.53833
1.47885
1.42048
1.36629
1.31704
1.27453
1.23994
1.21431
1.23629
1.233
1.23572
1.24243
1.25205
1.26468
1.28004
1.29837
1.31988
1.34472
1.37331
1.40583
1.4455
1.49733
1.56109
1.63436
1.68128
1.70651
1.70471
1.68131
1.64184
1.59237
1.53865
1.48531
1.43397
1.38623
1.34306
1.30453
1.27269
1.24878
0.145461
0.154334
0.155522
0.152003
0.146874
0.142938
0.142267
0.144235
0.147427
0.15218
0.157254
0.163594
0.170005
0.178678
0.185788
0.192906
0.194964
0.195571
0.190164
0.184392
0.177406
0.170732
0.164227
0.158027
0.151903
0.145867
0.14035
0.136293
0.13464
0.135815
0.299855
0.315047
0.320137
0.317768
0.312137
0.305894
0.301656
0.300516
0.301571
0.305054
0.310387
0.318696
0.329267
0.344568
0.359795
0.373286
0.378381
0.376365
0.36477
0.351779
0.338338
0.32697
0.317729
0.310637
0.30511
0.300727
0.297187
0.295097
0.293861
0.29588
0.371004
0.388216
0.394136
0.390932
0.382811
0.374243
0.368416
0.366175
0.366389
0.369045
0.373816
0.381652
0.392228
0.407575
0.423486
0.43736
0.443139
0.441231
0.429503
0.415765
0.401898
0.390401
0.381519
0.375249
0.370874
0.367821
0.365627
0.364812
0.364555
0.366933
0.420977
0.43779
0.443099
0.43875
0.428642
0.418306
0.411162
0.407913
0.407377
0.409188
0.413131
0.419933
0.42956
0.443597
0.458647
0.471488
0.477099
0.475553
0.464746
0.45165
0.438656
0.4281
0.420383
0.415556
0.412893
0.411755
0.411673
0.412672
0.413511
0.415658
0.463506
0.478755
0.482609
0.476923
0.465338
0.4537
0.445395
0.441124
0.439754
0.440647
0.443641
0.449288
0.457734
0.47024
0.484196
0.495867
0.501154
0.500069
0.49052
0.478521
0.466759
0.457447
0.451102
0.447823
0.446971
0.447874
0.450001
0.452912
0.454928
0.456904
0.504208
0.517439
0.519394
0.512261
0.499388
0.48653
0.477019
0.471602
0.469227
0.469114
0.471048
0.47549
0.482705
0.493699
0.506593
0.517236
0.522283
0.521733
0.51361
0.502928
0.492575
0.484646
0.479763
0.478078
0.478986
0.481977
0.486402
0.491278
0.494602
0.496741
0.546204
0.557276
0.557254
0.548654
0.53444
0.52018
0.509245
0.502445
0.498812
0.497537
0.49825
0.501375
0.507284
0.516762
0.528584
0.538307
0.543204
0.543276
0.536768
0.527642
0.518926
0.512603
0.509359
0.509355
0.51207
0.517234
0.524015
0.530874
0.535615
0.538288
0.591489
0.600482
0.598725
0.588484
0.572786
0.556883
0.544232
0.535738
0.530552
0.527821
0.527104
0.528695
0.533149
0.540996
0.551623
0.5604
0.565175
0.565961
0.561305
0.554063
0.547342
0.542995
0.5417
0.543514
0.548246
0.555656
0.564764
0.573639
0.57992
0.583417
0.64155
0.648786
0.645434
0.633442
0.616055
0.598263
0.583618
0.573146
0.566063
0.561504
0.559047
0.558835
0.56158
0.56758
0.576775
0.584423
0.589006
0.590591
0.588036
0.583089
0.578853
0.576987
0.577984
0.581949
0.588915
0.598666
0.610108
0.620989
0.628855
0.63339
0.69744
0.703308
0.698477
0.684732
0.665539
0.645708
0.628861
0.616116
0.60677
0.599968
0.595349
0.593049
0.593771
0.597626
0.605072
0.611251
0.615448
0.617878
0.617623
0.615441
0.614273
0.615422
0.619165
0.625736
0.6352
0.64737
0.661088
0.673912
0.683349
0.689046
0.759712
0.764595
0.758458
0.743091
0.722137
0.700289
0.681151
0.665903
0.653953
0.644501
0.637283
0.63248
0.630908
0.632302
0.637638
0.641848
0.645306
0.648559
0.6507
0.651752
0.654214
0.658921
0.666024
0.675661
0.687879
0.70249
0.718344
0.73298
0.743918
0.750833
0.82829
0.832559
0.825372
0.808694
0.786263
0.762633
0.741309
0.723461
0.708662
0.696206
0.686004
0.678274
0.674125
0.672838
0.675722
0.677297
0.679447
0.683326
0.687931
0.692492
0.699089
0.707968
0.718994
0.732107
0.747255
0.764244
0.781999
0.798235
0.810544
0.818678
0.902328
0.906351
0.898484
0.88101
0.857657
0.832753
0.809584
0.789263
0.771544
0.755878
0.742426
0.731478
0.724502
0.720437
0.720662
0.718786
0.718776
0.722861
0.729825
0.738027
0.749134
0.762658
0.778035
0.794884
0.813009
0.832169
0.851474
0.869011
0.882497
0.891786
0.98014
0.984315
0.976263
0.958722
0.935262
0.909868
0.88548
0.863096
0.842659
0.823834
0.807083
0.792845
0.783021
0.776124
0.773767
0.767545
0.76415
0.76781
0.776816
0.788535
0.80426
0.822635
0.842523
0.863128
0.884057
0.905016
0.925395
0.943819
0.95823
0.968569
1.05922
1.06401
1.0564
1.03972
1.01721
0.992362
0.967672
0.943971
0.921352
0.89975
0.879978
0.862693
0.850299
0.840772
0.835985
0.824558
0.816445
0.818723
0.829219
0.843995
0.864046
0.88708
0.911263
0.935293
0.958568
0.980769
1.00161
1.02039
1.0354
1.04662
1.13633
1.14225
1.13587
1.12115
1.10087
1.07785
1.05406
1.03009
1.0062
0.982582
0.960454
0.940762
0.926402
0.914689
0.907738
0.890366
0.876299
0.875955
0.88719
0.904212
0.927806
0.954797
0.982586
1.00931
1.03413
1.05678
1.07731
1.09576
1.11092
1.12281
1.20773
1.21536
1.21113
1.19964
1.18304
1.16333
1.14184
1.11897
1.09505
1.07057
1.04714
1.02605
1.01063
0.997353
0.988599
0.964751
0.943895
0.939466
0.950643
0.968811
0.994671
1.02435
1.05457
1.08278
1.108
1.13004
1.1493
1.16654
1.18125
1.19349
1.26956
1.27939
1.2784
1.27153
1.26016
1.24537
1.22778
1.20757
1.18515
1.16127
1.13795
1.11675
1.10134
1.08718
1.07702
1.04643
1.01849
1.00879
1.01914
1.03714
1.06362
1.09424
1.12524
1.15333
1.17745
1.19754
1.21435
1.22929
1.24276
1.25491
1.31844
1.33064
1.3343
1.33337
1.32877
1.32051
1.30843
1.29254
1.27332
1.25171
1.23011
1.21022
1.19591
1.18149
1.17032
1.13296
1.09835
1.08278
1.09167
1.10817
1.1335
1.163
1.19274
1.21883
1.24013
1.25672
1.26971
1.28108
1.29231
1.30377
1.35214
1.36655
1.37595
1.38244
1.38591
1.38556
1.38045
1.37048
1.35611
1.3385
1.32029
1.30311
1.2908
1.27659
1.26481
1.22095
1.18083
1.15955
1.1666
1.18045
1.20292
1.2292
1.25548
1.27761
1.29432
1.30583
1.31354
1.31999
1.32785
1.33787
1.37033
1.38659
1.40192
1.41655
1.42926
1.43801
1.4409
1.43819
1.43014
1.41807
1.40474
1.39143
1.38178
1.36816
1.35623
1.30661
1.2627
1.23659
1.2417
1.25207
1.27029
1.2915
1.31227
1.32859
1.33917
1.34418
1.34527
1.34558
1.34894
1.35677
1.37449
1.3916
1.41274
1.43546
1.45739
1.4754
1.48728
1.49291
1.4923
1.48692
1.47958
1.47094
1.46432
1.45167
1.44029
1.38633
1.34068
1.31117
1.31444
1.32084
1.33379
1.34853
1.36225
1.37131
1.37459
1.3721
1.36571
1.35885
1.35685
1.36201
1.36694
1.38435
1.40922
1.43972
1.47052
1.49664
1.51714
1.53237
1.54003
1.54188
1.54108
1.53743
1.53405
1.52288
1.5132
1.45717
1.41212
1.38086
1.38246
1.38462
1.39165
1.39901
1.4048
1.40583
1.40099
1.39012
1.37616
1.36233
1.35454
1.35631
1.35123
1.36942
1.39791
1.43248
1.46798
1.50169
1.52972
1.55521
1.57096
1.58031
1.58607
1.58726
1.58724
1.5783
1.57203
1.51716
1.47521
1.44395
1.44407
1.44165
1.44235
1.44194
1.43964
1.43227
1.41818
1.39926
1.37813
1.35852
1.34553