/*--------------------------------*- C++ -*----------------------------------*\
  =========                 |
  \\      /  F ield         | OpenFOAM: The Open Source CFD Toolbox
   \\    /   O peration     | Website:  https://openfoam.org
    \\  /    A nd           | Version:  12
     \\/     M anipulation  |
\*---------------------------------------------------------------------------*/
FoamFile
{
    format      ascii;
    class       volScalarField;
    location    "100/air";
    object      nut;
}
// * * * * * * * * * * * * * * * * * * * * * * * * * * * * * * * * * * * * * //

dimensions      [0 2 -1 0 0 0 0];

internalField   nonuniform List<scalar> 
243000
(
0.000102603
0.000105486
0.000105047
0.000100818
9.41063e-05
8.74675e-05
8.34382e-05
8.43225e-05
8.78249e-05
9.15114e-05
9.46986e-05
9.75633e-05
0.000100077
0.000102528
0.00010446
0.000106327
0.000107257
0.000107039
0.000105352
0.000104033
0.000102642
0.000101329
9.99709e-05
9.85375e-05
9.69076e-05
9.51435e-05
9.38469e-05
9.39729e-05
9.66313e-05
0.000100709
0.000415057
0.000415614
0.00041164
0.000393757
0.000366391
0.000341527
0.000329688
0.000334654
0.000344741
0.000355466
0.00036504
0.000374649
0.000383355
0.000392716
0.000400589
0.000408744
0.000413764
0.000414098
0.000407485
0.000401856
0.000395688
0.000389962
0.000384409
0.000379401
0.000374577
0.000369964
0.000367168
0.000369467
0.00038051
0.000398002
0.000538924
0.000557818
0.000575193
0.000574063
0.000557667
0.000542149
0.000545944
0.000570124
0.000599385
0.000628659
0.000655184
0.000680312
0.000702635
0.000724217
0.000740762
0.000754672
0.000760486
0.000755718
0.000736113
0.000715669
0.000692334
0.000668186
0.000643209
0.000618172
0.000593035
0.000568128
0.000545555
0.000529552
0.000522725
0.000521224
0.000566865
0.000582835
0.000602101
0.000604621
0.000592757
0.000582043
0.000590594
0.000615778
0.000644451
0.000672809
0.000698494
0.000722887
0.000744873
0.000766284
0.000782732
0.000796105
0.000801444
0.000797141
0.000778115
0.000758049
0.000734794
0.000710474
0.00068532
0.000660035
0.000634611
0.000609443
0.000586534
0.00056964
0.000559625
0.000552491
0.000590272
0.000603725
0.000622716
0.000627484
0.000620222
0.000615155
0.000627273
0.000652849
0.000680908
0.000708553
0.000733758
0.000758006
0.000780014
0.000801617
0.000818178
0.000831157
0.000835858
0.000831974
0.000813495
0.000793772
0.000770329
0.000745511
0.000719813
0.000694046
0.000668277
0.000642972
0.000620056
0.000602304
0.000589069
0.000576789
0.000616415
0.000632439
0.000645433
0.000649103
0.000645292
0.000645783
0.000660591
0.000686469
0.00071428
0.000741716
0.000767185
0.000792048
0.000814697
0.000837144
0.000854335
0.000867387
0.000871577
0.000868021
0.000849745
0.000829994
0.000805791
0.000779845
0.000752971
0.000726137
0.000699612
0.000673954
0.000650891
0.000632146
0.000616054
0.000600297
0.000653389
0.000671032
0.000675036
0.000673529
0.000671213
0.000676468
0.000693368
0.000719774
0.000747787
0.000775749
0.000802166
0.000828202
0.000852003
0.00087585
0.000894198
0.00090787
0.000911874
0.00090867
0.000890309
0.000870122
0.000844692
0.000817119
0.000788472
0.000759987
0.000732119
0.000705636
0.000682233
0.000662525
0.000644431
0.000627344
0.000695924
0.000714145
0.000713404
0.000703002
0.000700383
0.000709338
0.0007279
0.000755
0.000783647
0.000812648
0.000840352
0.000867736
0.000892829
0.000918277
0.000938112
0.000952835
0.000957073
0.000954436
0.000936005
0.000915204
0.000888387
0.000859101
0.000828469
0.000798057
0.000768488
0.000740785
0.000716892
0.000696622
0.000677805
0.000664884
0.000743267
0.00076069
0.000756713
0.000739616
0.000734886
0.000746158
0.000765953
0.000793771
0.000823209
0.000853318
0.00088219
0.000910743
0.000936814
0.000963658
0.000984991
0.00100097
0.00100584
0.00100407
0.000985999
0.000964783
0.000936862
0.00090622
0.0008739
0.000841721
0.000810478
0.000781594
0.000757392
0.000737212
0.000719276
0.000710295
0.000798991
0.000813462
0.000807354
0.000784762
0.000776357
0.000788308
0.000808782
0.000837057
0.000866992
0.000897761
0.000927278
0.000956551
0.000983065
0.00101073
0.00103331
0.00105058
0.00105628
0.00105571
0.00103871
0.00101761
0.000989257
0.00095798
0.000924705
0.000891369
0.000858991
0.00082938
0.00080529
0.000786034
0.000770369
0.000764413
0.000861922
0.000874187
0.000865047
0.000838365
0.000825655
0.000836574
0.000856944
0.00088503
0.00091475
0.000945414
0.000974797
0.00100415
0.00103053
0.00105832
0.00108167
0.00110013
0.0011068
0.00110762
0.00109251
0.00107219
0.00104431
0.00101335
0.000980178
0.000946637
0.000913976
0.000884388
0.000861014
0.000843509
0.000830775
0.000827068
0.000931309
0.000941239
0.00092923
0.000899537
0.00088274
0.000890901
0.000910167
0.000937142
0.000965676
0.000995301
0.00102373
0.00105241
0.00107814
0.00110541
0.00112896
0.00114846
0.00115617
0.00115852
0.00114585
0.00112707
0.0011006
0.00107096
0.00103896
0.00100638
0.000974509
0.000945901
0.000923953
0.000908872
0.000899307
0.00089736
0.00100559
0.00101281
0.000998308
0.000966694
0.000946368
0.00095028
0.000967415
0.000992278
0.00101862
0.00104625
0.00107293
0.00110028
0.00112486
0.0011511
0.0011744
0.00119469
0.00120348
0.00120742
0.00119749
0.00118088
0.00115663
0.00112919
0.00109933
0.00106885
0.0010389
0.00101229
0.000992473
0.00098035
0.000974115
0.000973681
0.00108248
0.00108663
0.00107001
0.0010374
0.00101425
0.00101329
0.00102695
0.00104876
0.00107204
0.00109687
0.00112113
0.00114659
0.00116961
0.0011945
0.0012172
0.00123812
0.001248
0.00125356
0.00124646
0.00123245
0.00121098
0.00118641
0.00115946
0.00113192
0.0011049
0.00108116
0.0010641
0.00105529
0.00105244
0.00105349
0.00115908
0.00115997
0.00114162
0.00110875
0.00108341
0.00107776
0.00108679
0.0011046
0.00112408
0.0011455
0.0011669
0.00119006
0.00121124
0.00123464
0.00125651
0.00127797
0.00128898
0.00129615
0.00129186
0.00128066
0.00126229
0.00124099
0.00121748
0.00119345
0.00117003
0.00114978
0.00113595
0.00113057
0.00113091
0.00113354
0.0012324
0.00123025
0.00121045
0.00117776
0.00115079
0.0011408
0.00114453
0.00115734
0.00117254
0.00119019
0.00120852
0.00122922
0.00124843
0.00127035
0.0012913
0.00131321
0.00132536
0.0013342
0.00133263
0.00132431
0.00130911
0.00129126
0.00127147
0.00125132
0.00123186
0.0012155
0.00120517
0.00120317
0.00120624
0.00121057
0.00129989
0.00129494
0.00127387
0.00124147
0.00121317
0.00119904
0.00119706
0.00120418
0.00121478
0.00122862
0.00124401
0.00126237
0.00127972
0.00130025
0.00132029
0.00134255
0.00135581
0.00136626
0.00136722
0.0013617
0.00134955
0.00133512
0.00131913
0.00130307
0.00128787
0.00127571
0.00126914
0.00127029
0.00127575
0.00128176
0.00135904
0.00135134
0.00132885
0.00129639
0.00126674
0.00124842
0.00124069
0.00124184
0.00124804
0.00125857
0.0012715
0.00128789
0.0013037
0.00132298
0.00134216
0.00136462
0.00137889
0.00139077
0.00139382
0.00139076
0.00138131
0.00137002
0.00135768
0.00134571
0.00133492
0.0013273
0.00132493
0.00132911
0.00133693
0.0013446
0.00140642
0.00139572
0.00137142
0.00133848
0.00130724
0.00128468
0.00127155
0.00126754
0.00127027
0.00127835
0.00128948
0.00130438
0.00131897
0.00133709
0.00135556
0.0013782
0.00139338
0.00140651
0.00141104
0.00140976
0.00140233
0.00139346
0.00138415
0.00137575
0.00136921
0.00136633
0.00136841
0.00137584
0.00138632
0.00139579
0.00143699
0.00142346
0.0013971
0.00136326
0.00133032
0.00130435
0.00128741
0.00127996
0.00128024
0.00128674
0.0012967
0.00131046
0.001324
0.00134104
0.00135871
0.00138158
0.00139761
0.00141219
0.00141792
0.00141789
0.00141171
0.00140432
0.00139689
0.0013908
0.0013876
0.00138897
0.00139497
0.00140568
0.001419
0.00143022
0.00144633
0.00143073
0.00140309
0.00136897
0.00133499
0.00130722
0.00128814
0.00127884
0.00127771
0.00128465
0.00129497
0.00130831
0.00132116
0.00133635
0.00135187
0.00137397
0.00139043
0.00140608
0.00141274
0.00141352
0.00140828
0.0014015
0.00139503
0.00139075
0.00138947
0.00139298
0.00140159
0.00141479
0.00143045
0.00144318
0.00143193
0.00141515
0.0013876
0.0013543
0.00132105
0.00129716
0.00128096
0.00127398
0.00127458
0.0012817
0.00129232
0.00130544
0.00131785
0.00133188
0.00134624
0.00136488
0.00137864
0.00139154
0.00139647
0.00139649
0.0013916
0.00138507
0.00137906
0.00137527
0.00137478
0.00137895
0.00138841
0.0014023
0.00141883
0.00143211
0.00139452
0.00137814
0.00135702
0.00133127
0.00130427
0.00128398
0.00127098
0.00126667
0.00126906
0.00127695
0.00128806
0.00130118
0.00131348
0.00132678
0.00134005
0.00135576
0.00136736
0.00137809
0.0013818
0.00138064
0.00137427
0.00136621
0.00135866
0.00135327
0.001351
0.00135261
0.00135887
0.00136959
0.00138514
0.00139751
0.00134877
0.00133862
0.00132424
0.00130526
0.00128423
0.00126779
0.00125833
0.00125672
0.00126091
0.00126987
0.00128175
0.00129521
0.00130775
0.00132074
0.00133327
0.0013468
0.00135665
0.00136542
0.00136756
0.00136457
0.00135668
0.00134699
0.00133778
0.00133064
0.00132643
0.00132562
0.0013286
0.00133562
0.00134549
0.00135263
0.00130285
0.00129779
0.00128954
0.0012767
0.0012613
0.00124907
0.00124328
0.00124416
0.00125022
0.00126061
0.00127363
0.00128788
0.00130125
0.00131465
0.00132721
0.00133953
0.001348
0.00135466
0.00135454
0.00134912
0.00133915
0.00132749
0.00131626
0.00130712
0.00130079
0.00129754
0.00129739
0.00130047
0.00130501
0.0013074
0.00125698
0.00125626
0.00125354
0.00124628
0.00123633
0.00122853
0.00122642
0.00122988
0.00123823
0.00125091
0.00126577
0.00128176
0.00129698
0.00131206
0.00132611
0.0013387
0.00134636
0.00135072
0.0013477
0.00133861
0.00132511
0.00131029
0.00129597
0.00128398
0.00127491
0.00126887
0.00126555
0.00126455
0.00126402
0.00126214
0.00121326
0.00121603
0.00121819
0.0012164
0.0012121
0.00120942
0.00121158
0.00121913
0.00123159
0.00124792
0.00126649
0.00128569
0.00130425
0.00132276
0.00134045
0.00135577
0.00136397
0.00136677
0.00136057
0.00134658
0.00132716
0.00130643
0.00128651
0.00126897
0.0012548
0.00124401
0.00123625
0.00123076
0.00122487
0.00121881
0.0011861
0.00119212
0.001199
0.00120334
0.00120659
0.00121217
0.00122253
0.00123778
0.00125722
0.00127912
0.00130169
0.00132392
0.00134524
0.00136671
0.00138772
0.00140871
0.00142043
0.00142435
0.00141769
0.0014003
0.00137748
0.00135147
0.00132384
0.00129711
0.00127267
0.00125152
0.00123387
0.00121883
0.00120515
0.00119205
0.001268
0.00127196
0.00127939
0.00128955
0.00130181
0.00131765
0.00133662
0.00135702
0.00137695
0.0013957
0.00141314
0.00142967
0.00144625
0.00146476
0.00148487
0.00150331
0.0015168
0.00152578
0.00152976
0.00152761
0.0015171
0.00149996
0.00147773
0.00145143
0.00142198
0.00139053
0.00135944
0.0013296
0.00130198
0.00127687
0.00153055
0.00152394
0.00151619
0.00150848
0.00150168
0.00149601
0.00149165
0.00148864
0.00148692
0.00148654
0.0014878
0.00149123
0.00149742
0.00150735
0.00152032
0.0015358
0.0015496
0.00156082
0.00156999
0.00157553
0.00157758
0.00157699
0.00157435
0.0015704
0.0015656
0.00156033
0.00155483
0.00154914
0.00154326
0.00153642
0.000157072
0.000161551
0.000156434
0.000145801
0.000134048
0.000124413
0.000120205
0.000121324
0.000124073
0.000127484
0.000130813
0.00013425
0.000137688
0.00014141
0.000144282
0.000147038
0.000148427
0.000148108
0.000145905
0.000143805
0.000141214
0.000139078
0.000137103
0.000135265
0.000133392
0.00013168
0.000130881
0.000132574
0.000138643
0.000148273
0.00120479
0.00128344
0.00122804
0.00112868
0.000952689
0.000837517
0.000810594
0.000840042
0.000885117
0.000943025
0.00100184
0.00107044
0.00111502
0.00115943
0.00119604
0.0012209
0.00123417
0.00122468
0.00119272
0.00115372
0.00110698
0.00105609
0.000997409
0.000949372
0.00090738
0.000876766
0.000863044
0.00088647
0.000974035
0.00110506
0.00212558
0.00221751
0.00214681
0.00202128
0.00180927
0.00166343
0.00164066
0.00170387
0.00179205
0.00189724
0.00200218
0.00209787
0.00217687
0.00225826
0.00232452
0.00236661
0.00238922
0.00237527
0.00232002
0.00225011
0.00216387
0.00207751
0.00198469
0.0018891
0.00180234
0.00173632
0.00169772
0.00171931
0.00181565
0.00196743
0.00275902
0.00284462
0.00280378
0.00269737
0.00252217
0.00241574
0.00242215
0.00250592
0.00260748
0.0027245
0.00283451
0.00294139
0.00304054
0.00314273
0.00322642
0.00327986
0.00330626
0.00328979
0.00322293
0.00313531
0.00302703
0.00291886
0.00281417
0.00271
0.00260446
0.00250739
0.00243915
0.00244083
0.00250388
0.00261324
0.00323124
0.00330362
0.00330166
0.00324052
0.00312889
0.0030645
0.00308854
0.00317605
0.00328068
0.00339615
0.00350473
0.00361862
0.00372791
0.00383864
0.00392908
0.00398717
0.00401158
0.00399324
0.00392199
0.00382521
0.00370601
0.00358536
0.00346842
0.00335703
0.00324665
0.00314109
0.00306209
0.00304365
0.00306751
0.00311752
0.00362982
0.00368703
0.00371678
0.00369877
0.00364764
0.00362219
0.00366028
0.00374797
0.0038495
0.0039562
0.00406638
0.00418433
0.00429838
0.00441137
0.0045031
0.00455894
0.00457952
0.00455825
0.00448489
0.00438313
0.00425859
0.00413127
0.00400805
0.00389251
0.00378241
0.00367771
0.00359022
0.00355541
0.00354307
0.00354689
0.00400513
0.00405139
0.00409582
0.00411017
0.0041046
0.00410824
0.00415347
0.0042443
0.0043407
0.00444551
0.00455769
0.00467799
0.00479372
0.00490593
0.00499633
0.00504817
0.00506429
0.00504005
0.00496619
0.00486215
0.00473557
0.0046052
0.00447868
0.00435924
0.00424646
0.00413886
0.00405008
0.00400358
0.00396814
0.00394376
0.00438344
0.0044212
0.00446848
0.00449986
0.00452153
0.00454636
0.0045943
0.0046865
0.00478286
0.00488909
0.00500324
0.00512442
0.00523958
0.00534807
0.00543471
0.0054818
0.00549403
0.00546819
0.00539509
0.00529105
0.00516433
0.00503271
0.00490438
0.00478258
0.00466774
0.00455661
0.00447172
0.00441905
0.00437297
0.00433421
0.00476949
0.00480054
0.0048448
0.00488097
0.00491689
0.00495321
0.00500331
0.00509553
0.00519407
0.00530197
0.00541704
0.0055371
0.00564884
0.00575038
0.00583042
0.00587202
0.0058816
0.00585648
0.00578597
0.00568396
0.00555889
0.00542806
0.0053
0.00517783
0.00506289
0.00495124
0.00487278
0.00481852
0.00477018
0.0047303
0.005152
0.005179
0.00521922
0.00525556
0.00529832
0.00534106
0.00539419
0.00548298
0.00558326
0.00569131
0.00580514
0.00592119
0.00602611
0.00611679
0.00618773
0.00622528
0.00623303
0.00621193
0.00614681
0.0060502
0.00592861
0.00580005
0.00567387
0.00555295
0.0054395
0.00533059
0.00525815
0.00520489
0.00515852
0.00512419
0.00552526
0.0055491
0.00558698
0.00562343
0.00566786
0.00571445
0.00577168
0.00585373
0.00595344
0.00605936
0.00616895
0.00627758
0.00637184
0.0064485
0.00650888
0.00654319
0.00655043
0.00653597
0.00648038
0.0063937
0.00628
0.00615593
0.00603262
0.0059143
0.00580296
0.00569902
0.00563035
0.00557871
0.00553618
0.00550775
0.00589327
0.00591382
0.00594807
0.00598472
0.006029
0.00607616
0.00613519
0.00621152
0.00630426
0.00640481
0.00650693
0.00660467
0.0066848
0.00674551
0.00679393
0.00682376
0.00683122
0.00682445
0.00678313
0.00671137
0.00661068
0.00649649
0.00637923
0.00626439
0.00615662
0.00606059
0.0059953
0.00594562
0.0059073
0.00588349
0.0062556
0.00627193
0.00629982
0.00633574
0.00637888
0.00642529
0.00648264
0.00655395
0.00663635
0.0067252
0.00681501
0.00689918
0.00696245
0.00700584
0.00703947
0.00706226
0.00707013
0.00707184
0.00704878
0.00699622
0.00691326
0.00681418
0.00670896
0.00660283
0.00650123
0.00641389
0.00635162
0.00630457
0.00627085
0.00625121
0.00660972
0.00661888
0.00663767
0.00667031
0.0067112
0.00675553
0.00680849
0.00687153
0.00694259
0.0070173
0.00708932
0.00715642
0.00720063
0.00722413
0.00724024
0.00725438
0.00726244
0.00727356
0.00726996
0.00724003
0.00717804
0.00709852
0.00701098
0.0069201
0.00683138
0.00675499
0.00669518
0.00665221
0.0066241
0.00660864
0.00694647
0.00694622
0.00695553
0.00698171
0.00701799
0.00705809
0.00710418
0.0071564
0.00721313
0.00727105
0.00732411
0.00736874
0.00739196
0.0073943
0.00739163
0.00739728
0.00740607
0.00742713
0.00744219
0.00743563
0.00739775
0.00734097
0.00727381
0.00720177
0.00713002
0.00706565
0.00701434
0.00697874
0.00695821
0.00694866
0.00724317
0.00723343
0.00723548
0.00725575
0.00728684
0.00732066
0.00735713
0.00739558
0.00743489
0.00747293
0.00750518
0.00752752
0.00752877
0.00751114
0.00749092
0.00748911
0.00749936
0.0075317
0.00756476
0.00758002
0.00756595
0.00753197
0.00748622
0.00743402
0.0073797
0.00732951
0.00728935
0.00726298
0.00725102
0.00724841
0.00747816
0.00746142
0.00745918
0.00747448
0.00749915
0.00752414
0.00754774
0.00756901
0.00758834
0.00760597
0.00761908
0.00762215
0.00760499
0.00757136
0.00753788
0.00752983
0.00754207
0.00758484
0.00763384
0.00766773
0.00767352
0.00766006
0.00763459
0.00760193
0.00756571
0.00753087
0.00750253
0.00748577
0.00748199
0.00748555
0.00763245
0.00761166
0.00760482
0.00761371
0.00762937
0.00764157
0.00764863
0.00765113
0.00765342
0.00765531
0.00765525
0.00764731
0.00762054
0.00757817
0.00753765
0.00752395
0.00753659
0.0075852
0.00764403
0.00768936
0.00770832
0.00771034
0.00770197
0.00768648
0.00766764
0.00765038
0.00763671
0.00762996
0.00763329
0.0076416
0.00768364
0.0076562
0.00764282
0.00764552
0.00764872
0.00764331
0.00763262
0.00761998
0.00761576
0.00761274
0.00761012
0.00760178
0.0075773
0.00754076
0.00750487
0.00748803
0.00749907
0.00754546
0.00760148
0.00764356
0.00766241
0.00766845
0.00766832
0.0076626
0.00765845
0.00766154
0.00766593
0.00767101
0.00768339
0.00769683
0.00759697
0.00756488
0.00754658
0.00754822
0.0075514
0.00753471
0.00749928
0.00747212
0.00747231
0.00747551
0.00748042
0.00748301
0.00747271
0.00745522
0.00743762
0.00743393
0.00744437
0.00748586
0.00753065
0.00755651
0.00755834
0.00754848
0.00753617
0.00752007
0.00752084
0.00754286
0.00756237
0.00757694
0.0075985
0.00761544
0.00734548
0.00729838
0.00727642
0.00728131
0.00728881
0.00727708
0.00724702
0.00722395
0.00722276
0.00723657
0.0072596
0.00728434
0.00729876
0.00731203
0.00732316
0.00734492
0.00736501
0.00741175
0.00744314
0.00744459
0.00741981
0.00738066
0.00734324
0.00731407
0.00729903
0.00730262
0.00730395
0.00731338
0.00734718
0.00736985
0.00694938
0.00691156
0.0068958
0.00689572
0.00688961
0.00686855
0.00685408
0.00684239
0.0068609
0.0068992
0.00694515
0.00700622
0.00705405
0.00710154
0.00714436
0.0071995
0.00723676
0.00729474
0.00731466
0.00729206
0.00723542
0.00716165
0.00709557
0.00703627
0.00699763
0.00696846
0.0069575
0.00695349
0.00696285
0.00697485
0.00645511
0.00641587
0.00638948
0.00637468
0.0063713
0.00636965
0.00637293
0.00640221
0.00645407
0.00652082
0.006603
0.00669853
0.00678678
0.00686987
0.00694389
0.00702153
0.00706987
0.00712474
0.00712542
0.00707766
0.00698197
0.00687485
0.0067742
0.00668432
0.00660944
0.00655672
0.00652481
0.00650173
0.00648845
0.00648639
0.00586629
0.00581953
0.00580964
0.00581709
0.00584002
0.00587022
0.00591279
0.00597459
0.00605859
0.00615857
0.00627982
0.00641078
0.00653155
0.00664744
0.00675047
0.00684624
0.00690457
0.00695229
0.00693433
0.0068549
0.00672728
0.00657699
0.00643456
0.00630274
0.0061869
0.00609394
0.00602046
0.00596375
0.00592753
0.00591059
0.00531613
0.00529675
0.00531482
0.00534903
0.00540032
0.00545947
0.00552954
0.0056172
0.00572988
0.00586336
0.00601181
0.006169
0.00631628
0.00645924
0.00658628
0.00669957
0.00676781
0.00681328
0.00677995
0.00667697
0.00652054
0.00634027
0.00615648
0.00598607
0.00583196
0.00570049
0.00558898
0.00549447
0.00541659
0.00536657
0.00494298
0.00495089
0.00499303
0.00504708
0.00511317
0.00518603
0.00526917
0.00537299
0.00550282
0.00565775
0.00582529
0.00599769
0.00616184
0.00632524
0.0064737
0.00660574
0.00668524
0.00673539
0.00669722
0.00658161
0.00640754
0.00620256
0.0059897
0.00578759
0.00560695
0.00544741
0.00530733
0.00518339
0.0050728
0.00499293
0.00478381
0.00481245
0.00486878
0.00493084
0.00499887
0.00507113
0.00515626
0.00526704
0.00540671
0.00557104
0.00574275
0.00592157
0.00609645
0.0062767
0.00644677
0.0066009
0.00669393
0.00675591
0.00672153
0.00659676
0.00641005
0.00619436
0.00596916
0.00575023
0.00554658
0.00536148
0.00520349
0.00506348
0.00493216
0.00482902
0.00483698
0.0048825
0.00494425
0.00500544
0.00506997
0.00514252
0.0052326
0.00534789
0.00548769
0.00565078
0.00581913
0.00600032
0.00618304
0.00638139
0.00657889
0.00676317
0.00687779
0.00695453
0.00692998
0.00681389
0.0066252
0.00640029
0.00615852
0.00591531
0.0056863
0.00548629
0.00530963
0.00515137
0.00500368
0.00487659
0.00523515
0.00529311
0.00535896
0.00542139
0.00548727
0.00555988
0.0056469
0.00575711
0.00588885
0.00603473
0.00620754
0.00639349
0.00658789
0.00681398
0.00705939
0.007294
0.00744754
0.00754776
0.00754448
0.00743183
0.00723462
0.00699067
0.00672715
0.006465
0.00621806
0.00599409
0.00579396
0.00561088
0.00543739
0.00527799
0.00658681
0.00664614
0.0067126
0.00678355
0.0068597
0.00694301
0.00703291
0.00713202
0.00724478
0.00737148
0.00751337
0.00767435
0.00786935
0.00811138
0.00839552
0.00868344
0.0088926
0.00904656
0.00909312
0.00903529
0.0088821
0.00866828
0.00841716
0.00815012
0.00788015
0.0076157
0.00736109
0.00711626
0.00687881
0.00665981
0.000188964
0.000190341
0.000184513
0.000174704
0.00016335
0.000154054
0.000149243
0.000148316
0.000148667
0.00014996
0.000151558
0.000153577
0.000155626
0.000158579
0.000161132
0.000163923
0.000165339
0.000165756
0.000164437
0.000163455
0.000162315
0.000161484
0.00016092
0.000160504
0.000160193
0.000160372
0.000161539
0.000165
0.00017218
0.000182429
0.00160998
0.00165844
0.00161299
0.00153391
0.00146041
0.00140024
0.00135238
0.00133011
0.00132195
0.00132468
0.00133389
0.00135331
0.00137878
0.00141865
0.00145726
0.0014874
0.00150317
0.00149875
0.00146949
0.00143815
0.00140534
0.00138008
0.00136379
0.00135719
0.00136008
0.00137562
0.00140485
0.00145587
0.0015164
0.00157861
0.00288546
0.0029813
0.00293147
0.00284229
0.00276921
0.00270406
0.00264866
0.00263517
0.00264314
0.00266623
0.0026974
0.00274539
0.00280267
0.00288812
0.00296859
0.00302926
0.00306156
0.00306222
0.00300881
0.00294675
0.00287555
0.00281159
0.00275826
0.00271726
0.00268834
0.00267528
0.0026803
0.00271498
0.00276383
0.00282076
0.00385399
0.00394025
0.00391058
0.00387201
0.00384817
0.00381735
0.00378389
0.00379258
0.0038247
0.00387072
0.00392456
0.00400041
0.00408893
0.00421605
0.00433786
0.0044298
0.00447744
0.00448512
0.00441464
0.00432581
0.00421816
0.00411309
0.00401744
0.00393188
0.00385734
0.00379541
0.00375231
0.0037331
0.00373065
0.00375306
0.004552
0.00464068
0.00466455
0.00467142
0.0046913
0.00471735
0.00474329
0.00478374
0.00484404
0.00491396
0.00498863
0.00509071
0.00520756
0.00537073
0.00552925
0.0056512
0.00571153
0.00572418
0.00564076
0.00552781
0.00538529
0.00524026
0.0051016
0.00496682
0.00484403
0.00472838
0.00462808
0.00454885
0.00449007
0.00447006
0.005118
0.00521073
0.00527235
0.00532601
0.00539451
0.00546854
0.00553745
0.00561775
0.00570888
0.00580564
0.00590968
0.00603006
0.00617311
0.00636655
0.00655515
0.00670475
0.00677268
0.00678651
0.00669141
0.0065557
0.00638919
0.00620834
0.00601713
0.00583404
0.00565793
0.00549278
0.0053442
0.00521461
0.00511286
0.00505839
0.00561944
0.00571377
0.00579128
0.00587523
0.00597633
0.00608762
0.00619801
0.00631464
0.00644149
0.00656944
0.00670037
0.00685031
0.00702016
0.00723795
0.00744877
0.0076188
0.00768868
0.0077006
0.00759514
0.00743766
0.00723662
0.00701639
0.00678536
0.00655687
0.0063387
0.00613526
0.00594792
0.00578373
0.00565444
0.00557786
0.00609593
0.0061866
0.00626599
0.00636404
0.00648219
0.00661815
0.00676244
0.00691168
0.00707251
0.00723475
0.00739757
0.00757728
0.00777314
0.00801109
0.00823914
0.00842122
0.00848956
0.00849398
0.00837772
0.00819981
0.00796967
0.00771322
0.00744483
0.00718068
0.00692916
0.0066974
0.00648342
0.00629982
0.00615657
0.0060685
0.00657075
0.00665331
0.00672728
0.00682648
0.00695091
0.0070996
0.00726682
0.00744496
0.00763355
0.00782743
0.00802214
0.00823002
0.00844911
0.00870173
0.00894015
0.00912664
0.00918957
0.0091831
0.00905891
0.00886564
0.00861423
0.00832931
0.00803315
0.00774196
0.00746677
0.00721493
0.00698662
0.00679499
0.00664721
0.00655506
0.00705709
0.00712871
0.00719329
0.00728746
0.00741076
0.00756319
0.00774295
0.00794295
0.00815265
0.00837166
0.00859198
0.00882247
0.00905912
0.00931817
0.0095578
0.00973882
0.00979292
0.00977558
0.00964896
0.00944853
0.00918755
0.0088895
0.00857708
0.00826873
0.00797984
0.0077157
0.0074824
0.00728987
0.00714298
0.00705092
0.00756039
0.0076197
0.0076752
0.00776095
0.00787867
0.00802956
0.00821436
0.00842677
0.00865092
0.0088858
0.00912296
0.00936706
0.00961212
0.0098671
0.0100944
0.0102606
0.0103038
0.0102779
0.0101565
0.00995972
0.00970217
0.00940631
0.00909232
0.00877942
0.00848605
0.00821755
0.00798484
0.00779522
0.00765165
0.00756165
0.0080809
0.0081284
0.00817498
0.00825143
0.00836188
0.00850875
0.00869378
0.00891005
0.00914152
0.009383
0.00962661
0.00987354
0.0101156
0.0103538
0.0105555
0.0106991
0.0107299
0.010702
0.010592
0.0104105
0.0101684
0.00988667
0.0095849
0.00928167
0.00899287
0.00872717
0.00849841
0.00831358
0.00817461
0.00808783
0.00861185
0.0086486
0.00868713
0.00875519
0.00885883
0.00900118
0.00918366
0.0093982
0.00962883
0.00986855
0.0101096
0.0103487
0.0105751
0.0107847
0.0109522
0.0110654
0.0110821
0.0110588
0.0109687
0.010811
0.0105944
0.0103368
0.0100567
0.00977147
0.00949601
0.00923994
0.00901767
0.00883903
0.0087057
0.00862309
0.0091352
0.00916338
0.00919661
0.00925933
0.00935855
0.00949768
0.00967672
0.00988623
0.0101106
0.0103415
0.0105711
0.0107924
0.010994
0.0111687
0.0112959
0.0113721
0.0113727
0.0113589
0.011295
0.011169
0.0109855
0.0107583
0.0105053
0.0102422
0.0099834
0.00973928
0.00952517
0.00935401
0.00922732
0.00915013
0.00962687
0.00964806
0.0096787
0.00974071
0.00984027
0.0099795
0.0101562
0.0103597
0.0105754
0.0107932
0.011006
0.0112033
0.0113738
0.0115097
0.0115963
0.0116314
0.0116136
0.0116118
0.011577
0.0114869
0.0113401
0.0111468
0.010922
0.0106827
0.0104418
0.010209
0.0100003
0.00983452
0.00971507
0.00964411
0.010066
0.0100809
0.0101113
0.0101752
0.010279
0.0104223
0.0105998
0.010799
0.0110064
0.0112108
0.0114047
0.0115756
0.0117126
0.0118091
0.0118578
0.0118534
0.0118153
0.0118255
0.0118195
0.0117645
0.0116535
0.0114931
0.0112934
0.011076
0.0108511
0.0106271
0.0104222
0.0102596
0.0101481
0.0100845
0.0104251
0.0104335
0.0104671
0.0105359
0.0106486
0.0108008
0.0109833
0.0111814
0.0113832
0.0115775
0.0117529
0.0118987
0.012004
0.012065
0.0120814
0.0120446
0.0119863
0.0120071
0.0120255
0.0120003
0.0119194
0.0117863
0.0116056
0.0114028
0.0111873
0.0109687
0.0107657
0.0106038
0.0104997
0.0104442
0.0106745
0.010678
0.0107138
0.0107938
0.0109209
0.0110865
0.0112779
0.0114809
0.0116839
0.011873
0.0120346
0.0121597
0.0122386
0.0122726
0.0122653
0.0122072
0.0121341
0.0121621
0.0121982
0.0121936
0.0121325
0.0120172
0.0118478
0.0116436
0.0114281
0.0112099
0.0110056
0.0108411
0.0107414
0.0106937
0.0107883
0.0107895
0.0108285
0.010922
0.0110676
0.0112502
0.0114563
0.0116737
0.0118907
0.0120841
0.0122399
0.0123523
0.0124136
0.0124281
0.0124057
0.0123423
0.0122621
0.012295
0.0123408
0.0123448
0.0122901
0.01218
0.0120064
0.0117845
0.0115583
0.0113335
0.0111228
0.0109512
0.0108496
0.0108071
0.0107505
0.0107488
0.0107917
0.0109007
0.0110699
0.0112791
0.0115101
0.0117527
0.0119912
0.0122012
0.0123654
0.0124757
0.0125316
0.0125391
0.0125109
0.0124483
0.0123727
0.0124075
0.0124569
0.0124569
0.0123936
0.0122683
0.012069
0.0118214
0.0115735
0.0113334
0.0111063
0.0109225
0.0108132
0.0107675
0.0105525
0.0105615
0.0105982
0.0107129
0.0109197
0.0111832
0.0114498
0.0117267
0.0119915
0.0122263
0.0124123
0.0125359
0.0125997
0.0126141
0.0125957
0.0125451
0.0124786
0.0125071
0.0125495
0.0125349
0.0124449
0.012282
0.0120447
0.0117597
0.0114821
0.0112052
0.0109298
0.0107435
0.0106314
0.0105664
0.0102006
0.0102176
0.0102953
0.0104487
0.0106844
0.0109695
0.0112947
0.0116197
0.0119132
0.0121797
0.0123952
0.0125442
0.0126288
0.0126661
0.0126747
0.0126489
0.0126012
0.0126249
0.012651
0.0126082
0.0124777
0.0122649
0.0119745
0.0116475
0.01132
0.01098
0.0106777
0.0104445
0.0103045
0.0102266
0.00977938
0.00981792
0.00993911
0.0101511
0.0104315
0.0107421
0.0110849
0.0114481
0.0118007
0.0120908
0.0123409
0.0125222
0.0126388
0.0127133
0.0127642
0.0127762
0.0127579
0.0127827
0.0127894
0.0127126
0.0125346
0.0122648
0.0119221
0.0115482
0.0111479
0.0107601
0.0104104
0.0101157
0.00992256
0.00981459
0.00939809
0.00945864
0.00962004
0.00987769
0.0101989
0.0105566
0.0109296
0.0113001
0.0116624
0.012006
0.0122892
0.0124989
0.0126544
0.0127773
0.0128829
0.012946
0.0129679
0.0130031
0.012993
0.0128817
0.0126557
0.0123336
0.0119466
0.0115096
0.0110416
0.010603
0.0102078
0.00986167
0.00959544
0.00944229
0.00915722
0.0092377
0.0094376
0.00972227
0.0100648
0.0104438
0.0108386
0.0112315
0.0116114
0.0119634
0.0122619
0.0125131
0.0127083
0.0128858
0.0130552
0.0131832
0.0132536
0.0133111
0.0132902
0.0131478
0.0128838
0.0125207
0.0120914
0.0116037
0.0110883
0.0105944
0.010144
0.00974509
0.00941452
0.0092065
0.00914781
0.00925298
0.00947668
0.00977129
0.010118
0.0104997
0.0108961
0.0112916
0.0116729
0.0120267
0.0123403
0.0126066
0.0128382
0.0130721
0.0133137
0.0135185
0.0136445
0.0137384
0.0137171
0.0135631
0.0132761
0.0128777
0.0124064
0.0118675
0.0113043
0.010759
0.0102686
0.00983197
0.00946352
0.00920449
0.00945801
0.00958208
0.00981381
0.0101072
0.0104409
0.0108034
0.0111775
0.01155
0.0119113
0.0122516
0.0125616
0.012836
0.0130961
0.0133874
0.0137047
0.0139946
0.0141831
0.0143278
0.014322
0.0141601
0.0138596
0.0134438
0.0129339
0.0123716
0.0117897
0.0112197
0.0106919
0.010219
0.00981323
0.00951809
0.0102015
0.0103386
0.0105515
0.0108292
0.0111425
0.0114609
0.0117854
0.0121088
0.012425
0.012729
0.0130164
0.0132852
0.0135634
0.0139045
0.0142987
0.014681
0.0149359
0.0151511
0.0151794
0.0150237
0.0147104
0.0142827
0.0137777
0.0132193
0.0126406
0.0120728
0.0115429
0.0110567
0.0106236
0.0102794
0.0115758
0.0117157
0.0119116
0.0121408
0.0123909
0.0126408
0.0128876
0.0131311
0.0133707
0.0136072
0.0138457
0.0140846
0.0143611
0.0147393
0.0152
0.0156762
0.0160071
0.0163061
0.0163953
0.0162849
0.015994
0.0155862
0.0151041
0.0145799
0.0140367
0.0135075
0.0129904
0.0124994
0.0120491
0.0116753
0.014109
0.0141956
0.0143074
0.0144349
0.0145644
0.0146925
0.0148074
0.0149131
0.0150191
0.0151321
0.0152629
0.0154222
0.0156567
0.0160346
0.016528
0.0170811
0.0175034
0.0178955
0.0180816
0.018075
0.0178896
0.01757
0.0171732
0.0167585
0.016326
0.0158859
0.0154473
0.0150132
0.0146006
0.0142413