/*--------------------------------*- C++ -*----------------------------------*\
  =========                 |
  \\      /  F ield         | OpenFOAM: The Open Source CFD Toolbox
   \\    /   O peration     | Website:  https://openfoam.org
    \\  /    A nd           | Version:  12
     \\/     M anipulation  |
\*---------------------------------------------------------------------------*/
FoamFile
{
    format      ascii;
    class       volScalarField;
    location    "100/air";
    object      p_rgh;
}
// * * * * * * * * * * * * * * * * * * * * * * * * * * * * * * * * * * * * * //

dimensions      [1 -1 -2 0 0 0 0];

internalField   nonuniform List<scalar> 
243000
(
37.7481
37.6931
37.6642
37.6253
37.5949
37.5661
37.5171
37.4438
37.3473
37.2529
37.1619
37.1084
37.0804
37.1032
37.1417
37.2314
37.3075
37.4054
37.4614
37.5037
37.5268
37.555
37.5848
37.6225
37.6608
37.6947
37.7221
37.7314
37.7349
37.7204
37.7422
37.6778
37.6541
37.6205
37.5972
37.5725
37.5239
37.4496
37.3521
37.2568
37.1644
37.1095
37.0795
37.101
37.1364
37.2231
37.2973
37.3949
37.4527
37.4976
37.5236
37.5554
37.5862
37.6248
37.6639
37.6986
37.7269
37.7359
37.7403
37.722
37.7202
37.652
37.6333
37.5991
37.5765
37.55
37.4964
37.4173
37.3173
37.2218
37.1304
37.0786
37.05
37.0718
37.1049
37.1887
37.2615
37.3602
37.4193
37.4669
37.4939
37.5263
37.557
37.5953
37.635
37.6709
37.7016
37.7122
37.7208
37.7046
37.686
37.6189
37.602
37.5662
37.5412
37.5077
37.4457
37.3614
37.2593
37.1638
37.0736
37.0246
36.997
37.019
37.0503
37.1321
37.2056
37.3062
37.3663
37.4165
37.4448
37.4785
37.51
37.5489
37.5896
37.6271
37.6605
37.6733
37.6864
37.6739
37.6438
37.5823
37.5656
37.5275
37.4974
37.4532
37.3819
37.2923
37.188
37.0931
37.0039
36.9575
36.9306
36.953
36.983
37.0638
37.1392
37.2419
37.3029
37.3558
37.3857
37.4211
37.4536
37.4933
37.5353
37.5749
37.6118
37.6282
37.6459
37.6373
37.5935
37.5413
37.5245
37.4828
37.4465
37.3887
37.3085
37.2138
37.1076
37.0135
36.925
36.8809
36.8543
36.8767
36.9055
36.9857
37.0635
37.1683
37.2306
37.2871
37.3194
37.3568
37.3904
37.4311
37.4747
37.5168
37.5574
37.5781
37.6
37.5954
37.5343
37.4931
37.4756
37.4305
37.3865
37.3143
37.2255
37.1256
37.0174
36.9235
36.835
36.7923
36.7655
36.7872
36.8146
36.8943
36.9748
37.0822
37.1467
37.2077
37.2435
37.2835
37.3193
37.3619
37.4075
37.4522
37.4967
37.5221
37.5474
37.5472
37.4658
37.4358
37.4157
37.3682
37.3149
37.2286
37.1313
37.0262
36.9159
36.8212
36.7319
36.6893
36.6611
36.6819
36.7075
36.7869
36.8704
36.9812
37.0489
37.1153
37.1551
37.1992
37.2379
37.2834
37.3319
37.3796
37.4278
37.4583
37.4868
37.4903
37.3877
37.3669
37.3426
37.2923
37.2284
37.1293
37.0236
36.9129
36.7997
36.7037
36.6127
36.5691
36.538
36.5577
36.5812
36.6609
36.7478
36.8629
36.9344
37.0068
37.0512
37.1004
37.1432
37.1925
37.2449
37.2961
37.3482
37.3844
37.4164
37.4221
37.2994
37.2852
37.2546
37.1986
37.1239
37.0128
36.8989
36.7822
36.6654
36.567
36.4737
36.4279
36.3929
36.4107
36.4324
36.5125
36.6029
36.7231
36.7989
36.8781
36.9282
36.9833
37.0316
37.0854
37.1423
37.1981
37.2547
37.2967
37.3329
37.3419
37.1968
37.1859
37.147
37.0834
36.9974
36.8751
36.7528
36.63
36.5091
36.4072
36.3111
36.2619
36.2226
36.2373
36.2569
36.3371
36.4303
36.5552
36.6362
36.7225
36.7795
36.842
36.8972
36.9572
37.0202
37.0818
37.1438
37.1917
37.2323
37.2449
37.0725
37.0611
37.0123
36.9402
36.8429
36.7116
36.5808
36.4517
36.326
36.2202
36.1204
36.0674
36.0226
36.0342
36.0497
36.129
36.2236
36.3524
36.4391
36.5327
36.598
36.6695
36.7327
36.8011
36.8717
36.9408
37.0092
37.0636
37.1086
37.123
36.9197
36.904
36.8442
36.762
36.6532
36.5147
36.3762
36.2409
36.1103
36.0001
35.8964
35.839
35.7878
35.7959
35.8053
35.882
35.9766
36.1095
36.2019
36.3033
36.3782
36.4594
36.5319
36.6099
36.6894
36.7675
36.8438
36.905
36.9548
36.9701
36.7301
36.7067
36.6347
36.5416
36.4229
36.2776
36.1321
35.9905
35.8554
35.7411
35.6336
35.5709
35.5137
35.5167
35.5189
35.5915
35.6846
35.8212
35.9191
36.0289
36.1136
36.2049
36.2876
36.376
36.4659
36.5544
36.6395
36.7073
36.7624
36.7794
36.4948
36.4605
36.376
36.2717
36.1445
35.9946
35.8423
35.695
35.556
35.4379
35.3274
35.2599
35.1968
35.1937
35.1883
35.2543
35.3434
35.4827
35.5853
35.7031
35.7967
35.8979
35.9913
36.0906
36.1919
36.2916
36.3859
36.4608
36.5222
36.5432
36.2054
36.1579
36.0612
35.9461
35.8106
35.6579
35.5004
35.3498
35.2084
35.0879
34.9766
34.9054
34.8376
34.8274
34.8136
34.8706
34.9522
35.0904
35.1957
35.3197
35.4207
35.5306
35.6343
35.7449
35.858
35.9693
36.0734
36.1574
36.2263
36.2532
35.8527
35.7905
35.682
35.5572
35.4148
35.2607
35.1024
34.9529
34.813
34.6938
34.5854
34.5132
34.4428
34.4249
34.4014
34.4463
34.5164
34.6465
34.7502
34.8771
34.9835
35.0997
35.2119
35.3324
35.4561
35.5786
35.6935
35.7884
35.8657
35.9011
35.4256
35.3478
35.2291
35.0984
34.9546
34.8037
34.6519
34.5111
34.381
34.2698
34.1693
34.0999
34.0289
34.0037
33.9697
34.0002
34.0535
34.1676
34.2618
34.3846
34.4914
34.6098
34.7263
34.8523
34.9824
35.1127
35.2369
35.3429
35.4298
35.4761
34.9129
34.8243
34.7023
34.574
34.4371
34.3001
34.1686
34.0496
33.9377
33.8407
33.7514
33.6879
33.6176
33.5856
33.5402
33.5556
33.5895
33.6822
33.761
33.8724
33.9702
34.0818
34.1935
34.3161
34.4437
34.5744
34.7014
34.8145
34.9085
34.9654
34.3197
34.2289
34.1168
34.0064
33.8913
33.7862
33.6884
33.6008
33.5121
33.4328
33.3564
33.3006
33.2328
33.1942
33.1366
33.1365
33.1511
33.22
33.2792
33.3743
33.4563
33.5533
33.6511
33.7596
33.872
33.9884
34.1043
34.2138
34.3069
34.3724
33.6802
33.6007
33.5178
33.4402
33.3641
33.3083
33.2548
33.2048
33.1462
33.0871
33.0225
32.9735
32.9093
32.868
32.8036
32.7844
32.7771
32.8132
32.8465
32.9199
32.9841
33.0626
33.141
33.2261
33.3125
33.4014
33.4931
33.5844
33.6624
33.7307
33.0548
32.9979
32.9665
32.9426
32.9225
32.9114
32.897
32.8782
32.8462
32.804
32.7482
32.703
32.6418
32.601
32.5371
32.5078
32.4894
32.5044
32.5195
32.5679
32.6093
32.6637
32.7147
32.7675
32.8198
32.8724
32.9258
32.9833
33.0358
33.1014
32.5282
32.5136
32.5272
32.5478
32.5745
32.5961
32.6091
32.6106
32.5949
32.5649
32.5174
32.4751
32.4162
32.3748
32.312
32.2836
32.2642
32.274
32.2822
32.314
32.3374
32.3711
32.3975
32.4231
32.445
32.4649
32.4824
32.504
32.5193
32.5664
32.1473
32.1621
32.2005
32.2468
32.3019
32.3547
32.3935
32.4133
32.4114
32.391
32.3482
32.3078
32.2494
32.2054
32.1415
32.1113
32.0888
32.0925
32.0937
32.118
32.1317
32.1522
32.1626
32.1711
32.1726
32.17
32.1632
32.1593
32.1476
32.1789
31.8797
31.9073
31.9698
32.0472
32.134
32.2149
32.2736
32.3049
32.3092
32.2916
32.2476
32.204
32.1411
32.091
32.0234
31.9905
31.9645
31.9645
31.9618
31.9823
31.9923
32.0064
32.0053
31.9983
31.9827
31.9596
31.9306
31.9083
31.8856
31.9109
31.7243
31.7694
31.8621
31.9718
32.0909
32.1961
32.2634
32.2927
32.2888
32.2615
32.2114
32.1604
32.0906
32.0318
31.9568
31.9183
31.887
31.8842
31.881
31.9032
31.9168
31.9334
31.9326
31.9222
31.8991
31.8639
31.8186
31.7775
31.7404
31.7546
31.678
31.7482
31.8635
32.0049
32.1502
32.269
32.3321
32.3454
32.325
32.2815
32.2218
32.1601
32.0831
32.0184
31.9375
31.8926
31.8562
31.8515
31.8477
31.8694
31.8848
31.9017
31.9064
31.9041
31.8874
31.8524
31.7989
31.7463
31.6985
31.7082
31.6991
31.808
31.9708
32.1571
32.3305
32.4602
32.5167
32.5172
32.4903
32.4378
32.3649
32.292
32.2072
32.1332
32.0283
31.955
31.9064
31.8981
31.9025
31.9492
31.9994
32.0359
32.0501
32.0502
32.0332
31.996
31.9268
31.8427
31.7565
31.7378
32.0733
32.204
32.3565
32.488
32.5768
32.6047
32.5637
32.4768
32.3749
32.2626
32.1384
32.0225
31.8986
31.7852
31.6389
31.5388
31.4717
31.4495
31.4476
31.4996
31.5666
31.6397
31.7063
31.7727
31.838
31.9107
31.9718
32.0101
32.0176
32.0676
29.734
29.979
30.2948
30.573
30.7703
30.8571
30.8484
30.7918
30.7142
30.6271
30.5265
30.4258
30.3037
30.1757
30.0141
29.8834
29.763
29.6847
29.6143
29.5881
29.5782
29.5992
29.6345
29.6796
29.7305
29.7762
29.7967
29.7823
29.7192
29.7144
37.7771
37.7764
37.7548
37.6731
37.587
37.5218
37.4522
37.3665
37.2773
37.2065
37.1455
37.1394
37.1535
37.2116
37.2737
37.3788
37.4566
37.5378
37.5503
37.5476
37.5311
37.5284
37.5367
37.5673
37.6024
37.6401
37.678
37.703
37.7329
37.7367
37.7609
37.7311
37.7095
37.6382
37.578
37.5241
37.455
37.368
37.2744
37.1936
37.1287
37.1177
37.125
37.1743
37.2282
37.3274
37.4036
37.4883
37.5088
37.5149
37.5072
37.511
37.5231
37.5562
37.5998
37.6414
37.6799
37.7032
37.7267
37.7165
37.742
37.6904
37.6714
37.6091
37.5632
37.5145
37.4414
37.3494
37.2512
37.17
37.1032
37.0882
37.0892
37.1315
37.1771
37.2695
37.343
37.4322
37.4615
37.4771
37.4771
37.4877
37.5034
37.5383
37.583
37.6276
37.6696
37.6906
37.716
37.6984
37.7151
37.6551
37.6371
37.5792
37.5366
37.484
37.4064
37.3124
37.2135
37.1326
37.0641
37.0467
37.0429
37.0806
37.1194
37.2073
37.2802
37.3737
37.4089
37.4321
37.4383
37.4543
37.4735
37.5105
37.556
37.6015
37.6458
37.6671
37.6948
37.6765
37.6776
37.6187
37.6009
37.5458
37.5025
37.4425
37.3607
37.2655
37.1664
37.0856
37.016
36.997
36.989
37.0234
37.0571
37.1416
37.2145
37.3122
37.3524
37.3825
37.3943
37.415
37.4376
37.4762
37.5226
37.5688
37.615
37.6379
37.6669
37.6496
37.6305
37.5793
37.5594
37.5061
37.4583
37.3891
37.3026
37.2067
37.1079
37.0275
36.9567
36.9357
36.9234
36.9546
36.9843
37.0663
37.1404
37.2417
37.287
37.3239
37.342
37.3678
37.3926
37.4319
37.4793
37.5272
37.5758
37.6009
37.6304
37.6165
37.5756
37.5344
37.5126
37.4574
37.4018
37.3238
37.2322
37.1345
37.0348
36.9544
36.8822
36.8586
36.8416
36.8692
36.8956
36.9757
37.0525
37.1584
37.2087
37.2534
37.278
37.3095
37.3364
37.3764
37.4246
37.4745
37.5258
37.5536
37.5837
37.5755
37.5112
37.4792
37.4563
37.3959
37.3303
37.2451
37.1488
37.048
36.9461
36.8641
36.7893
36.7624
36.7403
36.7642
36.7874
36.8681
36.9493
37.061
37.1168
37.1701
37.2012
37.2383
37.2689
37.3103
37.3589
37.41
37.4632
37.4941
37.5256
37.5241
37.4369
37.4118
37.3849
37.3209
37.2442
37.1503
37.0494
36.9453
36.8407
36.7558
36.6766
36.645
36.618
36.6392
36.6603
36.7444
36.8294
36.9467
37.0085
37.0699
37.1079
37.1516
37.1878
37.232
37.2819
37.3332
37.3874
37.4218
37.4554
37.4606
37.3495
37.3286
37.2949
37.2315
37.1462
37.0411
36.9347
36.8272
36.7192
36.6302
36.545
36.5073
36.4758
36.4958
36.515
36.5996
36.6844
36.8048
36.8724
36.9423
36.9886
37.0409
37.0849
37.1344
37.1885
37.243
37.2996
37.338
37.3739
37.3816
37.2386
37.2196
37.1782
37.1142
37.0269
36.9145
36.8025
36.6904
36.5781
36.484
36.3927
36.3486
36.3118
36.3297
36.3454
36.4238
36.5038
36.6254
36.6995
36.779
36.8351
36.8974
36.9496
37.0067
37.068
37.129
37.1904
37.2338
37.2714
37.2764
37.0993
37.0798
37.0302
36.9608
36.8692
36.7553
36.6402
36.5242
36.4087
36.31
36.2125
36.1621
36.1184
36.1325
36.1413
36.2107
36.2857
36.4104
36.4919
36.5816
36.6476
36.7208
36.7821
36.8467
36.9141
36.9804
37.0465
37.0953
37.136
37.14
36.9334
36.91
36.8512
36.7756
36.6752
36.5569
36.4382
36.3185
36.2029
36.1022
35.9982
35.9412
35.8889
35.8981
35.8954
35.9606
36.0341
36.163
36.2515
36.3512
36.4271
36.511
36.582
36.6545
36.7282
36.7992
36.8695
36.924
36.9703
36.9759
36.7373
36.7069
36.6388
36.557
36.4488
36.3246
36.2008
36.0758
35.9594
35.8559
35.7459
35.6816
35.6194
35.6226
35.6074
35.6725
35.7464
35.8809
35.975
36.0838
36.1694
36.2635
36.3437
36.424
36.5054
36.5835
36.6598
36.7208
36.7731
36.7814
36.4976
36.4592
36.3831
36.2965
36.1832
36.0576
35.9297
35.7994
35.6774
35.5662
35.4505
35.3784
35.3056
35.3027
35.2817
35.3428
35.4158
35.5589
35.6589
35.7759
35.8684
35.9719
36.0601
36.1475
36.2363
36.3225
36.4056
36.473
36.5309
36.544
36.2038
36.1574
36.0745
35.9833
35.8678
35.7442
35.614
35.4796
35.3471
35.2282
35.107
35.0271
34.9438
34.9342
34.9129
34.9681
35.0398
35.1874
35.2955
35.4214
35.5196
35.6301
35.7248
35.8187
35.9149
36.0094
36.0994
36.1715
36.2333
36.2525
35.8529
35.795
35.706
35.6078
35.4935
35.3749
35.2434
35.1028
34.9613
34.8366
34.7103
34.6248
34.5337
34.517
34.4911
34.5391
34.6109
34.7582
34.8726
35.0096
35.1181
35.2355
35.3373
35.4372
35.5382
35.6402
35.7374
35.8126
35.8778
35.9054
35.4378
35.3651
35.2718
35.1713
35.0658
34.953
34.8151
34.6635
34.5221
34.3973
34.27
34.1836
34.0897
34.0672
34.0331
34.0703
34.1357
34.2769
34.3893
34.5322
34.6516
34.7789
34.8918
34.9997
35.1044
35.2099
35.3112
35.3893
35.4579
35.4974
34.9523
34.8745
34.7819
34.6869
34.5905
34.4748
34.3325
34.1817
34.0486
33.9296
33.8064
33.7211
33.6248
33.5969
33.5577
33.591
33.643
33.7717
33.8758
34.0142
34.1342
34.2661
34.3847
34.4957
34.6039
34.7157
34.8186
34.8989
34.9672
35.0186
34.405
34.3345
34.2498
34.1652
34.0689
33.9497
33.8192
33.6854
33.5571
33.4389
33.3167
33.23
33.1294
33.0959
33.0524
33.0889
33.1345
33.2601
33.3625
33.4964
33.6095
33.7361
33.8502
33.9561
34.0628
34.1746
34.2716
34.3513
34.416
34.4728
33.8317
33.7741
33.6918
33.6116
33.5225
33.41
33.2872
33.1616
33.034
32.9148
32.7931
32.703
32.5983
32.5554
32.5018
32.5402
32.5865
32.7199
32.8253
32.9608
33.0727
33.1965
33.3107
33.4167
33.5187
33.6175
33.708
33.7887
33.8434
33.899
33.2637
33.2063
33.1242
33.0398
32.9551
32.8612
32.7531
32.6398
32.5215
32.4081
32.2898
32.1972
32.0892
32.0336
31.9638
31.9887
32.0196
32.1424
32.2342
32.3715
32.488
32.6152
32.7341
32.8464
32.9493
33.0457
33.1397
33.2241
33.2721
33.334
32.6805
32.6113
32.5488
32.4888
32.427
32.3614
32.279
32.1869
32.0827
31.9773
31.8622
31.7686
31.6579
31.5915
31.5073
31.5087
31.5123
31.6083
31.6747
31.7988
31.9115
32.0368
32.1521
32.2612
32.3598
32.4501
32.5349
32.6194
32.6757
32.7561
32.119
32.0727
32.0504
32.033
32.0086
31.9681
31.9055
31.8283
31.7346
31.637
31.527
31.4339
31.3222
31.2486
31.1559
31.1402
31.1218
31.1894
31.2383
31.3361
31.4351
31.5513
31.658
31.7561
31.8427
31.9194
31.9854
32.058
32.1077
32.1888
31.6909
31.6835
31.6955
31.707
31.7092
31.6883
31.6426
31.5786
31.4963
31.4094
31.3084
31.2192
31.111
31.0361
30.944
30.9169
30.8812
30.9154
30.9556
31.0242
31.1035
31.2054
31.3015
31.3901
31.4642
31.5295
31.5809
31.6384
31.6723
31.7442
31.4445
31.4574
31.49
31.5205
31.5405
31.5373
31.507
31.4572
31.3907
31.3198
31.2343
31.1563
31.0603
30.9945
30.9138
30.887
30.8376
30.8402
30.865
30.9061
30.9571
31.035
31.1109
31.1827
31.242
31.2944
31.3344
31.3817
31.4089
31.4799
31.3518
31.3734
31.4174
31.4594
31.4948
31.5063
31.498
31.4765
31.4429
31.4044
31.3526
31.3055
31.2411
31.2067
31.1668
31.1688
31.1244
31.1033
31.0864
31.0921
31.0876
31.1108
31.1349
31.1628
31.1889
31.2151
31.2381
31.2734
31.3008
31.3704
31.4741
31.4998
31.5559
31.6227
31.7006
31.7713
31.833
31.886
31.9277
31.9605
31.974
31.9883
31.9818
32.0178
32.059
32.1288
32.1217
32.1105
32.0556
32.013
31.9218
31.8378
31.7546
31.6792
31.6065
31.5426
31.4856
31.461
31.451
31.4923
33.0405
33.0336
33.0701
33.1506
33.2662
33.3917
33.5065
33.6039
33.6749
33.7242
33.743
33.76
33.7559
33.8026
33.8317
33.8995
33.9142
33.9554
33.9688
34.0038
34.0042
33.9627
33.8812
33.7732
33.6372
33.4881
33.3376
33.2132
33.1118
33.0865
35.915
35.848
35.8
35.7579
35.7205
35.6724
35.6106
35.5403
35.4629
35.3853
35.3012
35.2377
35.1745
35.1767
35.1733
35.2428
35.2788
35.366
35.4376
35.534
35.616
35.6916
35.7498
35.7965
35.8271
35.8518
35.87
35.894
35.9149
35.9669
37.9907
38.0199
38.0229
37.9525
37.87
37.8025
37.7399
37.6867
37.6448
37.6433
37.6559
37.7115
37.7798
37.9152
38.0384
38.2034
38.2819
38.3283
38.2659
38.1887
38.0902
38.0159
37.9593
37.9257
37.909
37.9071
37.9198
37.928
37.954
37.9517
37.9588
37.9594
37.9609
37.8988
37.8337
37.776
37.7155
37.6624
37.6196
37.6142
37.6208
37.669
37.7282
37.8517
37.9646
38.1219
38.2001
38.2512
38.1999
38.1342
38.0478
37.9829
37.933
37.9051
37.8921
37.8913
37.9041
37.9075
37.9299
37.9113
37.9246
37.8985
37.9003
37.8463
37.7959
37.7449
37.6851
37.6309
37.5857
37.5762
37.5767
37.6188
37.669
37.7813
37.8815
38.0298
38.106
38.1647
38.1263
38.0743
37.9999
37.9447
37.9004
37.8783
37.8688
37.8697
37.8839
37.8832
37.9033
37.8728
37.8952
37.8552
37.8548
37.8014
37.7555
37.7045
37.6447
37.5916
37.5446
37.5328
37.5288
37.5673
37.6101
37.7142
37.803
37.9453
38.0206
38.0865
38.0568
38.0157
37.9514
37.9048
37.8631
37.8461
37.8391
37.8409
37.8555
37.8527
37.8741
37.8431
37.8628
37.8187
37.8146
37.7605
37.7148
37.66
37.5998
37.5482
37.5002
37.4871
37.48
37.5165
37.5536
37.6517
37.7305
37.8686
37.9427
38.0166
37.9931
37.961
37.905
37.8659
37.8252
37.8115
37.8067
37.8094
37.8252
37.8229
37.8458
37.8176
37.8242
37.7828
37.7746
37.7207
37.6741
37.614
37.5532
37.5022
37.4532
37.4389
37.4301
37.4655
37.4979
37.5911
37.6614
37.7964
37.8693
37.9509
37.9327
37.9083
37.8589
37.826
37.7877
37.7749
37.7726
37.777
37.7947
37.7939
37.8164
37.7918
37.7793
37.7435
37.732
37.6776
37.6316
37.5668
37.503
37.453
37.4032
37.3876
37.3791
37.4132
37.441
37.53
37.5932
37.7265
37.7985
37.8869
37.8733
37.8556
37.8114
37.7833
37.749
37.737
37.7364
37.7424
37.7612
37.7614
37.7824
37.7619
37.7277
37.6977
37.684
37.6293
37.5829
37.5163
37.4489
37.3996
37.3502
37.3341
37.3242
37.3566
37.3804
37.4662
37.5232
37.6568
37.7279
37.8226
37.8128
37.8009
37.7601
37.7359
37.7068
37.6974
37.6972
37.7027
37.7213
37.7224
37.7419
37.7245
37.6685
37.6435
37.6278
37.5741
37.5237
37.4571
37.3893
37.3409
37.2925
37.2763
37.2621
37.293
37.3143
37.3983
37.45
37.5851
37.6552
37.7562
37.7486
37.7412
37.7027
37.6813
37.6581
37.651
37.6503
37.6546
37.6726
37.6744
37.6928
37.6769
37.5996
37.5779
37.5595
37.5064
37.4522
37.3854
37.3195
37.2729
37.2261
37.2096
37.1913
37.222
37.2416
37.3252
37.3722
37.5099
37.5786
37.686
37.6791
37.6747
37.6375
37.6181
37.5989
37.5923
37.5915
37.595
37.6122
37.6149
37.6324
37.6165
37.5175
37.4971
37.4739
37.4195
37.3639
37.298
37.2354
37.1907
37.1466
37.1313
37.1107
37.1424
37.1606
37.2451
37.2881
37.4306
37.4981
37.6122
37.6048
37.6019
37.5648
37.5456
37.5262
37.5189
37.5179
37.5203
37.5361
37.539
37.5554
37.5382
37.4193
37.3977
37.3687
37.3119
37.2549
37.1909
37.1326
37.0905
37.0509
37.0392
37.0191
37.0526
37.07
37.1569
37.1978
37.3477
37.4144
37.5354
37.5264
37.5236
37.4851
37.4648
37.4407
37.4297
37.4271
37.4276
37.4406
37.4422
37.4573
37.4393
37.3007
37.2753
37.2411
37.1824
37.1242
37.0624
37.0089
36.9702
36.9373
36.9324
36.9151
36.9515
36.9697
37.0615
37.1022
37.2612
37.3271
37.454
37.4429
37.4387
37.3972
37.3752
37.3428
37.3243
37.317
37.3143
37.3226
37.3222
37.3368
37.3183
37.1558
37.1246
37.086
37.0264
36.9683
36.9107
36.8631
36.8299
36.806
36.8111
36.7982
36.8396
36.8611
36.9597
37.0016
37.1707
37.2348
37.3661
37.3527
37.3455
37.2994
37.2755
37.2324
37.2024
37.1868
37.178
37.1796
37.1772
37.1907
37.1711
36.9843
36.9455
36.9023
36.8413
36.7847
36.7335
36.6941
36.6702
36.6588
36.6764
36.6691
36.7191
36.7458
36.8529
36.8962
37.0762
37.1376
37.2704
37.2555
37.2437
37.191
37.163
37.1087
37.0627
37.0363
37.0195
37.014
37.0081
37.019
36.9982
36.7845
36.7374
36.6899
36.6278
36.5745
36.5322
36.504
36.4944
36.4986
36.5286
36.529
36.5916
36.624
36.7419
36.7867
36.9788
37.037
37.1692
37.1521
37.1348
37.0732
37.035
36.9704
36.906
36.866
36.8385
36.8248
36.8139
36.8204
36.7989
36.5512
36.497
36.4464
36.386
36.3401
36.3106
36.2975
36.3057
36.3265
36.3665
36.381
36.4577
36.4954
36.6265
36.673
36.8789
36.934
37.0664
37.0447
37.0224
36.95
36.8933
36.8171
36.7353
36.6769
36.6345
36.6091
36.5907
36.5906
36.5688
36.2839
36.2243
36.1721
36.1177
36.0843
36.0717
36.0778
36.108
36.1432
36.1934
36.2291
36.3192
36.3614
36.5055
36.5518
36.7723
36.8251
36.96
36.933
36.9083
36.8238
36.7439
36.6498
36.5545
36.4727
36.4103
36.3686
36.3386
36.3291
36.3077
35.9875
35.9221
35.8718
35.827
35.8107
35.8208
35.8502
35.9028
35.9532
36.0207
36.0801
36.185
36.2313
36.3879
36.4312
36.6603
36.7086
36.8456
36.8117
36.786
36.6899
36.5878
36.4707
36.3638
36.257
36.1701
36.1081
36.0623
36.04
36.0214
35.6654
35.5949
35.5489
35.5219
35.5303
35.5672
35.6259
35.6995
35.7719
35.8638
35.9463
36.0671
36.1166
36.2862
36.3255
36.5599
36.5967
36.7296
36.6853
36.658
36.5488
36.4243
36.2812
36.1545
36.0251
35.9132
35.8295
35.7664
35.7292
35.7133
35.3134
35.2437
35.2183
35.2238
35.2644
35.3325
35.4201
35.5186
35.6188
35.737
35.8383
35.9747
36.0256
36.2074
36.2418
36.4844
36.5069
36.635
36.5805
36.5502
36.4253
36.2792
36.1059
35.945
35.7899
35.6484
35.5339
35.4473
35.3946
35.3782
34.9602
34.9129
34.9216
34.9615
35.0376
35.1382
35.2525
35.3785
35.5043
35.652
35.767
35.9155
35.9659
36.1576
36.1855
36.4388
36.4489
36.5766
36.5157
36.485
36.3468
36.1858
35.9788
35.7785
35.5898
35.4152
35.2634
35.1468
35.0677
35.037
34.6722
34.6576
34.6939
34.7644
34.8712
34.9985
35.1427
35.2975
35.4462
35.6187
35.7426
35.8978
35.9462
36.1451
36.1646
36.4307
36.4304
36.5606
36.4977
36.4695
36.3197
36.1471
35.916
35.6834
35.4558
35.2498
35.0645
34.9179
34.8072
34.7554
34.4888
34.4957
34.5545
34.6549
34.7897
34.9434
35.1069
35.2783
35.4403
35.6382
35.7697
35.9273
35.9705
36.1754
36.1848
36.4683
36.4614
36.595
36.5335
36.513
36.3549
36.1614
35.901
35.652
35.4012
35.1751
34.9589
34.7792
34.6406
34.5733
34.425
34.4476
34.5297
34.6495
34.8063
34.9873
35.1687
35.354
35.5307
35.727
35.8523
36.0083
36.0415
36.2526
36.2503
36.5574
36.5456
36.6827
36.624
36.6169
36.4575
36.266
35.9965
35.734
35.4535
35.1849
34.9479
34.7508
34.5948
34.504
34.5241
34.559
34.6639
34.8002
34.9669
35.1501
35.3362
35.5248
35.7007
35.8816
35.9899
36.1399
36.1606
36.3774
36.3637
36.698
36.684
36.8277
36.7723
36.7786
36.6296
36.4524
36.1922
35.9204
35.6406
35.3624
35.1092
34.8927
34.7121
34.5963
34.8146
34.852
34.9585
35.0903
35.2529
35.4265
35.607
35.7843
35.9404
36.0952
36.18
36.3169
36.3245
36.5478
36.5234
36.8919
36.8785
37.0418
36.9904
37.0019
36.8676
36.7106
36.473
36.2071
35.932
35.6606
35.4066
35.1899
35.0005
34.8809
35.249
35.2773
35.3763
35.4956
35.6449
35.805
35.9641
36.116
36.2435
36.3695
36.4293
36.5499
36.5452
36.7786
36.7459
37.1605
37.1517
37.3386
37.2921
37.3143
37.1995
37.0635
36.8463
36.5981
36.3276
36.0639
35.818
35.61
35.4265
35.3128
35.9924
35.9977
36.0669
36.1556
36.2657
36.3863
36.498
36.6028
36.6853
36.7708
36.7959
36.89
36.8677
37.1031
37.0571
37.521
37.5149
37.7289
37.7126
37.7719
37.6988
37.6089
37.4344
37.2267
36.9881
36.745
36.5153
36.3254
36.16
36.0609
37.1582
37.127
37.1209
37.1246
37.1415
37.1636
37.1785
37.1942
37.1943
37.2118
37.1894
37.2466
37.2002
37.4291
37.3744
37.8932
37.8991
38.1533
38.1802
38.2833
38.2573
38.222
38.1138
37.9825
37.8249
37.658
37.4997
37.3886
37.2915
37.2366
38.2269
38.2615
38.2698
38.223
38.1607
38.1072
38.0601
38.0298
38.0084
38.0227
38.0464
38.1196
38.1983
38.3663
38.5207
38.7337
38.8296
38.8772
38.7842
38.671
38.5302
38.4212
38.3296
38.2683
38.2267
38.203
38.1931
38.1852
38.1955
38.1843
38.1865
38.2004
38.2079
38.1666
38.1149
38.0678
38.024
37.9958
37.9751
37.9876
38.0076
38.0744
38.1454
38.3006
38.4411
38.6411
38.7338
38.7847
38.7045
38.6054
38.479
38.3797
38.2954
38.2389
38.2012
38.179
38.1692
38.1567
38.1654
38.1404
38.1403
38.1325
38.141
38.1053
38.0632
38.0214
37.9798
37.9523
37.9298
37.9396
37.9543
38.0152
38.0764
38.2177
38.3409
38.5266
38.6138
38.6722
38.608
38.5258
38.4142
38.3267
38.2508
38.2003
38.1665
38.1463
38.1379
38.122
38.1299
38.0945
38.1062
38.0852
38.093
38.058
38.0212
37.9805
37.9391
37.9113
37.8863
37.8943
37.9041
37.9601
38.0124
38.1431
38.2502
38.4247
38.5079
38.5728
38.5194
38.4511
38.3522
38.2754
38.2075
38.163
38.1331
38.1153
38.1091
38.0933
38.1015
38.0642
38.0741
38.0483
38.054
38.0183
37.9848
37.9434
37.9011
37.872
37.8445
37.8509
37.8561
37.9083
37.9526
38.0755
38.1684
38.3345
38.4136
38.4859
38.4404
38.3839
38.2955
38.2281
38.1672
38.1282
38.1019
38.0867
38.0829
38.0681
38.0763
38.0406
38.0417
38.0169
38.0195
37.9837
37.9517
37.9088
37.864
37.8329
37.8029
37.8081
37.8088
37.858
37.8953
38.0126
38.0931
38.2534
38.3286
38.4086
38.3693
38.3228
38.2431
38.184
38.1288
38.0946
38.0718
38.0591
38.0577
38.0445
38.052
38.0198
38.0093
37.988
37.9875
37.9518
37.92
37.8753
37.8274
37.7943
37.7619
37.7659
37.7625
37.8092
37.8403
37.954
38.0241
38.181
38.2525
38.3395
38.3054
38.2674
38.1948
38.1424
38.0921
38.0618
38.0423
38.0318
38.0323
38.0207
38.0273
37.999
37.9767
37.9592
37.9562
37.9207
37.8873
37.8411
37.7911
37.7563
37.7218
37.725
37.7176
37.7623
37.7881
37.8996
37.9612
38.117
38.1849
38.2779
38.2482
38.2171
38.1502
38.1033
38.0569
38.0295
38.0124
38.0036
38.0056
37.9954
38.001
37.9758
37.9433
37.9291
37.9243
37.8889
37.8529
37.8055
37.7549
37.7194
37.6835
37.6858
37.6749
37.7181
37.7393
37.8503
37.9049
38.0618
38.1258
38.2237
38.1974
38.1715
38.1088
38.0664
38.0228
37.9973
37.9813
37.9736
37.9765
37.9673
37.9719
37.9486
37.9081
37.8961
37.8898
37.8541
37.8164
37.7687
37.7187
37.6838
37.647
37.649
37.6352
37.6776
37.6948
37.8073
37.8559
38.0156
38.075
38.1774
38.1528
38.1307
38.0701
38.0308
37.9888
37.9644
37.9486
37.9411
37.9439
37.935
37.9389
37.9159
37.8695
37.8577
37.85
37.8142
37.7764
37.7297
37.6819
37.6489
37.6121
37.6145
37.5988
37.6416
37.6551
37.7718
37.8144
37.9786
38.0327
38.139
38.1145
38.0946
38.0341
37.996
37.9542
37.9297
37.9131
37.9047
37.906
37.8969
37.9002
37.876
37.8247
37.8113
37.8029
37.7676
37.7309
37.6869
37.643
37.6133
37.5777
37.5815
37.5653
37.61
37.6204
37.7431
37.7797
37.9502
37.999
38.109
38.0822
38.063
38.0004
37.9616
37.918
37.892
37.8734
37.8627
37.8611
37.8512
37.8539
37.8275
37.7712
37.7548
37.7467
37.7127
37.6784
37.6388
37.6001
37.5752
37.542
37.5488
37.5332
37.5816
37.5895
37.7196
37.7495
37.928
37.9716
38.0859
38.0553
38.0357
37.9686
37.9269
37.8794
37.85
37.8282
37.8138
37.808
37.7967
37.7988
37.7695
37.7063
37.6861
37.6794
37.6475
37.6172
37.5835
37.5513
37.5329
37.5035
37.5143
37.501
37.5547
37.5603
37.6984
37.7201
37.9078
37.9462
38.0658
38.0319
38.0113
37.9377
37.8912
37.8377
37.8032
37.7764
37.7567
37.7455
37.7318
37.7329
37.7005
37.6273
37.6033
37.5989
37.5703
37.5456
37.5194
37.495
37.4845
37.4602
37.4761
37.4662
37.527
37.5298
37.6756
37.6866
37.8841
37.918
38.0449
38.0083
37.9879
37.9066
37.8535
37.7921
37.7512
37.7176
37.6906
37.6726
37.6551
37.6541
37.6186
37.533
37.5057
37.5042
37.4801
37.4628
37.4455
37.4301
37.4287
37.4111
37.4329
37.4275
37.4964
37.4947
37.6466
37.6442
37.8513
37.8812
38.0188
37.9803
37.9632
37.8738
37.8132
37.7421
37.6935
37.6513
37.6153
37.5889
37.5658
37.5616
37.5233
37.422
37.3929
37.3949
37.377
37.3687
37.3618
37.3564
37.3644
37.3556
37.3843
37.384
37.4612
37.4522
37.6084
37.5882
37.805
37.8306
37.9828
37.9433
37.9338
37.838
37.7699
37.6878
37.6302
37.5773
37.5308
37.4945
37.4637
37.4548
37.4144
37.2942
37.2656
37.2718
37.2626
37.2649
37.2691
37.2743
37.2924
37.2944
37.3314
37.3357
37.4207
37.4008
37.5584
37.5172
37.7434
37.7633
37.9334
37.8941
37.8969
37.7978
37.7237
37.6298
37.5618
37.4965
37.4379
37.3904
37.3494
37.334
37.2922
37.1512
37.1265
37.1382
37.1398
37.153
37.1686
37.1851
37.2151
37.2293
37.2767
37.2843
37.376
37.3409
37.4975
37.4315
37.667
37.6793
37.8692
37.8319
37.8504
37.7524
37.675
37.5695
37.4891
37.4102
37.3387
37.2788
37.2255
37.2009
37.1586
36.9986
36.9803
36.9985
37.0109
37.0359
37.0641
37.0936
37.1376
37.1651
37.2239
37.2333
37.3296
37.2747
37.4285
37.3336
37.5783
37.5811
37.7915
37.7578
37.7938
37.702
37.6245
37.5084
37.4137
37.3206
37.2358
37.1629
37.0964
37.0597
37.0179
36.8424
36.8314
36.8565
36.8816
36.9211
36.9631
37.0058
37.0666
37.1079
37.1777
37.1872
37.2852
37.2064
37.3564
37.2278
37.4823
37.4741
37.7044
37.6744
37.729
37.6478
37.574
37.4493
37.3391
37.2309
37.1324
37.0461
36.9669
36.9152
36.8749
36.6905
36.6876
36.7221
36.7642
36.8193
36.8754
36.9329
37.011
37.0654
37.1452
37.1515
37.2476
37.1416
37.2877
37.1196
37.3842
37.3648
37.6151
37.5887
37.6618
37.5945
37.5275
37.398
37.2745
37.1487
37.035
36.9352
36.844
36.7748
36.7349
36.5588
36.5634
36.613
36.6737
36.7428
36.8128
36.8917
36.9828
37.0477
37.1323
37.1312
37.2226
37.0856
37.2285
37.0146
37.2911
37.261
37.5322
37.5092
37.5993
37.5478
37.4906
37.3614
37.2308
37.0896
36.9572
36.8424
36.7398
36.6526
36.6094
36.4644
36.4798
36.548
36.6221
36.7083
36.7883
36.8822
36.9878
37.057
37.1423
37.1277
37.2141
37.0423
37.1825
36.9178
37.21
37.1706
37.4641
37.4446
37.5502
37.5144
37.4702
37.342
37.2085
37.0588
36.9162
36.7876
36.6713
36.5649
36.5158
36.4346
36.4604
36.5343
36.6154
36.7082
36.8096
36.9245
37.0432
37.1009
37.1777
37.1478
37.2244
37.0137
37.153
36.8327
37.1461
37.1003
37.414
37.4022
37.5234
37.5022
37.4735
37.3567
37.2259
37.0676
36.9106
36.7714
36.651
36.5394
36.4773
36.4962
36.5191
36.5909
36.6722
36.7721
36.8929
37.0171
37.1314
37.172
37.236
37.1892
37.2526
36.9992
37.1354
36.7609
37.1036
37.0537
37.3842
37.3837
37.5267
37.5184
37.5162
37.419
37.3
37.1484
36.9876
36.8371
36.711
36.6024
36.5257
36.6475
36.6595
36.7215
36.7984
36.9066
37.0351
37.1501
37.2441
37.2679
37.3143
37.2484
37.2943
36.9994
37.1291
36.7015
37.087
37.0324
37.3899
37.3982
37.5636
37.5722
37.5927
37.5231
37.4255
37.2827
37.1248
36.9743
36.8443
36.7401
36.6687
36.8685
36.8813
36.9425
37.0139
37.108
37.2187
37.3079
37.377
37.3824
37.4073
37.319
37.3433
37.0061
37.1372
36.6568
37.0999
37.0406
37.4308
37.4515
37.6408
37.6692
37.7124
37.6766
37.6079
37.4859
37.3381
37.1888
37.0583
36.9553
36.8984
37.2157
37.2152
37.2536
37.3013
37.3626
37.4379
37.4904
37.5266
37.5088
37.5066
37.3905
37.3897
37.0144
37.1505
36.6257
37.1238
37.075
37.4948
37.5304
37.7508
37.8063
37.8791
37.8825
37.8522
37.7667
37.6511
37.5218
37.4061
37.3084
37.2613
37.6407
37.615
37.608
37.6162
37.6407
37.6705
37.6756
37.6714
37.6213
37.5895
37.4353
37.4084
36.999
37.1445
36.5897
37.1334
37.1231
37.568
37.6239
37.8696
37.9554
38.0612
38.0994
38.1099
38.0657
37.992
37.9
37.8175
37.7466
37.71
38.4793
38.5075
38.5163
38.4877
38.4486
38.4139
38.3826
38.3739
38.372
38.4023
38.4359
38.537
38.6336
38.8798
39.1117
39.4656
39.6253
39.6863
39.5264
39.3319
39.0967
38.9162
38.7632
38.6547
38.5751
38.5211
38.488
38.461
38.4514
38.4252
38.4321
38.4453
38.4558
38.4339
38.4039
38.3746
38.3472
38.3419
38.3416
38.3711
38.4026
38.4982
38.5865
38.8159
39.0257
39.3563
39.5086
39.5737
39.4336
39.2592
39.0439
38.8769
38.7317
38.6288
38.5529
38.4997
38.4665
38.4354
38.4242
38.3842
38.376
38.3758
38.3883
38.3713
38.3483
38.3234
38.2995
38.2972
38.2972
38.3265
38.3546
38.4457
38.5241
38.7389
38.9245
39.2301
39.3689
39.4414
39.324
39.174
38.9782
38.8252
38.6888
38.5913
38.5185
38.4659
38.433
38.3982
38.3868
38.338
38.3328
38.3238
38.3355
38.3188
38.2994
38.2768
38.255
38.2549
38.2542
38.2838
38.3081
38.3962
38.4652
38.6708
38.8356
39.1262
39.2578
39.3386
39.2344
39.1025
38.9205
38.7783
38.6487
38.5558
38.4856
38.4337
38.4012
38.3651
38.3535