/*--------------------------------*- C++ -*----------------------------------*\
  =========                 |
  \\      /  F ield         | OpenFOAM: The Open Source CFD Toolbox
   \\    /   O peration     | Website:  https://openfoam.org
    \\  /    A nd           | Version:  12
     \\/     M anipulation  |
\*---------------------------------------------------------------------------*/
FoamFile
{
    format      ascii;
    class       volScalarField;
    location    "250/porous";
    object      rho;
}
// * * * * * * * * * * * * * * * * * * * * * * * * * * * * * * * * * * * * * //

dimensions      [1 -3 0 0 0 0 0];

internalField   nonuniform List<scalar> 
140000
(
933.891
933.891
933.891
933.891
933.891
933.891
933.891
933.891
933.892
933.899
934.194
934.421
934.62
934.807
934.985
935.158
935.329
935.497
935.666
935.84
936.021
936.219
936.442
936.703
937.017
937.399
937.864
938.424
939.088
939.86
940.738
941.72
942.798
943.967
945.217
946.54
947.926
949.363
950.838
952.338
953.848
955.355
956.845
958.307
959.728
961.099
962.411
963.659
964.836
965.94
966.967
967.916
968.787
969.582
970.303
970.952
971.533
972.05
972.507
972.902
973.088
973.281
973.455
973.605
973.729
973.832
973.913
973.976
974.023
974.054
933.891
933.891
933.891
933.891
933.891
933.891
933.891
933.891
933.891
933.896
934.123
934.302
934.462
934.612
934.756
934.897
935.035
935.172
935.308
935.444
935.583
935.728
935.883
936.052
936.244
936.465
936.724
937.029
937.387
937.807
938.295
938.857
939.496
940.216
941.019
941.906
942.877
943.928
945.055
946.253
947.512
948.822
950.174
951.555
952.953
954.358
955.759
957.146
958.51
959.842
961.134
962.379
963.57
964.702
965.771
966.772
967.705
968.567
969.358
970.076
970.609
971.114
971.571
971.979
972.337
972.649
972.918
973.146
973.338
973.493
933.891
933.891
933.891
933.891
933.891
933.891
933.891
933.891
933.891
933.895
934.104
934.265
934.407
934.539
934.664
934.785
934.904
935.019
935.134
935.247
935.36
935.473
935.59
935.711
935.839
935.978
936.132
936.306
936.505
936.736
937.007
937.323
937.694
938.126
938.626
939.202
939.858
940.6
941.427
942.34
943.336
944.412
945.56
946.775
948.046
949.367
950.727
952.115
953.523
954.938
956.35
957.748
959.122
960.462
961.758
963.002
964.186
965.307
966.357
967.333
968.126
968.88
969.576
970.209
970.779
971.286
971.734
972.126
972.466
972.749
933.891
933.891
933.891
933.891
933.891
933.891
933.891
933.891
933.891
933.895
934.1
934.257
934.393
934.519
934.637
934.751
934.861
934.968
935.073
935.176
935.278
935.379
935.481
935.583
935.689
935.799
935.918
936.047
936.191
936.357
936.55
936.777
937.046
937.367
937.746
938.193
938.715
939.319
940.008
940.786
941.652
942.605
943.642
944.759
945.949
947.206
948.521
949.884
951.285
952.714
954.158
955.604
957.042
958.459
959.843
961.185
962.475
963.706
964.87
965.96
966.868
967.735
968.541
969.28
969.95
970.553
971.089
971.563
971.978
972.327
933.891
933.891
933.891
933.891
933.891
933.891
933.891
933.891
933.891
933.895
934.099
934.255
934.39
934.514
934.63
934.741
934.849
934.953
935.055
935.154
935.252
935.349
935.445
935.541
935.639
935.741
935.848
935.964
936.093
936.238
936.407
936.606
936.843
937.127
937.466
937.869
938.344
938.899
939.538
940.266
941.084
941.992
942.988
944.069
945.23
946.463
947.761
949.116
950.515
951.949
953.404
954.867
956.327
957.77
959.184
960.559
961.884
963.152
964.354
965.483
966.429
967.335
968.178
968.953
969.658
970.293
970.86
971.362
971.802
972.175
933.891
933.891
933.891
933.891
933.891
933.891
933.891
933.891
933.891
933.895
934.1
934.256
934.391
934.514
934.63
934.74
934.847
934.95
935.051
935.15
935.246
935.341
935.436
935.53
935.627
935.726
935.83
935.942
936.066
936.206
936.368
936.559
936.787
937.06
937.386
937.775
938.235
938.774
939.397
940.109
940.911
941.806
942.79
943.862
945.015
946.244
947.54
948.894
950.296
951.733
953.194
954.664
956.132
957.584
959.008
960.393
961.728
963.006
964.219
965.359
966.315
967.231
968.084
968.869
969.583
970.226
970.801
971.31
971.757
972.135
933.891
933.891
933.891
933.891
933.891
933.891
933.891
933.891
933.891
933.895
934.101
934.257
934.392
934.515
934.631
934.742
934.848
934.951
935.052
935.15
935.246
935.341
935.435
935.529
935.625
935.724
935.828
935.939
936.062
936.201
936.361
936.55
936.775
937.045
937.367
937.752
938.206
938.74
939.357
940.063
940.861
941.751
942.732
943.801
944.953
946.182
947.479
948.835
950.239
951.679
953.143
954.617
956.088
957.543
958.97
960.358
961.696
962.977
964.192
965.334
966.293
967.211
968.067
968.853
969.569
970.214
970.79
971.301
971.749
972.128
933.891
933.891
933.891
933.891
933.891
933.891
933.891
933.891
933.891
933.895
934.101
934.259
934.394
934.517
934.633
934.744
934.85
934.953
935.054
935.152
935.248
935.343
935.437
935.532
935.628
935.727
935.831
935.943
936.066
936.205
936.365
936.554
936.779
937.048
937.369
937.753
938.206
938.737
939.352
940.057
940.852
941.741
942.721
943.79
944.943
946.172
947.47
948.827
950.233
951.674
953.139
954.614
956.086
957.542
958.97
960.358
961.697
962.978
964.194
965.335
966.294
967.212
968.068
968.854
969.57
970.215
970.791
971.301
971.75
972.129
933.891
933.891
933.891
933.891
933.891
933.891
933.891
933.891
933.891
933.895
934.102
934.26
934.395
934.519
934.635
934.745
934.852
934.955
935.056
935.154
935.251
935.346
935.44
935.535
935.632
935.731
935.836
935.948
936.071
936.21
936.371
936.561
936.786
937.055
937.377
937.759
938.212
938.742
939.357
940.059
940.854
941.742
942.721
943.789
944.942
946.171
947.47
948.828
950.234
951.676
953.142
954.618
956.09
957.546
958.975
960.363
961.702
962.983
964.198
965.339
966.298
967.215
968.071
968.857
969.572
970.217
970.793
971.303
971.751
972.13
933.891
933.891
933.891
933.891
933.891
933.891
933.891
933.891
933.891
933.895
934.103
934.261
934.396
934.52
934.636
934.747
934.854
934.958
935.058
935.157
935.254
935.349
935.444
935.539
935.636
935.736
935.84
935.953
936.077
936.217
936.378
936.568
936.794
937.064
937.386
937.769
938.222
938.751
939.365
940.067
940.861
941.747
942.726
943.794
944.946
946.176
947.475
948.833
950.239
951.682
953.148
954.624
956.096
957.553
958.981
960.369
961.708
962.988
964.203
965.343
966.302
967.219
968.074
968.86
969.575
970.219
970.795
971.305
971.753
972.131
933.891
933.891
933.891
933.891
933.891
933.891
933.891
933.891
933.891
933.895
934.103
934.261
934.397
934.521
934.638
934.749
934.856
934.959
935.06
935.159
935.256
935.351
935.446
935.542
935.639
935.739
935.845
935.958
936.082
936.222
936.385
936.575
936.802
937.072
937.394
937.777
938.23
938.759
939.372
940.074
940.866
941.752
942.73
943.797
944.948
946.178
947.477
948.835
950.241
951.684
953.15
954.626
956.099
957.555
958.984
960.372
961.71
962.99
964.205
965.345
966.304
967.221
968.075
968.861
969.576
970.22
970.796
971.306
971.754
972.132
933.891
933.891
933.891
933.891
933.891
933.891
933.891
933.891
933.891
933.895
934.104
934.262
934.398
934.523
934.639
934.75
934.857
934.961
935.062
935.161
935.258
935.354
935.449
935.545
935.642
935.743
935.848
935.962
936.087
936.228
936.391
936.582
936.809
937.079
937.402
937.786
938.238
938.767
939.38
940.08
940.872
941.757
942.734
943.8
944.951
946.18
947.479
948.837
950.243
951.686
953.152
954.628
956.101
957.558
958.986
960.374
961.712
962.992
964.206
965.347
966.305
967.222
968.076
968.862
969.576
970.22
970.796
971.306
971.754
972.132
933.891
933.891
933.891
933.891
933.891
933.891
933.891
933.891
933.891
933.895
934.104
934.263
934.399
934.523
934.64
934.751
934.858
934.962
935.064
935.163
935.26
935.356
935.451
935.547
935.645
935.746
935.852
935.965
936.091
936.232
936.395
936.587
936.815
937.086
937.409
937.792
938.245
938.774
939.385
940.085
940.876
941.76
942.735
943.801
944.951
946.179
947.478
948.836
950.242
951.685
953.151
954.627
956.1
957.557
958.985
960.373
961.712
962.992
964.206
965.346
966.304
967.221
968.076
968.861
969.576
970.22
970.796
971.306
971.754
972.132
933.891
933.891
933.891
933.891
933.891
933.891
933.891
933.891
933.891
933.895
934.104
934.263
934.4
934.524
934.641
934.752
934.859
934.963
935.065
935.164
935.261
935.358
935.453
935.549
935.647
935.748
935.854
935.968
936.094
936.236
936.4
936.592
936.82
937.091
937.414
937.798
938.251
938.779
939.39
940.089
940.879
941.762
942.737
943.801
944.951
946.178
947.476
948.834
950.24
951.682
953.149
954.625
956.098
957.555
958.983
960.371
961.71
962.99
964.204
965.345
966.303
967.22
968.074
968.86
969.575
970.219
970.795
971.305
971.753
972.132
933.891
933.891
933.891
933.891
933.891
933.891
933.891
933.891
933.891
933.895
934.105
934.264
934.4
934.525
934.641
934.753
934.86
934.964
935.066
935.165
935.263
935.359
935.455
935.551
935.649
935.75
935.856
935.971
936.097
936.239
936.403
936.596
936.824
937.096
937.419
937.803
938.255
938.783
939.394
940.092
940.881
941.762
942.736
943.799
944.948
946.175
947.472
948.829
950.235
951.678
953.144
954.62
956.093
957.55
958.979
960.368
961.706
962.987
964.201
965.342
966.3
967.217
968.072
968.858
969.573
970.217
970.793
971.304
971.752
972.131
933.891
933.891
933.891
933.891
933.891
933.891
933.891
933.891
933.891
933.895
934.105
934.264
934.4
934.525
934.642
934.753
934.86
934.965
935.066
935.166
935.263
935.36
935.456
935.552
935.65
935.751
935.858
935.972
936.099
936.242
936.406
936.599
936.827
937.099
937.423
937.807
938.259
938.786
939.396
940.093
940.881
941.762
942.735
943.797
944.945
946.171
947.467
948.824
950.23
951.672
953.138
954.615
956.088
957.545
958.974
960.363
961.702
962.982
964.197
965.338
966.297
967.214
968.069
968.855
969.571
970.215
970.791
971.302
971.75
972.129
933.891
933.891
933.891
933.891
933.891
933.891
933.891
933.891
933.891
933.895
934.105
934.264
934.401
934.525
934.642
934.753
934.86
934.965
935.066
935.166
935.264
935.36
935.457
935.553
935.651
935.752
935.859
935.974
936.1
936.243
936.408
936.601
936.83
937.102
937.426
937.809
938.261
938.788
939.397
940.094
940.881
941.76
942.732
943.793
944.939
946.165
947.461
948.817
950.223
951.665
953.131
954.607
956.081
957.538
958.967
960.356
961.695
962.976
964.191
965.333
966.292
967.21
968.065
968.852
969.567
970.213
970.789
971.3
971.749
972.128
933.891
933.891
933.891
933.891
933.891
933.891
933.891
933.891
933.891
933.895
934.105
934.264
934.401
934.525
934.642
934.753
934.86
934.965
935.066
935.166
935.264
935.361
935.457
935.554
935.652
935.753
935.859
935.974
936.101
936.245
936.41
936.604
936.833
937.104
937.428
937.811
938.262
938.789
939.398
940.093
940.879
941.757
942.728
943.788
944.934
946.158
947.453
948.809
950.214
951.656
953.122
954.599
956.072
957.53
958.959
960.349
961.688
962.97
964.185
965.327
966.287
967.205
968.061
968.848
969.564
970.209
970.786
971.298
971.747
972.126
933.891
933.891
933.891
933.891
933.891
933.891
933.891
933.891
933.891
933.895
934.105
934.264
934.401
934.525
934.641
934.753
934.86
934.964
935.066
935.166
935.264
935.361
935.457
935.554
935.652
935.753
935.86
935.975
936.102
936.246
936.411
936.605
936.834
937.106
937.429
937.811
938.262
938.789
939.397
940.091
940.876
941.753
942.722
943.781
944.926
946.15
947.444
948.799
950.204
951.646
953.112
954.588
956.062
957.52
958.949
960.339
961.68
962.962
964.178
965.321
966.281
967.199
968.056
968.843
969.56
970.206
970.783
971.295
971.744
972.124
933.891
933.891
933.891
933.891
933.891
933.891
933.891
933.891
933.891
933.895
934.105
934.264
934.401
934.525
934.641
934.753
934.86
934.964
935.066
935.166
935.264
935.361
935.457
935.554
935.652
935.753
935.86
935.975
936.103
936.246
936.412
936.606
936.835
937.106
937.429
937.811
938.261
938.786
939.394
940.088
940.871
941.747
942.716
943.774
944.917
946.14
947.434
948.788
950.193
951.634
953.1
954.577
956.051
957.509
958.939
960.329
961.67
962.953
964.17
965.313
966.274
967.193
968.05
968.838
969.555
970.202
970.78
971.292
971.742
972.122
933.891
933.891
933.891
933.891
933.891
933.891
933.891
933.891
933.891
933.895
934.105
934.263
934.4
934.524
934.641
934.752
934.86
934.964
935.066
935.166
935.264
935.361
935.457
935.554
935.652
935.753
935.86
935.975
936.103
936.247
936.412
936.606
936.834
937.105
937.427
937.809
938.258
938.783
939.39
940.082
940.865
941.74
942.707
943.764
944.907
946.129
947.422
948.776
950.18
951.621
953.087
954.563
956.038
957.496
958.927
960.318
961.659
962.942
964.16
965.305
966.266
967.186
968.044
968.833
969.55
970.197
970.776
971.288
971.739
972.119
933.891
933.891
933.891
933.891
933.891
933.891
933.891
933.891
933.891
933.895
934.105
934.263
934.4
934.524
934.64
934.752
934.86
934.964
935.066
935.166
935.264
935.361
935.457
935.554
935.652
935.753
935.86
935.976
936.103
936.247
936.413
936.606
936.834
937.104
937.426
937.807
938.255
938.779
939.384
940.076
940.858
941.732
942.698
943.754
944.895
946.116
947.408
948.762
950.165
951.606
953.072
954.549
956.024
957.483
958.914
960.305
961.648
962.932
964.15
965.295
966.258
967.179
968.037
968.827
969.545
970.193
970.771
971.285
971.735
972.116
933.891
933.891
933.891
933.891
933.891
933.891
933.891
933.891
933.891
933.895
934.104
934.263
934.399
934.523
934.64
934.752
934.86
934.965
935.067
935.167
935.265
935.362
935.458
935.554
935.653
935.754
935.861
935.976
936.104
936.247
936.413
936.605
936.833
937.103
937.424
937.804
938.252
938.775
939.379
940.07
940.851
941.723
942.688
943.743
944.883
946.103
947.394
948.747
950.15
951.591
953.057
954.534
956.009
957.468
958.9
960.293
961.636
962.92
964.14
965.286
966.249
967.171
968.03
968.82
969.539
970.188
970.767
971.281
971.732
972.114
933.891
933.891
933.891
933.891
933.891
933.891
933.891
933.891
933.891
933.895
934.104
934.262
934.398
934.523
934.64
934.752
934.86
934.965
935.068
935.168
935.266
935.363
935.459
935.556
935.654
935.755
935.862
935.977
936.105
936.248
936.413
936.605
936.832
937.102
937.422
937.802
938.249
938.77
939.374
940.064
940.843
941.715
942.679
943.732
944.872
946.091
947.381
948.734
950.136
951.577
953.043
954.52
955.995
957.455
958.887
960.28
961.624
962.91
964.13
965.277
966.241
967.164
968.024
968.814
969.534
970.183
970.763
971.277
971.729
972.111
933.891
933.891
933.891
933.891
933.891
933.891
933.891
933.891
933.891
933.895
934.104
934.262
934.398
934.523
934.64
934.752
934.86
934.966
935.068
935.169
935.267
935.364
935.46
935.557
935.655
935.756
935.863
935.979
936.106
936.249
936.413
936.605
936.832
937.101
937.421
937.8
938.246
938.768
939.37
940.059
940.838
941.709
942.672
943.725
944.864
946.082
947.372
948.724
950.126
951.567
953.033
954.51
955.986
957.446
958.879
960.272
961.616
962.903
964.124
965.272
966.236
967.159
968.019
968.811
969.531
970.18
970.76
971.275
971.727
972.109
933.891
933.891
933.891
933.891
933.891
933.891
933.891
933.891
933.891
933.895
934.103
934.261
934.398
934.522
934.64
934.753
934.861
934.967
935.07
935.17
935.268
935.366
935.462
935.559
935.657
935.758
935.865
935.98
936.107
936.25
936.414
936.606
936.833
937.102
937.421
937.801
938.247
938.768
939.371
940.06
940.839
941.71
942.673
943.725
944.864
946.082
947.372
948.723
950.126
951.566
953.032
954.51
955.985
957.445
958.878
960.271
961.616
962.902
964.124
965.272
966.236
967.159
968.02
968.811
969.531
970.18
970.761
971.275
971.727
972.109
933.891
933.891
933.891
933.891
933.891
933.891
933.891
933.891
933.891
933.895
934.103
934.261
934.397
934.522
934.64
934.752
934.861
934.967
935.07
935.171
935.269
935.367
935.463
935.56
935.659
935.76
935.867
935.982
936.108
936.251
936.416
936.608
936.834
937.103
937.424
937.803
938.25
938.772
939.375
940.065
940.845
941.716
942.68
943.733
944.872
946.09
947.38
948.732
950.135
951.576
953.041
954.518
955.994
957.454
958.886
960.279
961.623
962.909
964.13
965.278
966.242
967.164
968.024
968.815
969.535
970.184
970.764
971.278
971.729
972.111
933.891
933.891
933.891
933.891
933.891
933.891
933.891
933.891
933.891
933.895
934.103
934.261
934.397
934.522
934.64
934.753
934.862
934.968
935.071
935.171
935.27
935.368
935.464
935.561
935.66
935.761
935.868
935.983
936.109
936.252
936.417
936.609
936.836
937.106
937.426
937.806
938.254
938.777
939.381
940.072
940.852
941.725
942.69
943.744
944.883
946.102
947.393
948.746
950.148
951.589
953.055
954.532
956.007
957.466
958.898
960.291
961.634
962.92
964.14
965.287
966.25
967.172
968.031
968.821
969.54
970.189
970.768
971.282
971.733
972.114
933.891
933.891
933.891
933.891
933.891
933.891
933.891
933.891
933.891
933.895
934.103
934.26
934.397
934.522
934.64
934.753
934.862
934.968
935.071
935.172
935.271
935.368
935.465
935.562
935.661
935.762
935.869
935.984
936.11
936.253
936.418
936.61
936.838
937.108
937.429
937.81
938.258
938.782
939.387
940.079
940.861
941.734
942.7
943.755
944.896
946.116
947.407
948.76
950.163
951.604
953.07
954.546
956.021
957.48
958.911
960.304
961.646
962.931
964.151
965.298
966.26
967.18
968.039
968.828
969.546
970.194
970.773
971.286
971.737
972.118
933.891
933.891
933.891
933.891
933.891
933.891
933.891
933.891
933.891
933.895
934.103
934.26
934.397
934.522
934.64
934.753
934.862
934.968
935.071
935.172
935.271
935.368
935.465
935.562
935.661
935.762
935.869
935.984
936.11
936.253
936.418
936.611
936.838
937.109
937.431
937.812
938.261
938.786
939.392
940.085
940.868
941.743
942.709
943.766
944.907
946.128
947.421
948.774
950.178
951.619
953.084
954.561
956.035
957.494
958.925
960.316
961.658
962.943
964.162
965.307
966.269
967.189
968.046
968.835
969.552
970.199
970.778
971.29
971.74
972.121
933.891
933.891
933.891
933.891
933.891
933.891
933.891
933.891
933.891
933.895
934.102
934.26
934.396
934.522
934.64
934.753
934.862
934.968
935.071
935.172
935.27
935.368
935.465
935.562
935.661
935.762
935.869
935.983
936.11
936.252
936.417
936.611
936.839
937.11
937.432
937.814
938.264
938.789
939.397
940.091
940.874
941.75
942.718
943.775
944.918
946.14
947.434
948.788
950.192
951.633
953.098
954.575
956.049
957.507
958.937
960.328
961.67
962.954
964.172
965.317
966.277
967.196
968.053
968.841
969.558
970.204
970.782
971.294
971.744
972.124
933.891
933.891
933.891
933.891
933.891
933.891
933.891
933.891
933.891
933.895
934.102
934.26
934.396
934.521
934.64
934.753
934.862
934.967
935.07
935.171
935.27
935.368
935.464
935.562
935.66
935.762
935.868
935.982
936.109
936.251
936.416
936.609
936.838
937.109
937.432
937.814
938.265
938.791
939.4
940.094
940.879
941.756
942.725
943.784
944.928
946.151
947.445
948.8
950.204
951.646
953.111
954.588
956.061
957.519
958.949
960.34
961.681
962.964
964.181
965.326
966.285
967.204
968.06
968.847
969.563
970.209
970.786
971.297
971.747
972.126
933.891
933.891
933.891
933.891
933.891
933.891
933.891
933.891
933.891
933.895
934.102
934.259
934.396
934.521
934.639
934.752
934.861
934.967
935.07
935.17
935.269
935.367
935.464
935.561
935.659
935.76
935.867
935.981
936.107
936.25
936.414
936.607
936.836
937.107
937.43
937.814
938.265
938.792
939.401
940.096
940.883
941.761
942.731
943.791
944.936
946.16
947.455
948.811
950.216
951.657
953.123
954.599
956.073
957.53
958.96
960.35
961.69
962.973
964.19
965.334
966.292
967.21
968.066
968.852
969.568
970.213
970.79
971.301
971.749
972.129
933.891
933.891
933.891
933.891
933.891
933.891
933.891
933.891
933.891
933.895
934.101
934.259
934.396
934.521
934.639
934.752
934.861
934.966
935.069
935.169
935.268
935.365
935.462
935.559
935.658
935.759
935.865
935.979
936.105
936.247
936.412
936.604
936.833
937.105
937.428
937.812
938.264
938.791
939.401
940.097
940.884
941.764
942.735
943.797
944.943
946.168
947.464
948.82
950.225
951.667
953.133
954.609
956.083
957.54
958.969
960.359
961.699
962.981
964.197
965.341
966.299
967.216
968.071
968.857
969.572
970.217
970.793
971.303
971.752
972.131
933.891
933.891
933.891
933.891
933.891
933.891
933.891
933.891
933.891
933.895
934.101
934.259
934.395
934.52
934.638
934.751
934.86
934.965
935.068
935.168
935.266
935.364
935.46
935.557
935.656
935.757
935.863
935.977
936.103
936.245
936.409
936.601
936.829
937.101
937.425
937.809
938.261
938.789
939.4
940.097
940.885
941.766
942.739
943.801
944.949
946.175
947.471
948.828
950.234
951.676
953.142
954.618
956.092
957.549
958.977
960.367
961.706
962.988
964.204
965.347
966.304
967.221
968.075
968.861
969.576
970.22
970.796
971.306
971.754
972.133
933.891
933.891
933.891
933.891
933.891
933.891
933.891
933.891
933.891
933.895
934.101
934.258
934.395
934.52
934.638
934.75
934.859
934.964
935.067
935.167
935.265
935.362
935.458
935.555
935.653
935.754
935.86
935.974
936.099
936.241
936.405
936.597
936.825
937.097
937.421
937.805
938.257
938.786
939.397
940.096
940.885
941.767
942.741
943.804
944.953
946.18
947.477
948.834
950.24
951.683
953.149
954.625
956.098
957.555
958.984
960.373
961.712
962.993
964.209
965.351
966.308
967.225
968.079
968.864
969.579
970.223
970.798
971.308
971.756
972.134
933.891
933.891
933.891
933.891
933.891
933.891
933.891
933.891
933.891
933.895
934.1
934.258
934.394
934.519
934.637
934.75
934.858
934.963
935.065
935.165
935.263
935.36
935.456
935.553
935.651
935.751
935.857
935.971
936.096
936.237
936.401
936.593
936.82
937.092
937.415
937.8
938.253
938.782
939.394
940.094
940.884
941.767
942.742
943.807
944.956
946.184
947.482
948.84
950.246
951.689
953.155
954.631
956.104
957.561
958.989
960.378
961.717
962.998
964.213
965.355
966.312
967.228
968.082
968.867
969.581
970.225
970.8
971.31
971.757
972.135
933.891
933.891
933.891
933.891
933.891
933.891
933.891
933.891
933.891
933.895
934.1
934.257
934.394
934.519
934.636
934.748
934.857
934.962
935.063
935.163
935.261
935.357
935.453
935.55
935.648
935.748
935.854
935.967
936.092
936.233
936.396
936.587
936.814
937.085
937.409
937.794
938.247
938.777
939.39
940.09
940.881
941.765
942.742
943.807
944.957
946.186
947.484
948.842
950.249
951.692
953.158
954.634
956.107
957.564
958.992
960.381
961.72
963
964.215
965.357
966.314
967.23
968.084
968.869
969.583
970.226
970.801
971.311
971.758
972.136
933.891
933.891
933.891
933.891
933.891
933.891
933.891
933.891
933.891
933.895
934.1
934.257
934.393
934.518
934.635
934.747
934.855
934.96
935.062
935.161
935.259
935.355
935.451
935.547
935.644
935.745
935.85
935.963
936.087
936.228
936.39
936.581
936.808
937.078
937.402
937.787
938.24
938.771
939.384
940.086
940.878
941.763
942.74
943.807
944.958
946.187
947.486
948.844
950.251
951.694
953.16
954.636
956.109
957.566
958.994
960.382
961.721
963.002
964.217
965.359
966.315
967.231
968.085
968.87
969.584
970.227
970.802
971.311
971.758
972.136
933.891
933.891
933.891
933.891
933.891
933.891
933.891
933.891
933.891
933.895
934.099
934.256
934.392
934.517
934.634
934.746
934.854
934.958
935.06
935.159
935.256
935.352
935.447
935.543
935.641
935.741
935.845
935.958
936.082
936.222
936.384
936.574
936.8
937.07
937.393
937.778
938.232
938.763
939.377
940.079
940.873
941.759
942.737
943.804
944.956
946.186
947.485
948.843
950.25
951.693
953.159
954.635
956.108
957.564
958.993
960.381
961.72
963
964.216
965.358
966.314
967.23
968.084
968.869
969.583
970.227
970.802
971.311
971.758
972.136
933.891
933.891
933.891
933.891
933.891
933.891
933.891
933.891
933.891
933.895
934.099
934.256
934.392
934.516
934.633
934.745
934.852
934.956
935.058
935.157
935.254
935.349
935.444
935.54
935.637
935.736
935.841
935.953
936.076
936.216
936.377
936.566
936.792
937.061
937.384
937.769
938.223
938.755
939.37
940.073
940.868
941.755
942.734
943.802
944.954
946.184
947.483
948.842
950.248
951.691
953.157
954.633
956.106
957.562
958.99
960.379
961.718
962.998
964.214
965.356
966.313
967.229
968.083
968.868
969.582
970.226
970.801
971.31
971.758
972.136
933.891
933.891
933.891
933.891
933.891
933.891
933.891
933.891
933.891
933.895
934.099
934.255
934.391
934.515
934.632
934.743
934.85
934.954
935.055
935.154
935.251
935.346
935.441
935.536
935.632
935.732
935.836
935.947
936.07
936.209
936.369
936.558
936.783
937.052
937.374
937.759
938.214
938.746
939.362
940.066
940.861
941.749
942.729
943.797
944.95
946.18
947.479
948.837
950.243
951.686
953.152
954.627
956.1
957.556
958.984
960.373
961.712
962.993
964.209
965.352
966.309
967.226
968.08
968.866
969.58
970.224
970.799
971.309
971.756
972.135
933.891
933.891
933.891
933.891
933.891
933.891
933.891
933.891
933.891
933.895
934.098
934.254
934.39
934.514
934.63
934.742
934.849
934.953
935.053
935.152
935.248
935.343
935.438
935.532
935.628
935.727
935.831
935.942
936.065
936.203
936.363
936.551
936.775
937.044
937.367
937.752
938.207
938.74
939.357
940.063
940.86
941.749
942.729
943.798
944.951
946.18
947.479
948.836
950.242
951.684
953.149
954.624
956.096
957.552
958.98
960.369
961.708
962.989
964.205
965.348
966.305
967.222
968.077
968.863
969.578
970.222
970.797
971.307
971.755
972.133
933.891
933.891
933.891
933.891
933.891
933.891
933.891
933.891
933.891
933.895
934.098
934.253
934.389
934.512
934.629
934.74
934.847
934.951
935.051
935.15
935.246
935.341
935.435
935.53
935.625
935.724
935.828
935.939
936.061
936.199
936.359
936.547
936.772
937.041
937.364
937.75
938.207
938.743
939.362
940.069
940.868
941.758
942.74
943.809
944.962
946.19
947.488
948.844
950.248
951.689
953.153
954.626
956.097
957.553
958.98
960.368
961.707
962.988
964.203
965.346
966.304
967.221
968.076
968.862
969.576
970.221
970.796
971.306
971.754
972.133
933.891
933.891
933.891
933.891
933.891
933.891
933.891
933.891
933.891
933.895
934.097
934.253
934.388
934.512
934.628
934.739
934.846
934.95
935.051
935.149
935.246
935.341
935.436
935.531
935.627
935.726
935.83
935.941
936.065
936.204
936.366
936.556
936.783
937.056
937.383
937.773
938.236
938.776
939.401
940.114
940.918
941.813
942.798
943.869
945.023
946.251
947.548
948.902
950.304
951.742
953.203
954.673
956.141
957.593
959.017
960.402
961.738
963.016
964.23
965.37
966.325
967.24
968.093
968.877
969.59
970.232
970.806
971.315
971.762
972.139
933.891
933.891
933.891
933.891
933.891
933.891
933.891
933.891
933.891
933.895
934.097
934.252
934.388
934.511
934.628
934.74
934.848
934.953
935.054
935.154
935.252
935.349
935.445
935.541
935.639
935.741
935.848
935.963
936.091
936.236
936.404
936.603
936.839
937.123
937.463
937.867
938.345
938.901
939.542
940.271
941.09
941.999
942.995
944.076
945.236
946.47
947.768
949.123
950.522
951.956
953.411
954.875
956.334
957.778
959.192
960.567
961.893
963.16
964.363
965.493
966.438
967.342
968.185
968.96
969.664
970.298
970.865
971.366
971.806
972.178
933.891
933.891
933.891
933.891
933.891
933.891
933.891
933.891
933.891
933.895
934.098
934.254
934.391
934.517
934.636
934.75
934.86
934.968
935.073
935.176
935.278
935.379
935.481
935.583
935.689
935.799
935.917
936.046
936.19
936.355
936.547
936.773
937.042
937.362
937.742
938.191
938.715
939.321
940.012
940.79
941.657
942.61
943.648
944.765
945.955
947.211
948.526
949.889
951.29
952.718
954.162
955.609
957.046
958.463
959.848
961.189
962.48
963.71
964.875
965.966
966.873
967.739
968.545
969.284
969.954
970.555
971.092
971.565
971.979
972.328
933.891
933.891
933.891
933.891
933.891
933.891
933.891
933.891
933.891
933.895
934.102
934.263
934.406
934.537
934.663
934.785
934.903
935.019
935.134
935.247
935.36
935.474
935.59
935.711
935.839
935.978
936.132
936.305
936.503
936.734
937.003
937.319
937.689
938.12
938.621
939.199
939.857
940.6
941.428
942.342
943.339
944.414
945.562
946.776
948.048
949.368
950.727
952.115
953.522
954.937
956.348
957.746
959.12
960.46
961.755
962.999
964.184
965.305
966.356
967.332
968.125
968.878
969.574
970.208
970.777
971.285
971.733
972.125
972.465
972.748
933.891
933.891
933.891
933.891
933.891
933.891
933.891
933.891
933.891
933.896
934.121
934.301
934.46
934.611
934.755
934.897
935.035
935.172
935.308
935.444
935.583
935.728
935.883
936.052
936.243
936.464
936.722
937.026
937.384
937.803
938.29
938.849
939.487
940.206
941.01
941.898
942.869
943.922
945.05
946.248
947.506
948.817
950.167
951.547
952.945
954.349
955.749
957.136
958.499
959.83
961.122
962.367
963.558
964.691
965.76
966.761
967.694
968.557
969.349
970.069
970.602
971.107
971.565
971.973
972.332
972.644
972.913
973.142
973.335
973.49
933.891
933.891
933.891
933.891
933.891
933.891
933.891
933.891
933.892
933.899
934.193
934.419
934.619
934.806
934.985
935.158
935.329
935.498
935.667
935.84
936.021
936.219
936.442
936.703
937.016
937.397
937.86
938.419
939.082
939.852
940.728
941.706
942.783
943.949
945.199
946.523
947.91
949.348
950.824
952.323
953.833
955.339
956.829
958.289
959.71
961.08
962.392
963.639
964.817
965.92
966.948
967.898
968.77
969.566
970.288
970.938
971.52
972.038
972.497
972.894
973.08
973.274
973.449
973.599
973.725
973.827
973.909
973.973
974.02
974.052
933.891
933.891
933.891
933.891
933.891
933.891
933.891
933.891
933.891
933.896
934.12
934.326
934.519
934.702
934.878
935.051
935.22
935.389
935.557
935.73
935.91
936.106
936.326
936.582
936.89
937.262
937.716
938.264
938.915
939.673
940.537
941.505
942.57
943.726
944.964
946.276
947.652
949.08
950.547
952.041
953.547
955.052
956.543
958.007
959.434
960.813
962.136
963.395
964.586
965.703
966.745
967.709
968.595
969.405
970.14
970.802
971.396
971.925
972.394
972.801
973.023
973.229
973.412
973.568
973.699
973.807
973.892
973.959
974.01
974.045
933.891
933.891
933.891
933.891
933.891
933.891
933.891
933.891
933.891
933.894
934.054
934.21
934.359
934.503
934.643
934.781
934.917
935.051
935.185
935.32
935.457
935.599
935.75
935.915
936.1
936.312
936.559
936.85
937.191
937.591
938.056
938.591
939.203
939.894
940.667
941.522
942.46
943.479
944.576
945.743
946.974
948.259
949.589
950.951
952.336
953.731
955.128
956.515
957.883
959.224
960.53
961.792
963.004
964.16
965.254
966.284
967.246
968.138
968.961
969.71
970.303
970.843
971.331
971.767
972.151
972.487
972.777
973.026
973.236
973.408
933.891
933.891
933.891
933.891
933.891
933.891
933.891
933.891
933.891
933.894
934.038
934.177
934.308
934.434
934.555
934.673
934.789
934.903
935.015
935.127
935.238
935.35
935.464
935.583
935.707
935.842
935.99
936.155
936.344
936.563
936.818
937.116
937.465
937.873
938.347
938.893
939.516
940.222
941.013
941.888
942.846
943.884
944.996
946.176
947.417
948.709
950.044
951.413
952.806
954.211
955.619
957.019
958.4
959.752
961.065
962.331
963.542
964.692
965.775
966.787
967.644
968.442
969.178
969.848
970.453
970.995
971.475
971.898
972.266
972.578
933.891
933.891
933.891
933.891
933.891