/*--------------------------------*- C++ -*----------------------------------*\
  =========                 |
  \\      /  F ield         | OpenFOAM: The Open Source CFD Toolbox
   \\    /   O peration     | Website:  https://openfoam.org
    \\  /    A nd           | Version:  12
     \\/     M anipulation  |
\*---------------------------------------------------------------------------*/
FoamFile
{
    format      ascii;
    class       volScalarField;
    location    "250/porous";
    object      T;
}
// * * * * * * * * * * * * * * * * * * * * * * * * * * * * * * * * * * * * * //

dimensions      [0 0 0 1 0 0 0];

internalField   nonuniform List<scalar> 
140000
(
400
400
400
400
400
400
400
400
400
399.992
399.675
399.432
399.217
399.016
398.824
398.637
398.452
398.27
398.087
397.9
397.703
397.488
397.245
396.961
396.618
396.201
395.691
395.075
394.341
393.485
392.505
391.404
390.185
388.854
387.418
385.883
384.259
382.557
380.788
378.968
377.111
375.233
373.35
371.476
369.627
367.818
366.06
364.365
362.742
361.2
359.745
358.384
357.118
355.95
354.88
353.906
353.026
352.238
351.535
350.923
350.634
350.332
350.06
349.825
349.629
349.468
349.34
349.24
349.166
349.116
400
400
400
400
400
400
400
400
400
399.995
399.752
399.559
399.388
399.226
399.071
398.919
398.77
398.623
398.476
398.328
398.178
398.021
397.853
397.669
397.461
397.22
396.938
396.605
396.213
395.753
395.216
394.597
393.889
393.089
392.191
391.194
390.096
388.899
387.604
386.217
384.746
383.199
381.587
379.922
378.215
376.479
374.725
372.966
371.213
369.478
367.771
366.104
364.486
362.928
361.437
360.022
358.688
357.44
356.28
355.218
354.421
353.662
352.969
352.346
351.796
351.315
350.898
350.543
350.243
350
400
400
400
400
400
400
400
400
400
399.996
399.772
399.599
399.446
399.305
399.17
399.039
398.912
398.787
398.664
398.541
398.419
398.296
398.17
398.039
397.9
397.749
397.582
397.393
397.176
396.924
396.63
396.284
395.878
395.403
394.852
394.215
393.487
392.661
391.734
390.704
389.574
388.344
387.021
385.61
384.117
382.552
380.923
379.24
377.513
375.756
373.979
372.195
370.418
368.662
366.939
365.261
363.641
362.087
360.611
359.221
358.08
356.983
355.959
355.02
354.167
353.401
352.72
352.12
351.598
351.16
400
400
400
400
400
400
400
400
400
399.996
399.776
399.608
399.462
399.327
399.199
399.076
398.958
398.842
398.729
398.617
398.507
398.398
398.288
398.177
398.063
397.943
397.815
397.675
397.518
397.338
397.128
396.88
396.586
396.236
395.82
395.329
394.754
394.086
393.32
392.453
391.481
390.404
389.225
387.945
386.57
385.105
383.557
381.935
380.248
378.508
376.728
374.92
373.099
371.28
369.477
367.704
365.974
364.301
362.696
361.171
359.887
358.645
357.477
356.396
355.405
354.506
353.699
352.981
352.348
351.812
400
400
400
400
400
400
400
400
400
399.996
399.777
399.61
399.465
399.332
399.206
399.087
398.971
398.858
398.749
398.641
398.536
398.431
398.327
398.223
398.117
398.006
397.89
397.764
397.625
397.467
397.283
397.066
396.808
396.498
396.127
395.685
395.163
394.551
393.843
393.033
392.118
391.097
389.969
388.737
387.403
385.973
384.453
382.851
381.177
379.443
377.661
375.844
374.008
372.168
370.338
368.534
366.769
365.057
363.409
361.841
360.509
359.22
358.004
356.875
355.838
354.895
354.045
353.287
352.616
352.046
400
400
400
400
400
400
400
400
400
399.996
399.776
399.609
399.464
399.331
399.207
399.088
398.973
398.861
398.753
398.646
398.542
398.439
398.337
398.235
398.131
398.023
397.91
397.788
397.654
397.502
397.325
397.117
396.869
396.572
396.215
395.789
395.283
394.689
394
393.208
392.312
391.307
390.194
388.974
387.651
386.228
384.713
383.114
381.441
379.705
377.919
376.097
374.255
372.407
370.568
368.754
366.978
365.255
363.596
362.015
360.671
359.368
358.14
356.999
355.95
354.995
354.134
353.365
352.685
352.107
400
400
400
400
400
400
400
400
400
399.996
399.776
399.607
399.463
399.33
399.205
399.086
398.972
398.86
398.752
398.646
398.542
398.44
398.338
398.236
398.132
398.025
397.912
397.791
397.658
397.507
397.333
397.127
396.882
396.588
396.235
395.814
395.314
394.727
394.044
393.259
392.368
391.369
390.26
389.043
387.722
386.3
384.785
383.184
381.509
379.77
377.981
376.157
374.311
372.459
370.617
368.8
367.021
365.295
363.633
362.049
360.702
359.397
358.166
357.022
355.97
355.013
354.15
353.379
352.697
352.117
400
400
400
400
400
400
400
400
400
399.996
399.775
399.606
399.461
399.328
399.203
399.084
398.969
398.858
398.75
398.644
398.54
398.437
398.335
398.233
398.129
398.021
397.909
397.788
397.654
397.503
397.329
397.123
396.878
396.585
396.233
395.813
395.315
394.729
394.049
393.266
392.378
391.38
390.273
389.056
387.734
386.312
384.795
383.194
381.517
379.777
377.986
376.16
374.312
372.46
370.617
368.799
367.02
365.293
363.631
362.047
360.7
359.395
358.164
357.02
355.969
355.012
354.149
353.378
352.696
352.116
400
400
400
400
400
400
400
400
400
399.996
399.774
399.605
399.459
399.327
399.202
399.082
398.967
398.856
398.747
398.641
398.537
398.434
398.332
398.229
398.125
398.017
397.904
397.782
397.648
397.497
397.322
397.116
396.87
396.577
396.225
395.805
395.308
394.724
394.044
393.263
392.376
391.38
390.273
389.057
387.735
386.312
384.795
383.193
381.515
379.774
377.983
376.156
374.308
372.454
370.611
368.793
367.013
365.287
363.625
362.042
360.695
359.39
358.16
357.016
355.965
355.008
354.146
353.376
352.694
352.114
400
400
400
400
400
400
400
400
400
399.996
399.773
399.604
399.458
399.325
399.2
399.08
398.965
398.854
398.745
398.638
398.534
398.431
398.329
398.226
398.121
398.012
397.899
397.777
397.642
397.49
397.314
397.108
396.861
396.567
396.215
395.795
395.298
394.714
394.035
393.255
392.369
391.373
390.267
389.052
387.73
386.307
384.79
383.187
381.509
379.767
377.976
376.148
374.3
372.446
370.603
368.785
367.006
365.28
363.618
362.036
360.689
359.385
358.155
357.012
355.961
355.005
354.143
353.373
352.692
352.113
400
400
400
400
400
400
400
400
400
399.996
399.773
399.603
399.457
399.323
399.198
399.079
398.964
398.852
398.743
398.636
398.531
398.428
398.326
398.222
398.117
398.008
397.894
397.772
397.637
397.484
397.308
397.1
396.853
396.558
396.206
395.786
395.288
394.705
394.027
393.248
392.362
391.368
390.263
389.048
387.727
386.305
384.788
383.185
381.507
379.765
377.973
376.145
374.296
372.443
370.599
368.781
367.002
365.276
363.615
362.033
360.687
359.383
358.153
357.01
355.96
355.004
354.142
353.372
352.691
352.112
400
400
400
400
400
400
400
400
400
399.996
399.772
399.602
399.456
399.322
399.197
399.077
398.962
398.85
398.741
398.634
398.529
398.426
398.323
398.219
398.113
398.005
397.89
397.767
397.631
397.478
397.301
397.093
396.846
396.55
396.197
395.777
395.279
394.696
394.018
393.24
392.356
391.362
390.258
389.045
387.724
386.302
384.785
383.182
381.504
379.762
377.97
376.142
374.294
372.44
370.596
368.778
367
365.274
363.613
362.031
360.685
359.382
358.152
357.009
355.959
355.003
354.141
353.371
352.69
352.111
400
400
400
400
400
400
400
400
400
399.996
399.772
399.601
399.455
399.321
399.196
399.076
398.961
398.848
398.739
398.632
398.527
398.423
398.32
398.216
398.111
398.001
397.887
397.763
397.627
397.473
397.296
397.087
396.839
396.543
396.19
395.769
395.272
394.689
394.012
393.235
392.351
391.359
390.256
389.044
387.724
386.303
384.786
383.184
381.506
379.764
377.972
376.144
374.295
372.441
370.598
368.779
367.001
365.275
363.614
362.032
360.686
359.382
358.153
357.01
355.96
355.004
354.142
353.372
352.691
352.112
400
400
400
400
400
400
400
400
400
399.996
399.772
399.601
399.454
399.32
399.195
399.075
398.959
398.847
398.738
398.631
398.525
398.421
398.318
398.214
398.108
397.999
397.884
397.76
397.624
397.469
397.291
397.082
396.834
396.537
396.184
395.763
395.266
394.683
394.007
393.23
392.348
391.357
390.255
389.044
387.725
386.304
384.788
383.186
381.508
379.767
377.974
376.146
374.298
372.444
370.6
368.781
367.003
365.277
363.616
362.034
360.688
359.384
358.155
357.012
355.961
355.005
354.143
353.373
352.692
352.112
400
400
400
400
400
400
400
400
400
399.996
399.771
399.601
399.454
399.32
399.194
399.074
398.959
398.847
398.737
398.63
398.524
398.42
398.316
398.212
398.106
397.997
397.882
397.758
397.621
397.466
397.287
397.078
396.829
396.532
396.179
395.758
395.261
394.678
394.003
393.227
392.346
391.356
390.256
389.046
387.728
386.308
384.793
383.191
381.514
379.772
377.98
376.152
374.303
372.449
370.605
368.787
367.008
365.282
363.621
362.038
360.692
359.388
358.158
357.015
355.964
355.007
354.145
353.375
352.693
352.114
400
400
400
400
400
400
400
400
400
399.996
399.771
399.6
399.453
399.32
399.194
399.074
398.958
398.846
398.736
398.629
398.523
398.419
398.315
398.211
398.105
397.995
397.88
397.756
397.618
397.463
397.284
397.074
396.825
396.528
396.174
395.754
395.257
394.675
394
393.225
392.345
391.357
390.257
389.048
387.732
386.313
384.798
383.197
381.52
379.779
377.987
376.159
374.31
372.456
370.612
368.793
367.014
365.288
363.626
362.044
360.697
359.392
358.162
357.019
355.967
355.011
354.148
353.377
352.696
352.116
400
400
400
400
400
400
400
400
400
399.996
399.771
399.6
399.453
399.319
399.194
399.074
398.958
398.846
398.736
398.629
398.523
398.418
398.314
398.21
398.104
397.994
397.879
397.754
397.617
397.461
397.282
397.072
396.822
396.525
396.171
395.751
395.254
394.673
393.999
393.225
392.346
391.359
390.261
389.053
387.738
386.32
384.806
383.206
381.529
379.788
377.996
376.169
374.32
372.465
370.621
368.802
367.022
365.295
363.634
362.051
360.703
359.398
358.168
357.024
355.972
355.015
354.152
353.38
352.698
352.118
400
400
400
400
400
400
400
400
400
399.996
399.771
399.6
399.453
399.319
399.194
399.074
398.958
398.846
398.736
398.629
398.523
398.418
398.314
398.21
398.103
397.994
397.878
397.753
397.615
397.46
397.28
397.069
396.82
396.523
396.169
395.749
395.253
394.672
393.998
393.226
392.348
391.362
390.265
389.059
387.744
386.328
384.815
383.215
381.539
379.798
378.007
376.179
374.33
372.476
370.631
368.812
367.032
365.305
363.642
362.058
360.71
359.405
358.174
357.029
355.977
355.019
354.156
353.384
352.701
352.121
400
400
400
400
400
400
400
400
400
399.996
399.771
399.6
399.453
399.32
399.194
399.074
398.959
398.846
398.736
398.629
398.523
398.418
398.314
398.209
398.103
397.994
397.878
397.753
397.615
397.459
397.279
397.068
396.818
396.521
396.168
395.749
395.253
394.673
394
393.228
392.352
391.367
390.271
389.066
387.753
386.337
384.826
383.227
381.551
379.811
378.02
376.192
374.343
372.488
370.644
368.824
367.043
365.316
363.653
362.068
360.719
359.413
358.181
357.036
355.983
355.025
354.16
353.388
352.705
352.124
400
400
400
400
400
400
400
400
400
399.996
399.771
399.6
399.453
399.32
399.194
399.075
398.959
398.846
398.736
398.629
398.523
398.418
398.314
398.209
398.103
397.994
397.878
397.752
397.614
397.458
397.278
397.067
396.817
396.521
396.168
395.749
395.254
394.675
394.003
393.232
392.357
391.373
390.279
389.075
387.763
386.349
384.838
383.24
381.565
379.825
378.034
376.207
374.358
372.503
370.657
368.837
367.056
365.328
363.664
362.078
360.729
359.422
358.189
357.043
355.99
355.031
354.166
353.393
352.709
352.127
400
400
400
400
400
400
400
400
400
399.996
399.771
399.601
399.454
399.321
399.195
399.075
398.959
398.846
398.736
398.629
398.523
398.418
398.314
398.21
398.103
397.993
397.878
397.752
397.614
397.458
397.277
397.066
396.818
396.522
396.169
395.751
395.257
394.679
394.008
393.238
392.363
391.381
390.288
389.086
387.775
386.362
384.852
383.255
381.581
379.841
378.051
376.223
374.374
372.519
370.673
368.852
367.071
365.342
363.677
362.09
360.74
359.432
358.199
357.052
355.997
355.037
354.172
353.398
352.714
352.131
400
400
400
400
400
400
400
400
400
399.996
399.771
399.601
399.454
399.321
399.195
399.075
398.959
398.846
398.736
398.628
398.523
398.418
398.314
398.209
398.103
397.993
397.877
397.752
397.613
397.457
397.277
397.067
396.818
396.523
396.171
395.754
395.261
394.683
394.013
393.244
392.371
391.39
390.299
389.097
387.788
386.376
384.868
383.271
381.598
379.859
378.068
376.241
374.392
372.536
370.69
368.869
367.086
365.356
363.691
362.103
360.752
359.443
358.209
357.061
356.005
355.045
354.178
353.404
352.718
352.136
400
400
400
400
400
400
400
400
400
399.996
399.772
399.601
399.455
399.321
399.196
399.075
398.959
398.846
398.736
398.628
398.522
398.417
398.313
398.209
398.102
397.993
397.876
397.751
397.613
397.457
397.277
397.067
396.819
396.525
396.173
395.757
395.264
394.688
394.019
393.252
392.38
391.4
390.31
389.11
387.802
386.392
384.884
383.289
381.616
379.877
378.087
376.26
374.41
372.554
370.708
368.885
367.102
365.372
363.705
362.116
360.764
359.454
358.219
357.07
356.014
355.052
354.185
353.41
352.724
352.14
400
400
400
400
400
400
400
400
400
399.996
399.772
399.602
399.456
399.322
399.196
399.075
398.958
398.845
398.735
398.627
398.521
398.416
398.312
398.207
398.101
397.991
397.875
397.75
397.612
397.456
397.277
397.068
396.82
396.526
396.175
395.759
395.268
394.693
394.025
393.259
392.388
391.409
390.321
389.122
387.816
386.406
384.899
383.305
381.632
379.894
378.104
376.277
374.427
372.571
370.724
368.902
367.118
365.386
363.718
362.128
360.775
359.464
358.228
357.078
356.021
355.059
354.191
353.415
352.728
352.144
400
400
400
400
400
400
400
400
400
399.996
399.772
399.602
399.456
399.322
399.196
399.075
398.958
398.845
398.734
398.626
398.52
398.415
398.311
398.206
398.1
397.99
397.874
397.749
397.611
397.455
397.277
397.068
396.821
396.527
396.177
395.761
395.27
394.696
394.029
393.263
392.394
391.416
390.328
389.13
387.825
386.416
384.91
383.316
381.644
379.907
378.117
376.289
374.439
372.583
370.736
368.912
367.128
365.396
363.727
362.136
360.783
359.471
358.234
357.084
356.026
355.063
354.195
353.418
352.731
352.147
400
400
400
400
400
400
400
400
400
399.996
399.773
399.603
399.457
399.323
399.196
399.075
398.957
398.844
398.733
398.624
398.518
398.413
398.309
398.204
398.098
397.988
397.872
397.747
397.609
397.454
397.275
397.067
396.82
396.526
396.176
395.76
395.27
394.695
394.029
393.263
392.393
391.415
390.328
389.13
387.825
386.416
384.911
383.317
381.645
379.907
378.118
376.29
374.44
372.584
370.737
368.913
367.129
365.396
363.727
362.136
360.782
359.471
358.234
357.084
356.026
355.063
354.194
353.418
352.731
352.146
400
400
400
400
400
400
400
400
400
399.996
399.773
399.603
399.457
399.323
399.196
399.075
398.957
398.843
398.732
398.624
398.517
398.412
398.307
398.202
398.096
397.986
397.87
397.745
397.608
397.453
397.274
397.065
396.818
396.524
396.174
395.758
395.266
394.691
394.024
393.257
392.387
391.408
390.32
389.121
387.816
386.406
384.9
383.306
381.634
379.896
378.106
376.279
374.429
372.573
370.726
368.903
367.119
365.386
363.718
362.127
360.774
359.463
358.227
357.077
356.02
355.058
354.19
353.414
352.727
352.143
400
400
400
400
400
400
400
400
400
399.996
399.773
399.603
399.457
399.323
399.196
399.074
398.957
398.843
398.731
398.623
398.516
398.411
398.306
398.201
398.094
397.984
397.869
397.744
397.607
397.452
397.273
397.063
396.816
396.521
396.171
395.754
395.262
394.686
394.017
393.25
392.378
391.398
390.308
389.109
387.802
386.392
384.886
383.291
381.618
379.88
378.09
376.262
374.413
372.557
370.71
368.888
367.104
365.372
363.704
362.114
360.762
359.452
358.217
357.068
356.012
355.05
354.183
353.408
352.722
352.139
400
400
400
400
400
400
400
400
400
399.996
399.773
399.604
399.457
399.323
399.196
399.074
398.957
398.842
398.731
398.622
398.516
398.41
398.305
398.2
398.094
397.984
397.868
397.743
397.606
397.451
397.272
397.062
396.814
396.519
396.168
395.751
395.258
394.68
394.01
393.242
392.369
391.388
390.297
389.096
387.788
386.377
384.869
383.273
381.6
379.862
378.072
376.244
374.395
372.539
370.693
368.871
367.088
365.357
363.689
362.1
360.749
359.44
358.206
357.058
356.003
355.042
354.176
353.402
352.717
352.134
400
400
400
400
400
400
400
400
400
399.996
399.773
399.604
399.458
399.323
399.196
399.074
398.956
398.842
398.731
398.622
398.515
398.41
398.305
398.2
398.093
397.983
397.868
397.743
397.606
397.451
397.272
397.061
396.813
396.518
396.166
395.748
395.254
394.676
394.004
393.234
392.36
391.378
390.286
389.084
387.775
386.362
384.853
383.257
381.583
379.844
378.054
376.226
374.377
372.522
370.676
368.854
367.072
365.341
363.675
362.086
360.736
359.429
358.195
357.049
355.994
355.034
354.169
353.396
352.711
352.129
400
400
400
400
400
400
400
400
400
399.996
399.774
399.605
399.458
399.323
399.196
399.074
398.957
398.842
398.731
398.623
398.516
398.41
398.305
398.2
398.093
397.983
397.868
397.744
397.607
397.451
397.272
397.062
396.813
396.517
396.165
395.746
395.251
394.672
394
393.229
392.353
391.37
390.276
389.073
387.762
386.348
384.838
383.241
381.566
379.827
378.036
376.209
374.36
372.505
370.659
368.838
367.056
365.326
363.66
362.073
360.724
359.417
358.185
357.039
355.986
355.027
354.162
353.39
352.706
352.125
400
400
400
400
400
400
400
400
400
399.996
399.774
399.605
399.458
399.323
399.196
399.074
398.957
398.843
398.732
398.623
398.516
398.411
398.306
398.201
398.094
397.984
397.869
397.745
397.608
397.453
397.274
397.063
396.814
396.518
396.165
395.745
395.25
394.669
393.996
393.225
392.348
391.363
390.268
389.063
387.751
386.336
384.825
383.226
381.551
379.811
378.02
376.193
374.344
372.489
370.644
368.823
367.042
365.313
363.648
362.061
360.713
359.407
358.176
357.031
355.978
355.02
354.156
353.384
352.701
352.121
400
400
400
400
400
400
400
400
400
399.996
399.774
399.605
399.458
399.324
399.196
399.075
398.957
398.843
398.732
398.624
398.517
398.412
398.307
398.202
398.095
397.986
397.87
397.746
397.609
397.454
397.276
397.065
396.816
396.52
396.166
395.746
395.25
394.669
393.995
393.222
392.344
391.358
390.261
389.055
387.742
386.325
384.813
383.213
381.537
379.797
378.006
376.178
374.329
372.475
370.63
368.81
367.029
365.3
363.636
362.05
360.703
359.398
358.167
357.023
355.971
355.014
354.151
353.379
352.697
352.117
400
400
400
400
400
400
400
400
400
399.996
399.775
399.606
399.459
399.324
399.197
399.075
398.958
398.844
398.733
398.625
398.519
398.413
398.308
398.203
398.097
397.987
397.872
397.748
397.612
397.457
397.278
397.068
396.819
396.523
396.169
395.748
395.252
394.67
393.995
393.221
392.342
391.354
390.256
389.049
387.734
386.316
384.803
383.202
381.526
379.785
377.993
376.166
374.317
372.462
370.618
368.798
367.018
365.289
363.626
362.04
360.694
359.39
358.16
357.016
355.965
355.008
354.146
353.375
352.693
352.114
400
400
400
400
400
400
400
400
400
399.996
399.775
399.606
399.459
399.324
399.197
399.076
398.959
398.845
398.735
398.626
398.52
398.415
398.31
398.205
398.099
397.99
397.874
397.751
397.614
397.46
397.282
397.072
396.823
396.526
396.172
395.751
395.254
394.672
393.997
393.221
392.341
391.352
390.252
389.043
387.727
386.308
384.794
383.193
381.515
379.774
377.982
376.154
374.306
372.451
370.607
368.788
367.007
365.28
363.617
362.032
360.686
359.383
358.153
357.01
355.96
355.003
354.141
353.371
352.69
352.111
400
400
400
400
400
400
400
400
400
399.996
399.775
399.606
399.46
399.325
399.198
399.077
398.96
398.846
398.736
398.628
398.522
398.417
398.313
398.208
398.102
397.992
397.877
397.754
397.618
397.464
397.285
397.076
396.828
396.531
396.177
395.756
395.258
394.675
393.999
393.223
392.341
391.351
390.25
389.04
387.722
386.302
384.787
383.185
381.507
379.766
377.974
376.146
374.297
372.443
370.599
368.78
367
365.272
363.61
362.025
360.68
359.377
358.148
357.005
355.955
355
354.138
353.368
352.688
352.109
400
400
400
400
400
400
400
400
400
399.996
399.776
399.607
399.46
399.326
399.199
399.078
398.961
398.848
398.738
398.63
398.524
398.419
398.315
398.21
398.104
397.995
397.881
397.757
397.621
397.468
397.29
397.081
396.833
396.537
396.183
395.761
395.263
394.679
394.002
393.225
392.342
391.351
390.249
389.037
387.718
386.297
384.781
383.179
381.501
379.759
377.967
376.139
374.29
372.436
370.592
368.773
366.993
365.266
363.604
362.02
360.675
359.372
358.144
357.002
355.952
354.996
354.135
353.366
352.685
352.107
400
400
400
400
400
400
400
400
400
399.996
399.776
399.607
399.461
399.326
399.2
399.079
398.962
398.849
398.739
398.632
398.526
398.422
398.318
398.214
398.108
397.999
397.884
397.761
397.626
397.473
397.296
397.087
396.84
396.544
396.19
395.768
395.27
394.685
394.008
393.229
392.345
391.353
390.249
389.037
387.717
386.295
384.779
383.176
381.497
379.755
377.963
376.135
374.286
372.432
370.588
368.769
366.99
365.263
363.601
362.017
360.672
359.37
358.141
356.999
355.95
354.994
354.133
353.364
352.684
352.106
400
400
400
400
400
400
400
400
400
399.996
399.776
399.608
399.461
399.327
399.201
399.08
398.964
398.851
398.741
398.634
398.529
398.425
398.321
398.217
398.111
398.003
397.888
397.766
397.631
397.478
397.302
397.094
396.847
396.551
396.197
395.776
395.277
394.692
394.013
393.234
392.349
391.355
390.251
389.037
387.716
386.294
384.776
383.173
381.495
379.752
377.96
376.132
374.283
372.429
370.586
368.767
366.988
365.261
363.599
362.015
360.67
359.368
358.14
356.998
355.948
354.993
354.132
353.363
352.683
352.105
400
400
400
400
400
400
400
400
400
399.996
399.777
399.608
399.462
399.328
399.202
399.082
398.965
398.853
398.743
398.636
398.531
398.428
398.324
398.221
398.115
398.007
397.893
397.771
397.637
397.485
397.309
397.102
396.855
396.56
396.207
395.785
395.286
394.701
394.021
393.241
392.355
391.36
390.255
389.04
387.719
386.296
384.778
383.175
381.496
379.754
377.962
376.134
374.285
372.431
370.587
368.769
366.99
365.263
363.6
362.016
360.672
359.369
358.14
356.998
355.949
354.994
354.133
353.364
352.684
352.105
400
400
400
400
400
400
400
400
400
399.996
399.777
399.609
399.463
399.329
399.203
399.083
398.967
398.855
398.745
398.639
398.534
398.431
398.328
398.225
398.12
398.012
397.898
397.777
397.643
397.491
397.316
397.11
396.864
396.57
396.217
395.795
395.296
394.71
394.029
393.248
392.361
391.365
390.258
389.043
387.721
386.297
384.78
383.177
381.498
379.756
377.964
376.136
374.288
372.434
370.59
368.772
366.993
365.266
363.603
362.019
360.674
359.371
358.142
357
355.95
354.995
354.134
353.365
352.684
352.106
400
400
400
400
400
400
400
400
400
399.996
399.778
399.61
399.464
399.331
399.205
399.085
398.969
398.857
398.748
398.641
398.537
398.434
398.332
398.229
398.124
398.017
397.904
397.783
397.649
397.499
397.324
397.119
396.874
396.58
396.228
395.806
395.306
394.72
394.038
393.256
392.368
391.371
390.264
389.048
387.726
386.302
384.785
383.182
381.504
379.763
377.971
376.143
374.295
372.442
370.598
368.779
367
365.272
363.61
362.025
360.679
359.376
358.146
357.004
355.954
354.998
354.136
353.367
352.687
352.108
400
400
400
400
400
400
400
400
400
399.996
399.778
399.611
399.465
399.332
399.206
399.086
398.971
398.859
398.75
398.644
398.54
398.437
398.335
398.232
398.128
398.021
397.909
397.788
397.655
397.505
397.331
397.126
396.882
396.589
396.236
395.814
395.314
394.726
394.043
393.259
392.37
391.372
390.264
389.047
387.725
386.302
384.785
383.183
381.506
379.765
377.974
376.147
374.3
372.447
370.604
368.785
367.006
365.278
363.615
362.03
360.684
359.38
358.151
357.008
355.957
355.001
354.139
353.37
352.689
352.11
400
400
400
400
400
400
400
400
400
399.996
399.779
399.611
399.466
399.333
399.208
399.088
398.973
398.861
398.752
398.646
398.542
398.44
398.338
398.236
398.132
398.025
397.913
397.792
397.66
397.51
397.336
397.131
396.886
396.592
396.239
395.815
395.313
394.723
394.038
393.252
392.361
391.361
390.252
389.034
387.712
386.29
384.775
383.174
381.498
379.759
377.97
376.144
374.298
372.446
370.604
368.786
367.007
365.28
363.617
362.032
360.686
359.382
358.153
357.01
355.959
355.003
354.141
353.371
352.69
352.111
400
400
400
400
400
400
400
400
400
399.996
399.779
399.612
399.467
399.334
399.209
399.089
398.974
398.862
398.753
398.647
398.542
398.439
398.337
398.234
398.13
398.023
397.91
397.789
397.655
397.504
397.328
397.121
396.873
396.576
396.218
395.79
395.282
394.686
393.995
393.202
392.304
391.299
390.186
388.966
387.642
386.219
384.704
383.105
381.431
379.694
377.908
376.086
374.243
372.395
370.555
368.741
366.965
365.241
363.581
361.999
360.656
359.355
358.128
356.987
355.939
354.985
354.125
353.357
352.678
352.101
400
400
400
400
400
400
400
400
400
399.996
399.78
399.613
399.467
399.334
399.208
399.088
398.972
398.859
398.749
398.641
398.536
398.431
398.327
398.223
398.117
398.007
397.891
397.766
397.627
397.469
397.286
397.07
396.812
396.502
396.131
395.687
395.162
394.548
393.838
393.027
392.112
391.09
389.962
388.729
387.395
385.965
384.445
382.843
381.169
379.434
377.651
375.835
373.998
372.158
370.328
368.523
366.758
365.045
363.397
361.827
360.497
359.208
357.994
356.866
355.829
354.887
354.038
353.28
352.611
352.041
400
400
400
400
400
400
400
400
400
399.996
399.779
399.61
399.464
399.328
399.2
399.077
398.958
398.842
398.729
398.617
398.507
398.398
398.288
398.177
398.063
397.943
397.816
397.676
397.519
397.34
397.131
396.884
396.591
396.241
395.824
395.331
394.754
394.084
393.317
392.448
391.475
390.398
389.218
387.939
386.564
385.099
383.551
381.929
380.242
378.503
376.722
374.914
373.093
371.274
369.471
367.698
365.968
364.295
362.689
361.163
359.88
358.639
357.472
356.39
355.4
354.502
353.696
352.978
352.346
351.81
400
400
400
400
400
400
400
400
400
399.996
399.774
399.601
399.448
399.306
399.171
399.04
398.912
398.787
398.664
398.541
398.419
398.296
398.17
398.039
397.9
397.75
397.583
397.394
397.178
396.927
396.633
396.288
395.883
395.409
394.857
394.219
393.488
392.66
391.732
390.702
389.571
388.342
387.018
385.607
384.116
382.551
380.923
379.24
377.515
375.757
373.981
372.198
370.421
368.665
366.942
365.264
363.644
362.09
360.613
359.223
358.082
356.985
355.962
355.022
354.169
353.404
352.723
352.123
351.6
351.162
400
400
400
400
400
400
400
400
400
399.995
399.754
399.561
399.389
399.227
399.072
398.919
398.77
398.623
398.476
398.328
398.177
398.02
397.853
397.669
397.461
397.221
396.94
396.608
396.217
395.758
395.223
394.605
393.899
393.099
392.202
391.204
390.104
388.906
387.61
386.224
384.753
383.206
381.595
379.931
378.225
376.49
374.738
372.98
371.228
369.493
367.787
366.12
364.502
362.944
361.453
360.038
358.703
357.454
356.294
355.229
354.432
353.673
352.979
352.356
351.804
351.322
350.906
350.549
350.248
350.005
400
400
400
400
400
400
400
400
400
399.992
399.677
399.433
399.218
399.017
398.824
398.637
398.452
398.27
398.087
397.899
397.702
397.488
397.245
396.961
396.619
396.203
395.695
395.08
394.348
393.494
392.517
391.419
390.203
388.874
387.439
385.903
384.278
382.574
380.806
378.986
377.13
375.253
373.371
371.499
369.651
367.843
366.086
364.392
362.769
361.227
359.772
358.41
357.143
355.974
354.902
353.927
353.046
352.255
351.55
350.936
350.646
350.343
350.07
349.834
349.636
349.474
349.345
349.245
349.17
349.119
400
400
400
400
400
400
400
400
400
399.995
399.755
399.533
399.326
399.129
398.939
398.753
398.57
398.388
398.206
398.019
397.823
397.611
397.371
397.092
396.757
396.35
395.853
395.251
394.533
393.693
392.73
391.646
390.444
389.129
387.709
386.191
384.582
382.894
381.139
379.33
377.483
375.613
373.734
371.862
370.012
368.197
366.431
364.725
363.089
361.532
360.061
358.682
357.399
356.212
355.123
354.132
353.234
352.428
351.709
351.08
350.735
350.413
350.128
349.882
349.676
349.507
349.372
349.266
349.186
349.131
400
400
400
400
400
400
400
400
400
399.997
399.826
399.658
399.498
399.343
399.192
399.044
398.898
398.752
398.608
398.462
398.314
398.16
397.996
397.818
397.617
397.387
397.118
396.801
396.428
395.991
395.48
394.89
394.214
393.447
392.586
391.627
390.568
389.411
388.156
386.809
385.376
383.866
382.287
380.652
378.971
377.256
375.518
373.77
372.022
370.286
368.572
366.893
365.258
363.678
362.161
360.715
359.347
358.063
356.865
355.761
354.88
354.07
353.333
352.67
352.082
351.565
351.116
350.731
350.403
350.134
400
400
400
400
400
400
400
400
400
399.998
399.843
399.694
399.553
399.418
399.287
399.16
399.035
398.913
398.791
398.671
398.551
398.43
398.306
398.178
398.043
397.897
397.737
397.557
397.352
397.114
396.836
396.51
396.128
395.681
395.16
394.558
393.867
393.082
392.198
391.215
390.131
388.949
387.672
386.307
384.858
383.334
381.743
380.093
378.396
376.661
374.901
373.128
371.356
369.596
367.863
366.169
364.525
362.943
361.431
360.002
358.775
357.621
356.546
355.557
354.655
353.842
353.114
352.47
351.905
351.425
400
400
400
400
400
400
400
400
400
399.998
399.847
399.702
399.566
399.438
399.315
399.195
399.079
398.965
398.854
398.744
398.635
398.527
398.419
398.31
398.198
398.081
397.957
397.822
397.672
397.5
397.302
397.068
396.791
396.461
396.069
395.607
395.063
394.432
393.706
392.88
391.953
390.924
389.792
388.561
387.233
385.815
384.311
382.73
381.081
379.375
377.622
375.836
374.03
372.219
370.416
368.636
366.893
365.199
363.567
362.008
360.642
359.347
358.131
357
355.96
355.013
354.157
353.392
352.714
352.13
400
400
400
400
400
400
400
400
400
399.998
399.847
399.703
399.569
399.443
399.321
399.205
399.091
398.981
398.873
398.767
398.663
398.559
398.457
398.354
398.249
398.141
398.028
397.906
397.772
397.621
397.446
397.24
396.996
396.704
396.355
395.938
395.445
394.867
394.196
393.427
392.555
391.58
390.499
389.315
388.029
386.646
385.172
383.613
381.979
380.281
378.529
376.737
374.919
373.09
371.265
369.457
367.682
365.952
364.281
362.68
361.27
359.929
358.667
357.491
356.405
355.414
354.516
353.711
352.995
352.376
400
400
400
400
400
400
400
400
400
399.998
399.846
399.703
399.568
399.442
399.321
399.205
399.093
398.983
398.876
398.771
398.668
398.567
398.466
398.365
398.262
398.157
398.046
397.928
397.798
397.653
397.485
397.287
397.053
396.772
396.436
396.034
395.557
394.995
394.342
393.591
392.737
391.778
390.711
389.539
388.264
386.889
385.42
383.864
382.231
380.531
378.777
376.98
375.157
373.321
371.487
369.671
367.885
366.145
364.463
362.851
361.429
360.076
358.802
357.614
356.517
355.514
354.606
353.79
353.065
352.438
400
400
400
400
400
400
400
400
400
399.998
399.846
399.702
399.567
399.441
399.32
399.204
399.092
398.982
398.876
398.771
398.668
398.567
398.466
398.366
398.263
398.158
398.048
397.931
397.802
397.658
397.492
397.296
397.064
396.787
396.454
396.057
395.586
395.03
394.383
393.638
392.79
391.836
390.774
389.606
388.332
386.958
385.488
383.932
382.297
380.594
378.837