/*--------------------------------*- C++ -*----------------------------------*\
  =========                 |
  \\      /  F ield         | OpenFOAM: The Open Source CFD Toolbox
   \\    /   O peration     | Website:  https://openfoam.org
    \\  /    A nd           | Version:  12
     \\/     M anipulation  |
\*---------------------------------------------------------------------------*/
FoamFile
{
    format      ascii;
    class       volScalarField;
    location    "800/porous";
    object      rho;
}
// * * * * * * * * * * * * * * * * * * * * * * * * * * * * * * * * * * * * * //

dimensions      [1 -3 0 0 0 0 0];

internalField   nonuniform List<scalar> 
140000
(
933.891
933.891
933.891
933.891
933.891
933.891
933.891
933.891
933.892
933.899
934.189
934.414
934.613
934.799
934.977
935.15
935.319
935.485
935.648
935.809
935.968
936.126
936.282
936.436
936.589
936.74
936.89
937.038
937.184
937.329
937.472
937.613
937.752
937.889
938.025
938.158
938.289
938.419
938.548
938.676
938.804
938.932
939.059
939.185
939.31
939.434
939.556
939.677
939.796
939.914
940.03
940.145
940.257
940.369
940.477
940.584
940.689
940.791
940.892
940.967
940.568
940.315
940.119
939.958
939.819
939.697
939.588
939.49
939.401
939.325
933.891
933.891
933.891
933.891
933.891
933.891
933.891
933.891
933.891
933.896
934.118
934.297
934.456
934.606
934.75
934.891
935.029
935.164
935.298
935.431
935.562
935.692
935.821
935.95
936.077
936.204
936.33
936.455
936.579
936.703
936.825
936.947
937.067
937.187
937.306
937.423
937.539
937.655
937.77
937.886
938.001
938.117
938.232
938.348
938.462
938.576
938.689
938.801
938.912
939.022
939.131
939.239
939.345
939.45
939.554
939.656
939.756
939.854
939.951
940.031
939.793
939.637
939.515
939.411
939.32
939.238
939.163
939.095
939.032
938.975
933.891
933.891
933.891
933.891
933.891
933.891
933.891
933.891
933.891
933.895
934.1
934.26
934.402
934.534
934.66
934.781
934.899
935.015
935.129
935.241
935.352
935.461
935.57
935.677
935.784
935.889
935.994
936.098
936.202
936.305
936.407
936.508
936.609
936.709
936.808
936.906
937.004
937.101
937.198
937.295
937.393
937.491
937.59
937.688
937.787
937.884
937.981
938.078
938.174
938.269
938.364
938.457
938.55
938.642
938.732
938.822
938.909
938.996
939.08
939.154
938.963
938.844
938.753
938.678
938.614
938.557
938.506
938.459
938.417
938.378
933.891
933.891
933.891
933.891
933.891
933.891
933.891
933.891
933.891
933.895
934.095
934.252
934.388
934.514
934.633
934.747
934.858
934.966
935.071
935.174
935.275
935.375
935.474
935.571
935.667
935.762
935.856
935.949
936.041
936.132
936.223
936.313
936.401
936.489
936.576
936.662
936.747
936.832
936.917
937.002
937.088
937.174
937.26
937.346
937.432
937.518
937.603
937.687
937.771
937.854
937.936
938.018
938.099
938.178
938.257
938.334
938.411
938.485
938.558
938.621
938.442
938.33
938.246
938.177
938.118
938.066
938.02
937.979
937.941
937.907
933.891
933.891
933.891
933.891
933.891
933.891
933.891
933.891
933.891
933.895
934.095
934.25
934.385
934.509
934.626
934.738
934.846
934.951
935.053
935.153
935.251
935.347
935.442
935.535
935.626
935.717
935.806
935.894
935.982
936.068
936.153
936.237
936.32
936.402
936.483
936.563
936.642
936.721
936.799
936.878
936.957
937.037
937.117
937.197
937.276
937.354
937.432
937.51
937.587
937.663
937.738
937.812
937.886
937.958
938.03
938.1
938.168
938.235
938.3
938.355
938.18
938.068
937.983
937.914
937.854
937.802
937.756
937.713
937.675
937.641
933.891
933.891
933.891
933.891
933.891
933.891
933.891
933.891
933.891
933.895
934.095
934.25
934.385
934.509
934.626
934.738
934.845
934.949
935.051
935.149
935.246
935.341
935.434
935.526
935.616
935.705
935.792
935.879
935.964
936.048
936.131
936.212
936.293
936.372
936.451
936.527
936.603
936.679
936.754
936.83
936.907
936.984
937.061
937.137
937.213
937.289
937.363
937.437
937.511
937.583
937.655
937.725
937.795
937.864
937.931
937.997
938.062
938.124
938.184
938.236
938.061
937.949
937.864
937.793
937.733
937.679
937.631
937.588
937.548
937.512
933.891
933.891
933.891
933.891
933.891
933.891
933.891
933.891
933.891
933.895
934.095
934.251
934.386
934.51
934.627
934.739
934.846
934.95
935.052
935.15
935.247
935.341
935.434
935.525
935.615
935.703
935.79
935.875
935.96
936.043
936.125
936.206
936.285
936.364
936.44
936.516
936.59
936.664
936.738
936.813
936.889
936.965
937.04
937.115
937.19
937.264
937.337
937.41
937.481
937.552
937.622
937.691
937.759
937.826
937.891
937.955
938.018
938.078
938.136
938.185
938.011
937.898
937.812
937.741
937.68
937.626
937.577
937.533
937.493
937.456
933.891
933.891
933.891
933.891
933.891
933.891
933.891
933.891
933.891
933.895
934.096
934.252
934.387
934.512
934.629
934.741
934.848
934.953
935.054
935.153
935.249
935.344
935.437
935.528
935.617
935.705
935.792
935.877
935.961
936.044
936.126
936.206
936.285
936.363
936.439
936.513
936.587
936.66
936.734
936.809
936.884
936.959
937.035
937.109
937.183
937.256
937.329
937.401
937.472
937.542
937.611
937.68
937.747
937.813
937.877
937.94
938.001
938.061
938.117
938.165
937.991
937.879
937.792
937.721
937.659
937.605
937.556
937.511
937.47
937.433
933.891
933.891
933.891
933.891
933.891
933.891
933.891
933.891
933.891
933.895
934.096
934.252
934.388
934.513
934.63
934.742
934.85
934.954
935.056
935.155
935.252
935.346
935.439
935.53
935.62
935.708
935.795
935.88
935.964
936.047
936.128
936.208
936.287
936.364
936.439
936.514
936.587
936.66
936.733
936.808
936.883
936.959
937.034
937.108
937.182
937.255
937.327
937.399
937.47
937.54
937.609
937.677
937.744
937.809
937.873
937.936
937.997
938.055
938.111
938.159
937.984
937.872
937.785
937.714
937.652
937.597
937.548
937.503
937.462
937.425
933.891
933.891
933.891
933.891
933.891
933.891
933.891
933.891
933.891
933.895
934.097
934.253
934.389
934.513
934.631
934.743
934.852
934.956
935.058
935.157
935.254
935.349
935.442
935.533
935.622
935.711
935.797
935.883
935.967
936.049
936.131
936.21
936.289
936.365
936.44
936.514
936.587
936.66
936.734
936.809
936.884
936.96
937.035
937.109
937.183
937.256
937.328
937.4
937.471
937.54
937.609
937.677
937.744
937.81
937.873
937.936
937.996
938.055
938.11
938.157
937.983
937.87
937.784
937.712
937.65
937.596
937.546
937.502
937.46
937.423
933.891
933.891
933.891
933.891
933.891
933.891
933.891
933.891
933.891
933.895
934.097
934.253
934.389
934.514
934.632
934.744
934.853
934.957
935.059
935.159
935.256
935.35
935.443
935.535
935.624
935.713
935.799
935.885
935.969
936.051
936.132
936.212
936.29
936.366
936.441
936.514
936.587
936.66
936.734
936.81
936.885
936.961
937.036
937.11
937.184
937.257
937.329
937.401
937.472
937.542
937.611
937.679
937.745
937.811
937.875
937.937
937.998
938.056
938.111
938.157
937.984
937.871
937.785
937.713
937.651
937.596
937.547
937.502
937.461
937.424
933.891
933.891
933.891
933.891
933.891
933.891
933.891
933.891
933.891
933.895
934.097
934.253
934.389
934.514
934.632
934.745
934.853
934.958
935.06
935.16
935.257
935.352
935.445
935.536
935.626
935.714
935.801
935.886
935.97
936.053
936.133
936.213
936.29
936.366
936.441
936.514
936.587
936.661
936.735
936.81
936.886
936.962
937.037
937.111
937.185
937.258
937.331
937.402
937.473
937.543
937.612
937.68
937.747
937.813
937.877
937.939
937.999
938.057
938.113
938.159
937.985
937.872
937.786
937.715
937.653
937.598
937.549
937.504
937.463
937.425
933.891
933.891
933.891
933.891
933.891
933.891
933.891
933.891
933.891
933.895
934.097
934.253
934.389
934.514
934.632
934.745
934.854
934.959
935.061
935.16
935.258
935.353
935.446
935.537
935.627
935.715
935.802
935.887
935.971
936.053
936.134
936.212
936.29
936.365
936.44
936.513
936.587
936.66
936.735
936.81
936.886
936.962
937.037
937.112
937.186
937.259
937.331
937.403
937.474
937.544
937.614
937.682
937.749
937.814
937.878
937.941
938.001
938.059
938.114
938.16
937.986
937.874
937.788
937.716
937.654
937.6
937.55
937.506
937.464
937.427
933.891
933.891
933.891
933.891
933.891
933.891
933.891
933.891
933.891
933.895
934.097
934.253
934.389
934.514
934.632
934.745
934.854
934.959
935.061
935.161
935.258
935.353
935.446
935.538
935.627
935.715
935.802
935.887
935.971
936.053
936.133
936.211
936.288
936.364
936.438
936.512
936.586
936.66
936.735
936.81
936.886
936.962
937.037
937.112
937.186
937.259
937.332
937.404
937.475
937.545
937.615
937.683
937.75
937.816
937.88
937.942
938.003
938.061
938.116
938.162
937.988
937.876
937.79
937.718
937.656
937.602
937.552
937.508
937.467
937.429
933.891
933.891
933.891
933.891
933.891
933.891
933.891
933.891
933.891
933.895
934.096
934.253
934.389
934.514
934.632
934.745
934.853
934.959
935.061
935.161
935.258
935.353
935.446
935.537
935.627
935.715
935.801
935.886
935.97
936.051
936.131
936.209
936.286
936.362
936.437
936.511
936.585
936.66
936.735
936.81
936.886
936.962
937.037
937.112
937.186
937.26
937.332
937.404
937.476
937.546
937.615
937.684
937.751
937.817
937.881
937.944
938.004
938.062
938.118
938.163
937.99
937.878
937.791
937.72
937.658
937.604
937.554
937.51
937.469
937.432
933.891
933.891
933.891
933.891
933.891
933.891
933.891
933.891
933.891
933.895
934.096
934.252
934.388
934.513
934.631
934.744
934.853
934.958
935.061
935.16
935.258
935.353
935.446
935.537
935.626
935.714
935.8
935.885
935.968
936.049
936.129
936.207
936.283
936.359
936.435
936.51
936.585
936.66
936.735
936.81
936.886
936.962
937.037
937.112
937.186
937.26
937.333
937.405
937.476
937.547
937.616
937.685
937.752
937.818
937.883
937.945
938.006
938.064
938.119
938.165
937.992
937.879
937.793
937.722
937.66
937.606
937.557
937.512
937.471
937.434
933.891
933.891
933.891
933.891
933.891
933.891
933.891
933.891
933.891
933.895
934.096
934.252
934.387
934.512
934.63
934.743
934.852
934.958
935.06
935.16
935.257
935.352
935.445
935.536
935.625
935.713
935.799
935.883
935.966
936.047
936.126
936.203
936.281
936.358
936.434
936.51
936.585
936.66
936.735
936.811
936.886
936.962
937.037
937.112
937.186
937.26
937.333
937.405
937.477
937.547
937.617
937.686
937.753
937.82
937.884
937.947
938.008
938.066
938.121
938.167
937.994
937.881
937.795
937.724
937.662
937.608
937.559
937.514
937.473
937.436
933.891
933.891
933.891
933.891
933.891
933.891
933.891
933.891
933.891
933.895
934.095
934.25
934.386
934.511
934.629
934.742
934.851
934.957
935.059
935.159
935.256
935.351
935.444
935.535
935.624
935.712
935.797
935.881
935.963
936.044
936.122
936.2
936.278
936.356
936.433
936.51
936.585
936.661
936.736
936.811
936.887
936.962
937.037
937.112
937.186
937.26
937.333
937.405
937.477
937.548
937.618
937.687
937.754
937.821
937.885
937.948
938.009
938.068
938.123
938.168
937.995
937.883
937.797
937.726
937.664
937.61
937.561
937.516
937.475
937.438
933.891
933.891
933.891
933.891
933.891
933.891
933.891
933.891
933.891
933.895
934.095
934.25
934.385
934.51
934.628
934.741
934.85
934.956
935.058
935.158
935.255
935.351
935.443
935.534
935.623
935.71
935.796
935.879
935.961
936.04
936.119
936.198
936.277
936.355
936.432
936.509
936.586
936.661
936.737
936.811
936.887
936.962
937.037
937.112
937.186
937.26
937.333
937.405
937.477
937.548
937.618
937.687
937.755
937.821
937.886
937.949
938.01
938.069
938.124
938.17
937.997
937.885
937.799
937.728
937.666
937.612
937.563
937.518
937.477
937.44
933.891
933.891
933.891
933.891
933.891
933.891
933.891
933.891
933.891
933.895
934.095
934.249
934.385
934.509
934.627
934.74
934.849
934.955
935.058
935.157
935.255
935.35
935.443
935.534
935.622
935.709
935.794
935.877
935.958
936.038
936.117
936.196
936.276
936.354
936.432
936.509
936.586
936.662
936.737
936.811
936.886
936.961
937.036
937.111
937.185
937.259
937.332
937.405
937.476
937.547
937.618
937.687
937.755
937.821
937.887
937.95
938.011
938.07
938.125
938.171
937.998
937.886
937.8
937.729
937.667
937.613
937.564
937.519
937.479
937.442
933.891
933.891
933.891
933.891
933.891
933.891
933.891
933.891
933.891
933.895
934.094
934.248
934.383
934.508
934.626
934.739
934.848
934.954
935.057
935.157
935.254
935.349
935.442
935.533
935.622
935.708
935.793
935.876
935.956
936.036
936.115
936.195
936.274
936.353
936.431
936.509
936.585
936.661
936.737
936.811
936.885
936.96
937.034
937.109
937.183
937.257
937.33
937.403
937.475
937.546
937.617
937.686
937.754
937.821
937.886
937.95
938.011
938.07
938.125
938.171
937.998
937.886
937.801
937.729
937.668
937.614
937.565
937.52
937.479
937.442
933.891
933.891
933.891
933.891
933.891
933.891
933.891
933.891
933.891
933.895
934.093
934.248
934.382
934.507
934.625
934.738
934.847
934.953
935.056
935.156
935.254
935.349
935.442
935.533
935.621
935.708
935.793
935.875
935.955
936.035
936.114
936.194
936.274
936.353
936.431
936.509
936.586
936.661
936.736
936.81
936.884
936.958
937.033
937.107
937.181
937.255
937.329
937.401
937.473
937.545
937.615
937.684
937.753
937.82
937.885
937.949
938.01
938.069
938.125
938.171
937.998
937.886
937.801
937.729
937.668
937.614
937.565
937.52
937.48
937.443
933.891
933.891
933.891
933.891
933.891
933.891
933.891
933.891
933.891
933.895
934.092
934.246
934.381
934.506
934.624
934.737
934.846
934.952
935.055
935.155
935.253
935.349
935.442
935.533
935.621
935.708
935.792
935.875
935.955
936.035
936.114
936.194
936.274
936.353
936.432
936.509
936.586
936.662
936.736
936.81
936.883
936.957
937.031
937.105
937.179
937.253
937.326
937.399
937.471
937.543
937.613
937.683
937.751
937.818
937.884
937.948
938.009
938.069
938.125
938.173
937.999
937.887
937.801
937.73
937.668
937.614
937.565
937.521
937.48
937.443
933.891
933.891
933.891
933.891
933.891
933.891
933.891
933.891
933.891
933.895
934.092
934.245
934.38
934.505
934.623
934.736
934.845
934.952
935.055
935.155
935.253
935.348
935.442
935.533
935.622
935.708
935.793
935.875
935.956
936.035
936.115
936.195
936.275
936.354
936.432
936.51
936.587
936.662
936.737
936.81
936.883
936.956
937.029
937.103
937.178
937.251
937.325
937.398
937.47
937.541
937.612
937.681
937.75
937.817
937.883
937.947
938.009
938.068
938.125
938.173
937.999
937.887
937.801
937.73
937.668
937.614
937.565
937.521
937.48
937.443
933.891
933.891
933.891
933.891
933.891
933.891
933.891
933.891
933.891
933.895
934.091
934.245
934.38
934.504
934.622
934.736
934.845
934.951
935.054
935.155
935.253
935.348
935.442
935.533
935.622
935.709
935.794
935.876
935.957
936.037
936.116
936.196
936.276
936.355
936.434
936.511
936.588
936.663
936.737
936.81
936.883
936.955
937.029
937.102
937.176
937.25
937.323
937.396
937.468
937.54
937.611
937.68
937.749
937.816
937.882
937.946
938.008
938.068
938.125
938.173
937.999
937.887
937.801
937.73
937.668
937.614
937.565
937.521
937.48
937.443
933.891
933.891
933.891
933.891
933.891
933.891
933.891
933.891
933.891
933.895
934.09
934.243
934.377
934.502
934.621
934.734
934.844
934.95
935.053
935.154
935.252
935.348
935.441
935.533
935.622
935.71
935.795
935.878
935.959
936.038
936.118
936.198
936.277
936.357
936.435
936.512
936.589
936.664
936.738
936.811
936.883
936.955
937.028
937.102
937.176
937.249
937.322
937.395
937.467
937.539
937.61
937.679
937.748
937.815
937.881
937.946
938.008
938.068
938.126
938.176
938.001
937.889
937.802
937.731
937.669
937.615
937.566
937.521
937.48
937.443
933.891
933.891
933.891
933.891
933.891
933.891
933.891
933.891
933.891
933.895
934.089
934.242
934.377
934.502
934.62
934.733
934.843
934.949
935.053
935.153
935.252
935.348
935.441
935.533
935.623
935.71
935.796
935.879
935.96
936.04
936.12
936.2
936.279
936.358
936.437
936.514
936.59
936.666
936.74
936.812
936.884
936.956
937.029
937.102
937.176
937.249
937.322
937.395
937.467
937.539
937.609
937.679
937.748
937.815
937.881
937.945
938.008
938.068
938.126
938.176
938.002
937.889
937.803
937.731
937.67
937.615
937.566
937.522
937.481
937.444
933.891
933.891
933.891
933.891
933.891
933.891
933.891
933.891
933.891
933.895
934.089
934.241
934.376
934.501
934.619
934.732
934.842
934.948
935.052
935.153
935.251
935.347
935.441
935.533
935.623
935.711
935.797
935.88
935.962
936.042
936.122
936.202
936.281
936.36
936.438
936.515
936.592
936.667
936.741
936.814
936.885
936.957
937.03
937.103
937.176
937.25
937.323
937.395
937.467
937.539
937.609
937.679
937.748
937.815
937.881
937.946
938.009
938.069
938.128
938.178
938.003
937.89
937.804
937.733
937.671
937.616
937.567
937.523
937.482
937.445
933.891
933.891
933.891
933.891
933.891
933.891
933.891
933.891
933.891
933.895
934.088
934.24
934.374
934.499
934.618
934.731
934.841
934.947
935.051
935.152
935.25
935.346
935.441
935.533
935.623
935.711
935.797
935.881
935.963
936.044
936.124
936.204
936.283
936.362
936.44
936.517
936.593
936.668
936.742
936.815
936.887
936.959
937.031
937.104
937.178
937.251
937.324
937.396
937.468
937.539
937.61
937.68
937.748
937.816
937.882
937.946
938.009
938.07
938.129
938.181
938.005
937.892
937.805
937.734
937.672
937.617
937.568
937.524
937.483
937.445
933.891
933.891
933.891
933.891
933.891
933.891
933.891
933.891
933.891
933.895
934.087
934.24
934.374
934.499
934.617
934.731
934.84
934.947
935.05
935.151
935.25
935.346
935.44
935.532
935.623
935.711
935.798
935.882
935.965
936.046
936.126
936.205
936.285
936.363
936.441
936.518
936.594
936.669
936.743
936.816
936.888
936.96
937.033
937.106
937.179
937.252
937.325
937.397
937.469
937.54
937.611
937.68
937.749
937.816
937.883
937.947
938.01
938.071
938.13
938.182
938.006
937.893
937.806
937.735
937.673
937.618
937.569
937.524
937.483
937.446
933.891
933.891
933.891
933.891
933.891
933.891
933.891
933.891
933.891
933.895
934.087
934.239
934.373
934.498
934.616
934.73
934.839
934.946
935.049
935.15
935.249
935.345
935.44
935.532
935.622
935.711
935.798
935.883
935.966
936.047
936.127
936.207
936.286
936.364
936.441
936.518
936.594
936.669
936.744
936.816
936.889
936.961
937.034
937.108
937.181
937.253
937.326
937.398
937.47
937.541
937.611
937.681
937.749
937.817
937.883
937.948
938.011
938.072
938.132
938.184
938.008
937.895
937.808
937.736
937.674
937.619
937.57
937.525
937.484
937.446
933.891
933.891
933.891
933.891
933.891
933.891
933.891
933.891
933.891
933.895
934.087
934.239
934.373
934.497
934.615
934.729
934.838
934.945
935.048
935.149
935.248
935.344
935.439
935.531
935.622
935.711
935.798
935.883
935.967
936.048
936.128
936.207
936.286
936.364
936.441
936.517
936.593
936.669
936.742
936.815
936.888
936.962
937.035
937.109
937.182
937.254
937.327
937.399
937.47
937.541
937.611
937.681
937.749
937.817
937.883
937.948
938.011
938.073
938.133
938.186
938.009
937.895
937.808
937.736
937.674
937.619
937.57
937.525
937.483
937.446
933.891
933.891
933.891
933.891
933.891
933.891
933.891
933.891
933.891
933.895
934.087
934.238
934.372
934.497
934.615
934.728
934.838
934.944
935.047
935.148
935.247
935.343
935.438
935.531
935.621
935.71
935.798
935.883
935.967
936.049
936.129
936.208
936.286
936.363
936.44
936.516
936.592
936.666
936.74
936.814
936.888
936.962
937.035
937.109
937.182
937.255
937.327
937.399
937.47
937.541
937.611
937.681
937.749
937.817
937.883
937.948
938.011
938.073
938.133
938.186
938.009
937.895
937.808
937.736
937.674
937.619
937.569
937.524
937.483
937.445
933.891
933.891
933.891
933.891
933.891
933.891
933.891
933.891
933.891
933.895
934.087
934.238
934.372
934.496
934.614
934.727
934.837
934.943
935.046
935.147
935.246
935.342
935.437
935.53
935.62
935.71
935.797
935.883
935.967
936.049
936.129
936.207
936.285
936.362
936.438
936.514
936.589
936.664
936.738
936.812
936.887
936.961
937.035
937.109
937.182
937.255
937.327
937.399
937.47
937.541
937.611
937.68
937.749
937.816
937.883
937.948
938.011
938.073
938.134
938.187
938.01
937.895
937.808
937.736
937.673
937.618
937.568
937.523
937.482
937.444
933.891
933.891
933.891
933.891
933.891
933.891
933.891
933.891
933.891
933.895
934.087
934.238
934.372
934.496
934.614
934.727
934.836
934.942
935.045
935.146
935.245
935.341
935.436
935.528
935.619
935.709
935.796
935.882
935.966
936.049
936.129
936.207
936.284
936.36
936.436
936.511
936.586
936.661
936.736
936.811
936.886
936.96
937.035
937.108
937.182
937.255
937.327
937.399
937.47
937.54
937.61
937.68
937.748
937.816
937.882
937.947
938.011
938.073
938.133
938.187
938.009
937.895
937.807
937.735
937.672
937.617
937.567
937.522
937.481
937.443
933.891
933.891
933.891
933.891
933.891
933.891
933.891
933.891
933.891
933.895
934.087
934.238
934.371
934.495
934.613
934.726
934.835
934.941
935.044
935.145
935.243
935.34
935.434
935.527
935.618
935.707
935.795
935.881
935.965
936.048
936.128
936.206
936.282
936.358
936.434
936.509
936.584
936.659
936.734
936.809
936.885
936.96
937.034
937.108
937.181
937.254
937.326
937.398
937.469
937.54
937.61
937.679
937.747
937.815
937.881
937.946
938.01
938.073
938.134
938.187
938.009
937.895
937.807
937.734
937.672
937.616
937.567
937.521
937.48
937.442
933.891
933.891
933.891
933.891
933.891
933.891
933.891
933.891
933.891
933.895
934.087
934.238
934.371
934.495
934.612
934.725
934.834
934.94
935.043
935.144
935.242
935.338
935.433
935.526
935.616
935.706
935.794
935.88
935.964
936.046
936.127
936.204
936.281
936.356
936.431
936.506
936.582
936.657
936.733
936.808
936.884
936.959
937.033
937.107
937.181
937.254
937.326
937.397
937.468
937.539
937.609
937.678
937.746
937.814
937.88
937.946
938.01
938.072
938.133
938.188
938.009
937.894
937.806
937.734
937.671
937.615
937.566
937.52
937.479
937.441
933.891
933.891
933.891
933.891
933.891
933.891
933.891
933.891
933.891
933.895
934.086
934.237
934.371
934.494
934.611
934.724
934.833
934.939
935.042
935.142
935.24
935.337
935.431
935.524
935.615
935.704
935.792
935.878
935.962
936.044
936.125
936.202
936.278
936.354
936.429
936.504
936.58
936.656
936.732
936.807
936.883
936.958
937.033
937.107
937.18
937.253
937.325
937.396
937.468
937.538
937.608
937.677
937.745
937.813
937.879
937.945
938.009
938.072
938.133
938.187
938.008
937.893
937.805
937.732
937.67
937.614
937.564
937.519
937.477
937.439
933.891
933.891
933.891
933.891
933.891
933.891
933.891
933.891
933.891
933.895
934.086
934.237
934.37
934.494
934.611
934.723
934.832
934.937
935.04
935.141
935.239
935.335
935.429
935.522
935.613
935.702
935.79
935.876
935.96
936.042
936.122
936.2
936.276
936.351
936.426
936.502
936.578
936.654
936.73
936.806
936.882
936.957
937.032
937.106
937.179
937.252
937.324
937.395
937.466
937.537
937.606
937.676
937.744
937.811
937.878
937.943
938.007
938.07
938.132
938.187
938.007
937.892
937.804
937.731
937.669
937.613
937.563
937.517
937.476
937.438
933.891
933.891
933.891
933.891
933.891
933.891
933.891
933.891
933.891
933.895
934.086
934.237
934.37
934.493
934.61
934.722
934.83
934.936
935.039
935.139
935.237
935.333
935.427
935.52
935.61
935.7
935.787
935.873
935.957
936.04
936.119
936.197
936.273
936.348
936.424
936.5
936.576
936.653
936.729
936.805
936.881
936.956
937.03
937.104
937.177
937.25
937.322
937.394
937.465
937.535
937.605
937.674
937.742
937.81
937.876
937.942
938.006
938.069
938.131
938.186
938.006
937.891
937.803
937.73
937.667
937.612
937.562
937.516
937.474
937.437
933.891
933.891
933.891
933.891
933.891
933.891
933.891
933.891
933.891
933.895
934.086
934.237
934.37
934.492
934.609
934.721
934.829
934.934
935.037
935.137
935.235
935.331
935.425
935.517
935.608
935.697
935.785
935.87
935.955
936.037
936.116
936.194
936.27
936.346
936.422
936.498
936.575
936.651
936.728
936.804
936.879
936.954
937.029
937.103
937.176
937.249
937.321
937.392
937.463
937.534
937.603
937.672
937.741
937.808
937.875
937.94
938.005
938.068
938.13
938.185
938.005
937.89
937.802
937.729
937.666
937.611
937.561
937.515
937.474
937.436
933.891
933.891
933.891
933.891
933.891
933.891
933.891
933.891
933.891
933.895
934.086
934.237
934.369
934.492
934.608
934.72
934.828
934.933
935.035
935.135
935.233
935.329
935.423
935.515
935.605
935.694
935.782
935.867
935.951
936.033
936.113
936.191
936.267
936.343
936.42
936.496
936.573
936.65
936.727
936.803
936.878
936.953
937.028
937.102
937.175
937.248
937.32
937.391
937.462
937.533
937.602
937.672
937.74
937.808
937.875
937.94
938.005
938.069
938.131
938.186
938.007
937.891
937.803
937.73
937.668
937.612
937.562
937.517
937.475
937.438
933.891
933.891
933.891
933.891
933.891
933.891
933.891
933.891
933.891
933.895
934.086
934.236
934.369
934.491
934.608
934.719
934.827
934.932
935.034
935.133
935.231
935.327
935.42
935.513
935.603
935.692
935.779
935.865
935.949
936.031
936.111
936.189
936.265
936.342
936.419
936.496
936.573
936.65
936.727
936.803
936.879
936.954
937.029
937.103
937.176
937.249
937.321
937.393
937.464
937.535
937.605
937.674
937.743
937.811
937.878
937.945
938.01
938.074
938.136
938.192
938.013
937.897
937.81
937.737
937.674
937.619
937.569
937.524
937.483
937.445
933.891
933.891
933.891
933.891
933.891
933.891
933.891
933.891
933.891
933.895
934.086
934.237
934.369
934.491
934.607
934.718
934.826
934.93
935.032
935.132
935.229
935.325
935.419
935.511
935.602
935.691
935.778
935.864
935.948
936.03
936.11
936.189
936.266
936.344
936.421
936.499
936.577
936.654
936.731
936.808
936.884
936.96
937.035
937.109
937.183
937.257
937.33
937.402
937.474
937.545
937.616
937.686
937.755
937.824
937.892
937.96
938.026
938.091
938.154
938.211
938.031
937.916
937.829
937.757
937.694
937.639
937.59
937.545
937.505
937.468
933.891
933.891
933.891
933.891
933.891
933.891
933.891
933.891
933.891
933.895
934.087
934.237
934.369
934.492
934.607
934.719
934.826
934.931
935.033
935.133
935.23
935.326
935.42
935.513
935.604
935.694
935.782
935.868
935.953
936.036
936.117
936.196
936.275
936.354
936.433
936.512
936.591
936.669
936.747
936.825
936.903
936.98
937.056
937.132
937.207
937.282
937.356
937.43
937.503
937.576
937.648
937.72
937.791
937.862
937.932
938.001
938.069
938.136
938.201
938.26
938.081
937.966
937.879
937.807
937.746
937.692
937.643
937.599
937.559
937.523
933.891
933.891
933.891
933.891
933.891
933.891
933.891
933.891
933.891
933.895
934.086
934.237
934.37
934.493
934.609
934.721
934.829
934.934
935.037
935.138
935.237
935.334
935.43
935.524
935.616
935.708
935.797
935.886
935.972
936.057
936.14
936.223
936.304
936.386
936.467
936.549
936.631
936.712
936.793
936.874
936.954
937.034
937.113
937.192
937.27
937.349
937.426
937.503
937.58
937.656
937.732
937.807
937.882
937.956
938.03
938.103
938.175
938.246
938.316
938.378
938.198
938.084
937.998
937.927
937.867
937.814
937.767
937.724
937.685
937.65
933.891
933.891
933.891
933.891
933.891
933.891
933.891
933.891
933.891
933.895
934.088
934.241
934.375
934.5
934.618
934.732
934.843
934.951
935.057
935.161
935.263
935.364
935.464
935.562
935.659
935.755
935.849
935.942
936.034
936.124
936.212
936.3
936.387
936.475
936.562
936.65
936.738
936.825
936.912
936.999
937.085
937.172
937.257
937.343
937.428
937.513
937.597
937.681
937.765
937.848
937.931
938.013
938.095
938.176
938.257
938.338
938.417
938.495
938.572
938.641
938.459
938.344
938.259
938.188
938.129
938.077
938.03
937.988
937.95
937.916
933.891
933.891
933.891
933.891
933.891
933.891
933.891
933.891
933.891
933.895
934.094
934.251
934.391
934.522
934.647
934.768
934.887
935.003
935.118
935.231
935.343
935.453
935.563
935.671
935.778
935.885
935.99
936.094
936.197
936.298
936.399
936.498
936.598
936.697
936.797
936.896
936.996
937.095
937.195
937.294
937.392
937.491
937.589
937.686
937.783
937.88
937.977
938.073
938.168
938.264
938.358
938.453
938.546
938.64
938.732
938.824
938.915
939.005
939.093
939.172
938.978
938.856
938.764
938.689
938.624
938.566
938.515
938.467
938.425
938.386
933.891
933.891
933.891
933.891
933.891
933.891
933.891
933.891
933.891
933.896
934.113
934.289
934.447
934.596
934.739
934.88
935.018
935.154
935.289
935.423
935.555
935.687
935.817
935.947
936.075
936.203
936.329
936.454
936.577
936.699
936.82
936.939
937.059
937.178
937.296
937.415
937.534
937.652
937.769
937.886
938.002
938.118
938.233
938.347
938.46
938.573
938.685
938.796
938.907
939.016
939.125
939.234
939.341
939.447
939.553
939.657
939.761
939.862
939.962
940.048
939.806
939.648
939.525
939.42
939.328
939.246
939.171
939.102
939.038
938.982
933.891
933.891
933.891
933.891
933.891
933.891
933.891
933.891
933.892
933.898
934.186
934.409
934.605
934.79
934.968
935.14
935.31
935.477
935.641
935.804
935.965
936.124
936.281
936.436
936.59
936.742
936.892
937.04
937.185
937.328
937.468
937.607
937.744
937.881
938.016
938.151
938.285
938.417
938.549
938.679
938.807
938.935
939.061
939.185
939.309
939.431
939.551
939.671
939.789
939.906
940.023
940.138
940.251
940.364
940.475
940.585
940.693
940.799
940.903
940.98
940.579
940.324
940.128
939.965
939.826
939.703
939.594
939.496
939.407
939.33
933.891
933.891
933.891
933.891
933.891
933.891
933.891
933.891
933.891
933.896
934.116
934.321
934.512
934.695
934.871
935.042
935.211
935.377
935.54
935.701
935.861
936.019
936.175
936.33
936.484
936.636
936.786
936.935
937.082
937.228
937.372
937.513
937.654
937.792
937.928
938.062
938.194
938.325
938.454
938.583
938.711
938.839
938.966
939.093
939.218
939.342
939.465
939.586
939.706
939.824
939.941
940.056
940.169
940.281
940.39
940.498
940.603
940.706
940.808
940.888
940.56
940.318
940.126
939.965
939.827
939.704
939.595
939.497
939.408
939.33
933.891
933.891
933.891
933.891
933.891
933.891
933.891
933.891
933.891
933.894
934.051
934.206
934.354
934.498
934.638
934.776
934.911
935.044
935.177
935.308
935.438
935.567
935.696
935.824
935.951
936.077
936.202
936.327
936.451
936.574
936.697
936.818
936.939
937.059
937.177
937.295
937.412
937.528
937.643
937.758
937.874
937.989
938.105
938.22
938.334
938.448
938.561
938.674
938.785
938.895
939.005
939.113
939.22
939.326
939.43
939.532
939.634
939.733
939.831
939.916
939.749
939.612
939.498
939.399
939.312
939.232
939.159
939.092
939.03
938.974
933.891
933.891
933.891
933.891
933.891
933.891
933.891
933.891
933.891
933.894
934.035
934.173
934.304
934.429
934.551
934.669
934.785
934.899
935.011
935.121
935.231
935.339
935.446
935.553
935.659
935.763
935.868
935.971
936.074
936.176
936.278
936.379
936.479
936.579
936.678
936.776
936.873
936.97
937.067
937.164
937.261
937.359
937.457
937.555
937.653
937.75
937.847
937.943
938.039
938.134
938.229
938.323
938.416
938.508
938.598
938.688
938.777
938.864
938.949
939.027
938.903
938.803
938.72
938.651
938.59
938.535