/*--------------------------------*- C++ -*----------------------------------*\
  =========                 |
  \\      /  F ield         | OpenFOAM: The Open Source CFD Toolbox
   \\    /   O peration     | Website:  https://openfoam.org
    \\  /    A nd           | Version:  12
     \\/     M anipulation  |
\*---------------------------------------------------------------------------*/
FoamFile
{
    format      ascii;
    class       volScalarField;
    location    "800/porous";
    object      T;
}
// * * * * * * * * * * * * * * * * * * * * * * * * * * * * * * * * * * * * * //

dimensions      [0 0 0 1 0 0 0];

internalField   nonuniform List<scalar> 
140000
(
400
400
400
400
400
400
400
400
400
399.992
399.681
399.439
399.225
399.025
398.832
398.646
398.463
398.284
398.107
397.933
397.76
397.589
397.42
397.252
397.086
396.921
396.757
396.596
396.436
396.277
396.121
395.966
395.813
395.663
395.514
395.368
395.223
395.08
394.938
394.797
394.656
394.515
394.374
394.234
394.096
393.958
393.823
393.689
393.556
393.425
393.296
393.168
393.043
392.919
392.798
392.678
392.561
392.447
392.334
392.25
392.696
392.979
393.196
393.376
393.531
393.667
393.787
393.896
393.995
394.08
400
400
400
400
400
400
400
400
400
399.995
399.756
399.565
399.394
399.232
399.077
398.925
398.777
398.63
398.486
398.342
398.2
398.059
397.919
397.78
397.642
397.504
397.367
397.231
397.096
396.961
396.828
396.695
396.563
396.432
396.303
396.174
396.047
395.92
395.794
395.667
395.54
395.413
395.286
395.159
395.033
394.907
394.783
394.659
394.536
394.415
394.294
394.175
394.057
393.94
393.825
393.712
393.601
393.492
393.383
393.295
393.56
393.733
393.869
393.984
394.085
394.176
394.258
394.334
394.404
394.466
400
400
400
400
400
400
400
400
400
399.996
399.776
399.604
399.452
399.31
399.174
399.044
398.916
398.791
398.669
398.547
398.428
398.309
398.192
398.076
397.96
397.846
397.732
397.619
397.506
397.395
397.283
397.173
397.064
396.955
396.847
396.739
396.633
396.527
396.421
396.314
396.207
396.099
395.991
395.883
395.776
395.669
395.562
395.456
395.35
395.245
395.141
395.038
394.936
394.835
394.735
394.636
394.539
394.443
394.351
394.268
394.479
394.612
394.712
394.794
394.865
394.928
394.984
395.036
395.083
395.125
400
400
400
400
400
400
400
400
400
399.996
399.781
399.614
399.467
399.331
399.203
399.08
398.961
398.845
398.731
398.62
398.511
398.403
398.296
398.191
398.087
397.984
397.882
397.781
397.681
397.582
397.483
397.386
397.289
397.194
397.099
397.005
396.912
396.82
396.728
396.635
396.541
396.447
396.352
396.258
396.164
396.071
395.978
395.885
395.793
395.702
395.612
395.522
395.433
395.345
395.259
395.173
395.089
395.007
394.927
394.858
395.055
395.178
395.271
395.347
395.412
395.469
395.519
395.565
395.606
395.643
400
400
400
400
400
400
400
400
400
399.996
399.782
399.616
399.47
399.337
399.21
399.09
398.973
398.86
398.75
398.642
398.537
398.433
398.331
398.23
398.131
398.033
397.936
397.84
397.746
397.652
397.559
397.468
397.378
397.288
397.2
397.113
397.027
396.942
396.856
396.77
396.683
396.596
396.509
396.422
396.335
396.249
396.164
396.079
395.995
395.912
395.829
395.747
395.667
395.587
395.509
395.432
395.357
395.283
395.212
395.15
395.344
395.467
395.56
395.636
395.701
395.759
395.81
395.856
395.898
395.936
400
400
400
400
400
400
400
400
400
399.996
399.781
399.615
399.47
399.336
399.211
399.09
398.975
398.862
398.753
398.646
398.542
398.439
398.339
398.24
398.142
398.046
397.951
397.857
397.765
397.674
397.584
397.495
397.407
397.321
397.236
397.152
397.069
396.987
396.905
396.822
396.738
396.654
396.57
396.487
396.404
396.321
396.24
396.159
396.078
395.999
395.92
395.843
395.766
395.691
395.617
395.545
395.474
395.405
395.339
395.281
395.474
395.597
395.691
395.769
395.835
395.894
395.946
395.994
396.037
396.076
400
400
400
400
400
400
400
400
400
399.996
399.781
399.614
399.469
399.335
399.21
399.089
398.974
398.861
398.752
398.646
398.541
398.439
398.339
398.24
398.143
398.048
397.954
397.861
397.769
397.679
397.59
397.502
397.416
397.331
397.247
397.165
397.084
397.003
396.922
396.841
396.758
396.675
396.593
396.511
396.429
396.348
396.268
396.189
396.11
396.033
395.956
395.88
395.806
395.732
395.661
395.59
395.522
395.456
395.391
395.338
395.53
395.653
395.747
395.825
395.893
395.952
396.005
396.054
396.098
396.138
400
400
400
400
400
400
400
400
400
399.996
399.78
399.614
399.468
399.334
399.208
399.087
398.971
398.859
398.75
398.643
398.539
398.436
398.336
398.238
398.141
398.045
397.951
397.859
397.767
397.677
397.589
397.502
397.416
397.332
397.249
397.167
397.087
397.007
396.927
396.846
396.764
396.681
396.599
396.518
396.437
396.357
396.277
396.199
396.121
396.044
395.968
395.893
395.819
395.747
395.676
395.607
395.54
395.475
395.412
395.36
395.551
395.675
395.769
395.848
395.915
395.975
396.029
396.078
396.123
396.163
400
400
400
400
400
400
400
400
400
399.996
399.78
399.613
399.467
399.333
399.207
399.086
398.97
398.857
398.747
398.641
398.536
398.434
398.333
398.235
398.138
398.042
397.948
397.856
397.765
397.675
397.586
397.5
397.414
397.33
397.248
397.167
397.088
397.008
396.928
396.846
396.764
396.682
396.6
396.519
396.438
396.358
396.279
396.201
396.123
396.046
395.971
395.896
395.823
395.751
395.681
395.612
395.545
395.481
395.419
395.367
395.558
395.682
395.777
395.856
395.923
395.983
396.037
396.086
396.131
396.172
400
400
400
400
400
400
400
400
400
399.996
399.78
399.612
399.466
399.332
399.205
399.084
398.968
398.855
398.745
398.638
398.534
398.431
398.331
398.232
398.135
398.039
397.945
397.853
397.762
397.672
397.584
397.497
397.412
397.329
397.247
397.167
397.087
397.008
396.927
396.845
396.763
396.681
396.599
396.518
396.437
396.357
396.278
396.2
396.122
396.046
395.97
395.896
395.822
395.751
395.68
395.612
395.546
395.481
395.42
395.369
395.56
395.684
395.779
395.857
395.925
395.985
396.039
396.088
396.133
396.174
400
400
400
400
400
400
400
400
400
399.996
399.779
399.612
399.466
399.331
399.205
399.083
398.967
398.854
398.744
398.637
398.532
398.429
398.329
398.23
398.133
398.037
397.943
397.851
397.76
397.67
397.582
397.495
397.411
397.328
397.246
397.166
397.087
397.007
396.927
396.845
396.762
396.68
396.598
396.516
396.436
396.356
396.277
396.198
396.121
396.044
395.969
395.894
395.821
395.749
395.679
395.61
395.544
395.48
395.419
395.368
395.559
395.683
395.778
395.856
395.924
395.984
396.038
396.088
396.133
396.173
400
400
400
400
400
400
400
400
400
399.996
399.779
399.612
399.465
399.331
399.204
399.083
398.966
398.853
398.743
398.635
398.53
398.428
398.327
398.228
398.131
398.036
397.942
397.849
397.758
397.669
397.581
397.495
397.41
397.328
397.247
397.167
397.087
397.007
396.926
396.844
396.761
396.679
396.597
396.515
396.435
396.355
396.275
396.197
396.119
396.043
395.967
395.892
395.819
395.747
395.677
395.608
395.542
395.478
395.418
395.367
395.558
395.681
395.776
395.855
395.923
395.983
396.037
396.086
396.131
396.172
400
400
400
400
400
400
400
400
400
399.996
399.779
399.612
399.466
399.331
399.204
399.083
398.966
398.852
398.742
398.635
398.53
398.427
398.326
398.227
398.13
398.035
397.941
397.848
397.757
397.668
397.581
397.495
397.411
397.329
397.248
397.168
397.088
397.008
396.926
396.844
396.761
396.678
396.596
396.515
396.434
396.354
396.274
396.196
396.118
396.041
395.966
395.891
395.817
395.745
395.675
395.607
395.54
395.476
395.416
395.365
395.556
395.68
395.774
395.853
395.921
395.981
396.035
396.084
396.129
396.17
400
400
400
400
400
400
400
400
400
399.996
399.779
399.612
399.466
399.331
399.204
399.083
398.965
398.852
398.742
398.634
398.529
398.426
398.326
398.227
398.13
398.034
397.94
397.848
397.758
397.669
397.581
397.496
397.413
397.33
397.249
397.169
397.088
397.008
396.926
396.844
396.761
396.678
396.596
396.514
396.433
396.353
396.274
396.195
396.117
396.04
395.964
395.89
395.816
395.744
395.673
395.605
395.538
395.475
395.414
395.363
395.554
395.678
395.772
395.851
395.919
395.979
396.033
396.082
396.127
396.167
400
400
400
400
400
400
400
400
400
399.996
399.78
399.612
399.466
399.332
399.205
399.083
398.966
398.852
398.742
398.634
398.529
398.427
398.326
398.227
398.13
398.035
397.941
397.849
397.759
397.67
397.583
397.498
397.415
397.333
397.251
397.17
397.089
397.008
396.926
396.844
396.761
396.678
396.596
396.514
396.433
396.353
396.273
396.195
396.117
396.04
395.963
395.888
395.815
395.742
395.672
395.603
395.537
395.473
395.412
395.362
395.553
395.676
395.77
395.849
395.917
395.976
396.03
396.079
396.124
396.165
400
400
400
400
400
400
400
400
400
399.996
399.78
399.613
399.467
399.333
399.205
399.084
398.967
398.853
398.742
398.635
398.53
398.427
398.326
398.228
398.131
398.036
397.942
397.85
397.76
397.672
397.586
397.501
397.418
397.335
397.253
397.171
397.089
397.008
396.926
396.844
396.761
396.678
396.596
396.514
396.433
396.353
396.273
396.194
396.116
396.039
395.963
395.887
395.813
395.741
395.67
395.601
395.535
395.471
395.41
395.36
395.551
395.674
395.768
395.847
395.914
395.974
396.028
396.077
396.122
396.162
400
400
400
400
400
400
400
400
400
399.996
399.78
399.613
399.468
399.333
399.206
399.085
398.967
398.854
398.743
398.635
398.53
398.428
398.327
398.228
398.132
398.037
397.944
397.852
397.763
397.675
397.589
397.505
397.421
397.337
397.254
397.171
397.089
397.008
396.926
396.844
396.761
396.678
396.596
396.514
396.433
396.353
396.273
396.194
396.116
396.038
395.962
395.886
395.812
395.74
395.669
395.6
395.533
395.469
395.408
395.358
395.548
395.672
395.766
395.844
395.912
395.972
396.025
396.074
396.119
396.16
400
400
400
400
400
400
400
400
400
399.996
399.781
399.615
399.469
399.334
399.207
399.086
398.968
398.855
398.744
398.636
398.531
398.428
398.328
398.229
398.133
398.038
397.946
397.855
397.765
397.678
397.593
397.508
397.423
397.339
397.255
397.172
397.089
397.007
396.925
396.843
396.761
396.678
396.596
396.514
396.433
396.353
396.273
396.194
396.115
396.038
395.961
395.885
395.811
395.738
395.667
395.598
395.531
395.467
395.406
395.356
395.547
395.67
395.764
395.842
395.91
395.97
396.023
396.072
396.117
396.157
400
400
400
400
400
400
400
400
400
399.996
399.781
399.615
399.47
399.336
399.209
399.087
398.969
398.856
398.745
398.637
398.532
398.429
398.329
398.23
398.134
398.04
397.947
397.857
397.768
397.682
397.596
397.511
397.425
397.34
397.256
397.172
397.089
397.006
396.924
396.843
396.761
396.679
396.597
396.515
396.434
396.353
396.273
396.194
396.115
396.037
395.961
395.885
395.811
395.738
395.666
395.597
395.53
395.466
395.405
395.355
395.545
395.668
395.762
395.841
395.908
395.968
396.021
396.07
396.115
396.155
400
400
400
400
400
400
400
400
400
399.996
399.782
399.616
399.47
399.336
399.209
399.088
398.97
398.856
398.746
398.638
398.533
398.43
398.329
398.231
398.135
398.041
397.949
397.859
397.771
397.685
397.599
397.512
397.426
397.341
397.256
397.172
397.089
397.006
396.924
396.843
396.761
396.68
396.598
396.516
396.435
396.354
396.274
396.195
396.116
396.038
395.961
395.885
395.811
395.737
395.666
395.596
395.529
395.465
395.404
395.353
395.544
395.667
395.761
395.839
395.907
395.966
396.02
396.069
396.114
396.154
400
400
400
400
400
400
400
400
400
399.996
399.783
399.618
399.473
399.338
399.211
399.089
398.972
398.858
398.747
398.639
398.533
398.431
398.33
398.232
398.136
398.042
397.95
397.861
397.773
397.687
397.601
397.514
397.427
397.342
397.257
397.172
397.089
397.006
396.924
396.843
396.762
396.681
396.599
396.518
396.437
396.356
396.276
396.196
396.117
396.039
395.962
395.886
395.812
395.738
395.666
395.597
395.529
395.465
395.403
395.353
395.543
395.666
395.76
395.839
395.906
395.965
396.019
396.068
396.113
396.153
400
400
400
400
400
400
400
400
400
399.996
399.783
399.618
399.473
399.339
399.212
399.09
398.972
398.858
398.747
398.639
398.534
398.431
398.33
398.232
398.136
398.042
397.951
397.861
397.774
397.688
397.602
397.515
397.428
397.342
397.257
397.172
397.089
397.006
396.925
396.844
396.763
396.683
396.601
396.52
396.439
396.358
396.278
396.198
396.119
396.041
395.964
395.888
395.813
395.739
395.668
395.598
395.53
395.465
395.404
395.353
395.543
395.666
395.76
395.838
395.906
395.965
396.019
396.068
396.112
396.153
400
400
400
400
400
400
400
400
400
399.996
399.785
399.619
399.474
399.34
399.213
399.091
398.973
398.859
398.748
398.64
398.534
398.431
398.331
398.232
398.136
398.042
397.951
397.861
397.774
397.688
397.602
397.515
397.428
397.342
397.257
397.172
397.089
397.006
396.925
396.844
396.764
396.684
396.603
396.522
396.441
396.36
396.28
396.2
396.121
396.043
395.966
395.89
395.814
395.741
395.669
395.599
395.531
395.466
395.404
395.352
395.542
395.666
395.76
395.838
395.905
395.965
396.019
396.067
396.112
396.153
400
400
400
400
400
400
400
400
400
399.996
399.785
399.62
399.476
399.341
399.214
399.092
398.974
398.86
398.749
398.641
398.535
398.432
398.331
398.232
398.136
398.042
397.95
397.861
397.774
397.687
397.601
397.514
397.427
397.341
397.256
397.171
397.088
397.005
396.924
396.844
396.765
396.685
396.605
396.524
396.443
396.362
396.282
396.202
396.123
396.045
395.967
395.891
395.816
395.742
395.67
395.6
395.532
395.466
395.404
395.351
395.542
395.665
395.76
395.838
395.905
395.965
396.019
396.067
396.112
396.153
400
400
400
400
400
400
400
400
400
399.996
399.785
399.621
399.476
399.342
399.215
399.093
398.975
398.861
398.749
398.641
398.535
398.432
398.331
398.232
398.135
398.041
397.949
397.86
397.772
397.686
397.599
397.513
397.426
397.34
397.254
397.17
397.087
397.004
396.923
396.844
396.765
396.686
396.605
396.525
396.444
396.364
396.283
396.204
396.125
396.046
395.969
395.892
395.817
395.743
395.671
395.601
395.533
395.467
395.404
395.351
395.542
395.666
395.76
395.838
395.905
395.965
396.019
396.067
396.112
396.153
400
400
400
400
400
400
400
400
400
399.996
399.787
399.623
399.478
399.344
399.217
399.095
398.976
398.862
398.75
398.642
398.536
398.432
398.331
398.232
398.135
398.041
397.948
397.858
397.771
397.684
397.598
397.511
397.424
397.338
397.253
397.168
397.085
397.003
396.922
396.843
396.764
396.685
396.606
396.526
396.445
396.365
396.284
396.205
396.126
396.047
395.97
395.893
395.818
395.744
395.672
395.601
395.533
395.466
395.403
395.348
395.54
395.664
395.758
395.837
395.904
395.964
396.018
396.067
396.111
396.152
400
400
400
400
400
400
400
400
400
399.996
399.788
399.623
399.479
399.345
399.217
399.095
398.977
398.862
398.751
398.642
398.536
398.432
398.331
398.232
398.135
398.04
397.947
397.857
397.769
397.682
397.595
397.509
397.422
397.336
397.251
397.167
397.084
397.002
396.921
396.842
396.763
396.685
396.605
396.525
396.445
396.365
396.285
396.205
396.126
396.048
395.97
395.894
395.818
395.744
395.672
395.601
395.533
395.466
395.403
395.348
395.54
395.663
395.758
395.836
395.904
395.963
396.017
396.066
396.111
396.151
400
400
400
400
400
400
400
400
400
399.996
399.788
399.624
399.48
399.346
399.218
399.096
398.978
398.863
398.752
398.643
398.537
398.433
398.331
398.232
398.134
398.039
397.946
397.856
397.767
397.68
397.593
397.506
397.42
397.334
397.249
397.165
397.082
397
396.919
396.84
396.762
396.684
396.604
396.524
396.444
396.364
396.284
396.205
396.126
396.047
395.97
395.894
395.818
395.744
395.672
395.601
395.532
395.465
395.401
395.346
395.538
395.662
395.757
395.835
395.903
395.962
396.016
396.065
396.11
396.151
400
400
400
400
400
400
400
400
400
399.996
399.79
399.626
399.481
399.347
399.22
399.097
398.979
398.865
398.753
398.644
398.538
398.434
398.332
398.232
398.134
398.039
397.946
397.854
397.765
397.678
397.591
397.504
397.418
397.333
397.248
397.164
397.081
396.999
396.918
396.839
396.761
396.682
396.603
396.523
396.443
396.363
396.283
396.204
396.125
396.047
395.969
395.893
395.818
395.744
395.671
395.6
395.531
395.464
395.399
395.343
395.536
395.66
395.755
395.834
395.901
395.961
396.015
396.064
396.109
396.15
400
400
400
400
400
400
400
400
400
399.996
399.79
399.626
399.482
399.348
399.22
399.098
398.98
398.865
398.754
398.645
398.538
398.434
398.332
398.232
398.135
398.039
397.945
397.853
397.764
397.676
397.589
397.502
397.416
397.331
397.247
397.163
397.08
396.998
396.917
396.838
396.759
396.68
396.601
396.521
396.441
396.361
396.282
396.203
396.124
396.046
395.969
395.892
395.817
395.743
395.67
395.599
395.53
395.463
395.398
395.341
395.535
395.659
395.754
395.833
395.901
395.96
396.014
396.063
396.108
396.149
400
400
400
400
400
400
400
400
400
399.996
399.79
399.627
399.483
399.349
399.221
399.099
398.981
398.866
398.755
398.646
398.539
398.435
398.333
398.233
398.135
398.039
397.945
397.853
397.763
397.674
397.588
397.501
397.415
397.33
397.246
397.162
397.08
396.998
396.917
396.837
396.758
396.679
396.599
396.519
396.439
396.36
396.28
396.201
396.123
396.045
395.968
395.892
395.817
395.742
395.67
395.599
395.529
395.462
395.396
395.338
395.532
395.657
395.753
395.831
395.9
395.96
396.014
396.063
396.108
396.149
400
400
400
400
400
400
400
400
400
399.996
399.79
399.627
399.483
399.349
399.222
399.1
398.982
398.867
398.756
398.647
398.54
398.436
398.334
398.234
398.135
398.039
397.945
397.852
397.762
397.673
397.586
397.5
397.415
397.33
397.246
397.163
397.08
396.999
396.918
396.838
396.759
396.679
396.598
396.518
396.438
396.359
396.28
396.201
396.123
396.045
395.968
395.892
395.816
395.742
395.67
395.598
395.529
395.462
395.396
395.337
395.532
395.657
395.752
395.831
395.899
395.96
396.014
396.063
396.108
396.149
400
400
400
400
400
400
400
400
400
399.996
399.79
399.628
399.484
399.35
399.223
399.101
398.983
398.868
398.757
398.648
398.541
398.437
398.335
398.234
398.136
398.04
397.945
397.852
397.761
397.673
397.586
397.5
397.415
397.331
397.248
397.165
397.082
397.001
396.92
396.84
396.759
396.679
396.598
396.518
396.438
396.358
396.279
396.201
396.122
396.045
395.968
395.892
395.817
395.743
395.67
395.599
395.529
395.461
395.395
395.337
395.531
395.657
395.752
395.831
395.9
395.96
396.014
396.064
396.109
396.15
400
400
400
400
400
400
400
400
400
399.996
399.79
399.628
399.484
399.35
399.224
399.102
398.984
398.869
398.758
398.649
398.542
398.438
398.336
398.236
398.137
398.041
397.946
397.853
397.762
397.673
397.586
397.5
397.416
397.333
397.249
397.167
397.085
397.004
396.923
396.842
396.761
396.679
396.599
396.518
396.438
396.358
396.279
396.201
396.123
396.045
395.968
395.892
395.817
395.743
395.67
395.599
395.529
395.461
395.394
395.335
395.531
395.656
395.752
395.832
395.9
395.961
396.015
396.064
396.11
396.151
400
400
400
400
400
400
400
400
400
399.996
399.791
399.628
399.484
399.351
399.224
399.103
398.985
398.87
398.759
398.65
398.543
398.439
398.337
398.237
398.138
398.042
397.947
397.854
397.762
397.673
397.586
397.501
397.417
397.334
397.252
397.17
397.088
397.007
396.925
396.844
396.762
396.68
396.599
396.518
396.438
396.359
396.28
396.201
396.123
396.046
395.969
395.893
395.818
395.744
395.671
395.6
395.529
395.461
395.395
395.336
395.531
395.657
395.753
395.832
395.901
395.962
396.016
396.066
396.111
396.152
400
400
400
400
400
400
400
400
400
399.996
399.791
399.628
399.485
399.352
399.225
399.103
398.986
398.871
398.76
398.651
398.545
398.441
398.339
398.238
398.14
398.043
397.948
397.855
397.763
397.674
397.587
397.502
397.419
397.336
397.254
397.172
397.091
397.009
396.927
396.845
396.763
396.681
396.6
396.519
396.439
396.359
396.28
396.202
396.124
396.046
395.97
395.894
395.819
395.745
395.672
395.6
395.53
395.461
395.394
395.335
395.531
395.657
395.754
395.833
395.902
395.963
396.017
396.067
396.112
396.153
400
400
400
400
400
400
400
400
400
399.996
399.791
399.628
399.485
399.352
399.226
399.104
398.987
398.873
398.761
398.653
398.546
398.442
398.34
398.24
398.141
398.045
397.95
397.856
397.765
397.675
397.588
397.504
397.421
397.339
397.257
397.175
397.093
397.011
396.928
396.846
396.764
396.682
396.6
396.519
396.439
396.36
396.281
396.202
396.124
396.047
395.971
395.895
395.82
395.746
395.673
395.601
395.531
395.462
395.395
395.335
395.531
395.658
395.754
395.834
395.903
395.963
396.018
396.068
396.114
396.155
400
400
400
400
400
400
400
400
400
399.996
399.791
399.629
399.486
399.353
399.227
399.105
398.988
398.874
398.763
398.654
398.548
398.444
398.342
398.242
398.143
398.047
397.952
397.858
397.767
397.677
397.59
397.506
397.423
397.341
397.26
397.178
397.095
397.013
396.93
396.847
396.765
396.683
396.601
396.52
396.44
396.361
396.282
396.203
396.126
396.048
395.972
395.896
395.821
395.747
395.674
395.602
395.532
395.463
395.395
395.336
395.532
395.659
395.755
395.835
395.904
395.965
396.02
396.069
396.115
396.156
400
400
400
400
400
400
400
400
400
399.996
399.791
399.629
399.486
399.353
399.227
399.106
398.989
398.875
398.764
398.656
398.55
398.446
398.344
398.244
398.146
398.049
397.954
397.861
397.769
397.68
397.593
397.508
397.426
397.344
397.262
397.18
397.097
397.014
396.931
396.848
396.766
396.684
396.602
396.521
396.441
396.362
396.283
396.205
396.127
396.05
395.973
395.898
395.823
395.749
395.676
395.604
395.533
395.464
395.396
395.336
395.533
395.66
395.756
395.836
395.905
395.966
396.021
396.071
396.117
396.158
400
400
400
400
400
400
400
400
400
399.996
399.791
399.629
399.486
399.354
399.228
399.107
398.991
398.877
398.766
398.658
398.552
398.448
398.346
398.246
398.148
398.051
397.957
397.863
397.772
397.683
397.596
397.512
397.429
397.347
397.265
397.182
397.099
397.016
396.932
396.85
396.767
396.685
396.604
396.523
396.443
396.363
396.285
396.206
396.129
396.052
395.975
395.899
395.824
395.75
395.677
395.605
395.535
395.465
395.398
395.337
395.534
395.661
395.758
395.838
395.907
395.968
396.022
396.072
396.118
396.159
400
400
400
400
400
400
400
400
400
399.996
399.791
399.629
399.487
399.355
399.229
399.109
398.992
398.878
398.768
398.66
398.554
398.45
398.349
398.249
398.151
398.054
397.959
397.866
397.775
397.686
397.599
397.515
397.432
397.35
397.267
397.184
397.101
397.017
396.934
396.851
396.768
396.687
396.605
396.525
396.445
396.365
396.286
396.208
396.13
396.053
395.977
395.901
395.826
395.752
395.679
395.607
395.536
395.466
395.398
395.338
395.535
395.662
395.759
395.839
395.908
395.968
396.023
396.073
396.119
396.16
400
400
400
400
400
400
400
400
400
399.996
399.791
399.629
399.487
399.355
399.23
399.11
398.993
398.88
398.77
398.662
398.556
398.453
398.351
398.252
398.153
398.057
397.962
397.869
397.778
397.689
397.603
397.518
397.435
397.353
397.269
397.186
397.102
397.019
396.935
396.852
396.77
396.688
396.606
396.526
396.446
396.366
396.287
396.209
396.131
396.054
395.978
395.902
395.827
395.753
395.679
395.607
395.536
395.466
395.398
395.337
395.534
395.661
395.757
395.837
395.906
395.967
396.022
396.071
396.117
396.158
400
400
400
400
400
400
400
400
400
399.996
399.791
399.63
399.487
399.356
399.231
399.111
398.994
398.882
398.771
398.664
398.558
398.455
398.354
398.254
398.156
398.06
397.965
397.872
397.781
397.692
397.605
397.521
397.437
397.354
397.27
397.186
397.102
397.018
396.935
396.852
396.769
396.687
396.606
396.525
396.444
396.365
396.286
396.207
396.129
396.052
395.975
395.899
395.824
395.749
395.675
395.602
395.531
395.46
395.392
395.33
395.528
395.654
395.751
395.83
395.899
395.96
396.014
396.063
396.109
396.15
400
400
400
400
400
400
400
400
400
399.996
399.792
399.63
399.488
399.356
399.231
399.112
398.996
398.883
398.773
398.665
398.56
398.457
398.355
398.256
398.158
398.061
397.966
397.873
397.782
397.693
397.606
397.521
397.437
397.352
397.268
397.183
397.099
397.014
396.93
396.846
396.763
396.681
396.599
396.517
396.437
396.356
396.276
396.197
396.118
396.04
395.963
395.886
395.81
395.734
395.66
395.586
395.513
395.442
395.372
395.31
395.507
395.633
395.729
395.809
395.877
395.937
395.991
396.04
396.085
396.126
400
400
400
400
400
400
400
400
400
399.996
399.791
399.629
399.487
399.356
399.231
399.111
398.995
398.883
398.772
398.665
398.559
398.456
398.354
398.253
398.155
398.058
397.963
397.869
397.777
397.687
397.599
397.513
397.427
397.341
397.255
397.169
397.083
396.998
396.912
396.828
396.743
396.659
396.576
396.493
396.411
396.329
396.247
396.167
396.086
396.006
395.927
395.849
395.77
395.693
395.616
395.54
395.466
395.392
395.32
395.255
395.453
395.579
395.674
395.753
395.82
395.88
395.933
395.981
396.025
396.065
400
400
400
400
400
400
400
400
400
399.996
399.791
399.629
399.486
399.354
399.229
399.109
398.992
398.879
398.768
398.659
398.552
398.447
398.344
398.242
398.142
398.043
397.945
397.85
397.756
397.664
397.573
397.484
397.395
397.307
397.218
397.129
397.04
396.951
396.863
396.775
396.687
396.6
396.513
396.427
396.341
396.256
396.171
396.086
396.002
395.919
395.836
395.753
395.671
395.589
395.508
395.428
395.349
395.271
395.194
395.126
395.324
395.449
395.544
395.621
395.688
395.746
395.798
395.844
395.887
395.925
400
400
400
400
400
400
400
400
400
399.996
399.789
399.625
399.481
399.347
399.22
399.097
398.977
398.861
398.746
398.634
398.523
398.414
398.307
398.2
398.095
397.992
397.889
397.788
397.689
397.591
397.495
397.4
397.305
397.209
397.114
397.019
396.923
396.828
396.733
396.638
396.543
396.449
396.355
396.262
396.169
396.076
395.984
395.891
395.8
395.708
395.618
395.527
395.437
395.347
395.258
395.17
395.082
394.996
394.911
394.835
395.037
395.163
395.257
395.334
395.4
395.457
395.508
395.554
395.596
395.634
400
400
400
400
400
400
400
400
400
399.996
399.782
399.614
399.463
399.323
399.188
399.058
398.93
398.804
398.681
398.559
398.438
398.318
398.2
398.082
397.966
397.851
397.736
397.623
397.512
397.401
397.292
397.184
397.076
396.967
396.859
396.75
396.641
396.533
396.424
396.316
396.208
396.1
395.993
395.886
395.779
395.673
395.567
395.461
395.356
395.251
395.147
395.043
394.94
394.837
394.735
394.633
394.533
394.433
394.336
394.249
394.464
394.598
394.699
394.783
394.855
394.918
394.975
395.027
395.074
395.117
400
400
400
400
400
400
400
400
400
399.995
399.762
399.573
399.404
399.243
399.089
398.937
398.788
398.641
398.495
398.351
398.208
398.065
397.924
397.783
397.644
397.505
397.368
397.232
397.098
396.965
396.834
396.703
396.573
396.443
396.313
396.183
396.053
395.924
395.795
395.667
395.539
395.412
395.285
395.16
395.035
394.911
394.787
394.664
394.542
394.421
394.3
394.18
394.062
393.943
393.826
393.71
393.595
393.483
393.371
393.276
393.545
393.72
393.858
393.974
394.075
394.167
394.25
394.326
394.397
394.459
400
400
400
400
400
400
400
400
400
399.992
399.684
399.445
399.233
399.034
398.842
398.656
398.473
398.293
398.115
397.938
397.764
397.591
397.421
397.251
397.084
396.918
396.754
396.593
396.435
396.279
396.125
395.973
395.822
395.673
395.524
395.375
395.228
395.082
394.937
394.794
394.652
394.511
394.372
394.234
394.097
393.962
393.828
393.695
393.564
393.433
393.304
393.176
393.049
392.923
392.8
392.677
392.556
392.437
392.322
392.235
392.684
392.968
393.187
393.368
393.523
393.659
393.781
393.89
393.988
394.074
400
400
400
400
400
400
400
400
400
399.995
399.759
399.539
399.333
399.137
398.947
398.762
398.58
398.401
398.224
398.049
397.876
397.705
397.535
397.367
397.2
397.034
396.87
396.708
396.547
396.388
396.231
396.075
395.922
395.77
395.621
395.473
395.328
395.184
395.042
394.9
394.758
394.617
394.476
394.336
394.197
394.06
393.924
393.789
393.656
393.525
393.395
393.267
393.141
393.016
392.895
392.775
392.657
392.541
392.427
392.338
392.705
392.975
393.189
393.368
393.522
393.658
393.779
393.888
393.987
394.073
400
400
400
400
400
400
400
400
400
399.997
399.829
399.663
399.503
399.349
399.198
399.05
398.904
398.76
398.617
398.475
398.334
398.195
398.055
397.917
397.779
397.642
397.506
397.37
397.235
397.101
396.968
396.835
396.703
396.573
396.443
396.314
396.187
396.06
395.933
395.807
395.68
395.553
395.426
395.3
395.174
395.048
394.923
394.8
394.677
394.555
394.434
394.314
394.195
394.079
393.963
393.849
393.737
393.627
393.518
393.423
393.609
393.76
393.887
393.997
394.094
394.182
394.263
394.337
394.406
394.468
400
400
400
400
400
400
400
400
400
399.998
399.846
399.698
399.557
399.422
399.292
399.164
399.04
398.917
398.796
398.677
398.559
398.442
398.326
398.21
398.096
397.982
397.869
397.757
397.645
397.534
397.424
397.314
397.205
397.096
396.989
396.882
396.775
396.67
396.564
396.458
396.352
396.245
396.137
396.03
395.923
395.816
395.71
395.604
395.498
395.394
395.29
395.187
395.084
394.983
394.883
394.783
394.686
394.589
394.496
394.409
394.546
394.657
394.748
394.825
394.892
394.952
395.006
395.056
395.101
395.142
400
400
400
400
400
400
400
400
400
399.998
399.85
399.706
399.571
399.442
399.319
399.199
399.082
398.968
398.857
398.747
398.639
398.532
398.427
398.322
398.219
398.117
398.016
397.915
397.816
397.717
397.62
397.523
397.426
397.331
397.237
397.143
397.05
396.958
396.866
396.774
396.681
396.587
396.494
396.4
396.307
396.214
396.121
396.029
395.937
395.846
395.756
395.666
395.578
395.49
395.403
395.317
395.233
395.15
395.069
394.996
395.121
395.224
395.308
395.379
395.44
395.494
395.543
395.587
395.627
395.663
400
400
400
400
400
400
400
400
400
399.998
399.85
399.708
399.574
399.447
399.325
399.208
399.094
398.983
398.875
398.768
398.664
398.561
398.46
398.36
398.261
398.164
398.068
397.973
397.879
397.786
397.693
397.602
397.512
397.423
397.335
397.248
397.162
397.077
396.991
396.906
396.82
396.733
396.647
396.561
396.474
396.389
396.304
396.219
396.135
396.052
395.97
395.888
395.807
395.727
395.649
395.571
395.495
395.421
395.348
395.284
395.406
395.508
395.593
395.664
395.726
395.781
395.831
395.875
395.916
395.953
400
400
400
400
400
400
400
400
400
399.998
399.85
399.708
399.574
399.447
399.325
399.208
399.095
398.985
398.877
398.772
398.669
398.567
398.467
398.369
398.272
398.177
398.082
397.989
397.897
397.807
397.717
397.628
397.541
397.454
397.369
397.285
397.203
397.121
397.039
396.956
396.873
396.79
396.707
396.624
396.541
396.459
396.378
396.297
396.217
396.137
396.059
395.981
395.904
395.829
395.754
395.681
395.61
395.54
395.472
395.411
395.534
395.636
395.722
395.794
395.857
395.914
395.964
396.011
396.053
396.091
400
400
400
400
400
400
400
400
400
399.998
399.85
399.707
399.573
399.446
399.324
399.207
399.094
398.984
398.876
398.771
398.668
398.567
398.468
398.37
398.273
398.178
398.085
397.992
397.901
397.811
397.722
397.635
397.548
397.463
397.38
397.297
397.216
397.136
397.055
396.974
396.892
396.81
396.728
396.647
396.566
396.485