/*--------------------------------*- C++ -*----------------------------------*\
  =========                 |
  \\      /  F ield         | OpenFOAM: The Open Source CFD Toolbox
   \\    /   O peration     | Website:  https://openfoam.org
    \\  /    A nd           | Version:  12
     \\/     M anipulation  |
\*---------------------------------------------------------------------------*/
FoamFile
{
    format      ascii;
    class       volScalarField;
    location    "1550/porous";
    object      rho;
}
// * * * * * * * * * * * * * * * * * * * * * * * * * * * * * * * * * * * * * //

dimensions      [1 -3 0 0 0 0 0];

internalField   nonuniform List<scalar> 
140000
(
933.891
933.891
933.891
933.891
933.891
933.891
933.891
933.891
933.892
933.898
934.18
934.402
934.601
934.787
934.966
935.14
935.31
935.477
935.641
935.803
935.963
936.122
936.279
936.434
936.588
936.74
936.891
937.04
937.187
937.333
937.478
937.621
937.762
937.902
938.04
938.176
938.311
938.445
938.577
938.708
938.837
938.966
939.093
939.219
939.344
939.468
939.59
939.71
939.83
939.947
940.064
940.178
940.291
940.402
940.51
940.617
940.72
940.819
940.913
940.979
940.584
940.332
940.137
939.975
939.835
939.712
939.602
939.502
939.411
939.331
933.891
933.891
933.891
933.891
933.891
933.891
933.891
933.891
933.891
933.896
934.111
934.287
934.445
934.596
934.741
934.882
935.02
935.157
935.292
935.425
935.557
935.688
935.818
935.947
936.076
936.203
936.33
936.456
936.581
936.706
936.83
936.953
937.075
937.197
937.318
937.438
937.558
937.677
937.795
937.913
938.03
938.146
938.262
938.377
938.492
938.606
938.719
938.831
938.942
939.052
939.161
939.27
939.376
939.481
939.585
939.686
939.786
939.883
939.976
940.052
939.815
939.659
939.537
939.433
939.342
939.259
939.184
939.114
939.05
938.992
933.891
933.891
933.891
933.891
933.891
933.891
933.891
933.891
933.891
933.895
934.093
934.251
934.392
934.524
934.65
934.772
934.891
935.008
935.123
935.235
935.347
935.457
935.566
935.675
935.782
935.889
935.994
936.1
936.204
936.308
936.412
936.514
936.617
936.719
936.82
936.921
937.022
937.122
937.222
937.321
937.42
937.519
937.618
937.717
937.815
937.912
938.01
938.106
938.202
938.298
938.392
938.486
938.579
938.671
938.762
938.851
938.938
939.024
939.106
939.178
938.988
938.868
938.778
938.703
938.639
938.582
938.531
938.483
938.44
938.402
933.891
933.891
933.891
933.891
933.891
933.891
933.891
933.891
933.891
933.895
934.088
934.242
934.377
934.503
934.623
934.738
934.85
934.958
935.064
935.168
935.27
935.371
935.47
935.568
935.665
935.761
935.856
935.95
936.044
936.136
936.228
936.32
936.41
936.5
936.59
936.679
936.767
936.855
936.943
937.03
937.117
937.203
937.29
937.376
937.462
937.547
937.632
937.716
937.8
937.883
937.966
938.048
938.129
938.208
938.287
938.364
938.441
938.514
938.586
938.647
938.469
938.357
938.273
938.204
938.145
938.094
938.048
938.006
937.969
937.934
933.891
933.891
933.891
933.891
933.891
933.891
933.891
933.891
933.891
933.895
934.087
934.239
934.373
934.498
934.616
934.728
934.837
934.943
935.046
935.147
935.246
935.343
935.438
935.532
935.625
935.716
935.807
935.896
935.985
936.072
936.159
936.245
936.33
936.415
936.499
936.582
936.664
936.746
936.827
936.908
936.989
937.069
937.149
937.228
937.307
937.386
937.464
937.541
937.618
937.694
937.77
937.844
937.918
937.991
938.062
938.132
938.2
938.267
938.33
938.385
938.21
938.098
938.014
937.944
937.885
937.833
937.786
937.744
937.706
937.671
933.891
933.891
933.891
933.891
933.891
933.891
933.891
933.891
933.891
933.895
934.088
934.239
934.373
934.497
934.615
934.727
934.836
934.941
935.043
935.143
935.241
935.337
935.431
935.523
935.615
935.704
935.793
935.881
935.967
936.053
936.138
936.221
936.304
936.386
936.468
936.548
936.628
936.707
936.786
936.864
936.941
937.019
937.095
937.172
937.247
937.323
937.398
937.472
937.545
937.618
937.689
937.76
937.83
937.899
937.966
938.032
938.096
938.159
938.218
938.269
938.095
937.983
937.897
937.827
937.766
937.713
937.665
937.621
937.582
937.546
933.891
933.891
933.891
933.891
933.891
933.891
933.891
933.891
933.891
933.895
934.087
934.239
934.373
934.497
934.615
934.728
934.836
934.941
935.044
935.143
935.241
935.337
935.43
935.523
935.613
935.703
935.791
935.878
935.964
936.049
936.133
936.216
936.298
936.379
936.459
936.539
936.618
936.696
936.773
936.85
936.926
937.002
937.078
937.153
937.227
937.301
937.374
937.447
937.519
937.59
937.66
937.729
937.797
937.864
937.929
937.993
938.055
938.115
938.173
938.222
938.048
937.935
937.849
937.778
937.717
937.663
937.614
937.57
937.529
937.492
933.891
933.891
933.891
933.891
933.891
933.891
933.891
933.891
933.891
933.895
934.088
934.24
934.374
934.498
934.616
934.729
934.838
934.943
935.045
935.145
935.243
935.339
935.433
935.525
935.616
935.705
935.793
935.88
935.966
936.051
936.135
936.217
936.299
936.38
936.46
936.539
936.617
936.695
936.772
936.848
936.924
937
937.074
937.149
937.223
937.296
937.369
937.441
937.512
937.582
937.652
937.72
937.787
937.853
937.918
937.98
938.042
938.101
938.157
938.205
938.031
937.918
937.832
937.76
937.699
937.644
937.595
937.551
937.51
937.472
933.891
933.891
933.891
933.891
933.891
933.891
933.891
933.891
933.891
933.895
934.088
934.24
934.374
934.499
934.617
934.73
934.839
934.944
935.047
935.147
935.245
935.341
935.435
935.528
935.619
935.708
935.796
935.883
935.969
936.054
936.138
936.22
936.302
936.383
936.463
936.542
936.62
936.697
936.774
936.85
936.926
937.001
937.076
937.151
937.224
937.297
937.37
937.442
937.512
937.583
937.652
937.72
937.787
937.852
937.916
937.979
938.039
938.098
938.154
938.201
938.027
937.914
937.828
937.756
937.694
937.639
937.59
937.545
937.504
937.467
933.891
933.891
933.891
933.891
933.891
933.891
933.891
933.891
933.891
933.895
934.088
934.24
934.375
934.499
934.617
934.731
934.84
934.946
935.049
935.149
935.247
935.343
935.438
935.53
935.621
935.711
935.799
935.887
935.973
936.057
936.141
936.224
936.306
936.386
936.466
936.545
936.623
936.701
936.778
936.854
936.93
937.005
937.08
937.154
937.228
937.301
937.373
937.445
937.516
937.586
937.655
937.723
937.79
937.855
937.919
937.981
938.041
938.1
938.155
938.202
938.028
937.915
937.829
937.757
937.695
937.64
937.591
937.546
937.504
937.467
933.891
933.891
933.891
933.891
933.891
933.891
933.891
933.891
933.891
933.895
934.088
934.24
934.375
934.499
934.618
934.731
934.841
934.947
935.05
935.15
935.249
935.345
935.44
935.532
935.624
935.713
935.802
935.889
935.975
936.06
936.144
936.227
936.308
936.389
936.469
936.548
936.626
936.704
936.781
936.857
936.933
937.008
937.083
937.157
937.231
937.304
937.377
937.448
937.519
937.589
937.658
937.726
937.793
937.858
937.922
937.984
938.045
938.102
938.158
938.204
938.03
937.918
937.831
937.759
937.697
937.642
937.593
937.548
937.506
937.469
933.891
933.891
933.891
933.891
933.891
933.891
933.891
933.891
933.891
933.895
934.088
934.241
934.375
934.499
934.618
934.731
934.841
934.947
935.051
935.151
935.25
935.347
935.441
935.534
935.626
935.715
935.804
935.891
935.977
936.062
936.146
936.229
936.311
936.392
936.472
936.551
936.629
936.707
936.783
936.86
936.936
937.011
937.086
937.16
937.234
937.308
937.38
937.452
937.523
937.593
937.662
937.73
937.797
937.862
937.926
937.988
938.048
938.105
938.161
938.207
938.033
937.92
937.834
937.762
937.7
937.645
937.596
937.55
937.509
937.472
933.891
933.891
933.891
933.891
933.891
933.891
933.891
933.891
933.891
933.895
934.088
934.24
934.375
934.5
934.618
934.732
934.841
934.948
935.051
935.152
935.251
935.347
935.442
935.535
935.627
935.717
935.805
935.893
935.979
936.064
936.148
936.231
936.313
936.394
936.474
936.553
936.631
936.709
936.785
936.862
936.938
937.013
937.088
937.163
937.237
937.31
937.383
937.455
937.526
937.596
937.665
937.733
937.8
937.865
937.929
937.99
938.05
938.108
938.163
938.209
938.035
937.923
937.836
937.764
937.702
937.647
937.598
937.553
937.511
937.474
933.891
933.891
933.891
933.891
933.891
933.891
933.891
933.891
933.891
933.895
934.089
934.241
934.375
934.5
934.618
934.731
934.841
934.948
935.051
935.152
935.251
935.348
935.443
935.536
935.628
935.718
935.807
935.894
935.98
936.065
936.149
936.232
936.314
936.395
936.475
936.554
936.632
936.71
936.787
936.863
936.939
937.015
937.09
937.165
937.239
937.312
937.385
937.457
937.528
937.598
937.667
937.735
937.802
937.867
937.931
937.993
938.053
938.11
938.165
938.211
938.037
937.925
937.838
937.766
937.704
937.649
937.6
937.555
937.513
937.476
933.891
933.891
933.891
933.891
933.891
933.891
933.891
933.891
933.891
933.895
934.088
934.241
934.375
934.499
934.618
934.731
934.841
934.948
935.051
935.153
935.252
935.348
935.443
935.537
935.628
935.719
935.807
935.895
935.981
936.066
936.15
936.233
936.315
936.396
936.476
936.555
936.633
936.711
936.788
936.865
936.941
937.016
937.092
937.166
937.24
937.314
937.387
937.458
937.53
937.6
937.669
937.737
937.804
937.869
937.933
937.994
938.054
938.112
938.167
938.213
938.039
937.926
937.839
937.768
937.706
937.651
937.601
937.556
937.515
937.477
933.891
933.891
933.891
933.891
933.891
933.891
933.891
933.891
933.891
933.895
934.088
934.24
934.374
934.499
934.617
934.731
934.841
934.947
935.051
935.153
935.252
935.349
935.444
935.537
935.629
935.719
935.808
935.895
935.981
936.067
936.151
936.233
936.315
936.396
936.476
936.556
936.634
936.712
936.789
936.865
936.942
937.017
937.093
937.167
937.242
937.315
937.388
937.46
937.531
937.601
937.67
937.738
937.805
937.87
937.934
937.996
938.055
938.113
938.167
938.213
938.039
937.927
937.84
937.769
937.706
937.652
937.602
937.557
937.515
937.478
933.891
933.891
933.891
933.891
933.891
933.891
933.891
933.891
933.891
933.895
934.088
934.241
934.375
934.499
934.617
934.731
934.84
934.947
935.051
935.152
935.252
935.349
935.444
935.537
935.629
935.719
935.808
935.895
935.982
936.067
936.151
936.234
936.315
936.396
936.477
936.556
936.634
936.712
936.789
936.866
936.942
937.018
937.093
937.168
937.242
937.316
937.389
937.461
937.532
937.602
937.671
937.739
937.806
937.871
937.935
937.996
938.056
938.113
938.168
938.214
938.04
937.927
937.841
937.769
937.707
937.652
937.603
937.557
937.516
937.479
933.891
933.891
933.891
933.891
933.891
933.891
933.891
933.891
933.891
933.895
934.088
934.24
934.374
934.499
934.617
934.73
934.84
934.947
935.051
935.152
935.251
935.349
935.444
935.537
935.629
935.719
935.808
935.896
935.982
936.067
936.151
936.234
936.315
936.396
936.477
936.556
936.635
936.713
936.79
936.867
936.943
937.019
937.094
937.169
937.243
937.316
937.389
937.461
937.532
937.603
937.672
937.74
937.806
937.872
937.935
937.997
938.057
938.114
938.168
938.214
938.04
937.928
937.841
937.769
937.707
937.652
937.603
937.558
937.516
937.479
933.891
933.891
933.891
933.891
933.891
933.891
933.891
933.891
933.891
933.895
934.088
934.24
934.374
934.498
934.616
934.73
934.84
934.946
935.05
935.152
935.251
935.348
935.444
935.537
935.629
935.719
935.808
935.896
935.982
936.067
936.151
936.233
936.315
936.397
936.477
936.557
936.635
936.713
936.79
936.867
936.943
937.019
937.094
937.169
937.243
937.317
937.39
937.462
937.533
937.603
937.672
937.74
937.807
937.872
937.936
937.997
938.057
938.114
938.168
938.214
938.04
937.928
937.841
937.77
937.707
937.653
937.603
937.558
937.516
937.479
933.891
933.891
933.891
933.891
933.891
933.891
933.891
933.891
933.891
933.895
934.088
934.24
934.374
934.498
934.616
934.729
934.839
934.946
935.05
935.152
935.251
935.348
935.444
935.537
935.629
935.72
935.808
935.896
935.982
936.067
936.151
936.234
936.316
936.397
936.477
936.557
936.636
936.714
936.791
936.868
936.944
937.02
937.095
937.17
937.244
937.317
937.39
937.462
937.533
937.603
937.673
937.741
937.807
937.873
937.936
937.998
938.057
938.114
938.169
938.214
938.041
937.928
937.842
937.77
937.708
937.653
937.603
937.558
937.517
937.479
933.891
933.891
933.891
933.891
933.891
933.891
933.891
933.891
933.891
933.895
934.088
934.239
934.373
934.498
934.616
934.729
934.839
934.946
935.05
935.151
935.251
935.348
935.444
935.537
935.629
935.72
935.808
935.896
935.982
936.067
936.151
936.234
936.316
936.397
936.478
936.558
936.636
936.715
936.792
936.868
936.945
937.02
937.096
937.17
937.244
937.318
937.391
937.463
937.534
937.604
937.673
937.741
937.808
937.873
937.936
937.998
938.057
938.115
938.169
938.214
938.041
937.928
937.842
937.77
937.708
937.653
937.603
937.558
937.517
937.479
933.891
933.891
933.891
933.891
933.891
933.891
933.891
933.891
933.891
933.895
934.088
934.24
934.373
934.497
934.615
934.729
934.839
934.945
935.05
935.151
935.251
935.348
935.444
935.537
935.629
935.72
935.809
935.896
935.982
936.067
936.151
936.234
936.317
936.398
936.479
936.558
936.637
936.715
936.793
936.869
936.945
937.021
937.096
937.171
937.245
937.318
937.391
937.463
937.534
937.604
937.674
937.742
937.808
937.873
937.937
937.998
938.058
938.115
938.169
938.215
938.041
937.928
937.842
937.77
937.708
937.653
937.604
937.559
937.517
937.48
933.891
933.891
933.891
933.891
933.891
933.891
933.891
933.891
933.891
933.895
934.088
934.239
934.373
934.497
934.615
934.729
934.838
934.945
935.049
935.151
935.251
935.348
935.444
935.537
935.629
935.72
935.809
935.896
935.983
936.068
936.152
936.235
936.317
936.398
936.479
936.559
936.638
936.716
936.793
936.87
936.946
937.022
937.097
937.171
937.245
937.319
937.391
937.463
937.535
937.605
937.674
937.742
937.809
937.874
937.937
937.999
938.058
938.115
938.169
938.215
938.041
937.929
937.842
937.77
937.708
937.653
937.604
937.559
937.517
937.48
933.891
933.891
933.891
933.891
933.891
933.891
933.891
933.891
933.891
933.895
934.088
934.239
934.373
934.497
934.615
934.728
934.838
934.945
935.049
935.151
935.25
935.348
935.444
935.537
935.629
935.72
935.809
935.896
935.983
936.068
936.152
936.235
936.317
936.399
936.479
936.559
936.638
936.716
936.794
936.87
936.946
937.022
937.097
937.172
937.246
937.319
937.392
937.464
937.535
937.605
937.674
937.742
937.809
937.874
937.937
937.999
938.058
938.115
938.169
938.215
938.041
937.929
937.842
937.771
937.709
937.654
937.604
937.559
937.517
937.48
933.891
933.891
933.891
933.891
933.891
933.891
933.891
933.891
933.891
933.895
934.088
934.239
934.373
934.497
934.615
934.728
934.838
934.945
935.049
935.151
935.25
935.348
935.443
935.537
935.629
935.72
935.809
935.897
935.983
936.068
936.152
936.235
936.318
936.399
936.48
936.559
936.638
936.717
936.794
936.871
936.947
937.022
937.097
937.172
937.246
937.319
937.392
937.463
937.535
937.605
937.674
937.742
937.809
937.874
937.937
937.999
938.058
938.115
938.169
938.215
938.041
937.929
937.842
937.771
937.709
937.654
937.604
937.559
937.518
937.48
933.891
933.891
933.891
933.891
933.891
933.891
933.891
933.891
933.891
933.895
934.088
934.239
934.373
934.497
934.614
934.728
934.838
934.944
935.049
935.15
935.25
935.348
935.443
935.537
935.629
935.72
935.809
935.897
935.983
936.068
936.152
936.235
936.318
936.399
936.48
936.559
936.638
936.717
936.794
936.871
936.947
937.022
937.097
937.171
937.245
937.319
937.391
937.463
937.534
937.604
937.674
937.742
937.808
937.873
937.937
937.998
938.058
938.115
938.17
938.215
938.042
937.929
937.843
937.771
937.709
937.654
937.604
937.559
937.518
937.48
933.891
933.891
933.891
933.891
933.891
933.891
933.891
933.891
933.891
933.895
934.088
934.239
934.372
934.496
934.614
934.728
934.837
934.944
935.048
935.15
935.25
935.347
935.443
935.537
935.629
935.72
935.809
935.897
935.983
936.068
936.152
936.235
936.318
936.399
936.48
936.559
936.638
936.716
936.794
936.87
936.946
937.022
937.097
937.171
937.245
937.318
937.391
937.463
937.534
937.604
937.673
937.741
937.808
937.873
937.936
937.998
938.058
938.115
938.169
938.215
938.041
937.929
937.842
937.771
937.708
937.654
937.604
937.559
937.517
937.48
933.891
933.891
933.891
933.891
933.891
933.891
933.891
933.891
933.891
933.895
934.087
934.239
934.372
934.496
934.614
934.728
934.837
934.944
935.048
935.15
935.25
935.347
935.443
935.537
935.629
935.72
935.809
935.897
935.983
936.068
936.152
936.235
936.317
936.399
936.479
936.559
936.638
936.716
936.793
936.87
936.946
937.021
937.096
937.17
937.244
937.317
937.39
937.462
937.533
937.603
937.672
937.74
937.807
937.873
937.936
937.998
938.058
938.115
938.169
938.215
938.041
937.929
937.842
937.77
937.708
937.653
937.604
937.559
937.517
937.48
933.891
933.891
933.891
933.891
933.891
933.891
933.891
933.891
933.891
933.895
934.087
934.239
934.372
934.496
934.614
934.727
934.837
934.944
935.048
935.15
935.25
935.347
935.443
935.537
935.629
935.72
935.809
935.897
935.983
936.068
936.152
936.235
936.317
936.398
936.479
936.558
936.637
936.715
936.792
936.869
936.945
937.02
937.095
937.169
937.243
937.317
937.389
937.461
937.532
937.602
937.672
937.74
937.807
937.872
937.935
937.997
938.057
938.114
938.169
938.215
938.041
937.928
937.842
937.77
937.708
937.653
937.604
937.558
937.517
937.479
933.891
933.891
933.891
933.891
933.891
933.891
933.891
933.891
933.891
933.895
934.087
934.239
934.372
934.496
934.614
934.727
934.837
934.944
935.048
935.15
935.249
935.347
935.443
935.536
935.629
935.719
935.809
935.896
935.983
936.068
936.151
936.234
936.316
936.398
936.478
936.558
936.636
936.714
936.791
936.868
936.944
937.019
937.094
937.168
937.242
937.316
937.388
937.46
937.531
937.601
937.671
937.739
937.806
937.871
937.935
937.997
938.057
938.114
938.169
938.215
938.041
937.928
937.842
937.77
937.708
937.653
937.603
937.558
937.517
937.479
933.891
933.891
933.891
933.891
933.891
933.891
933.891
933.891
933.891
933.895
934.087
934.239
934.372
934.496
934.614
934.727
934.837
934.944
935.048
935.149
935.249
935.346
935.442
935.536
935.628
935.719
935.808
935.896
935.982
936.067
936.151
936.233
936.315
936.397
936.477
936.557
936.635
936.713
936.79
936.867
936.943
937.018
937.093
937.167
937.241
937.314
937.387
937.459
937.53
937.6
937.67
937.738
937.805
937.871
937.934
937.996
938.056
938.114
938.169
938.215
938.041
937.928
937.842
937.77
937.708
937.653
937.603
937.558
937.516
937.479
933.891
933.891
933.891
933.891
933.891
933.891
933.891
933.891
933.891
933.895
934.087
934.239
934.372
934.496
934.614
934.727
934.837
934.943
935.047
935.149
935.248
935.346
935.442
935.535
935.628
935.718
935.807
935.895
935.981
936.066
936.15
936.233
936.315
936.396
936.476
936.556
936.634
936.712
936.789
936.866
936.942
937.017
937.092
937.166
937.24
937.313
937.386
937.458
937.529
937.599
937.669
937.737
937.804
937.87
937.934
937.996
938.056
938.114
938.169
938.215
938.041
937.928
937.841
937.769
937.707
937.652
937.603
937.558
937.516
937.479
933.891
933.891
933.891
933.891
933.891
933.891
933.891
933.891
933.891
933.895
934.087
934.239
934.372
934.496
934.614
934.727
934.836
934.943
935.047
935.149
935.248
935.345
935.441
935.535
935.627
935.718
935.807
935.894
935.981
936.066
936.149
936.232
936.314
936.395
936.475
936.554
936.633
936.711
936.788
936.865
936.941
937.016
937.091
937.166
937.239
937.313
937.385
937.457
937.528
937.599
937.668
937.736
937.804
937.869
937.933
937.996
938.056
938.114
938.169
938.215
938.041
937.928
937.841
937.769
937.707
937.652
937.603
937.558
937.516
937.479
933.891
933.891
933.891
933.891
933.891
933.891
933.891
933.891
933.891
933.895
934.088
934.239
934.372
934.496
934.614
934.727
934.836
934.943
935.046
935.148
935.247
935.345
935.44
935.534
935.626
935.717
935.806
935.893
935.98
936.064
936.148
936.231
936.312
936.393
936.473
936.553
936.632
936.709
936.787
936.864
936.94
937.015
937.09
937.165
937.238
937.312
937.384
937.456
937.527
937.598
937.667
937.735
937.803
937.869
937.933
937.996
938.056
938.114
938.169
938.216
938.041
937.928
937.841
937.769
937.707
937.652
937.603
937.557
937.516
937.478
933.891
933.891
933.891
933.891
933.891
933.891
933.891
933.891
933.891
933.895
934.087
934.238
934.372
934.496
934.613
934.726
934.836
934.942
935.046
935.147
935.246
935.344
935.439
935.533
935.625
935.715
935.804
935.892
935.978
936.063
936.147
936.229
936.311
936.392
936.472
936.551
936.63
936.708
936.785
936.862
936.939
937.014
937.089
937.163
937.237
937.31
937.383
937.455
937.526
937.596
937.666
937.734
937.802
937.868
937.932
937.995
938.056
938.114
938.169
938.215
938.041
937.928
937.841
937.769
937.707
937.652
937.602
937.557
937.516
937.478
933.891
933.891
933.891
933.891
933.891
933.891
933.891
933.891
933.891
933.895
934.087
934.238
934.372
934.495
934.613
934.726
934.835
934.941
935.045
935.146
935.245
935.343
935.438
935.532
935.623
935.714
935.803
935.89
935.976
936.061
936.145
936.227
936.309
936.39
936.47
936.549
936.628
936.706
936.784
936.861
936.937
937.012
937.087
937.162
937.236
937.309
937.381
937.453
937.524
937.595
937.664
937.733
937.8
937.867
937.931
937.994
938.055
938.113
938.169
938.215
938.04
937.927
937.84
937.768
937.706
937.651
937.602
937.556
937.515
937.477
933.891
933.891
933.891
933.891
933.891
933.891
933.891
933.891
933.891
933.895
934.087
934.238
934.372
934.495
934.613
934.725
934.834
934.94
935.044
935.145
935.244
935.341
935.437
935.53
935.622
935.712
935.801
935.888
935.974
936.059
936.143
936.225
936.307
936.388
936.468
936.547
936.626
936.704
936.782
936.859
936.935
937.011
937.086
937.16
937.234
937.307
937.379
937.451
937.522
937.593
937.662
937.731
937.799
937.865
937.93
937.993
938.054
938.112
938.168
938.215
938.04
937.926
937.84
937.767
937.705
937.65
937.6
937.555
937.514
937.476
933.891
933.891
933.891
933.891
933.891
933.891
933.891
933.891
933.891
933.895
934.087
934.238
934.371
934.495
934.612
934.724
934.833
934.939
935.043
935.144
935.243
935.34
935.435
935.528
935.62
935.71
935.799
935.886
935.972
936.057
936.14
936.223
936.304
936.385
936.465
936.545
936.624
936.702
936.779
936.856
936.932
937.008
937.083
937.157
937.231
937.304
937.377
937.449
937.52
937.59
937.66
937.728
937.796
937.863
937.928
937.991
938.052
938.111
938.166
938.213
938.038
937.925
937.838
937.766
937.704
937.648
937.599
937.554
937.512
937.474
933.891
933.891
933.891
933.891
933.891
933.891
933.891
933.891
933.891
933.895
934.087
934.238
934.371
934.494
934.611
934.724
934.833
934.938
935.042
935.142
935.241
935.338
935.433
935.526
935.618
935.708
935.796
935.884
935.97
936.054
936.137
936.22
936.302
936.382
936.463
936.542
936.621
936.699
936.776
936.853
936.93
937.005
937.08
937.154
937.228
937.301
937.374
937.446
937.517
937.587
937.657
937.726
937.793
937.86
937.925
937.989
938.05
938.108
938.164
938.211
938.036
937.923
937.836
937.764
937.702
937.646
937.597
937.552
937.51
937.472
933.891
933.891
933.891
933.891
933.891
933.891
933.891
933.891
933.891
933.895
934.087
934.238
934.371
934.494
934.611
934.723
934.831
934.937
935.04
935.141
935.239
935.336
935.431
935.524
935.615
935.705
935.794
935.881
935.966
936.051
936.134
936.217
936.298
936.379
936.459
936.539
936.618
936.696
936.773
936.85
936.926
937.002
937.077
937.151
937.225
937.298
937.37
937.442
937.513
937.583
937.653
937.722
937.79
937.857
937.922
937.986
938.047
938.106
938.162
938.209
938.034
937.921
937.834
937.761
937.699
937.644
937.594
937.549
937.508
937.47
933.891
933.891
933.891
933.891
933.891
933.891
933.891
933.891
933.891
933.895
934.087
934.237
934.37
934.493
934.61
934.722
934.83
934.936
935.038
935.139
935.237
935.334
935.428
935.521
935.613
935.702
935.791
935.878
935.963
936.048
936.131
936.213
936.295
936.376
936.456
936.535
936.614
936.692
936.77
936.846
936.923
936.998
937.073
937.147
937.221
937.294
937.366
937.438
937.509
937.58
937.649
937.718
937.786
937.853
937.919
937.983
938.044
938.104
938.16
938.207
938.032
937.918
937.831
937.759
937.697
937.642
937.592
937.547
937.506
937.468
933.891
933.891
933.891
933.891
933.891
933.891
933.891
933.891
933.891
933.895
934.087
934.237
934.37
934.492
934.609
934.721
934.829
934.934
935.036
935.137
935.235
935.331
935.425
935.518
935.609
935.699
935.787
935.874
935.96
936.044
936.127
936.21
936.291
936.372
936.452
936.532
936.611
936.689
936.766
936.843
936.919
936.994
937.069
937.144
937.217
937.29
937.363
937.435
937.506
937.576
937.646
937.715
937.783
937.85
937.916
937.98
938.043
938.102
938.159
938.207
938.031
937.918
937.831
937.759
937.697
937.642
937.592
937.547
937.506
937.468
933.891
933.891
933.891
933.891
933.891
933.891
933.891
933.891
933.891
933.895
934.086
934.237
934.369
934.492
934.608
934.719
934.827
934.932
935.035
935.135
935.233
935.329
935.423
935.516
935.607
935.696
935.784
935.871
935.957
936.041
936.125
936.207
936.289
936.37
936.45
936.529
936.608
936.686
936.764
936.841
936.917
936.992
937.067
937.142
937.216
937.289
937.362
937.434
937.505
937.576
937.646
937.715
937.784
937.851
937.918
937.982
938.045
938.105
938.162
938.211
938.035
937.922
937.835
937.763
937.701
937.647
937.597
937.552
937.511
937.474
933.891
933.891
933.891
933.891
933.891
933.891
933.891
933.891
933.891
933.895
934.086
934.236
934.368
934.491
934.607
934.718
934.826
934.931
935.033
935.133
935.231
935.327
935.421
935.513
935.605
935.694
935.782
935.869
935.955
936.04
936.123
936.206
936.288
936.369
936.45
936.53
936.609
936.687
936.765
936.843
936.919
936.995
937.071
937.146
937.22
937.294
937.367
937.44
937.512
937.583
937.654
937.724
937.793
937.862
937.929
937.995
938.059
938.12
938.179
938.228
938.052
937.939
937.852
937.781
937.719
937.665
937.616
937.572
937.531
937.494
933.891
933.891
933.891
933.891
933.891
933.891
933.891
933.891
933.891
933.895
934.086
934.236
934.368
934.491
934.607
934.718
934.826
934.93
935.033
935.133
935.231
935.327
935.422
935.515
935.606
935.696
935.785
935.873
935.959
936.044
936.129
936.212
936.295
936.377
936.459
936.54
936.62
936.699
936.778
936.857
936.935
937.012
937.089
937.165
937.241
937.316
937.39
937.465
937.538
937.611
937.684
937.755
937.826
937.897
937.966
938.034
938.1
938.163
938.223
938.275
938.099
937.986
937.9
937.83
937.769
937.715
937.667
937.623
937.583
937.548
933.891
933.891
933.891
933.891
933.891
933.891
933.891
933.891
933.891
933.895
934.086
934.236
934.369
934.491
934.608
934.72
934.828
934.934
935.037
935.138
935.237
935.334
935.43
935.524
935.618
935.709
935.8
935.889
935.978
936.065
936.152
936.237
936.322
936.407
936.491
936.574
936.657
936.739
936.821
936.902
936.983
937.063
937.143
937.222
937.301
937.379
937.457
937.535
937.612
937.688
937.764
937.839
937.914
937.988
938.061
938.133
938.203
938.271
938.336
938.391
938.214
938.102
938.017
937.947
937.887
937.835
937.788
937.746
937.707
937.673
933.891
933.891
933.891
933.891
933.891
933.891
933.891
933.891
933.891
933.895
934.087
934.239
934.373
934.497
934.616
934.73
934.841
934.949
935.055
935.16
935.262
935.363
935.463
935.562
935.659
935.755
935.85
935.945
936.038
936.13
936.222
936.313
936.404
936.494
936.583
936.672
936.761
936.849
936.937
937.024
937.111
937.198
937.284
937.37
937.456
937.541
937.625
937.71
937.794
937.877
937.96
938.043
938.124
938.206
938.286
938.365
938.443
938.518
938.591
938.653
938.473
938.361
938.276
938.207
938.148
938.096
938.05
938.008
937.97
937.936
933.891
933.891
933.891
933.891
933.891
933.891
933.891
933.891
933.891
933.895
934.092
934.248
934.388
934.518
934.644
934.765
934.884
935
935.115
935.228
935.34
935.451
935.561
935.669
935.777
935.884
935.99
936.095
936.2
936.304
936.407
936.51
936.612
936.714
936.815
936.916
937.017
937.117
937.217
937.317
937.416
937.515
937.613
937.712
937.809
937.907
938.003
938.1
938.196
938.291
938.386
938.481
938.575
938.668
938.76
938.851
938.94
939.027
939.11
939.182
938.991
938.871
938.781
938.706
938.641
938.584
938.532
938.485
938.442
938.403
933.891
933.891
933.891
933.891
933.891
933.891
933.891
933.891
933.891
933.896
934.11
934.285
934.442
934.591
934.735
934.875
935.014
935.15
935.285
935.419
935.552
935.683
935.814
935.944
936.073
936.201
936.328
936.454
936.579
936.704
936.827
936.95
937.073
937.194
937.315
937.435
937.555
937.674
937.792
937.91
938.026
938.143
938.258
938.373
938.487
938.6
938.712
938.824
938.935
939.045
939.154
939.263
939.37
939.476
939.582
939.685
939.787
939.885
939.979
940.056
939.818
939.662
939.539
939.435
939.344
939.261
939.186
939.116
939.052
938.994
933.891
933.891
933.891
933.891
933.891
933.891
933.891
933.891
933.892
933.898
934.179
934.4
934.597
934.782
934.961
935.134
935.304
935.471
935.636
935.799
935.96
936.119
936.277
936.433
936.587
936.74
936.891
937.04
937.188
937.334
937.478
937.62
937.761
937.9
938.038
938.174
938.309
938.443
938.575
938.705
938.834
938.962
939.088
939.214
939.337
939.46
939.581
939.701
939.82
939.937
940.054
940.169
940.283
940.395
940.506
940.614
940.72
940.821
940.917
940.983
940.587
940.335
940.139
939.978
939.838
939.715
939.605
939.505
939.414
939.334
933.891
933.891
933.891
933.891
933.891
933.891
933.891
933.891
933.891
933.896
934.109
934.311
934.501
934.684
934.861
935.033
935.202
935.369
935.533
935.695
935.856
936.015
936.172
936.328
936.482
936.635
936.787
936.937
937.085
937.232
937.377
937.521
937.663
937.803
937.942
938.079
938.215
938.349
938.482
938.613
938.743
938.872
939
939.126
939.252
939.376
939.498
939.619
939.739
939.857
939.974
940.089
940.203
940.315
940.423
940.53
940.635
940.735
940.831
940.902
940.576
940.335
940.143
939.982
939.843
939.72
939.61
939.509
939.418
939.337
933.891
933.891
933.891
933.891
933.891
933.891
933.891
933.891
933.891
933.894
934.046
934.198
934.345
934.489
934.629
934.767
934.903
935.037
935.17
935.302
935.433
935.563
935.692
935.821
935.948
936.075
936.202
936.328
936.453
936.577
936.701
936.824
936.946
937.068
937.189
937.309
937.428
937.547
937.666
937.783
937.901
938.017
938.133
938.249
938.363
938.477
938.591
938.703
938.815
938.925
939.035
939.143
939.251
939.356
939.461
939.563
939.664
939.762
939.857
939.938
939.771
939.635
939.521
939.422
939.334
939.253
939.18
939.112
939.049
938.991
933.891
933.891
933.891
933.891
933.891
933.891
933.891
933.891
933.891
933.894
934.03
934.165
934.295
934.42
934.542
934.661
934.777
934.891
935.004
935.115
935.226
935.335
935.443
935.55
935.656
935.762
935.867
935.972
936.076
936.179
936.282
936.384
936.486
936.587
936.689
936.789
936.889
936.989
937.089
937.188
937.287
937.385
937.484
937.582
937.68
937.777
937.874
937.971
938.067
938.162
938.257
938.351
938.444
938.537
938.628
938.717
938.805
938.892
938.975
939.051
938.928
938.827
938.745
938.675
938.614
938.56
938.511