/*--------------------------------*- C++ -*----------------------------------*\
  =========                 |
  \\      /  F ield         | OpenFOAM: The Open Source CFD Toolbox
   \\    /   O peration     | Website:  https://openfoam.org
    \\  /    A nd           | Version:  12
     \\/     M anipulation  |
\*---------------------------------------------------------------------------*/
FoamFile
{
    format      ascii;
    class       volScalarField;
    location    "1850/porous";
    object      T;
}
// * * * * * * * * * * * * * * * * * * * * * * * * * * * * * * * * * * * * * //

dimensions      [0 0 0 1 0 0 0];

internalField   nonuniform List<scalar> 
140000
(
400
400
400
400
400
400
400
400
400
399.993
399.691
399.454
399.241
399.04
398.847
398.66
398.476
398.295
398.118
397.942
397.768
397.597
397.426
397.257
397.09
396.924
396.76
396.597
396.436
396.276
396.118
395.961
395.806
395.653
395.501
395.351
395.202
395.055
394.909
394.765
394.622
394.48
394.339
394.199
394.061
393.924
393.788
393.655
393.522
393.391
393.262
393.134
393.009
392.884
392.764
392.644
392.529
392.417
392.311
392.237
392.679
392.96
393.177
393.357
393.512
393.649
393.771
393.882
393.983
394.071
400
400
400
400
400
400
400
400
400
399.995
399.765
399.577
399.407
399.246
399.09
398.938
398.788
398.641
398.496
398.352
398.209
398.067
397.926
397.786
397.646
397.508
397.37
397.233
397.096
396.961
396.825
396.691
396.557
396.424
396.292
396.16
396.029
395.899
395.769
395.64
395.511
395.383
395.255
395.128
395.002
394.877
394.752
394.628
394.505
394.384
394.263
394.143
394.025
393.908
393.793
393.68
393.569
393.462
393.357
393.272
393.536
393.709
393.845
393.96
394.061
394.152
394.235
394.312
394.383
394.447
400
400
400
400
400
400
400
400
400
399.996
399.785
399.616
399.465
399.323
399.187
399.056
398.927
398.802
398.678
398.556
398.436
398.316
398.198
398.081
397.965
397.849
397.734
397.62
397.506
397.393
397.281
397.169
397.057
396.946
396.835
396.725
396.615
396.505
396.396
396.287
396.178
396.07
395.962
395.854
395.746
395.639
395.532
395.426
395.32
395.215
395.111
395.008
394.905
394.804
394.704
394.605
394.508
394.413
394.322
394.243
394.453
394.585
394.685
394.767
394.838
394.901
394.957
395.009
395.056
395.099
400
400
400
400
400
400
400
400
400
399.996
399.79
399.626
399.481
399.345
399.217
399.093
398.973
398.855
398.741
398.629
398.518
398.409
398.302
398.196
398.091
397.987
397.884
397.782
397.68
397.58
397.48
397.38
397.282
397.183
397.086
396.989
396.892
396.796
396.7
396.605
396.51
396.415
396.321
396.226
396.133
396.039
395.946
395.854
395.762
395.67
395.58
395.49
395.401
395.313
395.226
395.141
395.057
394.975
394.896
394.828
395.025
395.148
395.241
395.317
395.381
395.438
395.489
395.534
395.575
395.613
400
400
400
400
400
400
400
400
400
399.996
399.791
399.629
399.485
399.351
399.225
399.103
398.986
398.871
398.76
398.651
398.545
398.44
398.337
398.235
398.134
398.035
397.937
397.84
397.744
397.649
397.554
397.461
397.368
397.276
397.185
397.094
397.004
396.914
396.825
396.737
396.649
396.561
396.474
396.387
396.301
396.215
396.13
396.045
395.961
395.877
395.794
395.713
395.632
395.552
395.474
395.397
395.321
395.248
395.177
395.117
395.31
395.432
395.525
395.602
395.667
395.724
395.776
395.822
395.864
395.902
400
400
400
400
400
400
400
400
400
399.996
399.791
399.629
399.485
399.352
399.226
399.104
398.987
398.874
398.764
398.656
398.55
398.447
398.345
398.244
398.146
398.048
397.952
397.857
397.763
397.67
397.578
397.487
397.396
397.307
397.218
397.13
397.043
396.956
396.87
396.785
396.7
396.616
396.532
396.449
396.366
396.284
396.202
396.121
396.04
395.961
395.882
395.805
395.728
395.652
395.578
395.506
395.435
395.366
395.3
395.243
395.436
395.559
395.653
395.73
395.797
395.856
395.908
395.956
395.999
396.038
400
400
400
400
400
400
400
400
400
399.996
399.791
399.628
399.485
399.352
399.225
399.104
398.987
398.874
398.763
398.656
398.55
398.447
398.345
398.245
398.147
398.05
397.954
397.86
397.766
397.674
397.583
397.492
397.403
397.314
397.227
397.14
397.054
396.969
396.884
396.8
396.716
396.634
396.551
396.469
396.388
396.307
396.227
396.148
396.069
395.991
395.914
395.838
395.764
395.69
395.618
395.548
395.479
395.413
395.349
395.295
395.487
395.611
395.705
395.783
395.851
395.91
395.963
396.012
396.056
396.096
400
400
400
400
400
400
400
400
400
399.996
399.79
399.628
399.484
399.351
399.224
399.103
398.985
398.872
398.761
398.653
398.548
398.444
398.342
398.242
398.144
398.047
397.951
397.857
397.764
397.672
397.581
397.491
397.402
397.313
397.226
397.14
397.054
396.969
396.885
396.801
396.719
396.636
396.554
396.473
396.392
396.312
396.233
396.154
396.076
395.999
395.923
395.848
395.774
395.702
395.631
395.561
395.494
395.428
395.366
395.313
395.505
395.629
395.724
395.802
395.87
395.93
395.983
396.032
396.077
396.118
400
400
400
400
400
400
400
400
400
399.996
399.79
399.628
399.484
399.35
399.223
399.102
398.984
398.87
398.759
398.651
398.545
398.442
398.34
398.24
398.141
398.044
397.948
397.854
397.76
397.668
397.577
397.487
397.398
397.31
397.223
397.136
397.051
396.966
396.882
396.799
396.716
396.634
396.552
396.471
396.39
396.31
396.231
396.153
396.075
395.998
395.922
395.848
395.774
395.702
395.632
395.563
395.496
395.431
395.369
395.317
395.509
395.633
395.728
395.806
395.874
395.934
395.988
396.038
396.083
396.124
400
400
400
400
400
400
400
400
400
399.996
399.79
399.627
399.484
399.35
399.223
399.101
398.983
398.869
398.758
398.649
398.543
398.439
398.337
398.237
398.138
398.041
397.945
397.85
397.757
397.664
397.573
397.483
397.394
397.306
397.219
397.132
397.047
396.962
396.878
396.795
396.712
396.63
396.548
396.467
396.386
396.306
396.227
396.149
396.071
395.994
395.919
395.844
395.771
395.699
395.629
395.56
395.493
395.429
395.367
395.316
395.507
395.631
395.726
395.805
395.873
395.933
395.988
396.037
396.082
396.123
400
400
400
400
400
400
400
400
400
399.996
399.79
399.627
399.483
399.35
399.223
399.1
398.982
398.868
398.757
398.648
398.542
398.437
398.335
398.234
398.135
398.038
397.942
397.847
397.754
397.661
397.57
397.48
397.391
397.302
397.215
397.129
397.043
396.958
396.874
396.791
396.708
396.626
396.544
396.463
396.382
396.302
396.223
396.144
396.067
395.99
395.914
395.84
395.766
395.695
395.624
395.556
395.489
395.425
395.364
395.312
395.504
395.628
395.723
395.802
395.87
395.93
395.985
396.034
396.079
396.121
400
400
400
400
400
400
400
400
400
399.996
399.79
399.627
399.483
399.349
399.222
399.1
398.982
398.867
398.756
398.647
398.54
398.436
398.333
398.232
398.133
398.036
397.94
397.845
397.751
397.659
397.567
397.477
397.388
397.299
397.212
397.125
397.04
396.955
396.871
396.788
396.705
396.622
396.54
396.459
396.378
396.298
396.219
396.14
396.063
395.986
395.91
395.836
395.762
395.69
395.62
395.552
395.485
395.421
395.36
395.309
395.501
395.625
395.72
395.799
395.867
395.927
395.981
396.031
396.076
396.117
400
400
400
400
400
400
400
400
400
399.996
399.79
399.627
399.483
399.349
399.222
399.1
398.982
398.867
398.755
398.646
398.539
398.435
398.332
398.231
398.132
398.034
397.938
397.843
397.749
397.657
397.565
397.475
397.385
397.297
397.21
397.123
397.037
396.953
396.869
396.785
396.702
396.62
396.538
396.456
396.375
396.295
396.216
396.137
396.059
395.982
395.907
395.832
395.759
395.687
395.616
395.548
395.482
395.418
395.357
395.306
395.498
395.622
395.717
395.796
395.864
395.924
395.978
396.028
396.073
396.114
400
400
400
400
400
400
400
400
400
399.996
399.79
399.627
399.483
399.349
399.222
399.1
398.981
398.867
398.755
398.645
398.539
398.434
398.331
398.23
398.131
398.033
397.936
397.841
397.748
397.655
397.563
397.473
397.384
397.295
397.208
397.121
397.035
396.951
396.866
396.783
396.7
396.617
396.535
396.453
396.373
396.292
396.213
396.134
396.056
395.979
395.904
395.829
395.756
395.684
395.614
395.545
395.479
395.415
395.354
395.303
395.495
395.619
395.714
395.793
395.861
395.922
395.976
396.025
396.071
396.112
400
400
400
400
400
400
400
400
400
399.996
399.79
399.627
399.483
399.349
399.222
399.1
398.982
398.867
398.755
398.645
398.538
398.433
398.33
398.229
398.13
398.032
397.935
397.84
397.747
397.654
397.562
397.472
397.382
397.294
397.206
397.12
397.034
396.949
396.865
396.781
396.698
396.615
396.533
396.451
396.37
396.29
396.211
396.132
396.054
395.977
395.901
395.826
395.753
395.681
395.611
395.543
395.477
395.413
395.352
395.301
395.493
395.617
395.712
395.791
395.859
395.92
395.974
396.023
396.069
396.11
400
400
400
400
400
400
400
400
400
399.996
399.79
399.627
399.483
399.35
399.222
399.1
398.982
398.867
398.755
398.645
398.538
398.433
398.33
398.229
398.129
398.031
397.935
397.84
397.746
397.653
397.561
397.471
397.381
397.293
397.205
397.119
397.033
396.948
396.863
396.78
396.696
396.614
396.531
396.45
396.369
396.288
396.209
396.13
396.052
395.975
395.899
395.824
395.751
395.679
395.609
395.541
395.474
395.411
395.351
395.3
395.492
395.616
395.711
395.79
395.858
395.918
395.972
396.022
396.067
396.108
400
400
400
400
400
400
400
400
400
399.996
399.79
399.627
399.483
399.35
399.223
399.1
398.982
398.867
398.755
398.645
398.538
398.433
398.33
398.228
398.129
398.031
397.934
397.839
397.745
397.652
397.561
397.47
397.381
397.292
397.204
397.118
397.032
396.947
396.862
396.778
396.695
396.612
396.53
396.448
396.367
396.287
396.207
396.128
396.05
395.973
395.897
395.823
395.749
395.678
395.607
395.539
395.473
395.41
395.349
395.299
395.49
395.614
395.709
395.788
395.856
395.917
395.971
396.021
396.066
396.107
400
400
400
400
400
400
400
400
400
399.996
399.79
399.627
399.484
399.35
399.223
399.101
398.982
398.867
398.755
398.645
398.538
398.433
398.329
398.228
398.128
398.03
397.934
397.838
397.745
397.652
397.56
397.47
397.38
397.292
397.204
397.117
397.031
396.946
396.861
396.777
396.694
396.611
396.529
396.447
396.366
396.285
396.206
396.127
396.049
395.972
395.896
395.821
395.748
395.676
395.606
395.538
395.472
395.409
395.349
395.298
395.49
395.613
395.709
395.787
395.856
395.916
395.97
396.02
396.065
396.106
400
400
400
400
400
400
400
400
400
399.996
399.79
399.627
399.484
399.35
399.223
399.101
398.983
398.867
398.755
398.645
398.538
398.432
398.329
398.228
398.128
398.03
397.933
397.838
397.744
397.651
397.56
397.469
397.38
397.291
397.203
397.116
397.03
396.945
396.86
396.776
396.693
396.61
396.527
396.446
396.365
396.284
396.205
396.126
396.048
395.971
395.895
395.82
395.747
395.675
395.605
395.537
395.471
395.408
395.348
395.298
395.489
395.613
395.708
395.787
395.855
395.915
395.97
396.019
396.064
396.106
400
400
400
400
400
400
400
400
400
399.996
399.79
399.627
399.484
399.35
399.223
399.101
398.983
398.867
398.755
398.645
398.538
398.432
398.329
398.227
398.128
398.029
397.933
397.838
397.744
397.651
397.559
397.469
397.379
397.29
397.202
397.115
397.029
396.944
396.859
396.775
396.692
396.609
396.526
396.445
396.364
396.283
396.203
396.125
396.047
395.97
395.894
395.819
395.746
395.674
395.604
395.536
395.47
395.407
395.347
395.297
395.488
395.612
395.707
395.786
395.854
395.915
395.969
396.018
396.064
396.105
400
400
400
400
400
400
400
400
400
399.996
399.79
399.628
399.484
399.35
399.223
399.101
398.983
398.868
398.755
398.645
398.538
398.432
398.329
398.227
398.127
398.029
397.932
397.837
397.743
397.65
397.559
397.468
397.378
397.29
397.202
397.115
397.028
396.943
396.858
396.774
396.691
396.608
396.525
396.444
396.363
396.282
396.203
396.124
396.046
395.969
395.893
395.818
395.745
395.673
395.603
395.535
395.47
395.407
395.347
395.297
395.488
395.612
395.707
395.786
395.854
395.914
395.969
396.018
396.063
396.105
400
400
400
400
400
400
400
400
400
399.996
399.79
399.628
399.484
399.35
399.224
399.101
398.983
398.868
398.755
398.645
398.538
398.432
398.329
398.227
398.127
398.029
397.932
397.837
397.743
397.65
397.558
397.468
397.378
397.289
397.201
397.114
397.028
396.942
396.857
396.773
396.69
396.607
396.525
396.443
396.362
396.281
396.202
396.123
396.045
395.968
395.892
395.817
395.744
395.673
395.603
395.535
395.469
395.406
395.347
395.297
395.488
395.612
395.707
395.785
395.853
395.914
395.968
396.018
396.063
396.104
400
400
400
400
400
400
400
400
400
399.996
399.79
399.628
399.484
399.35
399.223
399.101
398.983
398.868
398.755
398.645
398.537
398.432
398.328
398.227
398.127
398.028
397.932
397.836
397.742
397.649
397.558
397.467
397.377
397.288
397.2
397.113
397.027
396.941
396.857
396.772
396.689
396.606
396.524
396.442
396.361
396.281
396.201
396.122
396.044
395.967
395.891
395.817
395.744
395.672
395.602
395.534
395.469
395.406
395.347
395.297
395.488
395.611
395.706
395.785
395.853
395.914
395.968
396.017
396.063
396.104
400
400
400
400
400
400
400
400
400
399.996
399.79
399.628
399.484
399.35
399.223
399.101
398.983
398.868
398.755
398.645
398.537
398.432
398.328
398.226
398.126
398.028
397.931
397.836
397.742
397.649
397.557
397.466
397.377
397.288
397.2
397.113
397.026
396.941
396.856
396.772
396.688
396.606
396.523
396.442
396.361
396.28
396.201
396.122
396.044
395.967
395.891
395.816
395.743
395.672
395.602
395.534
395.469
395.406
395.347
395.297
395.488
395.611
395.706
395.785
395.853
395.914
395.968
396.017
396.063
396.104
400
400
400
400
400
400
400
400
400
399.996
399.79
399.627
399.484
399.35
399.223
399.101
398.983
398.868
398.755
398.645
398.537
398.432
398.328
398.226
398.126
398.028
397.931
397.835
397.741
397.648
397.557
397.466
397.376
397.287
397.199
397.112
397.026
396.94
396.856
396.772
396.688
396.605
396.523
396.442
396.361
396.28
396.201
396.122
396.044
395.967
395.891
395.816
395.743
395.672
395.602
395.534
395.469
395.406
395.347
395.297
395.488
395.611
395.706
395.785
395.853
395.914
395.968
396.017
396.063
396.104
400
400
400
400
400
400
400
400
400
399.996
399.79
399.627
399.483
399.35
399.223
399.101
398.983
398.867
398.755
398.645
398.537
398.431
398.328
398.226
398.126
398.027
397.931
397.835
397.741
397.648
397.556
397.466
397.376
397.287
397.199
397.112
397.026
396.94
396.855
396.771
396.688
396.605
396.523
396.442
396.361
396.28
396.201
396.122
396.044
395.967
395.891
395.817
395.743
395.672
395.602
395.535
395.469
395.407
395.347
395.297
395.488
395.612
395.707
395.786
395.854
395.914
395.968
396.018
396.063
396.104
400
400
400
400
400
400
400
400
400
399.996
399.79
399.627
399.483
399.35
399.223
399.101
398.983
398.867
398.755
398.645
398.537
398.431
398.328
398.226
398.126
398.027
397.93
397.835
397.741
397.648
397.556
397.466
397.376
397.287
397.199
397.112
397.026
396.94
396.855
396.771
396.688
396.605
396.523
396.442
396.361
396.281
396.201
396.122
396.044
395.967
395.891
395.817
395.744
395.672
395.603
395.535
395.47
395.407
395.348
395.298
395.489
395.612
395.707
395.786
395.854
395.914
395.968
396.018
396.063
396.104
400
400
400
400
400
400
400
400
400
399.996
399.79
399.627
399.483
399.35
399.223
399.101
398.982
398.867
398.755
398.645
398.537
398.431
398.328
398.226
398.126
398.027
397.93
397.835
397.741
397.648
397.556
397.466
397.376
397.287
397.199
397.112
397.026
396.94
396.856
396.772
396.689
396.606
396.524
396.442
396.361
396.281
396.202
396.123
396.045
395.968
395.892
395.817
395.744
395.673
395.603
395.535
395.47
395.407
395.348
395.298
395.489
395.613
395.707
395.786
395.854
395.915
395.969
396.018
396.064
396.105
400
400
400
400
400
400
400
400
400
399.996
399.789
399.627
399.483
399.35
399.223
399.101
398.982
398.867
398.754
398.645
398.537
398.431
398.328
398.226
398.126
398.027
397.93
397.835
397.741
397.648
397.557
397.466
397.376
397.287
397.2
397.113
397.026
396.941
396.856
396.772
396.689
396.607
396.525
396.443
396.362
396.282
396.202
396.124
396.046
395.969
395.893
395.818
395.745
395.673
395.604
395.536
395.471
395.408
395.348
395.299
395.489
395.613
395.708
395.787
395.855
395.915
395.969
396.019
396.064
396.105
400
400
400
400
400
400
400
400
400
399.996
399.79
399.627
399.483
399.349
399.222
399.1
398.982
398.867
398.755
398.645
398.537
398.431
398.328
398.226
398.126
398.028
397.931
397.835
397.741
397.648
397.557
397.466
397.377
397.288
397.2
397.113
397.027
396.942
396.857
396.773
396.69
396.608
396.526
396.444
396.363
396.283
396.203
396.125
396.047
395.97
395.894
395.819
395.746
395.674
395.604
395.537
395.471
395.408
395.349
395.299
395.49
395.614
395.709
395.787
395.855
395.916
395.97
396.019
396.065
396.106
400
400
400
400
400
400
400
400
400
399.996
399.789
399.627
399.483
399.349
399.222
399.1
398.982
398.867
398.755
398.645
398.537
398.432
398.328
398.226
398.126
398.028
397.931
397.836
397.742
397.649
397.558
397.467
397.378
397.289
397.201
397.114
397.028
396.943
396.858
396.774
396.691
396.609
396.527
396.445
396.364
396.284
396.205
396.126
396.048
395.971
395.895
395.82
395.747
395.675
395.605
395.537
395.472
395.409
395.349
395.299
395.49
395.614
395.709
395.788
395.856
395.916
395.97
396.02
396.065
396.106
400
400
400
400
400
400
400
400
400
399.996
399.789
399.627
399.483
399.349
399.222
399.1
398.982
398.867
398.755
398.645
398.537
398.432
398.329
398.227
398.127
398.029
397.932
397.836
397.743
397.65
397.558
397.468
397.379
397.29
397.202
397.115
397.029
396.944
396.86
396.776
396.692
396.61
396.528
396.447
396.366
396.286
396.206
396.127
396.049
395.972
395.896
395.821
395.748
395.676
395.606
395.538
395.473
395.41
395.35
395.3
395.491
395.615
395.71
395.789
395.857
395.917
395.971
396.021
396.066
396.107
400
400
400
400
400
400
400
400
400
399.996
399.789
399.627
399.483
399.349
399.222
399.1
398.982
398.867
398.755
398.645
398.538
398.433
398.329
398.228
398.128
398.029
397.933
397.837
397.744
397.651
397.56
397.469
397.38
397.292
397.204
397.117
397.031
396.946
396.861
396.777
396.694
396.611
396.529
396.448
396.367
396.287
396.207
396.129
396.051
395.974
395.898
395.823
395.749
395.677
395.607
395.539
395.473
395.41
395.35
395.301
395.492
395.615
395.71
395.789
395.857
395.918
395.972
396.021
396.067
396.108
400
400
400
400
400
400
400
400
400
399.996
399.789
399.626
399.483
399.349
399.222
399.101
398.983
398.868
398.756
398.646
398.539
398.433
398.33
398.229
398.129
398.031
397.934
397.839
397.745
397.652
397.561
397.471
397.382
397.293
397.206
397.119
397.033
396.947
396.863
396.779
396.695
396.613
396.531
396.449
396.369
396.288
396.209
396.13
396.052
395.975
395.899
395.824
395.751
395.678
395.608
395.54
395.474
395.411
395.351
395.301
395.492
395.616
395.711
395.79
395.858
395.918
395.973
396.022
396.067
396.109
400
400
400
400
400
400
400
400
400
399.996
399.789
399.627
399.483
399.349
399.223
399.101
398.983
398.868
398.756
398.647
398.54
398.434
398.331
398.23
398.13
398.032
397.935
397.84
397.746
397.654
397.563
397.473
397.384
397.295
397.208
397.121
397.035
396.949
396.864
396.78
396.697
396.614
396.533
396.451
396.37
396.29
396.211
396.132
396.054
395.977
395.901
395.826
395.752
395.68
395.609
395.541
395.475
395.412
395.352
395.302
395.493
395.617
395.712
395.791
395.859
395.919
395.974
396.023
396.068
396.11
400
400
400
400
400
400
400
400
400
399.996
399.789
399.627
399.483
399.35
399.223
399.101
398.984
398.869
398.757
398.648
398.541
398.436
398.332
398.231
398.132
398.034
397.937
397.842
397.748
397.656
397.565
397.475
397.386
397.297
397.21
397.123
397.037
396.951
396.867
396.783
396.699
396.617
396.535
396.453
396.373
396.292
396.213
396.134
396.056
395.979
395.903
395.828
395.754
395.682
395.611
395.542
395.476
395.413
395.353
395.302
395.494
395.618
395.713
395.792
395.86
395.92
395.975
396.024
396.07
396.111
400
400
400
400
400
400
400
400
400
399.996
399.789
399.627
399.483
399.35
399.223
399.102
398.984
398.87
398.758
398.649
398.542
398.437
398.334
398.233
398.133
398.035
397.939
397.844
397.751
397.658
397.567
397.477
397.388
397.3
397.212
397.125
397.039
396.954
396.869
396.785
396.702
396.619
396.537
396.456
396.375
396.295
396.216
396.137
396.059
395.982
395.906
395.831
395.757
395.684
395.613
395.544
395.478
395.415
395.354
395.303
395.495
395.619
395.715
395.794
395.862
395.922
395.976
396.026
396.071
396.113
400
400
400
400
400
400
400
400
400
399.996
399.79
399.627
399.483
399.35
399.224
399.103
398.985
398.871
398.759
398.65
398.544
398.439
398.336
398.235
398.136
398.038
397.941
397.847
397.753
397.661
397.57
397.48
397.391
397.303
397.215
397.128
397.042
396.957
396.872
396.788
396.705
396.622
396.54
396.459
396.378
396.298
396.219
396.14
396.062
395.985
395.909
395.834
395.76
395.687
395.616
395.547
395.48
395.416
395.356
395.306
395.497
395.621
395.717
395.796
395.864
395.924
395.979
396.028
396.074
396.115
400
400
400
400
400
400
400
400
400
399.996
399.79
399.627
399.484
399.351
399.225
399.104
398.986
398.872
398.761
398.652
398.545
398.441
398.338
398.237
398.138
398.04
397.944
397.849
397.756
397.664
397.573
397.483
397.394
397.306
397.218
397.131
397.045
396.96
396.875
396.791
396.708
396.626
396.544
396.462
396.382
396.302
396.222
396.144
396.066
395.989
395.913
395.837
395.763
395.69
395.619
395.55
395.483
395.419
395.358
395.308
395.5
395.624
395.719
395.798
395.866
395.927
395.981
396.031
396.076
396.117
400
400
400
400
400
400
400
400
400
399.996
399.79
399.628
399.484
399.352
399.226
399.105
398.988
398.874
398.763
398.654
398.548
398.443
398.341
398.24
398.141
398.043
397.947
397.853
397.76
397.668
397.577
397.487
397.398
397.309
397.222
397.135
397.049
396.964
396.879
396.795
396.712
396.63
396.548
396.467
396.386
396.306
396.227
396.148
396.07
395.993
395.917
395.842
395.767
395.694
395.623
395.553
395.486
395.422
395.362
395.311
395.503
395.627
395.722
395.801
395.869
395.93
395.984
396.034
396.079
396.12
400
400
400
400
400
400
400
400
400
399.996
399.79
399.628
399.485
399.352
399.227
399.106
398.989
398.876
398.765
398.656
398.55
398.446
398.343
398.243
398.144
398.047
397.951
397.856
397.763
397.671
397.58
397.491
397.401
397.313
397.226
397.139
397.053
396.968
396.883
396.8
396.716
396.634
396.552
396.471
396.39
396.31
396.231
396.153
396.075
395.998
395.922
395.846
395.772
395.698
395.627
395.557
395.49
395.425
395.364
395.313
395.505
395.63
395.725
395.804
395.872
395.932
395.987
396.036
396.082
396.123
400
400
400
400
400
400
400
400
400
399.996
399.79
399.628
399.486
399.353
399.228
399.107
398.991
398.878
398.767
398.659
398.553
398.449
398.347
398.246
398.147
398.05
397.954
397.86
397.767
397.675
397.584
397.495
397.406
397.317
397.23
397.143
397.057
396.972
396.888
396.804
396.721
396.638
396.556
396.475
396.395
396.315
396.235
396.157
396.079
396.002
395.925
395.85
395.775
395.702
395.63
395.559
395.492
395.427
395.366
395.314
395.506
395.63
395.726
395.805
395.873
395.933
395.987
396.037
396.082
396.123
400
400
400
400
400
400
400
400
400
399.996
399.791
399.629
399.486
399.354
399.229
399.109
398.993
398.879
398.769
398.661
398.555
398.451
398.35
398.249
398.151
398.053
397.958
397.864
397.77
397.679
397.588
397.498
397.409
397.321
397.233
397.146
397.06
396.975
396.891
396.807
396.723
396.641
396.559
396.477
396.397
396.317
396.237
396.158
396.08
396.003
395.926
395.85
395.775
395.701
395.628
395.558
395.489
395.424
395.362
395.31
395.502
395.626
395.721
395.8
395.868
395.928
395.982
396.031
396.076
396.117
400
400
400
400
400
400
400
400
400
399.996
399.791
399.629
399.487
399.355
399.23
399.11
398.994
398.881
398.771
398.663
398.558
398.454
398.352
398.252
398.153
398.056
397.96
397.866
397.773
397.68
397.589
397.499
397.41
397.321
397.234
397.146
397.06
396.974
396.889
396.805
396.721
396.638
396.556
396.474
396.392
396.312
396.232
396.152
396.073
395.995
395.918
395.841
395.765
395.69
395.616
395.544
395.475
395.408
395.344
395.291
395.484
395.608
395.703
395.781
395.848
395.908
395.962
396.01
396.055
396.095
400
400
400
400
400
400
400
400
400
399.996
399.791
399.63
399.487
399.355
399.231
399.111
398.995
398.882
398.771
398.664
398.558
398.454
398.351
398.251
398.152
398.054
397.958
397.862
397.769
397.676
397.584
397.493
397.402
397.313
397.224
397.136
397.048
396.962
396.875
396.79
396.705
396.62
396.536
396.453
396.37
396.288
396.206
396.125
396.045
395.965
395.886
395.807
395.729
395.652
395.576
395.502
395.43
395.361
395.295
395.239
395.432
395.556
395.65
395.728
395.795
395.854
395.906
395.954
395.998
396.037
400
400
400
400
400
400
400
400
400
399.996
399.791
399.63
399.487
399.355
399.23
399.109
398.993
398.879
398.768
398.659
398.552
398.446
398.343
398.24
398.14
398.04
397.942
397.845
397.749
397.654
397.559
397.466
397.373
397.281
397.19
397.099
397.009
396.919
396.83
396.741
396.653
396.565
396.478
396.391
396.305
396.219
396.134
396.049
395.965
395.881
395.798
395.715
395.633
395.552
395.472
395.393
395.317
395.243
395.172
395.113
395.306
395.429
395.523
395.599
395.665
395.722
395.774
395.82
395.862
395.9
400
400
400
400
400
400
400
400
400
399.996
399.79
399.627
399.483
399.349
399.221
399.098
398.979
398.862
398.748
398.635
398.524
398.415
398.307
398.2
398.095
397.991
397.887
397.785
397.684
397.583
397.483
397.384
397.285
397.187
397.09
396.992
396.896
396.799
396.703
396.608
396.513
396.418
396.324
396.23
396.136
396.043
395.95
395.858
395.766
395.674
395.583
395.493
395.403
395.313
395.225
395.138
395.053
394.971
394.892
394.824
395.021
395.145
395.238
395.314
395.379
395.436
395.487
395.533
395.574
395.611
400
400
400
400
400
400
400
400
400
399.996
399.785
399.617
399.467
399.326
399.191
399.061
398.933
398.807
398.683
398.561
398.44
398.32
398.202
398.084
397.967
397.851
397.736
397.622
397.508
397.395
397.283
397.171
397.059
396.948
396.837
396.727
396.617
396.507
396.398
396.289
396.18
396.072
395.964
395.856
395.749
395.642
395.536
395.43
395.324
395.219
395.115
395.011
394.907
394.805
394.703
394.603
394.505
394.409
394.319
394.24
394.45
394.582
394.683
394.765
394.836
394.899
394.956
395.008
395.055
395.098
400
400
400
400
400
400
400
400
400
399.995
399.766
399.578
399.409
399.248
399.094
398.942
398.793
398.646
398.5
398.355
398.212
398.069
397.928
397.787
397.647
397.508
397.369
397.232
397.096
396.96
396.825
396.691
396.557
396.424
396.292
396.16
396.029
395.899
395.769
395.64
395.511
395.384
395.257
395.13
395.005
394.88
394.756
394.633
394.51
394.389
394.268
394.148
394.029
393.911
393.794
393.68
393.567
393.459
393.355
393.271
393.535
393.708
393.843
393.959
394.06
394.151
394.235
394.312
394.383
394.447
400
400
400
400
400
400
400
400
400
399.993
399.691
399.454
399.242
399.042
398.85
398.664
398.48
398.299
398.121
397.944
397.77
397.597
397.426
397.256
397.088
396.921
396.756
396.593
396.432
396.273
396.115
395.958
395.804
395.651
395.499
395.35
395.201
395.054
394.909
394.764
394.622
394.481
394.341
394.202
394.065
393.929
393.795
393.662
393.53
393.399
393.269
393.141
393.014
392.889
392.766
392.645
392.527
392.415
392.31
392.237
392.679
392.96
393.177
393.357
393.512
393.649
393.771
393.882
393.983
394.071
400
400
400
400
400
400
400
400
400
399.995
399.767
399.551
399.347
399.151
398.961
398.775
398.592
398.412
398.235
398.059
397.885
397.713
397.542
397.372
397.204
397.038
396.873
396.709
396.547
396.387
396.228
396.071
395.915
395.761
395.609
395.458
395.309
395.161
395.014
394.869
394.726
394.583
394.442
394.302
394.163
394.026
393.89
393.755
393.623
393.491
393.361
393.233
393.107
392.982
392.861
392.741
392.624
392.511
392.404
392.323
392.687
392.956
393.17
393.349
393.504
393.64
393.763
393.874
393.975
394.064
400
400
400
400
400
400
400
400
400
399.997
399.835
399.672
399.515
399.361
399.21
399.062
398.915
398.77
398.627
398.484
398.343
398.202
398.062
397.923
397.784
397.647
397.509
397.373
397.236
397.101
396.966
396.832
396.699
396.566
396.433
396.302
396.171
396.04
395.911
395.781
395.653
395.525
395.397
395.27
395.144
395.018
394.893
394.769
394.646
394.524
394.403
394.283
394.164
394.047
393.931
393.817
393.705
393.596
393.49
393.4
393.585
393.736
393.863
393.972
394.07
394.158
394.239
394.315
394.385
394.448
400
400
400
400
400
400
400
400
400
399.998
399.852
399.708
399.568
399.434
399.303
399.176
399.05
398.927
398.806
398.686
398.567
398.449
398.332
398.216
398.101
397.986
397.872
397.759
397.646
397.534
397.422
397.31
397.199
397.089
396.979
396.869
396.759
396.65
396.542
396.433
396.325
396.217
396.109
396.001
395.894
395.787
395.681
395.575
395.469
395.364
395.26
395.157
395.054
394.952
394.852
394.753
394.655
394.559
394.467
394.383
394.519
394.63
394.721
394.798
394.865
394.925
394.979
395.029
395.074
395.116
400
400
400
400
400
400
400
400
400
399.998
399.856
399.716
399.583
399.455
399.331
399.211
399.093
398.979
398.866
398.756
398.647
398.539
398.433
398.328
398.224
398.12
398.018
397.917
397.816
397.716
397.617
397.518
397.42
397.322
397.225
397.129
397.033
396.937
396.842
396.747
396.652
396.558
396.464
396.37
396.276
396.183
396.091
395.998
395.907
395.815
395.725
395.635
395.546
395.458
395.371
395.285
395.201
395.118
395.038
394.966
395.091
395.194
395.278
395.349
395.41
395.464
395.512
395.557
395.596
395.633
400
400
400
400
400
400
400
400
400
399.998
399.857
399.718
399.586
399.46
399.338
399.221
399.106
398.994
398.885
398.778
398.672
398.568
398.466
398.365
398.266
398.167
398.07
397.974
397.878
397.783
397.69
397.597
397.504
397.413
397.322
397.231
397.142
397.052
396.964
396.876
396.788
396.701
396.614
396.527
396.441
396.355
396.27
396.186
396.102
396.018
395.936
395.854
395.773
395.693
395.614
395.536
395.46
395.386
395.314
395.25
395.373
395.475
395.559
395.63
395.692
395.747
395.797
395.841
395.882
395.919
400
400
400
400
400
400
400
400
400
399.998
399.856
399.718
399.587
399.46
399.339
399.222
399.108
398.996
398.888
398.782
398.677
398.575
398.474
398.375
398.277
398.18
398.084
397.99
397.896
397.804
397.712
397.621
397.531
397.442
397.354
397.266
397.179
397.093
397.007
396.922
396.838
396.754
396.67
396.587
396.504
396.422
396.341
396.26
396.179
396.1
396.021
395.943
395.866
395.791
395.716
395.643
395.571
395.501
395.434
395.374
395.496
395.599
395.684
395.756
395.82
395.876
395.927
395.973
396.015
396.054
400
400
400
400
400
400
400
400
400
399.998
399.856
399.718
399.586
399.46
399.339
399.221
399.107
398.996
398.887
398.781
398.677
398.575
398.474
398.375
398.278
398.181
398.086
397.992
397.899
397.808
397.717
397.627
397.538
397.45
397.362
397.276
397.19
397.105
397.02
396.937
396.853
396.771
396.688
396.607
396.525
396.445
396.365
396.286
396.207
396.129
396.052