/*--------------------------------*- C++ -*----------------------------------*\
  =========                 |
  \\      /  F ield         | OpenFOAM: The Open Source CFD Toolbox
   \\    /   O peration     | Website:  https://openfoam.org
    \\  /    A nd           | Version:  12
     \\/     M anipulation  |
\*---------------------------------------------------------------------------*/
FoamFile
{
    format      ascii;
    class       volScalarField;
    location    "1400/air";
    object      alphat;
}
// * * * * * * * * * * * * * * * * * * * * * * * * * * * * * * * * * * * * * //

dimensions      [1 -1 -1 0 0 0 0];

internalField   nonuniform List<scalar> 
243000
(
0.000145464
0.000148279
0.000147308
0.000144645
0.000140703
0.000135901
0.000130618
0.000125151
0.00011971
0.000114459
0.000109511
0.000105002
0.000100996
9.75389e-05
9.46036e-05
9.22068e-05
9.03727e-05
8.92711e-05
8.91184e-05
9.0045e-05
9.18589e-05
9.40281e-05
9.58396e-05
9.65579e-05
9.56489e-05
9.26261e-05
8.75998e-05
0.000385521
0.000358682
0.000319144
0.000534753
0.000539769
0.000529097
0.000510595
0.000488685
0.000465463
0.000442156
0.00041955
0.000398135
0.000378233
0.000360087
0.000343921
0.00032979
0.000317845
0.000308137
0.000300863
0.000296337
0.000295391
0.000298757
0.00030672
0.000318319
0.00033154
0.000343826
0.000352798
0.000356408
0.000352956
0.000342198
0.000321975
0.000301106
0.000269181
0.000657225
0.000700959
0.00071784
0.000721086
0.000716145
0.000705961
0.000692292
0.000676373
0.000659061
0.000641039
0.000622819
0.000604955
0.000587749
0.000571793
0.000557524
0.000545694
0.000537274
0.000533988
0.000536732
0.000545283
0.000557347
0.000569364
0.000577454
0.000578573
0.000570284
0.000551007
0.000521353
0.000479817
0.00043324
0.000374268
0.000639652
0.000696468
0.000724221
0.000734446
0.000734133
0.000727146
0.000715685
0.000701288
0.000685068
0.000667832
0.000650141
0.000632638
0.000615741
0.000600157
0.000586468
0.000575635
0.000568833
0.000567862
0.000573215
0.000584185
0.00059813
0.000611541
0.000620838
0.000623313
0.00061664
0.000599191
0.000571357
0.000531672
0.000485332
0.00042706
0.000600484
0.000667343
0.000705968
0.000725206
0.000731943
0.000730263
0.000722725
0.000711399
0.000697734
0.000682561
0.000666441
0.000650216
0.000634418
0.000619889
0.000607346
0.000597979
0.00059313
0.000594522
0.000602256
0.000615142
0.000630313
0.000644412
0.00065422
0.000657402
0.00065188
0.00063609
0.0006102
0.000573147
0.000528703
0.000473478
0.000558918
0.000620189
0.000668678
0.000698117
0.000713472
0.000718777
0.000716927
0.00071027
0.00070008
0.000687698
0.000673839
0.000659692
0.000645626
0.000632677
0.000621679
0.000614105
0.000611411
0.00061514
0.00062505
0.000639528
0.000655577
0.000670021
0.000680003
0.000683555
0.000678883
0.00066457
0.00064063
0.000606396
0.00056455
0.000513049
0.000542834
0.000580722
0.000626019
0.000660179
0.000682938
0.000695778
0.000700401
0.000699159
0.000693547
0.000684923
0.000674326
0.000662579
0.000650627
0.000639667
0.000630546
0.000624987
0.000624554
0.000630548
0.000642454
0.000658311
0.000675052
0.000689697
0.000699719
0.000703471
0.000699467
0.000686452
0.00066439
0.000632923
0.000594002
0.000546284
0.00055113
0.00055949
0.000590725
0.00062395
0.000650147
0.000667519
0.000676792
0.000680671
0.000679934
0.00067554
0.000668543
0.000659874
0.000650565
0.000641793
0.000634767
0.000631369
0.000633188
0.000641364
0.000655105
0.000672204
0.00068956
0.000704382
0.000714425
0.000718324
0.000714881
0.000703026
0.000682734
0.000653885
0.000618064
0.000573949
0.000578265
0.000561517
0.000569922
0.000593202
0.000618441
0.00063863
0.000651924
0.000659411
0.000662052
0.000661324
0.000657931
0.00065254
0.000646066
0.000639767
0.000634989
0.000633802
0.000637811
0.00064804
0.000663486
0.000681746
0.000699703
0.000714755
0.000724885
0.000728957
0.000726036
0.000715241
0.000696623
0.0006703
0.000637435
0.000596748
0.000615273
0.000586934
0.000571886
0.000576108
0.000592414
0.000611126
0.00062651
0.000637075
0.000642975
0.000645114
0.000644238
0.000641759
0.00063806
0.000634283
0.000631783
0.000632762
0.000638855
0.000650907
0.000667883
0.000687249
0.000705883
0.000721303
0.000731656
0.000735992
0.000733619
0.00072384
0.000706887
0.000682777
0.000652646
0.000615263
0.000652852
0.000625894
0.000597991
0.0005817
0.000580789
0.000590504
0.000603467
0.000614968
0.000623214
0.000628004
0.00062969
0.000629196
0.000627613
0.000626073
0.000625719
0.000628704
0.000636691
0.000650583
0.000669014
0.000689327
0.000708555
0.000724386
0.000735141
0.000739904
0.000738151
0.000729437
0.000713906
0.000691824
0.000664238
0.000630183
0.00069021
0.000666561
0.000637046
0.000609919
0.000591663
0.000585564
0.000589106
0.000596802
0.000604755
0.000610944
0.000614672
0.000616149
0.000616125
0.000616082
0.000617438
0.00062212
0.000631709
0.00064704
0.000666812
0.000688379
0.000708503
0.000724866
0.000736016
0.000741175
0.000740033
0.000732299
0.000718152
0.000697948
0.000672696
0.000641701
0.000726926
0.000705731
0.00068106
0.000651607
0.000623852
0.000602807
0.000591639
0.000589207
0.000591957
0.000596479
0.000600565
0.000603259
0.000604588
0.000605484
0.000607767
0.000613602
0.000624358
0.000640774
0.000661574
0.0006841
0.000705156
0.000722349
0.000734208
0.000740017
0.000739466
0.00073264
0.000719925
0.000701537
0.000678422
0.000650222
0.00076292
0.000743719
0.000722131
0.000695496
0.000666667
0.00063834
0.000614741
0.000598958
0.000591171
0.000589215
0.000590288
0.000592194
0.000593848
0.000595314
0.000597783
0.00060391
0.000615196
0.000632209
0.000653697
0.000677012
0.000698944
0.000717062
0.000729854
0.000736574
0.000736883
0.000731029
0.000719551
0.000702891
0.000681795
0.00065618
0.000798196
0.000780548
0.000761033
0.000738753
0.000711588
0.000682255
0.000652907
0.000626882
0.000607096
0.000594573
0.00058824
0.000585964
0.000585725
0.000586551
0.0005887
0.000594024
0.000604955
0.000621896
0.000643596
0.000667427
0.000690169
0.000709277
0.000723145
0.000730979
0.000732399
0.000727739
0.00071753
0.000702383
0.000683173
0.00065995
0.000832615
0.000816122
0.000798093
0.000777875
0.000753687
0.000726528
0.00069689
0.000666557
0.000638366
0.000615183
0.000598605
0.00058841
0.000583085
0.000581017
0.000581553
0.0005855
0.000594691
0.000610602
0.000631827
0.000655753
0.000679108
0.000699183
0.000714233
0.000723352
0.000726117
0.000722802
0.000714029
0.000700464
0.000683012
0.000662128
0.000865965
0.00085029
0.000833362
0.000814594
0.000792883
0.000768347
0.000740625
0.000710194
0.000678603
0.000648394
0.000622361
0.000602461
0.000589057
0.00058128
0.000578057
0.000579338
0.000586127
0.000599585
0.00061926
0.000642592
0.000666168
0.000687063
0.000703311
0.000713843
0.00071817
0.000716403
0.000709461
0.000697931
0.000682548
0.000663861
0.000898025
0.000882922
0.000866828
0.000849184
0.000829523
0.000807162
0.000781687
0.000752941
0.00072137
0.000688388
0.000656362
0.000628049
0.000605572
0.000589808
0.000580398
0.000577097
0.000580237
0.000590486
0.000607507
0.000629166
0.000652226
0.000673534
0.000690859
0.000702917
0.000709124
0.000709372
0.000704499
0.000695019
0.000681664
0.00066507
0.000928666
0.000913949
0.000898487
0.000881755
0.000863752
0.000843215
0.000819768
0.000793056
0.000762986
0.000730049
0.000695641
0.00066206
0.00063202
0.000607815
0.000590511
0.000580623
0.000578429
0.000584252
0.000597715
0.000616943
0.000638848
0.000660145
0.000678287
0.000691714
0.000699684
0.000701933
0.000699052
0.000691617
0.000680266
0.000665689
0.000957833
0.00094335
0.000928372
0.000912466
0.000895819
0.000876859
0.000855164
0.000830349
0.000802137
0.000770538
0.000736145
0.000700398
0.000665624
0.000634492
0.000609205
0.000591479
0.000582298
0.0005822
0.000590831
0.000606574
0.000626455
0.000647119
0.000665674
0.000680228
0.000689811
0.000694003
0.000693081
0.000687682
0.000678298
0.000665648
0.000985409
0.000971107
0.000956628
0.000942082
0.000926328
0.000908536
0.000888266
0.000865115
0.000838734
0.000808908
0.000775743
0.00073995
0.000703147
0.000667565
0.000635748
0.000610296
0.000593222
0.000585768
0.000588143
0.000599042
0.00061576
0.000634895
0.000653268
0.000668576
0.000679543
0.000685547
0.000686569
0.000683138
0.00067573
0.000665001
0.00101132
0.000997361
0.000984089
0.00097037
0.000955373
0.000938627
0.000919688
0.000898128
0.000873549
0.000845621
0.000814182
0.000779468
0.000742453
0.0007047
0.000668488
0.000636631
0.000611857
0.000596279
0.000591107
0.000595677
0.000607829
0.000624247
0.000641549
0.000657047
0.000669044
0.000676637
0.00067955
0.000678022
0.000672603
0.000663811
0.00103602
0.00102341
0.00101063
0.000997479
0.000983619
0.000968409
0.000951264
0.000931646
0.000909045
0.000883068
0.000853381
0.000819989
0.000783354
0.000744806
0.00070605
0.000669579
0.000638231
0.000614704
0.000601131
0.000598102
0.000604101
0.000616345
0.000631398
0.000646225
0.000658691
0.000667514
0.000672139
0.000672453
0.000668989
0.000662158
0.00105903
0.00104727
0.00103576
0.00102411
0.0010118
0.000998283
0.000982985
0.000965371
0.000944897
0.000921126
0.000893609
0.000862173
0.000826881
0.000788453
0.00074809
0.000708659
0.00067232
0.000641814
0.000619847
0.00060817
0.000606603
0.000612935
0.000624151
0.000637098
0.000649157
0.000658648
0.000664616
0.000666657
0.000665032
0.000660185
0.00107918
0.00106813
0.00105769
0.00104739
0.00103667
0.00102496
0.00101166
0.000996224
0.00097815
0.000956985
0.000932211
0.000903486
0.000870571
0.000833805
0.000794504
0.000754333
0.000715038
0.000679134
0.000649554
0.000628926
0.000618354
0.000617035
0.000622475
0.000631688
0.000641905
0.000651073
0.000657739
0.000661165
0.000661177
0.000658251
0.00109904
0.00108833
0.00107778
0.0010678
0.00105797
0.00104754
0.00103591
0.00102251
0.00100739
0.000989871
0.000969297
0.000945086
0.000916818
0.000884519
0.000848599
0.000810043
0.000770093
0.000730824
0.000695132
0.000666009
0.000645595
0.000634517
0.000631667
0.000634668
0.000640846
0.000647778
0.000653767
0.000657617
0.000658763
0.000657373
0.001122
0.00111268
0.00110333
0.00109427
0.00108556
0.00107699
0.00106813
0.00105844
0.00104746
0.00103456
0.00101905
0.00100018
0.00097734
0.000950415
0.000919553
0.000884783
0.000846541
0.000806426
0.000766973
0.000730964
0.000701
0.000678838
0.000664854
0.000658053
0.000656562
0.000658082
0.00066064
0.000662729
0.000663404
0.000662592
0.00115832
0.00115153
0.0011446
0.00113812
0.0011325
0.00112779
0.00112371
0.00111966
0.00111486
0.00110849
0.00109971
0.00108772
0.00107181
0.00105178
0.0010279
0.000999366
0.000965486
0.000927961
0.000888454
0.000849244
0.000812664
0.000780756
0.000754866
0.000735483
0.000722041
0.000713126
0.000707229
0.000702956
0.000699175
0.000696024
0.00124582
0.00124255
0.00123976
0.00123911
0.00124102
0.00124486
0.00124974
0.00125463
0.0012586
0.00126059
0.00125977
0.00125576
0.00124805
0.00123674
0.00122194
0.00120264
0.00117701
0.00114717
0.00111439
0.00108015
0.001046
0.00101326
0.000983265
0.000957014
0.000934374
0.000914212
0.000896586
0.0008814
0.000868348
0.000858117
0.00154662
0.00154317
0.00154537
0.00155395
0.00156433
0.00157266
0.0015794
0.00158464
0.00158849
0.00158939
0.0015881
0.00158537
0.00158125
0.00157644
0.00157043
0.00156319
0.00155064
0.00153766
0.00152458
0.00151235
0.00150103
0.00149108
0.00148267
0.00147618
0.00146945
0.00145906
0.0014485
0.00143885
0.0014318
0.00142417
0.000181652
0.000186598
0.000184599
0.000179928
0.000173616
0.000166358
0.000158669
0.000150962
0.000143492
0.00013649
0.000130115
0.000124493
0.000119656
0.000115713
0.000112669
0.000110649
0.000109764
0.000110363
0.000112827
0.000117132
0.000122358
0.000127182
0.000130497
0.000131503
0.000129681
0.000124459
0.000115719
0.000102119
8.47991e-05
8.04036e-05
0.000735508
0.00081973
0.000796652
0.00073511
0.000665423
0.000599724
0.000541658
0.000491304
0.000447817
0.000411057
0.000379763
0.000353366
0.000331176
0.000313515
0.000299731
0.000290547
0.000286293
0.000288456
0.000296314
0.000309334
0.000326437
0.000345962
0.00036479
0.000378969
0.000382538
0.000373305
0.000352691
0.00032099
0.000296967
0.000285073
0.00112773
0.00127835
0.00128951
0.00123174
0.00114742
0.00105744
0.000971133
0.000892145
0.000821752
0.000760828
0.000708187
0.000663561
0.000626158
0.000596973
0.000575303
0.000562484
0.000559285
0.000565491
0.000576385
0.000590373
0.000608415
0.000630741
0.000654235
0.000672787
0.00067707
0.000659986
0.000623021
0.000564242
0.000510337
0.000474976
0.0013364
0.00153134
0.00158179
0.00154897
0.00147627
0.00138845
0.00129657
0.00120728
0.0011255
0.00105273
0.000988777
0.000934408
0.000889472
0.000855798
0.000833344
0.000824567
0.000829727
0.000845757
0.000862522
0.000877804
0.00089343
0.000912149
0.000932562
0.000950497
0.000951651
0.000927632
0.000878218
0.000800484
0.000720438
0.000660704
0.00142881
0.00163229
0.00171656
0.00171864
0.00167306
0.0015966
0.00151244
0.00142424
0.00134409
0.00127012
0.0012031
0.0011462
0.0011002
0.0010679
0.00105009
0.00105126
0.00106972
0.00109825
0.00112253
0.00113957
0.00115357
0.00116827
0.00118473
0.00119957
0.00119816
0.00116971
0.00111277
0.00102389
0.00092593
0.000848117
0.00146668
0.00164686
0.00173943
0.00176768
0.00175212
0.00170262
0.00163678
0.00156778
0.00149088
0.0014188
0.00135391
0.00130073
0.00125912
0.00123272
0.00122378
0.00123903
0.00127389
0.00131737
0.00135142
0.00137174
0.00138437
0.00139505
0.00140695
0.00142064
0.0014167
0.00138622
0.00132531
0.00123093
0.00112271
0.00103206
0.00144543
0.00156911
0.00166124
0.00171608
0.00173272
0.00171561
0.0016762
0.00162632
0.00156721
0.00150735
0.00145282
0.00140559
0.00137094
0.00135398
0.00135716
0.00138918
0.00144264
0.00150054
0.00154602
0.00157095
0.00158322
0.00159208
0.0016012
0.00161269
0.00160998
0.0015784
0.00151639
0.00142103
0.00130741
0.00120645
0.0013966
0.0014632
0.0015315
0.00159094
0.00163124
0.00164651
0.00164231
0.00161964
0.00158314
0.00154114
0.0015
0.00146501
0.00144142
0.00143635
0.00145395
0.0015042
0.00157688
0.00165029
0.00170508
0.00173668
0.00175201
0.00176137
0.00176825
0.00177813
0.00177627
0.00174819
0.00168701
0.00159417
0.00147982
0.00137102
0.00138566
0.00138347
0.00141079
0.00145358
0.00149872
0.00153307
0.00155269
0.00155673
0.0015464
0.0015273
0.00150409
0.00148466
0.00147537
0.00148465
0.00151786
0.00158696
0.00167839
0.00176829
0.00183407
0.00187329
0.0018937
0.00190466
0.00191049
0.00191915
0.0019175
0.00189368
0.00183938
0.00175184
0.00164074
0.00152467
0.00142023
0.0013559
0.00132734
0.00133544
0.00136592
0.00140298
0.0014358
0.0014592
0.0014712
0.00147418
0.00147172
0.00147053
0.00147771
0.00150215
0.00155218
0.00164015
0.00175072
0.00185339
0.00193276
0.00198218
0.00200952
0.0020231
0.0020299
0.00203806
0.00203721
0.00201819
0.00197173
0.00189185
0.00178473
0.00166608
0.00149002
0.00138405
0.00130405
0.0012635
0.00126393
0.00128525
0.00131661
0.00134864
0.00137575
0.00139607
0.00141189
0.00142796
0.00145254
0.001493
0.00156023
0.00166646
0.00179442
0.00191929
0.00201105
0.00206962
0.00210286
0.00211961
0.0021286
0.00213705
0.00213801
0.00212256
0.00208113
0.00201098
0.00191109
0.00179659
0.00159709
0.00146421
0.00134714
0.00126557
0.001223
0.00121176
0.00122485
0.00125032
0.00128065
0.00131047
0.00133867
0.00136834
0.0014055
0.00146181
0.00154573
0.0016689
0.00181291
0.00195173
0.00206222
0.00213862
0.0021829
0.0022055
0.00221503
0.00221956
0.00221682
0.00220385
0.00216975
0.00210916
0.00202062
0.00191319
0.00175026
0.00160439
0.0014649
0.00134826
0.00126386
0.00121197
0.00119059
0.00119349
0.00121185
0.00123816
0.00126932
0.00130553
0.00135048
0.00141479
0.00151337
0.00165115
0.00180917
0.0019617
0.00208653
0.00217636
0.00223244
0.00226456
0.00228028
0.00228617
0.00228233
0.00226745
0.00223918
0.00218881
0.00211151
0.0020145
0.00194426
0.00180198
0.00165489
0.00151512
0.00139494
0.00130195
0.00123931
0.00120559
0.0011957
0.00120369
0.00122457
0.00125674
0.00130126
0.00136585
0.00146965
0.00161807
0.00178684
0.00195107
0.0020894
0.00219257
0.00226218
0.00230511
0.00232827
0.00233811
0.00233581
0.00232153
0.00229528
0.00225371
0.002189
0.00210601
0.00217834
0.00204831
0.00190328
0.00175216
0.00160866
0.0014824
0.00137993
0.0013046
0.00125597
0.00123142
0.00122737
0.00124155
0.00127397
0.00133035
0.00142594
0.00157647
0.00175082
0.0019235
0.00207344
0.00218942
0.00227323
0.00232772
0.00235998
0.00237625
0.00237799
0.00236834
0.00234571
0.00231194
0.00225935
0.00218901
0.00244152
0.00232828
0.00219243
0.00204151
0.00188754
0.00173977
0.00160587
0.00149204
0.00140192
0.00133674
0.00129612
0.00127953
0.00128698
0.0013228
0.00140054
0.00153487
0.00170739
0.00188357
0.00204198
0.00216954
0.00226673
0.00233365
0.00237657
0.00240152
0.00241058
0.0024073
0.00239254
0.00236482
0.00232262
0.00226261
0.00272286
0.00262736
0.00250648
0.00236405
0.00220988
0.00205218
0.00189803
0.00175447
0.00162747
0.00152146
0.00143919
0.00138292
0.00135418
0.00135816
0.0014055
0.00151117
0.00166427
0.00183685
0.00199935
0.00213595
0.00224528
0.00232508
0.00238009
0.00241641
0.00243655
0.00244171
0.00243401
0.00241058
0.00237416
0.0023227
0.0030097
0.00293299
0.00283006
0.00270154
0.00255461
0.00239613
0.00223228
0.00206956
0.00191456
0.00177344
0.00165123
0.00155278
0.00148162
0.00144449
0.00145187
0.00151827
0.00163872
0.00179241
0.00195078
0.00209288
0.00221269
0.00230576
0.00237427
0.00242247
0.00245303
0.00246706
0.00246582
0.00244793
0.00241618
0.0023723
0.00328966
0.00323327
0.00314939
0.00303761
0.00290268
0.00274975
0.00258424
0.00241176
0.00223845
0.00207071
0.00191472
0.00177703
0.00166309
0.0015815
0.00154212
0.00156159
0.00163943
0.00176309
0.00190677
0.00204691
0.00217026
0.00227324
0.00235364
0.00241376
0.00245573
0.00248075
0.00248736
0.00247776
0.00245175
0.00241459
0.0035578
0.00351825
0.0034525
0.00335767
0.00323652
0.00309251
0.00293038
0.0027548
0.00257106
0.00238502
0.0022029
0.0020321
0.00187961
0.00175591
0.00167015
0.00163729
0.00166756
0.0017513
0.00187079
0.00200229
0.00212238
0.00223061
0.00232044
0.00239152
0.00244518
0.00248202
0.00249999
0.00250043
0.00248209
0.00245218
0.00380738
0.00377946
0.00372782
0.00364697
0.00353801
0.00340313
0.0032461
0.00307076
0.00288135
0.00268296
0.00248154
0.00228478
0.00210078
0.0019413
0.00181352
0.00173254
0.00171026
0.00175225
0.00183918
0.00194963
0.00206416
0.00217956
0.0022747
0.00235535
0.00242073
0.00247041
0.00250246
0.00251478
0.00250693
0.00248699
0.00402736
0.00400464
0.00395995
0.00388692
0.00378545
0.00365672
0.0035033
0.00332803
0.00313419
0.00292638
0.00271072
0.00249517
0.00228842
0.00210179
0.00194149
0.00182089
0.00175136
0.0017451
0.00179829
0.00188848
0.00199684
0.00210434
0.00220569
0.00229792
0.00237742
0.00244228
0.0024898
0.00251724
0.00252448
0.00252377
0.0041982
0.0041719
0.00412513
0.00405153
0.00395047
0.00382244
0.00366854
0.00349051
0.00329125
0.00307569
0.0028509
0.0026252
0.00240751
0.00220646
0.00202821
0.00187969
0.00177125
0.00171783
0.00172679
0.00178909
0.00188675
0.00199661
0.00211062
0.00221406
0.00230634
0.0023864
0.00245198
0.00249763
0.00252826
0.00254661
0.00428831
0.00424811
0.00419024
0.00411011
0.00400594
0.00387624
0.00372024
0.00353856
0.00333486
0.00311589
0.00289016
0.00266623
0.00245187
0.00225209
0.00207486
0.00191462
0.00177715
0.00168146
0.0016393
0.00165418
0.00171979
0.00182206
0.00194108
0.00206047
0.00217338
0.00227586
0.0023643
0.00243588
0.00249436
0.00254064
0.00425823
0.0042014
0.00413199
0.00404608
0.0039401
0.00381049
0.00365521
0.00347571
0.0032782
0.00307163
0.00286434
0.00266341
0.00247352
0.00229523
0.00213455
0.00198106
0.00182981
0.00170201
0.00160921
0.00156151
0.00156439
0.00161655
0.00170779
0.00182263
0.00194943
0.00207524
0.00219277
0.00229726
0.0023896
0.00247
0.00405237
0.00399261
0.00392734
0.00384892
0.00375386
0.00363869
0.00350254
0.00334951
0.00318656
0.00302151
0.00285919
0.0027026
0.0025524
0.00241088
0.0022807
0.00214948
0.00200624
0.00186756
0.00174229
0.00164086
0.00157234
0.00154338
0.0015567
0.00160963
0.00169602
0.00180562
0.00192713
0.00205055
0.00216922
0.00228194
0.00369082
0.0036501
0.00361263
0.00357049
0.00351586
0.00344418
0.00335601
0.00325676
0.0031523
0.00304704
0.00294273
0.0028386
0.00273095
0.00262645
0.00253009
0.00242784
0.00230763
0.00218128
0.00205434
0.00193429
0.00182807
0.0017415
0.00168036
0.00164923
0.00164999
0.00168145
0.00173951
0.00181776
0.00190919
0.0020154
0.00337358
0.00337858
0.00339316
0.00340157
0.00339503
0.00337153
0.00333284
0.00328336
0.0032258
0.00316361
0.00309809
0.00302883
0.00295339
0.00287657
0.00280535
0.00272919
0.00263947
0.0025429
0.00244195
0.00234174
0.00224686
0.00215897
0.00208115
0.00201778
0.00197041
0.00194028
0.0019284
0.00193397
0.00195606
0.00200995
0.00325092
0.00326913
0.00330207
0.0033346
0.00335365
0.00335767
0.00334564
0.00331942
0.00328288
0.00324133
0.00319534
0.00314357
0.00308647
0.00302952
0.00297519
0.00291712
0.00285588
0.00279118
0.00272738
0.00266731
0.00261518
0.00256767
0.00252757
0.00249776
0.00247359
0.00245464
0.00244215
0.00243658
0.00243891
0.00246737
0.00321986
0.00324469
0.00327301
0.00329708
0.00330825
0.00330771
0.00329683
0.00327736
0.00325164
0.00322011
0.00318597
0.00314794
0.00310559
0.00306475
0.00302317
0.00298401
0.002948
0.00291375
0.00288533
0.00286515
0.00285338
0.00285507
0.00286573
0.00287925
0.00289597
0.0029128
0.00293134
0.00295167
0.00297093
0.0029808
0.000215213
0.000219402
0.000214459
0.000207528
0.000199357
0.000190341
0.000180949
0.000171625
0.00016267
0.000154357
0.000146826
0.000140211
0.000134554
0.000130028
0.00012667
0.000124736
0.000124481
0.000126704
0.000132333
0.000140912
0.000150059
0.000157505
0.000162092
0.000163348
0.000161054
0.000154746
0.000144218
0.000128192
0.000109455
9.43375e-05
0.000956131
0.00107217
0.00106804
0.00100485
0.000919036
0.000833577
0.000756411
0.000689317
0.00063119
0.000581611
0.000538879
0.00050291
0.00047233
0.000448033
0.000428184
0.000414496
0.000407099
0.000410504
0.000424909
0.000450618
0.000484676
0.000521184
0.000553191
0.000573768
0.000575267
0.000552321
0.000510576
0.000453464
0.000404463
0.00035309
0.00150166
0.00172488
0.00176979
0.00171284
0.00161245
0.00149741
0.00138365
0.00127873
0.00118449
0.00110197
0.00102997
0.00096906
0.000917964
0.0008789
0.000849784
0.000833515
0.000829179
0.000836747
0.000850683
0.00087538
0.00091314
0.000959126
0.00100358
0.00103466
0.00103199
0.00099345
0.000921834
0.000818627
0.000716285
0.000628661
0.00188279
0.00214118
0.00221682
0.00218269
0.00209392
0.00197768
0.00185481
0.00173575
0.00162467
0.00152461
0.00143669
0.00136242
0.00130168
0.00125816
0.00123074
0.00122442
0.00123387
0.00125041
0.00126388
0.00128583
0.00131693
0.00135842
0.00140387
0.00143939
0.00143697
0.00138936
0.00129762
0.00116412
0.00102174
0.000901072
0.00213248
0.00238163
0.00247942
0.00247207
0.00240246
0.00229498
0.00217881
0.00206172
0.0019469
0.00184058
0.00174771
0.00166948
0.00160769
0.00156753
0.0015498
0.00156168
0.00158989
0.00161611
0.0016255
0.00163863
0.00166791
0.00170302
0.00174471
0.00178197
0.00178335
0.00173328
0.00163303
0.00148285
0.00131493
0.00116609
0.0022929
0.00251572
0.00261427
0.00262666
0.00257892
0.00250158
0.00239528
0.00227965
0.0021663
0.00206155
0.0019743
0.00189962
0.00184338
0.0018134
0.00181168
0.00184749
0.00189598
0.00193035
0.00193838
0.0019432
0.00196392
0.00199365
0.00203072
0.00206877
0.0020752
0.00203198
0.00193059
0.00177506
0.00159261
0.00142178
0.0024123
0.00257339
0.00265037
0.00266722
0.00263985
0.00258261
0.00250004
0.00240433
0.00230938
0.00221732
0.00213061
0.00206296
0.00201743
0.00200339
0.00202324
0.00208618
0.0021559
0.00219661
0.00220398
0.00220245
0.00221282
0.00223674
0.00226938
0.00230722
0.00231894
0.00228472
0.00219439
0.00204192
0.00185528
0.00166652
0.00248782
0.00255385
0.00259676
0.00261276
0.00260422
0.00257344
0.0025178
0.00244607
0.00237031
0.00229478
0.00222452
0.00216964
0.00213883
0.00214403
0.00219061
0.00228229
0.00237353
0.00241995
0.00242703
0.0024205
0.00242186
0.00243975
0.00246833
0.00250507
0.00252056
0.00249734
0.00242359
0.00228578
0.00210198
0.00189863
0.00250405
0.00248954
0.00249476
0.0025028
0.00250338
0.00249146
0.00246304
0.00241808
0.00236832
0.00231411
0.00226419
0.00222766
0.00221588
0.00224308
0.00231878
0.00243951
0.00255042
0.00260557
0.00261176
0.0026004
0.00259747
0.00260973
0.00263477
0.00266929
0.00268753
0.00267733
0.00261781
0.00249763
0.00232134
0.00211511
0.00251247
0.00243727
0.00239899
0.00238307
0.00237932
0.00237638
0.00236624
0.00234581
0.00231759
0.00228536
0.0022594
0.00224444
0.00225544
0.00230571
0.00241186
0.00256118
0.00268523
0.00275075
0.00276007
0.00274871
0.00274629
0.00275325
0.00277488
0.00280604
0.00282682
0.00282194
0.00277372
0.00267271
0.00251541
0.00231949
0.00256018
0.00244308
0.00234389
0.00229258
0.00226605
0.00225774
0.00225453
0.00224942
0.00224062
0.00222874
0.0022213
0.00222947
0.00226308
0.00233843
0.00247505
0.00265093
0.00279015
0.00285693
0.00287389
0.00287198
0.00286964
0.00287457
0.00289347
0.00291635
0.00293193
0.00293163
0.00289749
0.0028152
0.00267982
0.00250201
0.00265212
0.00251596
0.00238018
0.00226948
0.00220118
0.0021696
0.00215805
0.00215628
0.00215804
0.00216139
0.00217022
0.00219377
0.00224797
0.00234799
0.00251302
0.00271251
0.00286774
0.00294127
0.00296835
0.00297398
0.00297534
0.00298259
0.00299643
0.00301308
0.00302396
0.00302252
0.00299739
0.00293222
0.00282224
0.00266726
0.0027743
0.00262325
0.0024608
0.00231767
0.00221285
0.00214876
0.00210959
0.002097
0.00209657
0.00210506
0.0021231
0.00215735
0.00222174
0.00234286
0.00253184
0.00275037
0.00291891
0.0030157
0.00305516
0.00306869
0.00307054
0.00307511
0.00308585
0.00309881
0.00310768
0.00310656
0.00308596
0.00303709
0.00294909
0.0028177
0.00294605
0.00278263
0.00261334
0.0024503
0.00231281
0.00220849
0.00213913
0.00210297
0.00208444
0.00208478
0.00210098
0.00213705
0.00220439
0.00233348
0.00253876
0.00276977
0.0029483
0.00305671
0.00311199
0.00313568
0.00314683
0.00315432
0.00316439
0.003176
0.00318567
0.00318713
0.00317295
0.00313531
0.00306171
0.00294828
0.00316695
0.00301988
0.00284997
0.00267386
0.00251079
0.00237283
0.00226647
0.00219319
0.00214637
0.00212378
0.00212509
0.00215043
0.00221048
0.00233473
0.0025422
0.00277756
0.00296194
0.00308255
0.003153
0.00318894
0.00320966
0.00322189
0.0032341
0.00324679
0.00325861
0.00326631
0.00325762
0.00322555
0.0031613
0.00306251
0.00345457
0.00331738
0.00315436
0.00297543
0.00279685
0.00263186
0.00249021
0.00237732
0.00229312
0.00223705
0.00220928
0.00221094
0.00225294
0.00236043
0.00255033
0.00278022
0.00296591
0.00309657
0.00318009
0.00322953
0.00325998
0.00327904
0.00329652
0.00331335
0.00333028
0.00334265
0.00333789
0.00330984
0.00325278
0.00316538
0.00377591
0.00365542
0.00350538
0.00333131
0.00314656
0.00296354
0.0027932
0.0026437
0.00251949
0.00242323
0.00235705
0.00232484
0.002335
0.00241482
0.00257185
0.00278166
0.00296336
0.00310046
0.00319526
0.00325728
0.00329819
0.00332611
0.00335188
0.00337509
0.00339657
0.00341391
0.00341412
0.00338978
0.00333872
0.00326052
0.00411754
0.00401449
0.0038792
0.00371388
0.00352924
0.00333608
0.00314509
0.00296545
0.00280405
0.00266626
0.0025567
0.00248186
0.00245252
0.00248854
0.00260624
0.00278267
0.00295406
0.00309258
0.00319763
0.00326999
0.00332167
0.00335943
0.00339314
0.00342595
0.00345403
0.0034784
0.0034842
0.00346456
0.00341981
0.00335026
0.00446317
0.00437409
0.00425171
0.00409556
0.00391397
0.00371589
0.00351084
0.00330782
0.00311453
0.00293768
0.00278401
0.00266214
0.00258515
0.00257118
0.00263984
0.00277488
0.00292533
0.00306329
0.00317833
0.00326075
0.00332237
0.0033717
0.00341615
0.00345981
0.00349821
0.00353053
0.00354309
0.00353141
0.00349538
0.00343593
0.00479337
0.00471288
0.00459927
0.00445021
0.00427187
0.00407118
0.00385617
0.00363475
0.00341438
0.00320229
0.00300668
0.00283779
0.00271029
0.0026435
0.00265384
0.00274103
0.00286616
0.0029985
0.00311453
0.0032125
0.00328633
0.00335073
0.00340988
0.0034662
0.00351824
0.0035608
0.00358378
0.00358674
0.00356416
0.00351922
0.00508693
0.00500824
0.00489789
0.0047523
0.00457552
0.00437236
0.00414901
0.00391187
0.00366777
0.00342437
0.00319133
0.00298004
0.00280585
0.00268698
0.00263984
0.00267049
0.00275678
0.00287205
0.00299076
0.0031009
0.00319828
0.00327988
0.00335473
0.00342756
0.00349668
0.00356035
0.00360625
0.00363066
0.00362669
0.00359718
0.00531754
0.00523399
0.00512148
0.0049755
0.00479788
0.00459123
0.00435987
0.00410857
0.00384397
0.003575
0.00331333
0.0030712
0.00286332
0.00270423
0.00260897
0.00257925
0.00261186
0.00268955
0.0027923
0.0029046
0.00301588
0.00312024
0.0032197
0.00331659
0.00340966
0.00349834
0.00357217
0.00362354
0.0036483
0.00364855
0.00545224
0.00535957
0.00524138
0.00509243
0.00491255
0.00470229
0.0044648
0.00420324
0.00392552
0.00364327
0.0033704
0.00311907
0.00290115
0.00272559
0.00260316
0.0025289
0.00250183
0.00251875
0.00257229
0.00265406
0.00275465
0.00286587
0.00298414
0.0031072
0.00323082
0.00335103
0.00345876
0.0035456
0.00360302
0.00363828
0.00545614
0.0053534
0.00522951
0.00507889
0.00489956
0.00469052
0.0044558
0.00419583
0.00392229
0.00365029
0.00339422
0.00316366
0.0029648
0.00280093
0.00267716
0.00258401
0.00251237
0.00246684
0.00244973
0.00246402
0.00250987
0.00258482
0.00268636
0.00281071
0.00295076
0.00309776
0.00323996
0.00336653
0.00346696
0.00353979
0.00530012
0.00519298
0.005071
0.00492845
0.00476206
0.00456929
0.00435294
0.00411928
0.0038805
0.00365204
0.00344444
0.0032612
0.00310291
0.00296938
0.00286052
0.00277001
0.00267678
0.00258939
0.00251276
0.00245508
0.00242381
0.00242391
0.00245962
0.0025333
0.00264243
0.00277866
0.00292839
0.00307733
0.00321131
0.00332104
0.00499197
0.00489
0.00478669
0.00467449
0.00454587
0.00439687
0.00423022
0.00405393
0.00387896
0.0037155
0.00356902
0.00343916
0.00332486
0.00322335
0.00313293
0.00305146
0.00295356
0.0028498
0.00274416
0.002644
0.00255706
0.00248942
0.00244787
0.00244023
0.00247161
0.00254141
0.00264142
0.00275962
0.00288262
0.00300193
0.00460973
0.00454043
0.00448662
0.00443633
0.00437097
0.00428593
0.00418446
0.00407387
0.00396257
0.00385704
0.00375971
0.00366901
0.00358408
0.00350246
0.00342449
0.00334605
0.00324989
0.00314739
0.00304177
0.00293732
0.00283858
0.00274864
0.00266992
0.00260984