/*--------------------------------*- C++ -*----------------------------------*\
  =========                 |
  \\      /  F ield         | OpenFOAM: The Open Source CFD Toolbox
   \\    /   O peration     | Website:  https://openfoam.org
    \\  /    A nd           | Version:  12
     \\/     M anipulation  |
\*---------------------------------------------------------------------------*/
FoamFile
{
    format      ascii;
    class       volScalarField;
    location    "1400/air";
    object      epsilon;
}
// * * * * * * * * * * * * * * * * * * * * * * * * * * * * * * * * * * * * * //

dimensions      [0 2 -3 0 0 0 0];

internalField   nonuniform List<scalar> 
243000
(
2.28484
2.81807
3.20503
3.50318
3.70114
3.80144
3.81569
3.75888
3.64529
3.48864
3.30175
3.10133
2.89693
2.69628
2.50141
2.31659
2.14617
2.00335
1.90022
1.8411
1.81011
1.77392
1.69528
1.54768
1.33012
1.05913
0.779764
0.683632
0.13237
0.101251
1.39348
1.66781
1.82183
1.89003
1.9017
1.87283
1.81463
1.73592
1.64331
1.54238
1.43793
1.33471
1.23511
1.14248
1.0584
0.985565
0.926958
0.889438
0.877804
0.892605
0.924224
0.954294
0.960788
0.926697
0.84484
0.719524
0.571192
0.415273
0.290209
0.178128
1.33128
1.61449
1.7342
1.75765
1.72164
1.64911
1.55505
1.45012
1.3415
1.23435
1.13202
1.03737
0.951389
0.876097
0.812327
0.762047
0.727847
0.715346
0.727358
0.763621
0.816173
0.870511
0.908185
0.913257
0.874196
0.788132
0.667383
0.52013
0.382641
0.246613
1.22656
1.5828
1.7795
1.85591
1.85355
1.80109
1.71722
1.61561
1.506
1.39512
1.28714
1.18597
1.09353
1.01275
0.945291
0.894335
0.863733
0.860353
0.886125
0.93918
1.00898
1.07888
1.12889
1.14217
1.10541
1.01371
0.878511
0.707576
0.537989
0.366464
1.01436
1.3912
1.64686
1.78528
1.83562
1.82312
1.76729
1.68557
1.59016
1.4887
1.38574
1.28705
1.19562
1.11557
1.04958
1.00237
0.979121
0.987305
1.02783
1.09667
1.18094
1.26257
1.32117
1.34025
1.30621
1.21298
1.07029
0.886521
0.695571
0.499463
0.819857
1.11588
1.39804
1.59107
1.69852
1.73686
1.72365
1.67612
1.60524
1.52161
1.43153
1.34342
1.25952
1.18555
1.12526
1.08538
1.07232
1.09358
1.14905
1.23243
1.32884
1.41932
1.48383
1.5069
1.47562
1.38356
1.23873
1.05008
0.846975
0.635499
0.753261
0.918004
1.14798
1.34558
1.48842
1.5739
1.60567
1.59726
1.55936
1.5021
1.43371
1.36028
1.28835
1.22467
1.1736
1.14375
1.14273
1.17773
1.24772
1.34431
1.45093
1.54823
1.61689
1.64275
1.61425
1.52506
1.38198
1.19419
0.986714
0.767262
0.791067
0.823398
0.966
1.1365
1.28438
1.38958
1.44818
1.47268
1.46804
1.43997
1.39597
1.34269
1.287
1.23618
1.19672
1.17869
1.19046
1.2392
1.32283
1.43125
1.54659
1.6494
1.72121
1.7493
1.72365
1.63854
1.49994
1.31706
1.11173
0.889956
0.916996
0.836632
0.870385
0.978205
1.10627
1.217
1.29405
1.33864
1.35471
1.34996
1.32948
1.29739
1.25957
1.22369
1.19729
1.1918
1.2163
1.27803
1.37411
1.49305
1.61592
1.72349
1.79816
1.82843
1.80596
1.7258
1.59369
1.41904
1.21981
1.00045
1.10592
0.959167
0.884096
0.899541
0.974546
1.0675
1.14885
1.20713
1.24062
1.25276
1.24771
1.23333
1.21244
1.19163
1.17847
1.18527
1.22176
1.29471
1.40136
1.52936
1.65911
1.77143
1.84925
1.8822
1.86351
1.78919
1.66555
1.50011
1.30951
1.0967
1.32238
1.16689
1.01618
0.931827
0.922907
0.966035
1.02833
1.08654
1.1299
1.15561
1.16478
1.16198
1.1532
1.14517
1.14406
1.16188
1.20875
1.29227
1.40821
1.54314
1.67801
1.79434
1.87602
1.91268
1.89865
1.83145
1.71608
1.56091
1.38086
1.17868
1.56353
1.4098
1.23176
1.07996
0.982427
0.947748
0.960631
0.99555
1.03379
1.06459
1.08356
1.0911
1.09085
1.09066
1.09852
1.12499
1.17988
1.27067
1.3939
1.53654
1.67757
1.79798
1.88291
1.92287
1.91363
1.85356
1.74736
1.60317
1.43466
1.24481
1.82746
1.67401
1.50731
1.32063
1.15784
1.04134
0.979863
0.963162
0.972966
0.992812
1.01174
1.02453
1.03085
1.03528
1.04723
1.07873
1.13842
1.23341
1.36073
1.50767
1.65375
1.77935
1.86926
1.91415
1.90959
1.85664
1.76089
1.62853
1.47204
1.29542
2.11361
1.95988
1.79622
1.60803
1.41674
1.24274
1.10692
1.01931
0.975179
0.961297
0.963386
0.970752
0.9777
0.984332
0.996501
1.02797
1.08834
1.18384
1.31201
1.46077
1.61012
1.74048
1.83632
1.88782
1.89001
1.84484
1.75862
1.63852
1.49459
1.33177
2.42167
2.26644
2.10261
1.92553
1.72293
1.51982
1.33157
1.17604
1.06386
0.994397
0.958386
0.943724
0.940093
0.942594
0.952269
0.978395
1.03443
1.12611
1.25135
1.39895
1.54979
1.68422
1.78619
1.84535
1.85606
1.82045
1.74431
1.63546
1.50419
1.3553
2.74982
2.59139
2.42524
2.24756
2.04679
1.83565
1.6214
1.41848
1.24368
1.10893
1.01667
0.960797
0.931034
0.918428
0.919279
0.937455
0.982702
1.06533
1.18318
1.32605
1.47589
1.61301
1.72089
1.78833
1.80901
1.78405
1.71936
1.62258
1.50353
1.36912
3.09487
2.93143
2.76149
2.58095
2.3831
2.17069
1.946
1.71707
1.49776
1.30435
1.14951
1.0378
0.965152
0.923368
0.905164
0.909492
0.941415
1.00867
1.11337
1.24703
1.39244
1.53012
1.64295
1.71878
1.7505
1.73745
1.68689
1.6054
1.50088
1.3803
3.45275
3.28285
3.10803
2.92366
2.727
2.51449
2.28611
2.04516
1.79985
1.56392
1.35355
1.18198
1.05471
0.969602
0.919813
0.901289
0.914577
0.963888
1.05105
1.16999
1.30622
1.44097
1.55688
1.64091
1.68522
1.68698
1.65209
1.58578
1.49551
1.38831
3.8198
3.64214
3.46154
3.27296
3.07731
2.86488
2.63474
2.38784
2.12846
1.86574
1.61387
1.38908
1.20461
1.06669
0.973379
0.921296
0.908198
0.934776
1.00135
1.1029
1.22701
1.35627
1.47309
1.56356
1.61886
1.63466
1.6144
1.56303
1.48679
1.39268
4.19257
4.00595
3.81897
3.62688
3.43303
3.22104
2.9896
2.73891
2.47131
2.19247
1.91274
1.64682
1.41116
1.21842
1.0738
0.978168
0.929614
0.926859
0.968059
1.04841
1.15677
1.2772
1.39215
1.48683
1.55135
1.5801
1.57374
1.53693
1.47442
1.39299
4.56664
4.37104
4.17885
3.99096
3.79531
3.58216
3.34929
3.09601
2.82339
2.53483
2.23728
1.94223
1.66565
1.42278
1.22495
1.07908
0.986729
0.946707
0.956533
1.01055
1.09865
1.20602
1.31555
1.41163
1.48316
1.52328
1.53017
1.50715
1.45828
1.38951
4.93802
4.73641
4.54958
4.36282
4.16468
3.95066
3.71763
3.46382
3.18898
2.89479
2.58565
2.27007
1.96188
1.67611
1.42781
1.2292
1.08682
1.00199
0.973408
0.994978
1.05733
1.14649
1.24596
1.33982
1.41556
1.4649
1.48411
1.47406
1.43872
1.38271
5.31103
5.11927
4.93102
4.7433
4.54974
4.3431
4.11764
3.86943
3.59622
3.29852
2.97888
2.64437
2.30636
1.98105
1.68532
1.43388
1.2376
1.10156
1.02677
1.00919
1.03913
1.10402
1.18795
1.2748
1.35103
1.40673
1.43651
1.43858
1.41631
1.37311
5.67609
5.48983
5.31178
5.13558
4.95378
4.75896
4.5447
4.3061
4.03951
3.74417
3.42069
3.07427
2.71347
2.35262
2.00802
1.70318
1.4504
1.25767
1.1291
1.06362
1.05383
1.08679
1.14801
1.22184
1.29346
1.35176
1.38927
1.40228
1.39201
1.36161
6.00527
5.82438
5.65641
5.49386
5.32811
5.1507
4.95403
4.7321
4.48069
4.19792
3.88243
3.53678
3.16615
2.78288
2.40547
2.05583
1.74754
1.49344
1.30281
1.1793
1.11853
1.11025
1.13972
1.19154
1.25099
1.30606
1.34707
1.3685
1.36864
1.35045
6.34138
6.15778
5.98121
5.81916
5.6616
5.49734
5.3176
5.11534
4.89117
4.64113
4.35922
4.04253
3.69234
3.317
2.92844
2.54524
2.18414
1.86335
1.59974
1.40351
1.27559
1.20926
1.19226
1.20932
1.2454
1.28681
1.32333
1.34717
1.35437
1.34579
6.74618
6.57871
6.41419
6.25812
6.11073
5.96807
5.82305
5.66715
5.4928
5.293
5.05941
4.78483
4.4658
4.10786
3.72047
3.31296
2.89946
2.50343
2.15015
1.85776
1.63544
1.48287
1.39174
1.34895
1.33991
1.34963
1.3659
1.37928
1.38372
1.37872
7.41935
7.28836
7.15662
7.03528
6.93131
6.84528
6.77139
6.69871
6.61283
6.50013
6.34703
6.14188
5.87683
5.5537
5.18374
4.7627
4.29245
3.80819
3.33863
2.91201
2.54813
2.25669
2.03753
1.88348
1.78178
1.7168
1.67501
1.64532
1.61929
1.59772
9.211
9.13599
9.07273
9.05671
9.09703
9.18025
9.28689
9.39468
9.4822
9.52553
9.50525
9.4131
9.23939
8.98932
8.66888
8.26275
7.74308
7.16572
6.56475
5.97352
5.4198
4.92243
4.49461
4.14168
3.85307
3.60832
3.4036
3.23394
3.09282
2.98506
17.463
17.3441
17.4189
17.7104
18.0663
18.3541
18.5881
18.7703
18.9044
18.9349
18.8848
18.7845
18.636
18.4642
18.2512
17.998
17.5661
17.126
16.689
16.286
15.918
15.5985
15.3311
15.1263
14.9148
14.5976
14.2808
13.9961
13.7905
13.5692
4.44881
5.61541
6.30699
6.74343
6.95471
6.9749
6.84246
6.60018
6.28129
5.919
5.54151
5.17229
4.82121
4.50558
4.2297
4.00789
3.85076
3.79152
3.8626
4.05854
4.28252
4.39235
4.28066
3.90966
3.31473
2.56914
1.79817
1.07038
0.620267
0.114382
2.90434
3.29918
3.52278
3.64952
3.67686
3.61446
3.48056
3.29897
3.08994
2.8692
2.65194
2.44926
2.26768
2.11333
1.99246
1.91354
1.88888
1.94114
2.09615
2.34896
2.62905
2.83316
2.88209
2.75189
2.46492
2.05568
1.58725
1.0949
0.702052
0.396909
2.58571
2.85459
2.98522
3.03994
3.02745
2.95559
2.83487
2.67979
2.50473
2.32269
2.14495
1.98004
1.83356
1.71147
1.61974
1.56917
1.57218
1.65061
1.82612
2.09258
2.38739
2.62055
2.71936
2.66042
2.45234
2.12697
1.73266
1.29614
0.914536
0.586229
2.37406
2.57277
2.6717
2.70987
2.69552
2.63473
2.53462
2.40522
2.25786
2.10373
1.95238
1.81143
1.68623
1.58316
1.50857
1.47514
1.49618
1.59149
1.7779
2.04451
2.33712
2.57746
2.69984
2.67565
2.5142
2.23653
1.88618
1.48099
1.10991
0.768879
2.16053
2.29323
2.37491
2.41572
2.41594
2.37587
2.30094
2.19865
2.07883
1.9509
1.82358
1.70427
1.5984
1.51283
1.45457
1.43768
1.47638
1.58925
1.78683
2.05371
2.33835
2.57426
2.703
2.69989
2.56854
2.32671
2.01073
1.63421
1.27783
0.938035
1.91072
1.98718
2.05581
2.10691
2.12958
2.11791
2.07287
2.00051
1.90854
1.80661
1.70306
1.6052
1.51873
1.45095
1.40946
1.40976
1.4664
1.59557
1.80195
2.06702
2.3424
2.57001
2.69907
2.70429
2.59631
2.38439
2.09937
1.75349
1.41546
1.08703
1.62987
1.64445
1.70753
1.77631
1.82659
1.84591
1.83374
1.79358
1.73144
1.6558
1.57624
1.49997
1.43311
1.38344
1.35934
1.37722
1.45183
1.59788
1.81107
2.07319
2.33852
2.554
2.67785
2.68934
2.5945
2.40958
2.1535
1.83912
1.52383
1.21348
1.40015
1.3502
1.38986
1.45967
1.52722
1.57085
1.58827
1.57926
1.54633
1.49683
1.4405
1.38555
1.33827
1.30672
1.30006
1.33534
1.42729
1.5885
1.80992
2.06757
2.32021
2.52199
2.63998
2.65492
2.57195
2.40604
2.17766
1.89443
1.60373
1.31422
1.28692
1.16794
1.15948
1.20701
1.27388
1.33074
1.36571
1.3762
1.36302
1.33472
1.29913
1.26382
1.2355
1.22144
1.23122
1.28305
1.39091
1.56385
1.79091
2.04429
2.28408
2.47358
2.58573
2.60342
2.53212
2.38358
2.1762
1.92363
1.65832
1.39045
1.27657
1.10311
1.02894
1.0316
1.07441
1.12823
1.17174
1.19643
1.20007
1.1866
1.16356
1.14304
1.12931
1.13023
1.15441
1.22097
1.34265
1.52494
1.75355
2.00075
2.22976
2.40976
2.51661
2.5371
2.47666
2.34489
2.15844
1.93122
1.69091
1.44454
1.32665
1.13207
1.00533
0.949504
0.948194
0.975789
1.01215
1.04204
1.05755
1.0573
1.04555
1.03081
1.02568
1.03702
1.07241
1.15076
1.283
1.47206
1.70043
1.94069
2.16
2.3312
2.43411
2.45813
2.4083
2.29315
2.12703
1.92286
1.70548
1.47964
1.43324
1.22373
1.06814
0.966864
0.91448
0.899339
0.908582
0.926058
0.94136
0.948015
0.944872
0.936213
0.932302
0.947454
0.989198
1.07505
1.21366
1.40542
1.63135
1.8645
2.07549
2.23939
2.33994
2.36849
2.32934
2.23091
2.08445
1.90266
1.70471
1.49894
1.59013
1.37962
1.21525
1.08615
0.989908
0.923089
0.885512
0.872518
0.86969
0.869699
0.866987
0.860798
0.85735
0.868619
0.910036
0.997556
1.13723
1.32717
1.54782
1.77347
1.97668
2.13512
2.23517
2.26973
2.24173
2.15957
2.03248
1.87269
1.69413
1.50634
1.80306
1.60521
1.44223
1.29558
1.16338
1.05098
0.963762
0.90312
0.864958
0.841199
0.824601
0.811792
0.80401
0.808725
0.841679
0.923324
1.05752
1.24035
1.45238
1.66947
1.86526
2.01981
2.12111
2.16319
2.1471
2.08134
1.97403
1.83529
1.67693
1.50719
2.0763
1.89163
1.72976
1.56923
1.41281
1.26594
1.13524
1.02648
0.9419
0.879272
0.834096
0.801668
0.780325
0.773201
0.791832
0.858881
0.979786
1.14938
1.34874
1.55539
1.74367
1.89535
1.99929
2.05027
2.04708
1.99825
1.91071
1.79429
1.65602
1.50381
2.39768
2.21994
2.05502
1.88661
1.71588
1.54586
1.38223
1.23199
1.10128
0.993171
0.907824
0.843063
0.796858
0.76959
0.768942
0.812427
0.911124
1.06034
1.2421
1.43544
1.61537
1.76447
1.87199
1.93276
1.94406
1.91321
1.84694
1.75113
1.63201
1.49686
2.7452
2.56928
2.40482
2.2328
2.05387
1.86924
1.68266
1.5006
1.33055
1.17883
1.04968
0.944451
0.863175
0.806109
0.778907
0.793251
0.860735
0.981674
1.13992
1.31589
1.4857
1.63184
1.74319
1.81496
1.8431
1.83005
1.78344
1.70684
1.60565
1.48686
3.09489
2.92667
2.76688
2.59556
2.41293
2.21957
2.01812
1.81371
1.61359
1.4252
1.25535
1.10822
0.986348
0.892043
0.829628
0.809378
0.840407
0.925421
1.05349
1.20719
1.36477
1.50731
1.62255
1.70372
1.74669
1.75049
1.72129
1.66262
1.57825
1.47486
3.44051
3.28596
3.13469
2.96827
2.78635
2.589
2.3787
2.1599
1.93905
1.72309
1.51951
1.33403
1.17118
1.0356
0.929886
0.869558
0.859359
0.904056
0.996933
1.12279
1.26281
1.39741
1.513
1.60082
1.6559
1.6754
1.66184
1.61942
1.55096
1.46214
3.7868
3.64734
3.5088
3.35183
3.1753
2.9788
2.76521
2.53916
2.30653
2.07303
1.84494
1.62776
1.42714
1.24915
1.09968
0.989648
0.930256
0.929089
0.980102
1.07088
1.18689
1.30767
1.41925
1.51017
1.57414
1.60705
1.60731
1.57947
1.52563
1.45039
4.14038
4.01965
3.89884
3.75655
3.59061
3.40087
3.19108
2.96665
2.73298
2.49398
2.25324
2.01396
1.78132
1.56093
1.36385
1.19861
1.08001
1.02103
1.02176
1.07064
1.15153
1.24904
1.35034
1.43923
1.50756
1.5497
1.56193
1.54642
1.5052
1.44217
4.51823
4.42371
4.32621
4.20467
4.05666
3.88321
3.68941
3.48164
3.2644
3.03865
2.80369
2.55766
2.30272
2.0388
1.79068
1.56213
1.36727
1.23152
1.16041
1.14905
1.18374
1.24982
1.32731
1.40376
1.46833
1.51304
1.53319
1.52708
1.4945
1.44098
4.95797
4.89883
4.83264
4.74191
4.62565
4.4872
4.33342
4.17181
4.00507
3.82896
3.63507
3.41243
3.15665
2.86359
2.55892
2.24778
1.94412
1.68894
1.50242
1.39054
1.34626
1.35373
1.39058
1.43813
1.48447
1.52005
1.53768
1.53481
1.50677
1.46131
5.53916
5.52612
5.50712
5.46906
5.41436
5.35078
5.28925
5.23811
5.19546
5.14742
5.07178
4.94018
4.73442
4.44438
4.09133
3.67213
3.19282
2.72825
2.32846
2.0239
1.81956
1.70161
1.64577
1.62401
1.62043
1.62157
1.61728
1.60114
1.5671
1.52318
6.42997
6.49548
6.56402
6.63081
6.70749
6.81105
6.95929
7.16203
7.40633
7.6586
7.87258
7.98523
7.95019
7.74469
7.3856
6.8443
6.07826
5.23276
4.41547
3.70442
3.1365
2.71378
2.41468
2.20546
2.06148
1.96
1.88207
1.81413
1.74514
1.68543
8.06567
8.28501
8.54245
8.84593
9.22345
9.70669
10.3231
11.0793
11.9334
12.8163
13.6426
14.287
14.6627
14.7126
14.4629
13.8352
12.7196
11.2908
9.7288
8.2015
6.82033
5.64577
4.69892
3.96468
3.41159
3.00095
2.69436
2.45992
2.27106
2.14173
11.658
12.219
12.8917
13.713
14.7338
16.001
17.5425
19.3392
21.2808
23.2456
25.0764
26.5813
27.644
28.2034
28.2384
27.64
26.1979
24.0951
21.5586
18.8226
16.0812
13.4912
11.1767
9.20794
7.60302
6.3348
5.35542
4.60617
4.02957
3.65392
20.597
21.7949
23.1321
24.8054
26.8679
29.3563
32.2528
35.4301
38.6253
41.6898
44.4344
46.6601
48.2876
49.284
49.5887
49.0517
47.5307
45.1385
42.0075
38.3391
34.3447
30.2293
26.1936
22.4333
19.0874
16.2101
13.8111
11.8448
10.2546
9.18565
37.8031
38.7782
40.6064
43.0984
46.0465
49.5153
53.228
56.7719
59.9377
62.6418
64.8373
66.3943
67.4215
67.9365
67.7451
66.6953
65.1143
62.9909
60.2824
57.1029
53.5781
49.8914
46.1971
42.5728
39.1258
35.8601
32.7853
29.9193
27.3106
25.4951
47.27
46.7957
47.9143
50.0532
52.5662
55.0244
57.1563
58.8818
60.2015
61.1689
61.7955
62.1428
62.1687
61.9285
60.9673
59.0166
57.1568
55.0981
53.0397
50.9744
49.0291
47.358
46.0988
45.3158
44.844
44.5352
44.3154
44.0392
43.6194
42.9277
7.39865
9.12805
9.89025
10.3495
10.5329
10.4513
10.1528
9.70283
9.15585
8.5655
7.96678
7.39318
6.85938
6.39692
6.01449
5.7461
5.62141
5.74239
6.2366
7.06839
7.89843
8.33973
8.19982
7.48988
6.34647
4.9357
3.47856
2.11462
1.13275
0.623101
4.43064
4.91788
5.11927
5.23185
5.24121
5.13648
4.93285
4.65903
4.34529
4.01708
3.6953
3.39344
3.12344
2.89489
2.72343
2.62511
2.63358
2.81378
3.25186
3.92021
4.59644
5.0299
5.10016
4.82995
4.30196
3.61036
2.82311
1.98522
1.27933
0.758172
4.02847
4.2943
4.40022
4.43311
4.3887
4.271
4.08728
3.85347
3.58937
3.31493
3.04585
2.79362
2.56816
2.37918
2.24035
2.1713
2.2006
2.38541
2.79429
3.40089
4.02649
4.46318
4.60107
4.45179
4.08998
3.55648
2.91806
2.20914
1.56968
1.01422
3.84699
3.98771
4.04449
4.05257
4.0024
3.89663
3.73828
3.53739
3.30879
3.06911
2.83221
2.60887
2.40877
2.24249
2.12461
2.07682
2.12699
2.32476
2.71741
3.26826
3.846
4.26998
4.43279
4.33964
4.05129
3.60511
3.05456
2.42195
1.82427
1.26412
3.67705
3.70341
3.72075
3.72073
3.68223
3.59968
3.47243
3.30615
3.11216
2.90502
2.69792
2.5013
2.32518
2.18169
2.08624
2.06327
2.13961
2.35796
2.74955
3.26664
3.78193
4.17306
4.33788
4.27289
4.02667
3.64119
3.15583
2.5869
2.03073
1.48783
3.47439
3.38983
3.3705
3.36777
3.3483
3.29603
3.20393
3.07422
2.91621
2.74276
2.5668
2.39841
2.24839
2.12975
2.05994
2.06594
2.17318
2.41606
2.80489
3.28945
3.75664
4.10468
4.2566
4.20345
3.98534
3.6389
3.20937
2.69906
2.1881
1.6747
3.23938
3.04999
2.98705
2.98078
2.98209
2.96291
2.90912
2.81861
2.699
2.56136
2.41815
2.27998
2.15842
2.06743
2.02645
2.06536
2.20655
2.47561
2.86197
3.31407
3.73717
4.04082
4.17134
4.12076
3.92179
3.60828
3.21799
2.76347
2.29824
1.82127
2.98151
2.67943
2.5681
2.55847
2.5821
2.59892
2.5855
2.53527
2.45599
2.35596
2.24744
2.14123
2.04992
1.98894
1.97966
2.05367
2.23051
2.52542
2.90905
3.3303
3.71034
3.97099
4.07618
4.02277
3.83875
3.55244
3.19632
2.78801
2.3672
1.92913
2.69831
2.32141
2.16951
2.14759
2.18067
2.22031
2.23967
2.22806
2.19176
2.12992
2.05702
1.98359
1.92352
1.89429
1.91762
2.02838
2.24109
2.55824
2.93978
3.33413
3.66953
3.88993
3.96921
3.9105
3.73829
3.47544
3.15127
2.78046
2.40124
2.00219
2.47318
2.05787
1.85809
1.80134
1.82371
1.87081
1.91085
1.92795
1.9214
1.89116
1.85364
1.81206
1.78284
1.78519
1.84088
1.98853
2.23901
2.57453
2.95218
3.31832
3.60931
3.79411
3.84987
3.7857
3.62335
3.38182
3.08761
2.75258
2.40684
2.0459
2.3388
1.89933
1.6544
1.54899
1.53925
1.57349
1.6177
1.65111
1.6667
1.66269
1.64811
1.63423
1.63359
1.66445
1.75142
1.934
2.21505
2.57256
2.94295
3.2758
3.53067
3.6829
3.71853
3.65025
3.49733
3.27705
3.01024
2.70896
2.39492
2.06781
2.29228
1.86296
1.57476
1.41145
1.35444
1.35525
1.3836
1.41671
1.44239
1.45518
1.45887
1.4616
1.48237
1.53739
1.65219
1.86548
2.17156
2.53728
2.89727
3.20496
3.43082
3.55606
3.57601
3.50625
3.36378
3.16406
2.92347
2.65471
2.37405
2.07837
2.32424
1.91424
1.61398
1.41194
1.29337
1.24011
1.23405
1.24774
1.26726
1.28389
1.29665
1.30999
1.33904
1.41105
1.54745
1.7847
2.10805
2.47578
2.82304
3.10846
3.30896
3.41373
3.42331
3.35569
3.22575
3.0467
2.83263
2.59762
2.3474
2.07809
2.42931
2.04228
1.73653
1.5069
1.34641
1.24573
1.19087
1.16672
1.16239
1.16692
1.1758
1.19012
1.22097
1.29437
1.44319
1.69495
2.02587
2.38859
2.7201
2.98608
3.16616
3.2569
3.26197
3.20067
3.08595
2.92913
2.74532
2.54011
2.31547
2.06942
2.61443
2.24765
1.94818
1.70275
1.50893
1.36282
1.25868
1.18894
1.14623
1.12265
1.11246
1.11539
1.13828
1.20104
1.34786
1.60177
1.92871
2.27824
2.59193
2.8402
3.00504
3.08787
3.09448
3.0441
2.94795
2.81899
2.66328
2.48219
2.27969
2.05486
2.87955
2.53664
2.24436
1.98835
1.76862
1.58415
1.43401
1.31607
1.22742
1.16383
1.12184
1.10001
1.10332
1.14803
1.27325
1.51429
1.82372
2.15203
2.44505
2.67637
2.83061
2.91128
2.92593
2.89257
2.82161
2.71737
2.58499
2.42594
2.24332
2.03739
3.22718
2.9022
2.61584
2.35162
2.11099
1.89453
1.70398
1.54059
1.40498
1.29636
1.21387
1.15698
1.12983
1.14584
1.23671
1.44626
1.72288
2.02229
2.29036
2.50478
2.65224
2.73721
2.76892
2.75492
2.70499
2.62271
2.5121
2.37358
2.20877
2.01967
3.64154
3.33206
3.05108
2.78028
2.52246
2.27946
2.0548
1.85177
1.6733
1.52082
1.39557
1.29815
1.23341
1.21229
1.26236
1.42089
1.65132
1.90972
2.14652
2.34344
2.48956
2.58169
2.62686
2.63023
2.59973
2.53786
2.44733
2.32732
2.17814
2.00401
4.10773
3.81446
3.54001
3.26528
2.99437
2.73054
2.47885
2.2442
2.03094
1.8413
1.67754
1.54041
1.43543
1.37336
1.37575
1.47461
1.64584
1.851
2.05096
2.22642
2.36319
2.45586
2.50962
2.52716
2.51251
2.46802
2.39504
2.29014
2.15384
1.99253
4.61955
4.3444
4.07936
3.80528
3.52747
3.25063
2.98156
2.72666
2.49119
2.27726
2.08645
1.9182
1.77759
1.67442
1.62814
1.66557
1.76933
1.91095
2.06037
2.19444
2.30474
2.38523
2.43767
2.46118
2.45593
2.42355
2.36139
2.26601
2.1389
1.98738
5.18273
4.92954
4.67898
4.41322
4.13856
3.86135
3.59029
3.33345
3.09661
2.88086
2.68551
2.50641
2.34621
2.21135
2.12105
2.09393
2.11929
2.17685
2.24693
2.31511
2.37451
2.42002
2.44976
2.46162
2.45181
2.41696
2.3534
2.25982
2.13691
1.99409
5.82605
5.59996
5.37207
5.1273
4.87308
4.61756
4.37148
4.14502
3.94421
3.76812
3.61174
3.46426
3.32214
3.18456
3.0691
2.98164
2.90715
2.84047
2.77976
2.7282
2.68749
2.65346
2.62162
2.58765
2.54515
2.48823
2.41041
2.30716
2.17614
2.03297
6.61564
6.42587
6.2364
6.03546
5.8326
5.63877
5.46688
5.33092
5.23686
5.18052
5.14875
5.11901
5.0763
5.00574
4.91779
4.79305
4.59082
4.32605
4.03186
3.74857
3.50033
3.28888
3.11111
2.96051
2.8276
2.70268
2.57535
2.43847
2.28491
2.12925
7.69385
7.56116
7.44108
7.32774
7.23421
7.17698
7.17116
7.24062
7.38884
7.6049
7.86089
8.11256
8.32505
8.46009
8.51463
8.41344
8.06187
7.49457
6.79462
6.06778
5.39089
4.79246
4.28251
3.85828
3.50872
3.21778
2.9668
2.74084
2.52519
2.33758
9.37285
9.34484
9.35753
9.41742
9.5455
9.76912
10.1126
10.5997
11.2295
11.9751
12.7815
13.5672
14.2713
14.8243
15.2071
15.2323
14.7353
13.7684
12.4573
10.9908
9.53177
8.16761
6.95646
5.92889
5.08897
4.41693
3.88
3.44457
3.07979
2.80915
12.3601
12.5663
12.8448
13.2436
13.8009
14.5596
15.5468
16.7804
18.2339
19.845
21.507
23.0884
24.5116
25.6779
26.5506
26.7694
26.1442
24.7449
22.7135
20.2952
17.7195
15.1359
12.7096
10.5494
8.72708
7.2536
6.09556
5.19126
4.48116
4.00585
18.2781
18.9547
19.7561
20.7224
21.9985
23.6252
25.595
27.8936
30.433
33.0895
35.7002
38.0961
40.2095
41.9259
43.16
43.375
42.525
40.7307
38.1257
34.9244
31.3112
27.4443
23.6083
19.9499
16.6578
13.8496
11.5774
9.76046
8.326
7.38686
29.9907
31.0848
32.5236
34.3946
36.6264
39.236
42.1904
45.3975
48.6834
51.8864
54.8423
57.4079
59.4539
60.7746
61.3463
60.4615
58.8411
56.585
53.9066
50.8344
47.4211
43.7154
39.5913
35.3609
31.2298
27.343
23.9563
21.0196
18.5389
16.8101
46.9707
47.4713
49.0529
51.4592
54.3727
57.5451
60.7353
63.7203
66.3853
68.6791
70.5497
71.9358
72.7328
72.8049
71.9106
69.3753
66.7214
63.8595
61.0809
58.3276
55.652
53.1142
50.8142
48.7925
47.0042
45.2164
43.026
40.7233
38.4124
36.4589
52.4302
52.5581
54.0242
56.4157
59.1897
61.9144
64.3036
66.2152
67.6267
68.5773
69.0862
69.1693
68.6867
67.4781
65.0806
61.3211
57.9544
54.7049
51.9382
49.5995
47.7834
46.51
45.8846
45.8943
46.4354
47.262
48.2218
49.0329
49.4912
49.4385
10.838
13.179
13.9906
14.3213
14.4062
14.1885
13.7016
13.0238
12.2309
11.3891
10.5364
9.72166
8.96294
8.31133
7.78004
7.4358
7.35741
7.85357
9.31527
11.5167
13.461
14.3541
14.034
12.7257
10.7764
8.47956
6.13357
3.93586
2.31898
1.26325
6.19075
6.75568
6.93578
6.97499
6.93628
6.77917
6.50348
6.13653
5.71693
5.27633
4.83912
4.42296
4.04748
3.72612
3.48769
3.35156
3.39502
3.79417
4.77821
6.19539
7.45385
8.10047
8.06745
7.52713
6.67143
5.63654
4.51525
3.31611
2.2513
1.43431
5.64162
5.87483
5.93175
5.90916
5.81653
5.64866
5.40469
5.09728
4.75037
4.38634
4.02337
3.67616
3.36108
3.09236
2.89474
2.7963
2.85412
3.21523
4.05702
5.24877
6.33308
6.94846
7.02037
6.67968
6.07914
5.32594
4.44544
3.45993
2.54634
1.74347
5.46434
5.50685
5.50105
5.45425
5.35801
5.20571
4.9938
4.72876
4.42755
4.1078
3.78557
3.47451
3.19089
2.95142
2.78112
2.71132
2.79794
3.17057
3.95362
4.98591
5.95198
6.52776
6.63537
6.38093
5.89684
5.25447
4.50124
3.64302
2.81345
2.04197
5.31003
5.19724
5.13538
5.07876
4.99795
4.87575
4.70287
4.48075
4.22208
3.94207
3.65606
3.37674
3.1235
2.91335
2.77347
2.73996
2.86748
3.27443
4.03207
4.97537
5.79534
6.31273
6.41839
6.20275
5.77691
5.20456
4.53801
3.77679
3.01847
2.28449
5.1122
4.86061
4.7412
4.67693
4.61936
4.53514
4.40716
4.23119
4.01757
3.77942
3.53178
3.2875
3.06765
2.89077
2.78818
2.8002
2.98092
3.4339
4.17166
5.03026
5.74229
6.17554
6.25405
6.05102
5.65772
5.13504
4.52682
3.8484
3.15785
2.46896
4.86843
4.49093
4.30692
4.23031
4.19571
4.15234
4.0727
3.94666
3.78075
3.58726
3.38158
3.17705
2.99542
2.85755
2.79992
2.86671
3.11095
3.61542
4.33758
5.10897
5.72251
6.06774
6.10429
5.89866
5.52463
5.03958
4.4801
3.86158
3.23677
2.59763
4.58958
4.09525
3.84392
3.74801
3.73123
3.72554
3.69376
3.61915
3.50321
3.35737
3.19729
3.03618
2.89835
2.80548
2.80008
2.93013
3.24567
3.80127
4.50513
5.18871
5.70684
5.96559
5.9541
5.7377
5.37688
4.92119
4.40315
3.83595
3.26459
2.67777
4.30018
3.69179
3.36972
3.24913
3.24282
3.26599
3.27846
3.2553
3.18881
3.09209
2.9796
2.8649
2.77499
2.73321
2.78582
2.9865
3.37781
3.97902
4.65588
5.25633
5.68028
5.85547
5.79718
5.56702
5.21646
4.78482
4.3035
3.78386
3.25677
2.71899
3.99865
3.31974
2.95237
2.79967
2.78586
2.82236
2.86028
2.87234
2.84893
2.80084
2.73517
2.66812
2.62881
2.64137
2.75721
3.03375
3.50129
4.13777
4.77922
5.29953
5.62871
5.72933
5.63003
5.38793
5.04625
4.63739
4.19021
3.71545
3.2343
2.73938
3.7371
3.02757
2.6223
2.42841
2.38771
2.41907
2.46786
2.50324
2.51348
2.5005
2.47505
2.4545
2.46557
2.53286
2.7154
3.07001
3.60892
4.26639
4.86481
5.31249
5.55217
5.5847
5.45216
5.2032
4.87221
4.48706
4.07341
3.64352
3.20209
2.73892
3.55625
2.85353
2.39973
2.16144
2.07718
2.08328
2.12481
2.16897
2.20017
2.21459
2.22085
2.23557
2.29212
2.41335
2.66259
3.09309
3.69255
4.35292
4.90625
5.27886
5.443
5.42068
5.26477
5.01559
4.69956
4.34194
3.96524
3.57206
3.15994
2.72374
3.46395
2.79351
2.31801
2.01881
1.88143
1.84122
1.85699
1.89246
1.92963
1.96002
1.98893
2.02861
2.11904
2.29033
2.60211
3.10141
3.74366
4.39254
4.90481
5.19846
5.29869
5.23818
5.07026
4.82893
4.53452
4.21209
3.86845
3.50034
3.11185
2.69901
3.47383
2.83712
2.35935
2.02674
1.81879
1.7151
1.68854
1.69755
1.72376
1.75568
1.79529
1.85122
1.95883
2.17366
2.53896
3.09758
3.76299
4.39195
4.8368
5.07288
5.12378
5.04123
4.87378
4.65017
4.389
4.10134
3.77973
3.43148
3.06241
2.66928
3.56404
2.96525
2.49108
2.13082
1.87826
1.72251
1.63921
1.60403
1.60338
1.62122
1.65756
1.71818
1.83584
2.07539
2.48083
3.07869
3.74961
4.32956
4.7216
4.90887
4.92801
4.83991
4.68595
4.49614
4.26995
4.00413
3.70024
3.36822
3.01462
2.63812
3.75115
3.18485
2.71599
2.33948
2.05097
1.84454
1.70762
1.62473
1.5842
1.57396
1.59308
1.64586
1.76595
2.00974
2.4401
3.0558
3.7024
4.23283
4.57394
4.72453
4.73084
4.65545
4.53465
4.37214
4.16843
3.92043
3.63145
3.31241
2.97075
2.60825
4.0399
3.50145
3.04369
2.6549
2.33522
2.08341
1.89485
1.76122
1.67491
1.6275
1.61817
1.65105
1.76146
1.99759
2.43466
3.05214
3.65202
4.12899
4.42294
4.55285
4.57127
4.52058
4.4184
4.27355
4.0872
3.85222
3.57482
3.26569
2.93283
2.58224
4.43382
3.92026
3.46935
3.069
2.72226
2.43098
2.19575
2.01371
1.88146
1.79392
1.75264
1.76001
1.85598
2.08216
2.50193
3.09891
3.65177
4.06747
4.32191
4.45598
4.48295
4.43996
4.3479
4.21142
4.02984
3.80226
3.53233
3.22977
2.90286
2.56259
4.935
4.4355
3.9867
3.57524
3.20598
2.8826
2.60896
2.38618
2.21454
2.09159
2.02158
2.0062
2.08748
2.30606
2.70427
3.26532
3.76028
4.12959
4.37
4.4856
4.49854
4.43705
4.33687
4.19078
4.00329
3.77512
3.50713
3.20683
2.88289
2.55136
5.53221
5.04218
4.59399
4.17444
3.78985
3.44505
3.14617
2.8972
2.70134
2.55815
2.47403
2.45066
2.53254
2.7545
3.15647
3.67574
4.12789
4.46125
4.65942
4.72425
4.67753
4.57511
4.44715
4.26992
4.04595
3.78744
3.50446
3.1996
2.87506
2.54996
6.23122
5.74937
5.30419
4.88437
4.49712
4.1482
3.84559
3.59566
3.40406
3.27184
3.207
3.21097
3.33175
3.59078
4.0377
4.55822
4.97296
5.24738
5.34926
5.29665
5.14724
4.97425
4.75204
4.4936
4.20902
3.90042
3.5701
3.23493
2.89591
2.5728
7.06405
6.59332
6.16022
5.75577
5.38824
5.06452
4.79447
4.58727
4.4507
4.3879
4.40785
4.51389
4.74886
5.11759
5.67834
6.25094
6.64186
6.8106
6.7323
6.4843
6.17146
5.81299
5.39486
4.96799
4.55239
4.14934
3.74944
3.3587
2.98202
2.64715
8.10912
7.66193
7.26132
6.9018
6.59359
6.34585
6.17058
6.08206
6.08906
6.20344
6.4318
6.76791
7.24997
7.85254
8.64592
9.33126
9.7127
9.72652
9.36753
8.82377
8.1862
7.42385
6.63607
5.89192
5.22501
4.6363
4.10691
3.62473
3.18748
2.82152
9.54677
9.14836
8.81818
8.55705
8.37763
8.2935
8.31835
8.4806
8.79215
9.25826
9.88342
10.6441
11.5668
12.5743
13.7607
14.6049
14.9952
14.8554
14.1552
13.1143
11.807
10.3707
8.94479
7.64269
6.52147
5.58827
4.81144
4.15729
3.60197
3.17497
11.7415
11.4557
11.2641
11.1932
11.2598
11.4914
11.903
12.5191
13.3574
14.4112
15.6676
17.0718
18.639
20.2139
21.9101
22.8645
23.2568
22.8972
21.742
20.0099
17.8393
15.4734
13.0938
10.9032
9.02873
7.4925
6.26346
5.28069
4.49535
3.94902
15.4296
15.3763
15.4569
15.7374
16.2434
17
18.0237
19.3321
20.9278
22.778
24.8274
26.9922
29.2833
31.4374
33.5789
34.2778
34.16
33.1544
31.507
29.3038
26.628
23.4541
20.0359
16.7298
13.8183
11.3641
9.38399
7.8105
6.5861
5.79435
21.9453
22.2838
22.8796
23.7182
24.8274
26.2866
28.0763
30.1847
32.5762
35.1808
37.8891
40.616
43.3603
45.5997
47.3087
46.4578
45.1605
43.2592
41.125
38.6655
35.8976
32.8334
29.5329
25.9954
22.3069
18.909
16.0142
13.5778
11.6378
10.3942
32.8342
33.4388
34.5228
36.059
37.9544
40.0994
42.4806
45.0807
47.8192
50.607
53.2376
55.6029
57.8797
59.0971
59.4652
56.3879
53.5304
50.6185
48.0801
45.6622
43.3101
40.9952
38.6539
36.2933
33.8792
31.1707
28.1841
25.2642
22.7183
20.9338
45.7282
46.1627
47.5156
49.5185
51.8949
54.4225
56.93
59.3089
61.4934
63.4625
65.1439
66.4766
67.3099
66.8836
65.1157
59.6466
55.3725
51.6031
48.7326
46.4513
44.7247
43.5097
42.7763
42.425
42.3361
42.2406
41.8266
41.0402
39.6912
38.2739
48.0714
48.913
50.6665
53.0727
55.729
58.3139
60.6063
62.4947
63.9548
65.0133
65.6455
65.8276
65.2584
63.2533
59.4568
52.565
47.642
43.5589
40.6092
38.4314
37.1171
36.6224
36.9257
37.9703
39.574
41.4716
43.4103
45.0904
46.3029
46.8704
14.9028
17.9152
18.7051
18.8737
18.7553
18.3463
17.6319
16.693
15.6151
14.4731
13.3096
12.1865
11.1199
10.1854
9.40812
8.91822
8.90355
10.1658
13.6525
18.417
22.0108
23.2632
22.3635
20.0155
16.9064
13.4785
10.0546
6.81729
4.32355
2.52353
8.20409
8.84146
8.96886
8.91981
8.78081
8.54923
8.19285
7.72882
7.19991
6.63784
6.07429
5.52612
5.02275
4.57281
4.22909
4.02004
4.09553
4.8609
6.85987
9.50181
11.4794
12.2107
11.8724
10.8844
9.58858
8.1682
6.7
5.15441
3.74714
2.56494
7.46945
7.65612
7.62498
7.51688
7.34473
7.10777
6.7953
6.41335
5.98427
5.52761
5.06593
4.61444
4.19749
3.82967
3.55247
3.40079
3.48935
4.16948
5.81375
7.95397
9.58926
10.2654
10.0996
9.42092
8.48923
7.46027
6.35987
5.11631
3.95763
2.92533
7.28337
7.21438