/*--------------------------------*- C++ -*----------------------------------*\
  =========                 |
  \\      /  F ield         | OpenFOAM: The Open Source CFD Toolbox
   \\    /   O peration     | Website:  https://openfoam.org
    \\  /    A nd           | Version:  12
     \\/     M anipulation  |
\*---------------------------------------------------------------------------*/
FoamFile
{
    format      ascii;
    class       volScalarField;
    location    "1400/air";
    object      k;
}
// * * * * * * * * * * * * * * * * * * * * * * * * * * * * * * * * * * * * * //

dimensions      [0 2 -2 0 0 0 0];

internalField   nonuniform List<scalar> 
243000
(
0.0564476
0.0632902
0.0672732
0.0696933
0.0706519
0.0703699
0.0691174
0.0671496
0.0646733
0.0618648
0.0588689
0.0558666
0.0529533
0.0502037
0.0476212
0.0452426
0.0431099
0.0413941
0.0402775
0.0398486
0.0399048
0.0399649
0.0394414
0.0378248
0.0348992
0.030645
0.0255647
0.0230654
0.021196
0.0175112
0.0845279
0.0929043
0.0961315
0.0961844
0.0943864
0.0914132
0.0876988
0.0835534
0.079191
0.0747778
0.0704472
0.0663298
0.0624812
0.0589933
0.0559057
0.0533053
0.0513032
0.0501706
0.0501203
0.0512056
0.0530764
0.055038
0.0562364
0.055944
0.0536876
0.0493053
0.043255
0.0356904
0.0289002
0.0214227
0.0916104
0.104177
0.109254
0.110234
0.108721
0.105645
0.101588
0.0969645
0.0920596
0.0870896
0.0822066
0.0775569
0.0732082
0.06929
0.065881
0.0631263
0.0612122
0.0604936
0.0611503
0.0631472
0.0659967
0.0688849
0.0708549
0.0711194
0.0690805
0.0644735
0.0577101
0.0488656
0.0398314
0.0297234
0.0867724
0.102833
0.111174
0.114327
0.114224
0.112055
0.108546
0.104219
0.0994496
0.0945051
0.0895625
0.0848039
0.0803354
0.0763245
0.0728907
0.0702378
0.0686122
0.0684135
0.0697503
0.0724848
0.0760154
0.0794758
0.0819091
0.0825518
0.0807753
0.0762496
0.0693143
0.0600065
0.0499914
0.0387038
0.076482
0.0943925
0.10561
0.111434
0.11351
0.112987
0.110663
0.107221
0.103135
0.0986974
0.09409
0.0895649
0.0852681
0.0814132
0.0781626
0.0757892
0.0745956
0.0749877
0.0769993
0.0803745
0.0844206
0.0882551
0.0909609
0.0918355
0.0902792
0.085937
0.0790642
0.069738
0.0593288
0.0475762
0.0663547
0.0815213
0.0947212
0.103231
0.107814
0.109421
0.108857
0.106842
0.103802
0.100161
0.0961652
0.0921729
0.0882893
0.0847911
0.0818824
0.0799227
0.0792595
0.0802774
0.0829393
0.0868761
0.0913273
0.0954138
0.0982781
0.099295
0.0979215
0.0938124
0.0871529
0.0780688
0.0676509
0.0558627
0.0626934
0.0715662
0.0830668
0.0923318
0.0987565
0.102493
0.103857
0.103487
0.101836
0.0993217
0.0962773
0.0929561
0.0896419
0.0866562
0.0842193
0.0827688
0.082696
0.084346
0.087622
0.0920561
0.0968373
0.101105
0.104066
0.105173
0.103958
0.100101
0.0937455
0.0850548
0.0748988
0.0633381
0.0647431
0.0665423
0.0740372
0.0825111
0.0895212
0.0943382
0.096964
0.0980554
0.0978422
0.0965839
0.0945992
0.0921691
0.0895952
0.0872103
0.0853318
0.0844533
0.0849882
0.0872586
0.0911048
0.0959831
0.101047
0.10546
0.108492
0.109669
0.1086
0.105002
0.0990026
0.0907898
0.0810963
0.0699203
0.071402
0.0671998
0.0690423
0.074656
0.0810461
0.0863668
0.0899693
0.0920223
0.0927516
0.0925339
0.0915889
0.0901012
0.0883327
0.0866355
0.0853701
0.0850878
0.0862207
0.0890766
0.0934466
0.0987269
0.104043
0.108593
0.111699
0.112949
0.112026
0.108693
0.103082
0.0954144
0.086267
0.0755916
0.0808866
0.0735665
0.0697099
0.0705646
0.074465
0.0791413
0.0831149
0.0859018
0.0874796
0.0880466
0.0878042
0.0871249
0.0861306
0.0851302
0.0844861
0.084788
0.0864871
0.0898557
0.0946819
0.100323
0.105889
0.110596
0.113802
0.115148
0.114388
0.111334
0.106153
0.0990101
0.0904422
0.0803624
0.0911116
0.0837902
0.0764227
0.0721711
0.0717597
0.0740171
0.0771873
0.0800828
0.0822009
0.083442
0.0838783
0.0837398
0.0833141
0.0829167
0.0828472
0.0836812
0.0858827
0.0897513
0.0949952
0.100927
0.106693
0.111547
0.114895
0.116384
0.115817
0.113075
0.108284
0.101663
0.093694
0.0843156
0.101868
0.0950502
0.0868465
0.0795591
0.0747292
0.0730112
0.0737191
0.0755253
0.0774631
0.079001
0.0799371
0.0803048
0.0802891
0.0802755
0.080647
0.0819141
0.0845219
0.0887583
0.0943577
0.100643
0.106676
0.111697
0.115174
0.116793
0.11642
0.113978
0.10959
0.103484
0.0961072
0.0874361
0.113024
0.106577
0.0993328
0.0909356
0.083304
0.0776496
0.074615
0.0738172
0.0743569
0.0753896
0.0763574
0.0770036
0.07732
0.0775387
0.0781267
0.0796652
0.0825434
0.0870263
0.0928646
0.0993855
0.105666
0.110924
0.114615
0.116437
0.116252
0.114098
0.110148
0.104566
0.0977637
0.0897853
0.124526
0.118384
0.111666
0.103671
0.0952608
0.0872923
0.0808377
0.0765631
0.0743932
0.0737336
0.0738743
0.0742694
0.0746328
0.0749725
0.0755856
0.0771559
0.0801175
0.0846924
0.0906461
0.0973221
0.103805
0.109305
0.113264
0.115364
0.115452
0.113609
0.110047
0.104986
0.0987533
0.0914515
0.136342
0.130424
0.124031
0.116932
0.108543
0.0998073
0.0913767
0.084134
0.0787399
0.075331
0.073555
0.0728438
0.0726838
0.0728267
0.0733284
0.0746566
0.077459
0.0819295
0.0878435
0.0945675
0.101203
0.10694
0.111193
0.113625
0.114062
0.112601
0.109444
0.104849
0.0991689
0.0925196
0.148388
0.142606
0.136417
0.12964
0.121763
0.113201
0.104182
0.095285
0.0873008
0.080916
0.0764204
0.0736516
0.0721697
0.0715485
0.0716103
0.0725543
0.0748583
0.0789655
0.0846374
0.0912663
0.0979695
0.10391
0.108469
0.111271
0.112123
0.11109
0.108392
0.104292
0.0991348
0.0931428
0.160547
0.15482
0.148752
0.142168
0.134767
0.126601
0.117672
0.108224
0.098786
0.0900976
0.0828556
0.0774518
0.0738531
0.0717558
0.0708448
0.0710884
0.0727413
0.076144
0.0812867
0.0876174
0.0942527
0.100327
0.105173
0.108368
0.10969
0.109143
0.10702
0.10355
0.0990133
0.093644
0.172688
0.166954
0.160951
0.154497
0.147462
0.139667
0.131041
0.121627
0.111665
0.101664
0.0923374
0.0843945
0.0782757
0.074065
0.0715587
0.07063
0.0713371
0.0738705
0.0782297
0.0839809
0.0903316
0.0964007
0.101473
0.105073
0.106946
0.107017
0.105539
0.1027
0.098771
0.0939998
0.184709
0.178918
0.172935
0.166576
0.159852
0.152382
0.144075
0.13489
0.124899
0.114366
0.103811
0.0939411
0.0854623
0.0788598
0.0742487
0.0716259
0.0709772
0.0723633
0.0757433
0.0807461
0.0866521
0.0925941
0.0978054
0.101748
0.104121
0.104791
0.103924
0.101711
0.0983811
0.0941907
0.196527
0.190637
0.184642
0.178382
0.171949
0.164773
0.156755
0.147833
0.138004
0.127382
0.116274
0.105218
0.0949339
0.0861136
0.0792082
0.0744881
0.0720477
0.0719303
0.0740461
0.0780656
0.0833196
0.0889676
0.0941954
0.0983949
0.101206
0.102445
0.102168
0.10057
0.0978284
0.094197
0.208037
0.202042
0.196064
0.190137
0.183851
0.176879
0.169103
0.160438
0.150844
0.140347
0.129104
0.117462
0.106019
0.0954574
0.0864253
0.0794702
0.0749196
0.0729186
0.073438
0.0761692
0.0805078
0.0856371
0.0907139
0.0950525
0.0982195
0.0999723
0.100269
0.0992611
0.0971064
0.0940325
0.219153
0.213139
0.207492
0.201758
0.195584
0.188805
0.181283
0.172911
0.16361
0.153354
0.142198
0.130348
0.118245
0.106461
0.0956865
0.0866311
0.079853
0.0756868
0.0742703
0.07537
0.0784731
0.082798
0.0874908
0.0918049
0.0952131
0.0973998
0.098243
0.0977968
0.0962288
0.093717
0.230032
0.224456
0.218901
0.213278
0.207412
0.201063
0.194023
0.186123
0.17723
0.16728
0.156258
0.144296
0.131695
0.118998
0.106846
0.095962
0.0870315
0.0805757
0.0769234
0.0760628
0.0775592
0.0807384
0.0847553
0.0888128
0.0922978
0.0948027
0.096127
0.096215
0.0952186
0.0932735
0.240416
0.235113
0.229985
0.224852
0.219495
0.213683
0.2072
0.199861
0.191499
0.182019
0.171345
0.159537
0.146765
0.133427
0.120055
0.107601
0.0967055
0.0879763
0.081913
0.0787435
0.0782705
0.0798883
0.0828434
0.0863362
0.0896573
0.0923148
0.0940039
0.0945835
0.0941181
0.0927428
0.249624
0.244563
0.239819
0.235184
0.230412
0.225249
0.219458
0.212832
0.205202
0.196448
0.186446
0.175173
0.162676
0.149238
0.135427
0.121979
0.10948
0.0986227
0.0900764
0.0843207
0.0814179
0.0810196
0.0824378
0.0849009
0.0876833
0.0902207
0.092087
0.0930523
0.0930539
0.0922256
0.258849
0.253824
0.248937
0.24439
0.239936
0.235252
0.230075
0.224182
0.217581
0.210086
0.201466
0.191557
0.180297
0.167832
0.154445
0.140661
0.127032
0.114288
0.103265
0.0946662
0.088846
0.0857497
0.0849423
0.085739
0.0874199
0.0893308
0.0909989
0.0920783
0.0923993
0.092005
0.269736
0.265256
0.260814
0.256557
0.2525
0.248541
0.244482
0.240081
0.23512
0.229369
0.222552
0.214402
0.204738
0.193621
0.181233
0.167738
0.153475
0.139172
0.125768
0.114113
0.104837
0.0982246
0.0941613
0.0922146
0.0917886
0.0922161
0.0929405
0.0935341
0.0937257
0.0934939
0.287384
0.284002
0.280577
0.277399
0.274658
0.272376
0.270404
0.268455
0.266147
0.263104
0.258944
0.253318
0.24596
0.236842
0.22619
0.213762
0.199446
0.184152
0.168695
0.154014
0.140915
0.129966
0.121413
0.115209
0.111012
0.10828
0.106499
0.105221
0.104095
0.103159
0.332013
0.330227
0.328717
0.32834
0.329322
0.331331
0.333892
0.336469
0.338554
0.339579
0.339092
0.336891
0.332726
0.326687
0.31887
0.308826
0.295736
0.280847
0.264921
0.248775
0.233163
0.218679
0.205821
0.194897
0.185727
0.177763
0.170957
0.165209
0.16035
0.156591
0.508872
0.506568
0.508027
0.513682
0.520545
0.526062
0.530526
0.533988
0.536527
0.537093
0.536149
0.53425
0.53143
0.528159
0.524089
0.519227
0.510883
0.502311
0.493729
0.485754
0.478414
0.471995
0.466588
0.462424
0.458113
0.451594
0.445029
0.439085
0.434765
0.430102
0.0880226
0.100222
0.105641
0.107842
0.107579
0.105458
0.102008
0.0977216
0.0929422
0.0879919
0.0831265
0.0785538
0.0743515
0.0706805
0.0675736
0.0651829
0.0636329
0.0633097
0.0646046
0.0674695
0.0708309
0.0731296
0.0731253
0.0701513
0.064143
0.0553206
0.0446268
0.0323403
0.0224695
0.020446
0.143139
0.16105
0.164053
0.160394
0.153167
0.144165
0.134442
0.124651
0.115171
0.106326
0.0982513
0.0910793
0.0848392
0.0796841
0.0756472
0.0729823
0.0719682
0.0732202
0.0771051
0.0833864
0.0906174
0.0968389
0.100294
0.0998909
0.0949862
0.0856934
0.0731933
0.0579951
0.044584
0.0339077
0.167253
0.187097
0.192156
0.189507
0.182523
0.173121
0.162476
0.151403
0.140476
0.13016
0.120672
0.112225
0.104902
0.098954
0.0944952
0.0919554
0.0917665
0.094531
0.100366
0.108722
0.11788
0.125744
0.130457
0.130856
0.126039
0.115896
0.101636
0.0836603
0.0668145
0.0516766
0.174505
0.194436
0.201361
0.200667
0.195373
0.187314
0.17753
0.166872
0.156101
0.145721
0.136046
0.127384
0.119906
0.113956
0.10976
0.107949
0.109037
0.113516
0.121143
0.131038
0.141332
0.149962
0.155189
0.155975
0.151294
0.14089
0.125898
0.106513
0.0874805
0.0697353
0.172164
0.189552
0.197799
0.199597
0.196927
0.19076
0.182702
0.173306
0.1637
0.15415
0.145043
0.136857
0.129844
0.124443
0.120989
0.120333
0.122984
0.129264
0.138548
0.149638
0.160635
0.169607
0.175015
0.17601
0.171583
0.161363
0.146318
0.126539
0.106413
0.0872649
0.164079
0.177282
0.185296
0.189084
0.189239
0.186019
0.180428
0.173459
0.165209
0.156797
0.148705
0.141502
0.135409
0.130946
0.128576
0.129366
0.133754
0.141854
0.152658
0.164705
0.176123
0.185184
0.190583
0.191697
0.187577
0.177824
0.163159
0.143715
0.123322
0.103625
0.150488
0.15748
0.165092
0.171117
0.174329
0.174359
0.171762
0.167308
0.161358
0.154741
0.148215
0.142203
0.137264
0.134014
0.132978
0.135393
0.14163
0.151503
0.16369
0.17652
0.18819
0.19721
0.20251
0.203672
0.19989
0.190746
0.176758
0.158136
0.138078
0.118372
0.137134
0.137835
0.143053
0.149395
0.154708
0.157611
0.158269
0.156703
0.153287
0.148787
0.143989
0.139547
0.136024
0.134158
0.134611
0.138732
0.146818
0.158417
0.171851
0.185346
0.197191
0.206125
0.211298
0.212487
0.209039
0.20059
0.187475
0.16999
0.150699
0.131318
0.130964
0.124677
0.125439
0.129891
0.135471
0.140016
0.142732
0.143445
0.142264
0.139891
0.136949
0.134186
0.132242
0.131881
0.133856
0.139685
0.149529
0.162706
0.177295
0.19141
0.203406
0.212275
0.217361
0.218595
0.215495
0.207787
0.195687
0.179561
0.161355
0.142437
0.132061
0.119964
0.11464
0.115125
0.118805
0.123364
0.127163
0.12952
0.130232
0.129614
0.128232
0.127024
0.126549
0.127621
0.13108
0.138535
0.150048
0.164491
0.180093
0.194785
0.207024
0.215931
0.221031
0.222373
0.219667
0.212755
0.20177
0.186961
0.169928
0.15176
0.137885
0.122785
0.112319
0.107441
0.107378
0.10983
0.113199
0.116229
0.118245
0.119086
0.119078
0.11889
0.119589
0.121889
0.126679
0.135576
0.148501
0.164462
0.180902
0.196026
0.20844
0.217389
0.222596
0.224132
0.221902
0.215756
0.20577
0.192333
0.176592
0.15949
0.148364
0.13128
0.117656
0.108503
0.103729
0.10239
0.103457
0.105515
0.107652
0.109269
0.110241
0.110929
0.112172
0.115299
0.121111
0.131146
0.145181
0.162052
0.179426
0.19531
0.208167
0.217334
0.222633
0.22421
0.222209
0.216832
0.20798
0.195925
0.181533
0.165649
0.163568
0.145878
0.130832
0.118667
0.109688
0.103725
0.100689
0.100062
0.100655
0.101736
0.102838
0.103909
0.105455
0.108626
0.114956
0.125668
0.140397
0.157883
0.175802
0.192156
0.205441
0.215034
0.220769
0.222751
0.221186
0.216388
0.208619
0.198001
0.184985
0.17039
0.183543
0.166723
0.151447
0.137347
0.124887
0.114677
0.107142
0.102296
0.0997012
0.0986444
0.0985075
0.0990065
0.10025
0.102994
0.108961
0.119697
0.134558
0.152224
0.170415
0.18713
0.200891
0.211007
0.217308
0.219911
0.218983
0.214946
0.20815
0.19889
0.187382
0.174259
0.208453
0.19293
0.177835
0.162515
0.14775
0.134257
0.122664
0.113413
0.106598
0.101984
0.0991692
0.0977817
0.0977194
0.0993904
0.104109
0.113964
0.128218
0.145504
0.163599
0.180495
0.194705
0.205399
0.212402
0.215828
0.215738
0.212717
0.207016
0.199167
0.189168
0.177452
0.237131
0.222807
0.208013
0.192315
0.176346
0.160687
0.145975
0.132837
0.121741
0.112896
0.106289
0.101776
0.0992388
0.0988706
0.101676
0.109376
0.122113
0.138306
0.155808
0.17261
0.187136
0.198429
0.206244
0.210656
0.211668
0.209841
0.205544
0.198988
0.190392
0.179981
0.267948
0.254617
0.240584
0.225121
0.208739
0.191884
0.175074
0.158947
0.144148
0.131188
0.120405
0.111963
0.105927
0.102519
0.102509
0.107242
0.11719
0.131428
0.147705
0.163987
0.178619
0.190474
0.199166
0.204762
0.207198
0.206683
0.203715
0.198335
0.19092
0.181732
0.299117
0.287122
0.274211
0.259464
0.243252
0.225931
0.207921
0.189776
0.172157
0.155714
0.141017
0.128491
0.118418
0.111201
0.107513
0.108579
0.114911
0.126065
0.140272
0.155485
0.169954
0.1823
0.191912
0.198629
0.202378
0.203177
0.201425
0.197249
0.190934
0.182905
0.329733
0.31944
0.307903
0.294229
0.278644
0.261401
0.242881
0.223566
0.20406
0.185004
0.167056
0.150796
0.136693
0.125351
0.117295
0.114131
0.116228
0.123586
0.134917
0.148304
0.161914
0.174289
0.184512
0.192187
0.197149
0.199312
0.198768
0.19584
0.190654
0.183717
0.359768
0.351085
0.341093
0.328739
0.314113
0.297368
0.278873
0.259081
0.238532
0.217787
0.197448
0.178124
0.160408
0.145053
0.132734
0.124669
0.121961
0.124873
0.132515
0.143258
0.155237
0.167016
0.17744
0.185801
0.191801
0.195245
0.195966
0.194284
0.190246
0.184382
0.389177
0.382027
0.373636
0.362728
0.34926
0.333338
0.315331
0.295691
0.274895
0.253381
0.231612
0.2101
0.189466
0.170491
0.15403
0.14113
0.133085
0.130948
0.134165
0.141357
0.150806
0.161357
0.171368
0.180008
0.186757
0.191275
0.193266
0.192778
0.189903
0.185144
0.418148
0.412559
0.405678
0.396209
0.384033
0.369263
0.352273
0.333516
0.313376
0.292131
0.270056
0.247455
0.224852
0.202755
0.18262
0.165175
0.151535
0.143529
0.141391
0.14414
0.150398
0.158607
0.167311
0.1756
0.182657
0.187918
0.190989
0.191653
0.189866
0.186409
0.447241
0.443147
0.437649
0.429621
0.418973
0.405888
0.390735
0.373937
0.355754
0.336239
0.315398
0.293223
0.270059
0.246224
0.223144
0.20132
0.181727
0.166778
0.157669
0.15435
0.155921
0.1608
0.167529
0.174465
0.180889
0.18618
0.189805
0.191382
0.190783
0.188562
0.477788
0.474967
0.470892
0.464735
0.456486
0.446366
0.434744
0.421915
0.407895
0.392425
0.375132
0.35558
0.333789
0.309927
0.2854
0.259707
0.233286
0.20973
0.191269
0.179079
0.173083
0.172235
0.174792
0.178861
0.18347
0.187794
0.191145
0.19304
0.193251
0.192282
0.512938
0.512086
0.510498
0.507711
0.503886
0.499315
0.494301
0.488953
0.482856
0.475257
0.465276
0.45183
0.43444
0.41302
0.388922
0.360658
0.326617
0.292244
0.26099
0.235431
0.216773
0.204911
0.198616
0.196049
0.195994
0.197158
0.198581
0.199547
0.199605
0.199431
0.56038
0.56373
0.56771
0.571902
0.576702
0.582444
0.589278
0.596959
0.604238
0.609714
0.611889
0.608747
0.599281
0.583386
0.562546
0.534108
0.494736
0.449691
0.403144
0.359159
0.320545
0.288868
0.264593
0.247071
0.235205
0.227574
0.222748
0.219534
0.216949
0.216086
0.642865
0.654493
0.668792
0.685716
0.705301
0.727447
0.751839
0.777604
0.802473
0.824532
0.841549
0.850918
0.851104
0.843024
0.827889
0.802314
0.761489
0.70998
0.651693
0.590823
0.530832
0.474477
0.424125
0.381284
0.346457
0.319169
0.298426
0.28288
0.271131
0.265261
0.816778
0.840806
0.868073
0.900019
0.935768
0.97473
1.01578
1.05666
1.09353
1.12503
1.14932
1.16446
1.16969
1.16618
1.15516
1.13314
1.09691
1.04918
0.991794
0.927799
0.860099
0.790903
0.722736
0.658487
0.600123
0.5487
0.50483
0.468115
0.437982
0.42016
1.08592
1.10289
1.13425
1.17427
1.21722
1.26298
1.30709
1.34456
1.37388
1.39553
1.4096
1.41476
1.4126
1.4048
1.39013
1.36574
1.33518
1.29822
1.25537
1.20823
1.1588
1.10795
1.0577
1.00928
0.962778
0.9181
0.875539
0.835368
0.798434
0.77588
1.20774
1.20628
1.22594
1.25762
1.29098
1.32071
1.34382
1.3599
1.3696
1.37383
1.37347
1.36905
1.36006
1.34844
1.3288
1.29884
1.27045
1.24007
1.21071
1.18271
1.1575
1.1379
1.12472
1.11771
1.11505
1.11438
1.11512
1.11545
1.1137
1.10664
0.123549
0.138553
0.142584
0.143477
0.141863
0.138078
0.13269
0.126329
0.11947
0.112562
0.105873
0.0996649
0.0940407
0.0892723
0.0854348
0.0828629
0.08187
0.0834758
0.0888982
0.0976538
0.10652
0.112132
0.112791
0.108212
0.098906
0.085497
0.0692909
0.050935
0.0344474
0.0237255
0.201555
0.224855
0.22896
0.224512
0.2149
0.202605
0.18913
0.175461
0.162144
0.149649
0.138153
0.127892
0.118905
0.111483
0.1057
0.10209
0.101322
0.10515
0.11499
0.130007
0.145992
0.158367
0.164295
0.162834
0.153882
0.138137
0.117449
0.0928205
0.070376
0.0506245
0.240868
0.266524
0.273272
0.269836
0.26049
0.24763
0.232855
0.21735
0.201887
0.187129
0.173409
0.161083
0.150312
0.141554
0.135055
0.131659
0.132176
0.138217
0.150814
0.168763
0.187541
0.202359
0.210173
0.209919
0.200957
0.183869
0.160443
0.13156
0.103739
0.078129
0.263586
0.286166
0.29324
0.291256
0.283495
0.27184
0.257849
0.242635
0.227024
0.2118
0.197501
0.184581
0.173353
0.164429
0.158278
0.156059
0.158512
0.166796
0.181278
0.200505
0.22011
0.23555
0.243984
0.244449
0.236001
0.218918
0.194755
0.164265
0.133568
0.104426
0.274272
0.290892
0.297486
0.297025
0.291289
0.281475
0.269362
0.255666
0.241036
0.226421
0.212616
0.200077
0.189288
0.181032
0.176002
0.175667
0.180462
0.190971
0.206792
0.226291
0.245636
0.260724
0.269061
0.269881
0.262104
0.245733
0.222068
0.1916
0.159867
0.128874
0.276494
0.286055
0.290766
0.291325
0.287818
0.281241
0.271309
0.259257
0.246135
0.232856
0.220434
0.208998
0.199321
0.192386
0.189089
0.191187
0.198604
0.211265
0.228076
0.24728
0.265649
0.279771
0.28754
0.28841
0.281278
0.265975
0.243489
0.214122
0.182626
0.150972
0.273856
0.274468
0.275653
0.276231
0.274853
0.270968
0.264152
0.254971
0.244518
0.233388
0.222278
0.212366
0.204314
0.199237
0.198193
0.20313
0.213395
0.22812
0.24566
0.264239
0.281245
0.294018
0.300901
0.30156
0.294949
0.280836
0.259935
0.232374
0.202008
0.170449
0.266854
0.256333
0.253048
0.253345
0.254079
0.253374
0.249948
0.243941
0.236337
0.227737
0.218982
0.211073
0.205028
0.20217
0.203834
0.211858
0.225115
0.241828
0.259898
0.277683
0.293168
0.304401
0.310206
0.310457
0.304221
0.291323
0.272243
0.246943
0.218218
0.187237
0.254738
0.235614
0.228018
0.227222
0.228976
0.230479
0.230133
0.227414
0.223205
0.217477
0.211385
0.205874
0.202167
0.201816
0.206402
0.217678
0.233896
0.252551
0.27102
0.287973
0.301932
0.31159
0.316253
0.315959
0.30999
0.298343
0.280931
0.257776
0.23096
0.201326
0.244313
0.219527
0.206967
0.203103
0.204188
0.206663
0.208394
0.208398
0.206769
0.203681
0.200478
0.197534
0.19638
0.198646
0.206254
0.220838
0.239887
0.260307
0.279185
0.295363
0.307895
0.31607
0.319628
0.318731
0.312982
0.302125
0.286227
0.265307
0.240695
0.213112
0.239838
0.211161
0.19306
0.184758
0.183104
0.184776
0.187201
0.188889
0.189386
0.188632
0.187465
0.18699
0.188319
0.19318
0.203804
0.221571
0.243213
0.265177
0.284435
0.299968
0.311278
0.318181
0.320763
0.319052
0.313134
0.303108
0.288838
0.270109
0.24781
0.222513
0.241677
0.212236
0.18981
0.175484
0.169303
0.168127
0.16941
0.171336
0.172933
0.173809
0.174359
0.175438
0.178813
0.186052
0.199465
0.220126
0.244145
0.267212
0.286819
0.301927
0.312448
0.318476
0.320098
0.317837
0.311874
0.302411
0.289491
0.272876
0.253189
0.230321
0.248894
0.219667
0.195381
0.177368
0.165881
0.160059
0.158196
0.158584
0.159786
0.161136
0.162604
0.164724
0.16897
0.178062
0.193767
0.216805
0.242672
0.267272
0.28723
0.302044
0.311705
0.31683
0.31782
0.315323
0.309603
0.300839
0.28913
0.2747
0.257348
0.236703
0.262206
0.233671
0.208821
0.188376
0.173004
0.162614
0.156475
0.153563
0.15259
0.152885
0.154042
0.156277
0.16073
0.17021
0.187389
0.212032
0.239091
0.264297
0.284547
0.299244
0.308665
0.313418
0.314154
0.311756
0.306583
0.298768
0.288613
0.275987
0.260414
0.241607
0.281998
0.255341
0.230946
0.209142
0.190789
0.176268
0.165561
0.158287
0.153745
0.151344
0.15069
0.151766
0.15541
0.164011
0.181226
0.206417
0.233831
0.259208
0.279581
0.294305
0.303688
0.308419
0.309325
0.307395
0.303049
0.296703
0.288022
0.276707
0.262549
0.245361
0.309082
0.28428
0.260751
0.23837
0.217966
0.200109
0.185198
0.173351
0.164419
0.158131
0.154279
0.152814
0.154466
0.161236
0.176428
0.200806
0.227537
0.252501
0.272706
0.287499
0.297037
0.302106
0.303663
0.302692
0.299718
0.294676
0.28722
0.277092
0.264173
0.24837
0.342078
0.319175
0.296732
0.27427
0.252547
0.232184
0.213775
0.197752
0.184359
0.173672
0.165742
0.160694
0.159125
0.162922
0.174615
0.196304
0.221072
0.244931
0.264569
0.279321
0.289202
0.295023
0.297863
0.298132
0.296353
0.292558
0.286344
0.27736
0.265554
0.25096
0.379457
0.358395
0.337114
0.314865
0.292353
0.270196
0.249078
0.229597
0.212228
0.197292
0.185068
0.175854
0.170381
0.170118
0.177596
0.194619
0.216103
0.237723
0.256228
0.270703
0.281186
0.287946
0.291895
0.293483
0.292966
0.290477
0.285503
0.277642
0.266872
0.253383
0.419598
0.400274
0.380159
0.358329
0.335437
0.312098
0.289035
0.266938
0.246403
0.227856
0.211719
0.198385
0.188702
0.184047
0.186596
0.197996
0.214703
0.23294
0.249711
0.263489
0.273987
0.281352
0.286268
0.289084
0.289836
0.288577
0.284804
0.278044
0.268276
0.255844
0.461155
0.443424
0.424458
0.403237
0.380364
0.356439
0.332219
0.308436
0.285732
0.264562
0.245374
0.228562
0.21501
0.206059
0.203537
0.20915
0.22036
0.234172
0.247766
0.259654
0.269109
0.276417
0.281875
0.285545
0.287369
0.287179
0.284406
0.278716
0.269938
0.258564
0.503214
0.48694
0.46913
0.448771
0.426404
0.402611
0.378162
0.353805
0.330184
0.307718
0.286805
0.267737
0.251336
0.238748
0.23171
0.231484
0.236537
0.24462
0.253557
0.262031
0.269474
0.275462
0.280277
0.283972
0.286239
0.286766
0.284781
0.280004
0.272144
0.261832
0.545515
0.530589
0.514046
0.494968
0.47383
0.451178
0.42777
0.404344
0.381504
0.359596
0.338915
0.31955
0.302128
0.287434
0.277108
0.271495
0.269681
0.270428
0.27252
0.275308
0.278394
0.281341
0.284047
0.286398
0.287983
0.288413
0.28684
0.282641
0.275439
0.266243
0.588644
0.575169
0.560324
0.543312
0.524563
0.504592
0.484111
0.463821
0.444247
0.425653
0.408127
0.391459
0.37593
0.361797
0.350403
0.340884
0.33173
0.323015
0.315052
0.308504
0.303659
0.300188
0.297897
0.296507
0.295469
0.294182
0.291742
0.287426
0.280477
0.272084
0.635035
0.623561
0.611369
0.597871
0.583436
0.568566
0.553905
0.540077
0.52747
0.516212
0.506058
0.496298
0.486663
0.4768
0.467589
0.456573
0.440605
0.420855
0.399228
0.378273
0.359771
0.344177
0.331629
0.321941
0.314543
0.308617
0.303057
0.296923
0.289228
0.281194
0.690795
0.682734
0.675103
0.667647
0.660699
0.654693
0.65011
0.647441
0.646759
0.64789
0.650008
0.651594
0.651826
0.649839
0.645944
0.636107
0.614951
0.584563
0.547644
0.508355
0.470277
0.435233
0.404526
0.378934
0.358496
0.342454
0.329483
0.318238
0.307403
0.298572
0.7698
0.768208
0.768398
0.77101
0.776126
0.783965
0.794569
0.808065
0.823915
0.841191
0.858224
0.872845
0.884227
0.89105
0.893215
0.885096
0.860494
0.822244
0.772951
0.717091
0.658826
0.600679
0.545698
0.496269
0.454165
0.419779
0.392261
0.369981
0.351316
0.338976
0.899422
0.908984
0.922463
0.939419
0.960721
0.985842
1.01386
1.04428
1.07573
1.10661
1.13478
1.15796
1.17575
1.18677
1.19058
1.17973
1.15116
1.10865
1.0544
0.991606
0.922908
0.850141
0.777
0.706051
0.640687
0.583386
0.535495
0.495689
0.462936
0.442918
1.1176
1.13565
1.16177
1.19492
1.23135
1.26955
1.30827
1.34628
1.38176
1.41342
1.43974
1.45912
1.47065
1.47194
1.46392
1.43641
1.39813
1.35229
1.30203
1.24799
1.19096
1.13107
1.06576
0.999205
0.933468
0.870226
0.812969
0.761448
0.716597
0.688178
1.37589
1.38658
1.41492
1.45392
1.49624
1.53698
1.57279
1.60163
1.62336
1.63869
1.6476
1.64905
1.64279
1.6282
1.60053
1.55241
1.50331
1.45295
1.40571
1.3614
1.32107
1.28487
1.25438
1.23069
1.21148
1.19288
1.16827
1.1416
1.11402
1.09324
1.41921
1.42879
1.45628
1.4937
1.53228
1.56614
1.59198
1.60869
1.61693
1.61834
1.61293
1.60091
1.58126
1.55225
1.50761
1.44596
1.38982
1.33699
1.29242
1.25629
1.23028
1.21475
1.21059
1.2183
1.23484
1.25633
1.2803
1.30253
1.31887
1.32678
0.159345
0.176981
0.179665
0.178155
0.174785
0.169277
0.162028
0.153705
0.144895
0.136093
0.127549
0.119609
0.112385
0.106282
0.101414
0.0983859
0.0979435
0.102835
0.11615
0.135215
0.151987
0.161053
0.16139
0.154084
0.140777
0.122645
0.101136
0.0770751
0.0555345
0.0380011
0.26273
0.289684
0.291128
0.284617
0.272466
0.257124
0.240291
0.22319
0.206521
0.190774
0.176141
0.162927
0.151136
0.141233
0.133361
0.128509
0.12841
0.137989
0.160641
0.192142
0.221537
0.240749
0.247335
0.242132
0.226931
0.203436
0.173779
0.139036
0.10667
0.0790008
0.317931
0.345946
0.350212
0.344987
0.332997
0.3169
0.298472
0.279093
0.259754
0.241147
0.223608
0.207623
0.193385
0.181583
0.172664
0.168169
0.169878
0.182553
0.209282
0.245072
0.278456
0.301002
0.310067
0.306288
0.290975
0.265683
0.23252
0.19225
0.152636
0.116802
0.35271
0.375555
0.380711
0.376592
0.366048
0.351184
0.333508
0.314243
0.294555
0.27524
0.256788
0.23985
0.22487
0.212733
0.204254
0.201311
0.205475
0.220651
0.249013
0.285404
0.319111
0.342192
0.352179
0.349626
0.335291
0.31048
0.276829
0.234859
0.191707
0.151269
0.374272
0.389176
0.39301
0.389497
0.380843
0.368166
0.35245
0.334547
0.315883
0.297217
0.279112
0.262442
0.247914
0.236598
0.22966
0.229244
0.236217
0.253645
0.282323
0.317246
0.349253
0.371236
0.38108
0.379301
0.366233
0.342847
0.310363
0.268992
0.224831
0.181668
0.385928
0.39085
0.391916
0.389247
0.382692
0.372181
0.358794
0.342933
0.32642
0.309458
0.292589
0.277175
0.264072
0.25454
0.250095
0.253009
0.263108
0.282482
0.310731
0.343104
0.372086
0.391908
0.400821
0.399306
0.387415
0.365812
0.335396
0.296039
0.252674
0.208108
0.389854
0.384679
0.380756
0.377175
0.372463
0.365231
0.355312
0.343233
0.328728
0.313523
0.298434
0.285196
0.274346
0.267437
0.266367
0.273265
0.28674
0.307809
0.3351
0.364297
0.389569
0.40653
0.413926
0.412188
0.401256
0.381521
0.353671
0.317246
0.275704
0.230726
0.38887
0.37198
0.361819
0.356581
0.353319
0.349167
0.342809
0.334053
0.322916
0.31064
0.298637
0.287526
0.279501
0.275923
0.27909
0.290405
0.30746
0.329949
0.355879
0.381558
0.40289
0.416626
0.422109
0.419749
0.409568
0.391731
0.366125
0.332458
0.293195
0.249834
0.383092
0.354271
0.337302
0.329856
0.327495
0.326021
0.323286
0.318269
0.310667
0.301769
0.292842
0.284938
0.280293
0.280672
0.288672
0.30473
0.325387
0.349038
0.373249
0.395518
0.412843
0.423244
0.426596
0.423356
0.41344
0.39667
0.373091
0.342428
0.306096
0.265082
0.372414
0.334887
0.312988
0.302671
0.299901
0.299965
0.299731
0.297666
0.293437
0.288181
0.282624
0.278281
0.277516
0.282287
0.29548
0.31646
0.340533
0.365122
0.387492
0.406447
0.419947
0.427118
0.428276
0.423579
0.413367
0.397611
0.376146
0.348509
0.315722
0.277593
0.361884
0.319472
0.292718
0.278616
0.273827
0.273931
0.275033
0.275254
0.273918
0.271532
0.269181
0.268588
0.271785
0.281308
0.299891
0.325746
0.352909
0.378117
0.398829
0.414563
0.424564
0.42879
0.427826
0.422192
0.41192
0.396797
0.376982
0.352489
0.322911
0.287502
0.355932
0.311594
0.279391
0.261227
0.252747
0.251082
0.252053
0.253384
0.254086
0.254152
0.254526
0.256922
0.263974
0.278366
0.302275
0.332706
0.362488
0.387959
0.407166
0.420024
0.426967
0.428711
0.426131
0.419863
0.409744
0.395459
0.377362
0.355236
0.327806
0.294726
0.356491
0.312639
0.278085
0.253565
0.239859
0.234832
0.233822
0.234804
0.236316
0.237941
0.240372
0.245005
0.255156
0.274195
0.30304
0.337475
0.369269
0.394661
0.41248
0.422936
0.427473
0.427203
0.423533
0.417081
0.407455
0.394391
0.377811
0.356901
0.331055
0.29997
0.362238
0.319879
0.284516
0.257232
0.239002
0.228367
0.22327
0.222343
0.223146
0.225068
0.228531
0.23465
0.246596
0.269664
0.302557
0.340267
0.373347
0.39831
0.414908
0.423632
0.426271
0.42468
0.420509
0.414414
0.405778
0.393889
0.378042
0.357981
0.333346
0.303882
0.37453
0.334175
0.298615
0.269207
0.247277
0.232266
0.223277
0.218584
0.216981
0.217736
0.220902
0.227384
0.24052
0.265816
0.30166
0.341516
0.375001
0.399502
0.415283
0.422368
0.423771
0.421663
0.417682
0.412601
0.404948
0.393613
0.378289
0.358879
0.335138
0.30698
0.394052
0.355791
0.321268
0.29101
0.266182
0.247086
0.233514
0.224614
0.21957
0.217667
0.219177
0.224893
0.238137
0.263693
0.301034
0.341982
0.375343
0.399184
0.413574
0.419778
0.42074
0.418993
0.416154
0.411645
0.404389
0.393528
0.378738
0.359846
0.336754
0.309656
0.421237
0.385616
0.352293
0.321579
0.294561
0.27194
0.254049
0.240687
0.231511
0.226114
0.224757
0.228383
0.240653
0.264643
0.30201
0.342669
0.375256
0.39766
0.411119
0.416996
0.41856
0.417705
0.415275
0.41101
0.404087
0.393769
0.379482
0.361036
0.338435
0.312241
0.456113
0.422446
0.390182
0.35924
0.330615
0.30515
0.283507
0.265944
0.252543
0.243224
0.238502
0.239108
0.249227
0.271263
0.306149
0.345347
0.376124
0.397499
0.409949
0.416313
0.418089
0.417295
0.414926
0.410762
0.404165
0.394365
0.38055
0.362524
0.340355
0.315017
0.496446
0.464429
0.433098
0.402115
0.372412
0.344844
0.32024
0.299149
0.28198
0.268932
0.260784