/*--------------------------------*- C++ -*----------------------------------*\
  =========                 |
  \\      /  F ield         | OpenFOAM: The Open Source CFD Toolbox
   \\    /   O peration     | Website:  https://openfoam.org
    \\  /    A nd           | Version:  12
     \\/     M anipulation  |
\*---------------------------------------------------------------------------*/
FoamFile
{
    format      ascii;
    class       volScalarField;
    location    "1400/air";
    object      nut;
}
// * * * * * * * * * * * * * * * * * * * * * * * * * * * * * * * * * * * * * //

dimensions      [0 2 -1 0 0 0 0];

internalField   nonuniform List<scalar> 
243000
(
0.00012551
0.000127928
0.000127085
0.000124785
0.000121382
0.000117238
0.000112679
0.000107962
0.000103267
9.87358e-05
9.4465e-05
9.0573e-05
8.71146e-05
8.41294e-05
8.1594e-05
7.95223e-05
7.79349e-05
7.69772e-05
7.68358e-05
7.76231e-05
7.91748e-05
8.10337e-05
8.2586e-05
8.31983e-05
8.24101e-05
7.98022e-05
7.5433e-05
7.00394e-05
0.000305464
0.00027257
0.000461466
0.000465767
0.000456526
0.000440538
0.000421617
0.00040157
0.000381453
0.000361943
0.00034346
0.000326284
0.000310622
0.00029667
0.000284471
0.000274156
0.000265768
0.000259477
0.000255548
0.000254698
0.000257557
0.000264374
0.000274327
0.000285684
0.000296244
0.000303956
0.000307055
0.000304078
0.000294804
0.000276066
0.00025902
0.000231877
0.000567367
0.000604989
0.000619465
0.000622215
0.000617914
0.000609099
0.000597284
0.000583531
0.000568579
0.000553016
0.000537282
0.000521856
0.000506996
0.00049321
0.000480874
0.000470633
0.000463317
0.000460411
0.000462692
0.000469974
0.000480292
0.000490587
0.000497517
0.000498455
0.000491297
0.000474685
0.000449129
0.000413179
0.000373166
0.000322421
0.000552479
0.000601288
0.000625103
0.00063384
0.000633508
0.000627435
0.000617513
0.000605064
0.000591048
0.000576158
0.000560877
0.000545757
0.000531159
0.000517689
0.000505849
0.00049646
0.00049053
0.000489609
0.000494128
0.000503486
0.00051542
0.000526912
0.00053488
0.000536986
0.000531222
0.000516184
0.000492199
0.000458
0.00041808
0.00036789
0.000519004
0.000576406
0.000609533
0.000626
0.000631721
0.000630204
0.000623653
0.00061384
0.000602025
0.000588905
0.000574972
0.00056095
0.000547295
0.000534731
0.000523872
0.00051574
0.000511485
0.000512591
0.000519153
0.000530155
0.00054314
0.000555223
0.000563629
0.000566342
0.00056157
0.000547962
0.000525654
0.000493733
0.000455441
0.000407867
0.000483335
0.000536006
0.000577587
0.000602799
0.000615919
0.000620404
0.00061874
0.000612947
0.000604106
0.000593389
0.000581402
0.000569164
0.000556995
0.000545788
0.000536256
0.000529663
0.000527256
0.000530368
0.000538796
0.000551163
0.0005649
0.000577277
0.000585832
0.000588863
0.000584824
0.000572488
0.000551861
0.000522369
0.000486317
0.000441949
0.000469614
0.000502128
0.000540958
0.000570212
0.000589724
0.000600689
0.000604588
0.000603449
0.000598549
0.000591061
0.000581873
0.000571701
0.000561347
0.000551851
0.000543932
0.000539069
0.000538601
0.000543657
0.000553797
0.000567347
0.000581675
0.000594222
0.000602809
0.000606012
0.000602547
0.00059133
0.000572322
0.000545213
0.000511684
0.000470575
0.000476888
0.000483981
0.0005107
0.000539134
0.000561564
0.000576413
0.000584305
0.000587592
0.00058689
0.000583042
0.000576952
0.000569424
0.000561349
0.000553729
0.000547609
0.000544599
0.000546066
0.000552991
0.000564704
0.000579318
0.000594172
0.000606868
0.000615471
0.000618798
0.000615816
0.000605597
0.000588116
0.000563264
0.000532406
0.000494402
0.000500375
0.000485785
0.000492903
0.000512793
0.000534377
0.000551627
0.000562962
0.00056933
0.000571529
0.000570853
0.000567867
0.000563161
0.000557523
0.000552031
0.000547841
0.000546732
0.000550078
0.000558764
0.000571937
0.000587543
0.000602911
0.0006158
0.000624475
0.000627949
0.000625416
0.000616111
0.000600072
0.000577397
0.000549087
0.000514037
0.000532444
0.000507819
0.000494688
0.00049819
0.000512088
0.000528058
0.000541175
0.000550168
0.000555158
0.000556932
0.000556109
0.000553922
0.000550676
0.000547354
0.000545124
0.000545875
0.00055101
0.000561257
0.000575743
0.000592294
0.000608237
0.00062144
0.000630302
0.000634002
0.000631939
0.000623508
0.000608904
0.000588137
0.000562182
0.00052998
0.00056498
0.000541499
0.000517269
0.000503077
0.000502165
0.000510404
0.000521437
0.00053122
0.000538214
0.000542251
0.000543625
0.000543134
0.00054172
0.000540328
0.000539946
0.000542423
0.000549183
0.000561009
0.000576735
0.000594095
0.000610545
0.000624095
0.0006333
0.000637365
0.000635834
0.00062832
0.00061494
0.000595921
0.00057216
0.000542826
0.000597331
0.000576753
0.00055109
0.000527492
0.00051159
0.000506207
0.00050915
0.000515661
0.000522397
0.000527626
0.000530745
0.000531939
0.000531854
0.000531762
0.000532858
0.000536796
0.000544933
0.000557992
0.000574865
0.000593295
0.000610508
0.000624511
0.000634053
0.000638455
0.000637446
0.000630774
0.000618586
0.000601186
0.000579437
0.00055274
0.000629127
0.000610675
0.000589148
0.000563547
0.000539418
0.00052111
0.000511363
0.000509164
0.000511432
0.000515227
0.00051865
0.000520884
0.000521953
0.000522661
0.000524567
0.000529503
0.000538646
0.000552635
0.000570386
0.000589633
0.000607639
0.000622349
0.000632495
0.000637453
0.000636952
0.000631057
0.000620101
0.000604265
0.000584358
0.00056007
0.0006603
0.000643577
0.000624774
0.000601535
0.000576475
0.000551841
0.000531315
0.000517579
0.000510769
0.000508997
0.000509834
0.000511392
0.000512738
0.000513931
0.000515992
0.000521193
0.0005308
0.000545303
0.000563641
0.000583558
0.000602309
0.000617807
0.000628748
0.000634486
0.000634722
0.000629662
0.000619769
0.000605418
0.000587252
0.000565192
0.000690854
0.000675479
0.000658484
0.000639081
0.000615434
0.000589897
0.00056435
0.000541706
0.000524501
0.000513607
0.000508073
0.000506038
0.000505763
0.000506407
0.000508191
0.000512702
0.00052202
0.000536467
0.000554987
0.000575341
0.000594779
0.000611119
0.000622978
0.000629668
0.000630856
0.000626822
0.000618019
0.00060497
0.000588426
0.000568426
0.000720667
0.000706296
0.000690593
0.000672989
0.000651932
0.000628281
0.000602471
0.000576062
0.000551534
0.000531384
0.000516988
0.000508131
0.000503485
0.000501647
0.000502049
0.00050538
0.000513217
0.000526785
0.0005449
0.000565331
0.000585288
0.000602449
0.000615315
0.000623104
0.000625444
0.000622565
0.000614995
0.000603307
0.00058828
0.000570296
0.000749556
0.000735895
0.00072115
0.000704807
0.000685914
0.000664534
0.000640396
0.0006139
0.000586396
0.000560114
0.000537493
0.000520227
0.000508609
0.000501859
0.000499036
0.000500082
0.000505852
0.000517327
0.000534125
0.000554047
0.000574186
0.000592042
0.000605929
0.000614925
0.000618602
0.00061705
0.000611059
0.000601121
0.000587872
0.00057178
0.000777325
0.000764163
0.000750144
0.00073478
0.000717662
0.000698198
0.000676022
0.000650993
0.000623501
0.000594786
0.000566923
0.000542327
0.000522836
0.000509184
0.000501034
0.000498146
0.000500788
0.000509516
0.00052404
0.000542529
0.000562222
0.000580428
0.000595234
0.000605534
0.000610823
0.000611
0.000606783
0.000598608
0.000587102
0.00057281
0.000803856
0.000791034
0.000777568
0.000763001
0.000747324
0.00072946
0.000709054
0.000685801
0.00065962
0.000630939
0.000600985
0.000571777
0.000545687
0.000524705
0.000509728
0.000501168
0.000499228
0.000504163
0.000515639
0.000532045
0.000550746
0.000568937
0.000584438
0.000595908
0.000602706
0.000604598
0.000602091
0.000595672
0.000585889
0.000573333
0.000829102
0.000816489
0.000803448
0.000789604
0.000775113
0.000758612
0.000739733
0.000718139
0.000693586
0.000666079
0.000636138
0.000605027
0.00057479
0.000547761
0.000525848
0.000510508
0.000502552
0.000502403
0.000509737
0.000523156
0.00054012
0.000557762
0.000573611
0.000586041
0.000594219
0.000597776
0.000596949
0.000592278
0.000584184
0.000573283
0.000852959
0.00084051
0.00082791
0.000815265
0.000801543
0.000786052
0.000768411
0.000748267
0.000725315
0.000699362
0.000670499
0.000639347
0.000607328
0.000576401
0.000548789
0.000526739
0.000511959
0.000505479
0.000507439
0.000516705
0.000530955
0.000547282
0.000562966
0.000576036
0.000585395
0.000590504
0.000591342
0.000588359
0.000581964
0.000572714
0.000875359
0.000863215
0.000851677
0.000839724
0.00082666
0.000812079
0.000795595
0.000776838
0.000755458
0.000731166
0.000703817
0.000673614
0.00064141
0.000608584
0.000577129
0.000549498
0.000528038
0.000514542
0.000510009
0.000513838
0.000524169
0.00053816
0.000552919
0.000566143
0.000576377
0.000582844
0.000585301
0.00058395
0.000579262
0.000571674
0.000896687
0.00088572
0.000874585
0.000863089
0.000850993
0.000837739
0.000822813
0.000805745
0.000786089
0.000763501
0.000737687
0.00070865
0.000676793
0.000643316
0.00060965
0.000578
0.000550827
0.000530446
0.000518665
0.000515957
0.000521001
0.000531405
0.000544225
0.000556865
0.000567493
0.000575006
0.000578927
0.000579153
0.00057614
0.000570237
0.000916473
0.000906223
0.000896195
0.000886031
0.000875299
0.000863515
0.000850191
0.00083486
0.000817049
0.000796377
0.000772453
0.000745121
0.00071444
0.000681051
0.000646
0.000611812
0.000580306
0.000553871
0.000534831
0.000524668
0.000523201
0.000528521
0.000538039
0.000549053
0.000559321
0.000567397
0.000572463
0.000574166
0.000572727
0.000568525
0.000933865
0.000924216
0.000915104
0.000906113
0.000896765
0.000886551
0.000874959
0.000861511
0.000845784
0.000827374
0.000805831
0.000780855
0.00075224
0.000720288
0.000686205
0.000651362
0.000617279
0.000586148
0.000560508
0.00054261
0.00053338
0.000532112
0.000536656
0.000544452
0.000553124
0.00056091
0.000566564
0.000569446
0.000569407
0.00056685
0.000950934
0.000941635
0.000932462
0.000923738
0.00091515
0.000906056
0.000895913
0.000884237
0.000871111
0.000855877
0.000837984
0.000816929
0.00079235
0.000764273
0.000733087
0.00069962
0.000664949
0.00063088
0.000599928
0.00057467
0.000556937
0.000547251
0.000544651
0.000547091
0.000552275
0.000558123
0.000563179
0.000566412
0.000567337
0.000566093
0.000970647
0.000962572
0.000954469
0.000946597
0.000939015
0.000931543
0.000923814
0.000915361
0.000905791
0.000894563
0.000881057
0.000864638
0.000844772
0.000821361
0.000794546
0.000764347
0.000731141
0.000696319
0.000662083
0.000630843
0.000604837
0.000585571
0.00057336
0.000567342
0.000565905
0.000567075
0.000569158
0.000570858
0.000571361
0.0005706
0.00100185
0.000995991
0.000990009
0.000984402
0.000979518
0.000975411
0.00097183
0.000968266
0.000964044
0.00095846
0.000950785
0.000940318
0.000926465
0.00090903
0.000888272
0.000863472
0.000834042
0.000801452
0.000767149
0.00073311
0.000701355
0.000673644
0.000651135
0.000634245
0.000622486
0.000614642
0.000609415
0.00060561
0.000602251
0.000599456
0.00107708
0.00107427
0.00107188
0.00107132
0.00107296
0.00107625
0.0010804
0.00108455
0.0010879
0.00108952
0.00108871
0.00108515
0.00107838
0.00106851
0.00105562
0.00103884
0.00101657
0.000990652
0.000962181
0.000932447
0.000902776
0.000874335
0.000848261
0.000825426
0.000805722
0.000788168
0.000772815
0.000759585
0.000748215
0.000739301
0.00133457
0.00133158
0.00133351
0.00134092
0.00134986
0.00135701
0.00136276
0.00136721
0.00137045
0.00137113
0.00136994
0.00136751
0.0013639
0.00135969
0.00135444
0.00134813
0.00133724
0.00132597
0.00131459
0.00130395
0.00129408
0.00128539
0.00127801
0.0012723
0.0012664
0.00125735
0.00124815
0.00123974
0.00123359
0.00122696
0.000156743
0.000160985
0.000159251
0.000155216
0.000149767
0.000143503
0.000136868
0.000130217
0.000123771
0.000117728
0.000112226
0.000107373
0.000103197
9.9791e-05
9.71601e-05
9.54101e-05
9.46369e-05
9.51412e-05
9.72502e-05
0.000100946
0.000105436
0.00010958
0.000112426
0.000113285
0.00011171
0.000107208
9.96784e-05
8.79414e-05
7.32575e-05
0.00032893
0.000634911
0.000707556
0.000687581
0.000634425
0.000574245
0.00051751
0.00046737
0.000423894
0.000386351
0.000354619
0.000327608
0.000304822
0.000285664
0.000270407
0.000258486
0.000250519
0.000246784
0.000248569
0.000255262
0.000266415
0.000281104
0.0002979
0.000314113
0.000326334
0.000329428
0.000321501
0.000303766
0.000276473
0.000254818
0.000260704
0.000973667
0.00110365
0.0011132
0.00106323
0.00099038
0.000912641
0.000838081
0.000769857
0.000709065
0.000656454
0.000611
0.000572463
0.000540153
0.000514921
0.000496154
0.000484983
0.000482069
0.000487244
0.000496466
0.000508386
0.000523838
0.00054303
0.000563263
0.000579266
0.000583004
0.000568348
0.000536565
0.000485992
0.000439323
0.00040998
0.00115443
0.0013225
0.00136586
0.00133735
0.00127448
0.00119852
0.00111911
0.00104196
0.000971306
0.00090844
0.000853194
0.000806221
0.000767379
0.000738232
0.000718733
0.000710963
0.000715165
0.000728703
0.000742907
0.000755876
0.000769204
0.000785259
0.000802838
0.000818315
0.000819382
0.000798783
0.000756312
0.000689443
0.000620548
0.000569232
0.00123471
0.00141011
0.00148267
0.00148424
0.00144466
0.00137846
0.00130564
0.00122945
0.00116017
0.00109622
0.00103828
0.000989092
0.000949298
0.000921285
0.000905734
0.000906453
0.00092202
0.000946256
0.000966845
0.000981269
0.000993149
0.00100572
0.00101988
0.0010327
0.00103158
0.00100719
0.000958262
0.000881822
0.000797548
0.000730638
0.00126809
0.00142343
0.00150311
0.00152723
0.00151346
0.00147045
0.00141344
0.00135362
0.00128709
0.00122476
0.0011686
0.00112264
0.00108656
0.00106359
0.00105563
0.0010684
0.00109801
0.00113503
0.00116397
0.00118117
0.00119182
0.00120092
0.00121115
0.00122298
0.00121968
0.00119357
0.00114124
0.00106009
0.000967004
0.000889052
0.00125053
0.00135728
0.00143657
0.00148358
0.0014974
0.00148225
0.00144796
0.00140461
0.00135337
0.0013015
0.0012543
0.00121333
0.00118325
0.00116837
0.00117078
0.00119793
0.00124347
0.00129282
0.00133154
0.00135267
0.001363
0.00137051
0.00137832
0.00138823
0.00138602
0.00135897
0.00130573
0.00122375
0.00112604
0.00103922
0.00120882
0.00126638
0.00132515
0.00137613
0.00141047
0.00142326
0.00141941
0.0013994
0.00136758
0.00133106
0.00129536
0.00126492
0.00124432
0.00123963
0.00125442
0.00129719
0.00135921
0.00142187
0.00146854
0.00149536
0.0015083
0.00151621
0.00152207
0.00153058
0.00152909
0.00150507
0.00145258
0.0013728
0.00127448
0.00118092
0.00119949
0.00119783
0.00122136
0.00125802
0.00129661
0.00132589
0.00134253
0.00134565
0.00133639
0.00131957
0.00129929
0.00128224
0.00127391
0.00128155
0.00130972
0.00136867
0.00144676
0.00152354
0.00157964
0.00161298
0.00163027
0.00163951
0.00164446
0.00165189
0.00165057
0.00163023
0.00158369
0.0015085
0.00141299
0.0013132
0.00122956
0.00117416
0.00114954
0.00115631
0.00118233
0.00121401
0.00124203
0.0012619
0.00127194
0.00127421
0.00127187
0.00127044
0.00127628
0.00129695
0.00133955
0.00141468
0.00150917
0.00159689
0.00166463
0.00170672
0.00172993
0.00174141
0.00174717
0.00175416
0.00175351
0.00173731
0.00169752
0.00162897
0.00153692
0.00143491
0.00128978
0.00119856
0.00112939
0.00109417
0.0010944
0.00111258
0.00113941
0.00116678
0.00118989
0.00120715
0.00122057
0.0012341
0.00125491
0.00128938
0.00134675
0.00143755
0.00154694
0.00165367
0.00173208
0.00178203
0.0018103
0.00182447
0.00183205
0.00183927
0.00184015
0.00182699
0.00179156
0.00173142
0.00164565
0.00154723
0.00138222
0.00126751
0.00116638
0.00109587
0.00105893
0.00104914
0.00106022
0.00108201
0.00110798
0.00113349
0.0011576
0.00118293
0.00121466
0.00126281
0.00133453
0.00143986
0.00156302
0.00168169
0.0017761
0.00184133
0.00187908
0.00189831
0.00190642
0.0019102
0.00190781
0.00189673
0.00186766
0.00181577
0.00173982
0.00164753
0.00151428
0.00138824
0.00126767
0.00116684
0.00109387
0.00104898
0.00103041
0.00103278
0.00104846
0.00107109
0.00109783
0.00112887
0.0011674
0.00122258
0.00130692
0.00142479
0.00155995
0.00169039
0.00179708
0.00187382
0.00192168
0.0019491
0.00196249
0.00196746
0.00196415
0.00195138
0.00192718
0.00188414
0.0018179
0.00173463
0.00168154
0.00155849
0.00143129
0.00131045
0.00120657
0.00112616
0.001072
0.00104283
0.0010343
0.00104109
0.0010591
0.00108674
0.001125
0.00118049
0.00126951
0.00139654
0.00154091
0.00168136
0.00179962
0.00188778
0.00194726
0.00198393
0.00200369
0.00201207
0.00201007
0.00199784
0.00197534
0.00193982
0.00188444
0.00181329
0.0018835
0.00177094
0.00164548
0.00151476
0.00139064
0.00128145
0.00119285
0.00112775
0.00108577
0.00106459
0.00106116
0.0010734
0.00110136
0.00114985
0.00123193
0.00136096
0.00151011
0.00165778
0.00178597
0.0018851
0.00195674
0.00200331
0.00203087
0.00204478
0.00204625
0.00203797
0.00201862
0.0019897
0.0019448
0.00188456
0.00211071
0.00201261
0.00189499
0.00176435
0.00163111
0.00150326
0.00138745
0.00128905
0.00121121
0.00115498
0.00112001
0.00110579
0.00111231
0.00114319
0.00121
0.00132526
0.00147295
0.0016236
0.00175901
0.00186806
0.00195114
0.00200835
0.00204505
0.0020664
0.00207416
0.00207137
0.00205874
0.00203506
0.00199901
0.00194766
0.0023538
0.00227095
0.00216617
0.00204279
0.0019093
0.00177279
0.00163941
0.00151525
0.00140549
0.00131396
0.00124301
0.00119457
0.00116992
0.00117343
0.00121416
0.00130485
0.00143601
0.00158363
0.0017225
0.00183926
0.00193271
0.00200094
0.00204798
0.00207909
0.00209636
0.00210082
0.00209426
0.0020742
0.00204311
0.00199911
0.00260184
0.00253515
0.0024458
0.00233435
0.00220703
0.00206978
0.00192793
0.00178714
0.0016531
0.00153116
0.00142567
0.00134079
0.00127952
0.00124759
0.00125396
0.00131093
0.00141409
0.00154557
0.00168093
0.00180237
0.00190478
0.00198434
0.00204291
0.00208417
0.00211035
0.00212242
0.00212136
0.00210611
0.00207889
0.00204148
0.0028441
0.00279485
0.00272193
0.00262489
0.00250787
0.00237534
0.00223198
0.00208266
0.00193273
0.00178771
0.00165296
0.00153411
0.00143586
0.00136555
0.0013316
0.0013482
0.00141477
0.0015205
0.00164328
0.001763
0.00186841
0.00195641
0.00202514
0.00207657
0.00211251
0.00213398
0.00213968
0.00213151
0.00210927
0.00207755
0.0030762
0.00304153
0.00298421
0.00290177
0.0027966
0.00267171
0.0025312
0.00237915
0.00222012
0.00205921
0.0019018
0.00175428
0.00162265
0.00151593
0.00144192
0.00141344
0.00143907
0.00151051
0.00161251
0.00172481
0.00182736
0.00191983
0.00199659
0.00205738
0.00210331
0.00213487
0.00215034
0.00215081
0.00213514
0.00210956
0.00329229
0.0032677
0.00322258
0.00315221
0.00305755
0.00294052
0.00280438
0.00265248
0.0024885
0.00231684
0.00214267
0.00197262
0.00181369
0.00167596
0.00156562
0.00149554
0.00147595
0.00151147
0.00158552
0.00167971
0.00177747
0.00187603
0.0019573
0.00202627
0.0020822
0.00212475
0.00215225
0.00216285
0.00215631
0.00213916
0.00348284
0.0034628
0.00342371
0.00336015
0.00327198
0.00316026
0.00302722
0.00287535
0.00270751
0.00252766
0.00234111
0.00215472
0.00197603
0.00181472
0.00167618
0.00157187
0.00151152
0.0015055
0.0015505
0.00162733
0.00171976
0.00181151
0.0018981
0.00197696
0.00204499
0.00210052
0.00214122
0.00216476
0.00217091
0.00217029
0.00363096
0.00360783
0.00356706
0.00350317
0.00341541
0.0033043
0.00317085
0.00301658
0.00284401
0.00265741
0.0024629
0.00226765
0.00207938
0.00190543
0.00175129
0.00162278
0.00152883
0.0014822
0.00148916
0.00154197
0.00162525
0.00171903
0.00181646
0.00190486
0.00198379
0.00205235
0.00210859
0.00214779
0.00217408
0.00218981
0.0037091
0.00367408
0.00362377
0.00355419
0.00346377
0.00335125
0.003216
0.00305856
0.00288214
0.00269256
0.00249719
0.00230342
0.00211797
0.00194514
0.00179179
0.00165308
0.00153407
0.00145104
0.00141404
0.00142608
0.00148178
0.00156901
0.00167078
0.0017729
0.00186957
0.00195735
0.0020332
0.00209464
0.00214482
0.00218458
0.00368267
0.00363343
0.00357323
0.00349872
0.0034068
0.00329441
0.00315981
0.00300428
0.00283318
0.0026543
0.00247484
0.00230094
0.00213661
0.00198235
0.00184324
0.00171042
0.00157958
0.00146893
0.0013884
0.00134664
0.00134837
0.00139251
0.00147031
0.00156846
0.00167705
0.0017849
0.00188573
0.00197544
0.00205472
0.00212383
0.00350402
0.00345216
0.00339557
0.00332768
0.00324528
0.00314543
0.00302742
0.00289481
0.00275355
0.00261056
0.00246997
0.00233441
0.0022044
0.00208193
0.00196927
0.00185574
0.00173188
0.00161193
0.0015035
0.00141554
0.00135587
0.00133021
0.00134092
0.00138573
0.00145942
0.0015532
0.00165736
0.00176328
0.00186522
0.00196214
0.00319049
0.00315513
0.0031226
0.00308602
0.00303862
0.00297645
0.00290001
0.00281398
0.00272343
0.00263218
0.00254177
0.00245155
0.00235835
0.00226788
0.00218447
0.00209601
0.00199206
0.00188281
0.001773
0.00166909
0.00157703
0.00150184
0.00144849
0.00142095
0.00142087
0.00144727
0.00149665
0.00156354
0.00164189
0.00173312
0.00291505
0.0029193
0.00293184
0.00293899
0.00293323
0.00291279
0.0028792
0.00283625
0.00278633
0.00273236
0.0026755
0.00261543
0.00255005
0.00248352
0.00242182
0.0023559
0.00227831
0.00219479
0.00210746
0.00202073
0.00193856
0.00186234
0.00179476
0.00173958
0.00169815
0.00167158
0.00166075
0.00166502
0.00168358
0.00172967
0.00280742
0.00282304
0.00285143
0.00287951
0.00289592
0.00289931
0.00288877
0.00286594
0.00283425
0.00279806
0.00275811
0.00271319
0.0026637
0.00261436
0.00256729
0.00251702
0.00246402
0.00240804
0.00235285
0.00230084
0.00225566
0.0022144
0.0021795
0.00215344
0.00213221
0.00211549
0.00210433
0.00209916
0.00210083
0.00212508
0.00277716
0.00279856
0.00282302
0.00284385
0.0028535
0.00285301
0.00284355
0.00282665
0.00280427
0.002777
0.00274742
0.00271449
0.00267784
0.00264251
0.00260654
0.00257266
0.00254151
0.00251187
0.00248726
0.00246973
0.0024594
0.00246069
0.00246967
0.00248112
0.00249533
0.00250961
0.00252539
0.00254273
0.00255917
0.00256756
0.000185681
0.000189277
0.000185003
0.000179015
0.000171962
0.00016418
0.000156075
0.00014803
0.000140302
0.000133128
0.000126629
0.000120919
0.000116035
0.000112126
0.000109223
0.000107545
0.000107312
0.000109212
0.000114046
0.000121423
0.000129289
0.000135691
0.000139632
0.000140707
0.000138725
0.00013329
0.000124221
0.000110419
9.42805e-05
8.13044e-05
0.000825207
0.000925277
0.000921628
0.000867094
0.00079302
0.000719244
0.000652627
0.000594711
0.000544535
0.000501739
0.000464853
0.0004338
0.000407391
0.000386391
0.000369215
0.000357326
0.000350837
0.000353651
0.000365958
0.000388034
0.00041733
0.000448761
0.000476331
0.000494073
0.000495397
0.000475674
0.000439757
0.000390591
0.000348424
0.000304226
0.00129617
0.00148875
0.00152742
0.0014782
0.00139152
0.00129217
0.00119394
0.00110334
0.00102197
0.000950715
0.000888546
0.000835942
0.000791787
0.000757987
0.000732737
0.000718497
0.00071451
0.000720779
0.000732576
0.000753708
0.000786155
0.000825743
0.000864049
0.000890866
0.000888645
0.00085554
0.000793943
0.000705123
0.000617041
0.000541671
0.00162542
0.00184823
0.00191349
0.00188392
0.00180723
0.00170679
0.00160067
0.00149784
0.00140189
0.00131547
0.00123952
0.00117534
0.00112281
0.0010851
0.00106122
0.00105541
0.00106317
0.00107706
0.00108838
0.00110707
0.00113374
0.00116945
0.00120862
0.00123927
0.00123731
0.00119643
0.00111756
0.00100269
0.000880153
0.000776368
0.00184123
0.00205639
0.00214064
0.00213403
0.00207386
0.00198087
0.00188054
0.00177937
0.00168013
0.00158828
0.00150801
0.00144036
0.00138686
0.00135195
0.00133632
0.00134607
0.00136987
0.001392
0.00139974
0.00141083
0.00143586
0.00146606
0.00150198
0.00153414
0.00153548
0.00149254
0.00140637
0.00127719
0.00113269
0.00100466
0.00198032
0.00217253
0.00225754
0.00226807
0.00222666
0.00215977
0.0020677
0.00196774
0.0018697
0.00177921
0.00170376
0.00163909
0.0015903
0.00156408
0.00156213
0.00159235
0.00163352
0.0016626
0.00166911
0.00167301
0.00169067
0.0017162
0.00174814
0.00178097
0.00178668
0.00174967
0.00166257
0.00152881
0.00137183
0.0012249
0.00208365
0.00222295
0.00228941
0.00230386
0.00227994
0.00223029
0.00215868
0.00207581
0.00199372
0.00191394
0.00183888
0.00178025
0.00174061
0.00172804
0.00174455
0.00179803
0.00185736
0.00189185
0.00189778
0.00189616
0.00190489
0.0019254
0.0019535
0.00198615
0.00199643
0.00196719
0.00188967
0.00175859
0.00159802
0.00143567
0.00214959
0.00220703
0.00224407
0.0022578
0.00225012
0.00222317
0.0021747
0.00211245
0.00204681
0.00198126
0.00192032
0.0018726
0.00184557
0.0018495
0.00188888
0.00196699
0.00204478
0.00208412
0.00208976
0.0020838
0.00208479
0.00210008
0.00212467
0.00215635
0.00216987
0.00215014
0.00208692
0.00196853
0.00181046
0.00163555
0.0021644
0.00215226
0.00215685
0.00216367
0.00216389
0.00215323
0.00212821
0.00208906
0.00204576
0.0019985
0.00195502
0.00192305
0.00191234
0.00193511
0.00199943
0.00210244
0.002197
0.00224388
0.0022487
0.00223853
0.00223589
0.00224631
0.00226782
0.00229759
0.00231348
0.00230496
0.002254
0.00215085
0.0019993
0.00182194
0.00217211
0.00210766
0.00207481
0.00206101
0.00205754
0.00205464
0.00204543
0.00202739
0.00200261
0.00197431
0.00195143
0.001938
0.00194682
0.00198938
0.0020798
0.00220727
0.00231313
0.00236872
0.00237621
0.00236612
0.00236387
0.00236973
0.00238828
0.00241516
0.00243316
0.00242921
0.00238805
0.00230144
0.00216635
0.0019979
0.00221352
0.00211286
0.00202761
0.00198336
0.00196033
0.00195285
0.00194967
0.00194482
0.00193678
0.00192603
0.0019191
0.00192559
0.00195384
0.00201787
0.00213441
0.00228462
0.00240343
0.00246008
0.00247415
0.00247214
0.00246991
0.00247401
0.00249023
0.00250982
0.00252329
0.00252322
0.00249431
0.00242391
0.00230776
0.00215497
0.00229322
0.0021761
0.00205905
0.0019636
0.00190465
0.00187715
0.00186684
0.00186492
0.001866
0.0018684
0.00187551
0.00189524
0.00194125
0.00202642
0.00216728
0.00233772
0.00247039
0.00253271
0.00255546
0.0025599
0.00256094
0.002567
0.00257875
0.00259304
0.0026024
0.00260132
0.00257996
0.0025244
0.0024302
0.00229713
0.00239878
0.00226869
0.00212868
0.00200529
0.00191476
0.00185926
0.00182516
0.00181399
0.00181323
0.00182012
0.00183519
0.00186417
0.00191898
0.00202228
0.00218366
0.00237038
0.00251421
0.00259679
0.00263018
0.00264141
0.00264265
0.00264646
0.00265558
0.00266668
0.00267437
0.00267351
0.00265607
0.00261446
0.0025392
0.00242652
0.00254709
0.00240622
0.00225999
0.00211938
0.00200069
0.00191044
0.00185042
0.00181908
0.00180278
0.00180272
0.00181629
0.00184689
0.00190427
0.00201445
0.00218982
0.0023872
0.00253956
0.00263201
0.00267895
0.00269892
0.00270821
0.00271447
0.00272301
0.00273295
0.00274126
0.00274266
0.00273075
0.00269879
0.00263591
0.0025387
0.00273752
0.00261067
0.00246397
0.00231193
0.0021711
0.00205188
0.00195994
0.00189658
0.00185598
0.00183625
0.00183707
0.00185851
0.00190964
0.00201572
0.002193
0.00239406
0.0025514
0.00265424
0.00271415
0.00274466
0.00276214
0.00277246
0.00278282
0.00279368
0.00280381
0.00281057
0.00280335
0.00277619
0.00272137
0.00263676
0.00298583
0.00286733
0.00272649
0.0025719
0.0024176
0.00227501
0.00215259
0.00205503
0.00198222
0.00193368
0.00190951
0.00191062
0.00194629
0.00203803
0.0022002
0.00239654
0.00255499
0.00266637
0.00273743
0.00277952
0.00280533
0.00282148
0.00283636
0.00285077
0.0028653
0.00287597
0.00287219
0.00284845
0.00279979
0.002725
0.0032634
0.00315918
0.00302943
0.00287893
0.00271921
0.00256098
0.00241375
0.00228454
0.0021772
0.002094
0.00203674
0.0020087
0.002017
0.00208488
0.0022189
0.00239802
0.00255303
0.00266984
0.00275054
0.00280337
0.00283812
0.00286184
0.00288381
0.00290369
0.00292211
0.00293708
0.00293753
0.00291693
0.00287342
0.00280654
0.00355863
0.00346939
0.00335229
0.00320925
0.00304953
0.00288248
0.00271734
0.00256205
0.00242256
0.00230349
0.00220879
0.00214399
0.00211826
0.0021485
0.00224866
0.00239913
0.00254526
0.00266327
0.00275271
0.00281434
0.00285829
0.00289041
0.00291916
0.00294724
0.00297131
0.00299225
0.00299757
0.00298096
0.00294282
0.00288335
0.00385752
0.00378027
0.00367425
0.00353905
0.00338189
0.00321051
0.00303315
0.00285761
0.00269053
0.00253768
0.00240486
0.00229946
0.00223261
0.0022198
0.00227776
0.00239264
0.00252076
0.00263829
0.00273629
0.00280646
0.00285893
0.00290095
0.00293887
0.00297618
0.00300911
0.00303681
0.00304806
0.00303815
0.0030074
0.00295658
0.00414321
0.00407335
0.00397485
0.0038457
0.00369129
0.00351759
0.00333157
0.00314007
0.00294954
0.00276621
0.00259713
0.00245107
0.0023406
0.00228223
0.00229001
0.00236371
0.00247001
0.00258264
0.00268153
0.00276507
0.00282797
0.00288299
0.00293346
0.00298158
0.00302627
0.00306264
0.00308286
0.00308534
0.00306605
0.0030276
0.00439733
0.004329
0.00423328
0.00410711
0.00395399
0.00377811
0.00358483
0.0033797
0.00316861
0.00295818
0.00275671
0.00257399
0.00242318
0.00231987
0.00227816
0.00230315
0.00237602
0.002474
0.00257516
0.00266916
0.00275234
0.00282194
0.00288598
0.00294831
0.00300756
0.00306215
0.00310149
0.00312246
0.00311926
0.00309416
0.00459707
0.00452454
0.00442695
0.0043004
0.00414653
0.00396758
0.00376734
0.00354992
0.00332108
0.0030885
0.00286224
0.00265283
0.0024729
0.00233491
0.00225179
0.00222489
0.00225151
0.00231715
0.00240454
0.00250036
0.00259547
0.0026847
0.00276984
0.00285285
0.00293266
0.00300871
0.00307208
0.00311626
0.00313767
0.0031381
0.00471384
0.00463342
0.00453092
0.0044018
0.00424595
0.00406386
0.00385828
0.00363196
0.00339172
0.0031476
0.0029116
0.0026942
0.00250559
0.00235344
0.00224702
0.00218194
0.00215735
0.00217068
0.00221565
0.00228506
0.00237086
0.00246594
0.0025672
0.00267268
0.00277874
0.00288191
0.00297445
0.00304913
0.00309862
0.00312912
0.00471731
0.0046282
0.00452078
0.00439023
0.00423486
0.0040538
0.00385056
0.00362559
0.00338892
0.00315359
0.00293205
0.00273256
0.00256042
0.00241846
0.00231103
0.00222992
0.00216723
0.00212697
0.00211115
0.00212239
0.0021609
0.00222458
0.00231126
0.0024177
0.00253778
0.00266395
0.00278613
0.00289499
0.00298147
0.00304431
0.00458215
0.00448925
0.00438351
0.00425995
0.00411577
0.00394878
0.00376143
0.00355916
0.0033525
0.00315476
0.00297508
0.00281647
0.00267944
0.00256377
0.00246936
0.00239076
0.00230975
0.00223368
0.00216678
0.00211615
0.00208822
0.00208733
0.00211712
0.00217969
0.0022729
0.0023896
0.00251812
0.00264613
0.00276145
0.00285605
0.00431497
0.00422661
0.00413703
0.00403976
0.00392827
0.00379915
0.00365481
0.00350214
0.00335063
0.00320909
0.00308223
0.00296976
0.00287077
0.00278283
0.00270446
0.00263381
0.00254896
0.002459
0.00236735
0.00228033
0.00220461
0.00214545
0.0021087
0.00210112
0.00212716
0.00218641
0.00227184
0.00237316
0.00247884
0.00258158
0.00398326
0.00392318
0.0038765
0.00383285
0.00377612
0.00370239
0.00361446
0.00351863
0.0034222
0.00333073
0.00324636
0.00316774
0.00309414
0.0030234
0.00295582
0.00288782
0.00280458
0.00271586
0.00262441
0.00253392