/*--------------------------------*- C++ -*----------------------------------*\
  =========                 |
  \\      /  F ield         | OpenFOAM: The Open Source CFD Toolbox
   \\    /   O peration     | Website:  https://openfoam.org
    \\  /    A nd           | Version:  12
     \\/     M anipulation  |
\*---------------------------------------------------------------------------*/
FoamFile
{
    format      ascii;
    class       volScalarField;
    location    "1400/air";
    object      p_rgh;
}
// * * * * * * * * * * * * * * * * * * * * * * * * * * * * * * * * * * * * * //

dimensions      [1 -1 -2 0 0 0 0];

internalField   nonuniform List<scalar> 
243000
(
29.8576
29.8445
29.8024
29.6913
29.5786
29.4785
29.3943
29.3287
29.2811
29.2522
29.2404
29.2437
29.2587
29.287
29.3231
29.3783
29.4444
29.5264
29.6126
29.7042
29.795
29.8827
29.9633
30.0343
30.0984
30.1494
30.1991
30.2276
30.2827
30.2672
29.8475
29.8201
29.7834
29.6837
29.5803
29.4836
29.4015
29.3369
29.2897
29.263
29.2526
29.2565
29.2711
29.2988
29.334
29.3882
29.453
29.5339
29.6204
29.7124
29.8035
29.8915
29.9723
30.0432
30.107
30.1573
30.2087
30.2359
30.2887
30.2634
29.8244
29.7625
29.7208
29.6224
29.5277
29.4407
29.3678
29.3114
29.2709
29.2496
29.2434
29.2502
29.266
29.2941
29.3293
29.3833
29.4473
29.5284
29.6159
29.709
29.8009
29.8899
29.9716
30.0434
30.1079
30.1584
30.2103
30.2311
30.2884
30.2544
29.795
29.6921
29.6438
29.5459
29.4597
29.3829
29.3199
29.272
29.2387
29.2232
29.2217
29.2316
29.2491
29.2777
29.3126
29.3661
29.4289
29.5086
29.5941
29.6854
29.7758
29.8639
29.946
30.019
30.0864
30.1412
30.1987
30.2179
30.2823
30.2448
29.7658
29.6253
29.573
29.475
29.3947
29.3255
29.2701
29.2289
29.2012
29.1904
29.1926
29.2053
29.2242
29.2532
29.2872
29.3396
29.4007
29.4785
29.5615
29.6503
29.7385
29.8257
29.9083
29.9833
30.0541
30.1123
30.1753
30.1949
30.2685
30.2299
29.7349
29.5744
29.5161
29.4179
29.3421
29.278
29.2274
29.1902
29.1656
29.1577
29.1618
29.1763
29.1963
29.2252
29.2577
29.3083
29.3669
29.442
29.5217
29.6072
29.6929
29.779
29.8623
29.9393
30.0137
30.0756
30.1443
30.166
30.2469
30.2082
29.7016
29.5444
29.4726
29.3765
29.304
29.2422
29.194
29.1589
29.1352
29.1274
29.1313
29.1458
29.1656
29.194
29.2243
29.2721
29.3275
29.3991
29.4743
29.5559
29.6387
29.7237
29.8077
29.8869
29.9651
30.0309
30.1054
30.1308
30.2177
30.1803
29.6626
29.5197
29.4422
29.3537
29.2803
29.2181
29.1709
29.1354
29.1107
29.1016
29.1035
29.1158
29.1336
29.1606
29.1879
29.2322
29.2833
29.3504
29.4204
29.4974
29.577
29.661
29.7458
29.8274
29.9094
29.9794
30.0596
30.0899
30.1816
30.1473
29.6163
29.4884
29.4194
29.3392
29.268
29.2056
29.1559
29.1192
29.0923
29.0804
29.0792
29.0884
29.1022
29.126
29.1498
29.1896
29.2357
29.297
29.361
29.4331
29.5094
29.5922
29.678
29.7622
29.8481
29.9224
30.0079
30.0438
30.1397
30.1101
29.5609
29.4401
29.388
29.3252
29.2592
29.199
29.147
29.1075
29.0787
29.0633
29.0583
29.0637
29.0729
29.0916
29.1109
29.1454
29.1854
29.2401
29.2975
29.3642
29.437
29.5188
29.6057
29.6926
29.7825
29.8612
29.9515
29.9938
30.0931
30.0694
29.4976
29.38
29.3458
29.2994
29.2462
29.1916
29.1411
29.0987
29.0673
29.049
29.0402
29.0413
29.0455
29.0587
29.0721
29.1004
29.1336
29.1808
29.2312
29.2922
29.3615
29.4422
29.5303
29.6201
29.7138
29.797
29.8916
29.9408
30.043
30.0265
29.43
29.3124
29.2938
29.2626
29.2214
29.1764
29.1316
29.0905
29.0571
29.036
29.0234
29.0206
29.0197
29.0274
29.034
29.0556
29.0812
29.1203
29.1633
29.2185
29.2842
29.3638
29.4531
29.5458
29.6434
29.7309
29.8294
29.886
29.9906
29.9826
29.3579
29.2407
29.2339
29.2164
29.1858
29.1515
29.1144
29.0779
29.0461
29.0234
29.0074
29.0005
28.9947
28.9973
28.997
29.0113
29.0289
29.0597
29.0951
29.1443
29.2064
29.2848
29.3753
29.4709
29.5722
29.6639
29.766
29.8305
29.937
29.9386
29.2815
29.1676
29.1663
29.1613
29.1408
29.1163
29.0883
29.0587
29.0311
29.0093
28.9912
28.9806
28.9698
28.9676
28.9608
28.9678
28.9774
28.9998
29.0276
29.0708
29.1292
29.2064
29.298
29.3963
29.501
29.597
29.7029
29.7747
29.8817
29.8954
29.2009
29.0933
29.0952
29.0977
29.0874
29.0719
29.0527
29.0308
29.0087
28.9903
28.9726
28.9598
28.9447
28.9376
28.9247
28.9253
28.9271
28.9412
28.9616
28.9988
29.0535
29.1295
29.222
29.3228
29.4306
29.5314
29.6406
29.7191
29.8259
29.8525
29.1154
29.017
29.0222
29.028
29.0255
29.0187
29.0078
28.9935
28.9776
28.9635
28.9487
28.9359
28.9181
28.9067
28.8878
28.8828
28.8783
28.8846
28.8978
28.9291
28.9802
29.0547
29.1479
29.2509
29.3621
29.4674
29.579
29.6639
29.7703
29.8103
29.0246
28.9378
28.9456
28.9555
28.9581
28.9578
28.9544
28.9471
28.9374
28.9278
28.917
28.9064
28.8879
28.8735
28.8495
28.8393
28.8299
28.8298
28.8365
28.8622
28.9096
28.9826
29.0762
29.1814
29.2956
29.4048
29.5186
29.6099
29.7152
29.7685
28.928
28.8549
28.8649
28.879
28.8864
28.8909
28.8931
28.8923
28.8883
28.8832
28.8761
28.8691
28.8517
28.8362
28.8085
28.7941
28.7804
28.7756
28.777
28.7979
28.842
28.9134
29.0073
29.1143
29.2308
29.3437
29.4594
29.5567
29.6611
29.7266
28.8245
28.7669
28.7789
28.7967
28.8093
28.8188
28.8258
28.8298
28.8308
28.8301
28.8262
28.8225
28.8078
28.7927
28.7631
28.7459
28.729
28.7206
28.718
28.7349
28.7763
28.8463
28.9403
29.049
29.1676
29.2839
29.4013
29.5036
29.6081
29.6838
28.713
28.6724
28.6861
28.7073
28.7246
28.7392
28.751
28.7598
28.7653
28.7683
28.7678
28.7665
28.7546
28.741
28.7111
28.6929
28.6742
28.6634
28.6583
28.6722
28.7111
28.7796
28.874
28.9847
29.1049
29.2241
29.3434
29.4502
29.5556
29.6396
28.5921
28.5693
28.5849
28.6102
28.6324
28.6518
28.668
28.6814
28.6911
28.6979
28.7007
28.7016
28.692
28.6801
28.6508
28.6331
28.6143
28.6025
28.5959
28.6077
28.6447
28.7126
28.808
28.9201
29.0416
29.1633
29.2847
29.3958
29.5027
29.5937
28.46
28.4536
28.4732
28.5041
28.5315
28.5558
28.5768
28.5946
28.6084
28.6188
28.6245
28.6278
28.6205
28.6109
28.5821
28.5655
28.5475
28.5359
28.5291
28.5397
28.5762
28.6446
28.741
28.854
28.9768
29.1008
29.2242
29.3392
29.448
29.5453
28.315
28.3238
28.3502
28.3868
28.4197
28.4498
28.4764
28.499
28.517
28.5309
28.5394
28.5448
28.5403
28.5332
28.5056
28.4903
28.4731
28.4625
28.4561
28.4672
28.5047
28.5739
28.6713
28.7853
28.9093
29.0353
29.1606
29.2792
29.3902
29.4928
28.1523
28.1726
28.2066
28.2504
28.2916
28.3297
28.3635
28.3923
28.4156
28.4336
28.4453
28.4529
28.4511
28.4462
28.42
28.406
28.39
28.3807
28.3756
28.3888
28.4282
28.4985
28.5971
28.7122
28.8371
28.9648
29.0917
29.2132
29.3261
29.4329
27.9712
28.0017
28.0459
28.0995
28.1507
28.1984
28.2404
28.2762
28.3056
28.3285
28.3439
28.3542
28.3551
28.3524
28.3277
28.3143
28.2993
28.2915
28.2885
28.3048
28.3465
28.4184
28.5182
28.6343
28.7601
28.8892
29.0173
29.1408
29.2557
29.366
27.7382
27.7807
27.8419
27.9133
27.9831
28.0477
28.1035
28.151
28.1899
28.2203
28.2409
28.255
28.2589
28.2585
28.235
28.2219
28.2066
28.1992
28.1972
28.2152
28.2583
28.3311
28.4306
28.5466
28.6724
28.8012
28.9287
29.0525
29.1674
29.2787
27.52
27.5824
27.6638
27.754
27.8425
27.9221
27.9897
28.0473
28.0937
28.1295
28.1539
28.1707
28.1767
28.1783
28.1569
28.144
28.1284
28.121
28.1185
28.1364
28.1794
28.2517
28.3506
28.4671
28.5932
28.7221
28.8496
28.9756
29.092
29.2065
27.0892
27.2016
27.3392
27.4841
27.6221
27.7396
27.8356
27.9161
27.9805
28.0299
28.0645
28.088
28.0976
28.1011
28.0813
28.0663
28.0465
28.0358
28.0291
28.0431
28.0806
28.1449
28.2345
28.3434
28.4624
28.5832
28.7021
28.8197
28.9263
29.0342
27.1108
27.258
27.4214
27.5822
27.7258
27.8397
27.9276
27.996
28.0486
28.0892
28.1183
28.1366
28.1419
28.1416
28.1183
28.1014
28.0814
28.0733
28.0719
28.0934
28.1379
28.2082
28.3033
28.419
28.5472
28.6782
28.8078
28.9379
29.0561
29.178
25.8187
26.0681
26.3719
26.6768
26.9426
27.1467
27.3022
27.4216
27.5133
27.5831
27.632
27.665
27.6791
27.6824
27.6599
27.6366
27.6027
27.5769
27.5529
27.547
27.5594
27.5936
27.6517
27.7264
27.8049
27.8808
27.9555
28.0304
28.0982
28.191
29.6507
29.5221
29.4476
29.3176
29.2116
29.1327
29.0773
29.0413
29.0212
29.0169
29.0247
29.045
29.0696
29.1043
29.1383
29.1875
29.2405
29.3097
29.3833
29.4671
29.5557
29.6504
29.7477
29.8449
29.9433
30.0333
30.1241
30.1808
30.2537
30.2452
29.6305
29.4846
29.4192
29.2998
29.2076
29.1348
29.0814
29.0463
29.0278
29.0254
29.034
29.0541
29.0782
29.1122
29.1454
29.1937
29.2457
29.3147
29.3889
29.4736
29.5633
29.6588
29.7569
29.8545
29.9531
30.0426
30.1333
30.1874
30.2616
30.2398
29.6037
29.4468
29.3829
29.2697
29.1848
29.1168
29.0677
29.0371
29.0218
29.0219
29.0314
29.0516
29.0753
29.1086
29.1404
29.1874
29.2375
29.3047
29.3763
29.4583
29.5462
29.6424
29.7423
29.8421
29.943
30.0337
30.1271
30.1777
30.2622
30.2287
29.5704
29.4073
29.3392
29.231
29.1546
29.0945
29.0521
29.0261
29.0141
29.0164
29.0269
29.047
29.07
29.1023
29.1323
29.1775
29.2248
29.2891
29.3572
29.4358
29.5203
29.6141
29.7127
29.8135
29.9174
30.0104
30.1091
30.1564
30.2514
30.2127
29.5365
29.3725
29.2987
29.1961
29.1266
29.073
29.036
29.0136
29.004
29.0077
29.0186
29.0384
29.0603
29.0909
29.1185
29.161
29.2044
29.2649
29.3285
29.4028
29.4835
29.5749
29.6725
29.7729
29.8778
29.9727
30.0753
30.1246
30.2312
30.1904
29.5032
29.3428
29.2638
29.1684
29.1038
29.0552
29.0224
29.0025
28.9941
28.9981
29.0087
29.0277
29.0479
29.0763
29.1006
29.1396
29.1781
29.2338
29.2917
29.3609
29.4378
29.527
29.6239
29.7246
29.8308
29.9273
30.0344
30.085
30.2029
30.1615
29.4685
29.3208
29.2404
29.1501
29.089
29.0433
29.0126
28.994
28.9858
28.9892
28.9985
29.0159
29.0338
29.0593
29.0798
29.1144
29.1471
29.1969
29.2482
29.312
29.3849
29.4722
29.5689
29.6703
29.7782
29.8766
29.9878
30.0405
30.1676
30.1275
29.4332
29.305
29.2307
29.1463
29.0869
29.0412
29.0086
28.9884
28.9796
28.9817
28.9892
29.0043
29.019
29.0409
29.0568
29.0864
29.1125
29.1552
29.1993
29.2574
29.3265
29.4122
29.509
29.6114
29.7214
29.8219
29.9371
29.9929
30.1266
30.09
29.392
29.2787
29.2233
29.1488
29.0912
29.0452
29.0107
28.9886
28.9763
28.976
28.9808
28.9931
29.0041
29.0219
29.0326
29.0563
29.0751
29.1098
29.1465
29.1987
29.2641
29.3485
29.4457
29.5494
29.6616
29.7645
29.8833
29.9431
30.0811
30.05
29.3447
29.2338
29.2035
29.1498
29.0968
29.0524
29.017
28.9925
28.9773
28.9725
28.9735
28.9824
28.9895
29.0029
29.0077
29.0249
29.0357
29.062
29.091
29.1373
29.1992
29.2824
29.3803
29.4857
29.6002
29.7056
29.8276
29.8924
30.0322
30.0083
29.2954
29.1836
29.1722
29.1396
29.0998
29.0591
29.0243
28.9985
28.9808
28.9724
28.9683
28.9732
28.9755
28.9842
28.9825
28.9927
28.9953
29.0131
29.0342
29.0745
29.1331
29.2154
29.3141
29.4214
29.5383
29.6462
29.7709
29.8417
29.9813
29.9657
29.2445
29.1324
29.1341
29.1172
29.0936
29.0623
29.0301
29.0045
28.9853
28.9741
28.966
28.966
28.9623
28.9657
28.9571
28.96
28.9545
28.9637
28.9772
29.0117
29.0671
29.1486
29.2483
29.3575
29.4767
29.5872
29.7141
29.7918
29.9292
29.9235
29.1927
29.081
29.0909
29.0845
29.0728
29.0542
29.0319
29.0083
28.9889
28.9761
28.9649
28.9604
28.9506
28.9477
28.9317
28.9272
28.9137
28.9148
28.921
28.9497
29.0021
29.0829
29.1837
29.295
29.4163
29.5294
29.6578
29.7424
29.8766
29.8828
29.1403
29.0285
29.0437
29.0447
29.0419
29.0339
29.0217
29.0067
28.9901
28.9769
28.9631
28.9552
28.9399
28.9304
28.9065
28.8945
28.8732
28.8671
28.8665
28.8895
28.939
29.0194
29.1212
29.2346
29.3579
29.4736
29.6025
29.6938
29.8238
29.8442
29.0852
28.9739
28.9936
29.0006
29.0046
29.0048
29.0009
28.9941
28.9837
28.9733
28.959
28.9489
28.929
28.9136
28.8822
28.8622
28.8332
28.8207
28.8144
28.832
28.8789
28.9587
29.0616
29.1769
29.3022
29.4204
29.5484
29.6465
29.7718
29.8074
29.0264
28.9171
28.9409
28.9532
28.9624
28.9685
28.9715
28.9718
28.968
28.9627
28.9509
28.9404
28.9167
28.8963
28.8582
28.8305
28.7939
28.7759
28.765
28.7777
28.8223
28.9016
29.0054
29.1228
29.2495
29.3695
29.4965
29.5998
29.7205
29.7733
28.9633
28.858
28.8849
28.902
28.9157
28.9266
28.9349
28.941
28.9433
28.9435
28.936
28.9274
28.9016
28.8774
28.8336
28.7996
28.7556
28.7328
28.718
28.7268
28.7696
28.8487
28.9536
29.072
29.1993
29.3214
29.4478
29.5548
29.6703
29.7407
28.8939
28.7961
28.8258
28.8469
28.8647
28.88
28.8927
28.9036
28.9109
28.9159
28.9133
28.9079
28.8819
28.8556
28.8073
28.7683
28.7185
28.6918
28.6739
28.6795
28.7208
28.7996
28.9046
29.0236
29.1511
29.2761
29.4026
29.5133
29.6255
29.7078
28.8172
28.7305
28.7632
28.7881
28.8096
28.8291
28.8459
28.8609
28.8725
28.8815
28.8832
28.8813
28.8564
28.8291
28.7782
28.736
28.6821
28.6525
28.6321
28.6354
28.6759
28.7545
28.8585
28.9778
29.1058
29.234
29.361
29.475
29.5848
29.676
28.7322
28.6607
28.6966
28.7255
28.7506
28.7741
28.7948
28.8138
28.8292
28.8418
28.8469
28.8481
28.8248
28.7973
28.7453
28.7014
28.6451
28.6143
28.5927
28.5951
28.6359
28.7133
28.816
28.9352
29.0645
29.1949
29.3225
29.4392
29.5473
29.6447
28.638
28.5859
28.6252
28.6585
28.6879
28.7156
28.7404
28.7633
28.7822
28.7979
28.8058
28.8096
28.7878
28.7615
28.7083
28.6638
28.6073
28.5769
28.5556
28.5588
28.5993
28.6746
28.7764
28.8956
29.0263
29.1582
29.2865
29.4053
29.5124
29.6141
28.5334
28.5048
28.5478
28.5861
28.6204
28.6531
28.6826
28.7101
28.7326
28.7512
28.7614
28.767
28.7468
28.7229
28.6696
28.6258
28.5687
28.5387
28.5186
28.5238
28.5641
28.638
28.7394
28.8589
28.9905
29.1234
29.2522
29.3727
29.4793
29.5844
28.4186
28.4146
28.4631
28.5073
28.5476
28.5868
28.6225
28.6548
28.6815
28.7032
28.7154
28.7223
28.703
28.6803
28.6293
28.5879
28.5303
28.5007
28.4818
28.489
28.5306
28.6044
28.7049
28.8246
28.9565
29.0902
29.2193
29.341
29.4473
29.5548
28.2947
28.3128
28.3684
28.4205
28.4693
28.5161
28.5598
28.5992
28.6306
28.6556
28.6699
28.6779
28.6594
28.6361
28.5853
28.5455
28.4905
28.4632
28.446
28.4557
28.4992
28.5731
28.673
28.7934
28.9254
29.0588
29.1876
29.3095
29.4152
29.5241
28.1599
28.2019
28.2669
28.3283
28.3878
28.4447
28.4978
28.5454
28.5826
28.6116
28.6273
28.636
28.6181
28.5949
28.5425
28.502
28.4486
28.4237
28.4094
28.4238
28.4698
28.5443
28.6439
28.7657
28.8978
29.0312
29.1594
29.2808
29.3854
29.4943
28.0071
28.0758
28.1527
28.2271
28.3001
28.3713
28.4375
28.4948
28.5377
28.5713
28.5888
28.5979
28.5806
28.5586
28.5066
28.4664
28.4118
28.3874
28.376
28.3957
28.4444
28.5197
28.6205
28.7424
28.8735
29.0059
29.1324
29.252
29.3544
29.4625
27.8657
27.9653
28.0538
28.1415
28.2295
28.3157
28.3951
28.4621
28.5094
28.5461
28.5644
28.5734
28.5576
28.5373
28.4859
28.4452
28.3887
28.3639
28.3548
28.3781
28.4296
28.5096
28.6145
28.7387
28.8708
29.003
29.1287
29.2468
29.3467
29.4516
27.7121
27.8397
27.946
28.0579
28.1737
28.2844
28.3809
28.4615
28.5242
28.566
28.5863
28.5965
28.583
28.5651
28.5161
28.4758
28.4151
28.387
28.3741
28.3945
28.4406
28.5164
28.6193
28.742
28.8723
29.0011
29.1182
29.2274
29.3195
29.4205
27.787
27.9297
28.0514
28.1862
28.3254
28.4544
28.5632
28.6515
28.7192
28.7655
28.7903
28.8029
28.7905
28.774
28.7269
28.6858
28.6173
28.5829
28.5615
28.575
28.6126
28.6798
28.7718
28.884
29.0066
29.1304
29.2471
29.3557
29.4456
29.5404
28.494
28.6167
28.7085
28.828
28.9551
29.0709
29.1645
29.2333
29.2792
29.3065
29.3141
29.3109
29.2858
29.2605
29.2093
29.1675
29.0994
29.0674
29.0503
29.0706
29.1166
29.1928
29.293
29.4143
29.5475
29.6814
29.8057
29.9212
30.0198
30.1284
29.7031
29.4998
29.4267
29.2695
29.1472
29.0616
29.0079
28.979
28.9659
28.9677
28.982
29.0097
29.0362
29.0733
29.0968
29.1325
29.1526
29.1847
29.2107
29.2514
29.3074
29.3887
29.4912
29.6101
29.7428
29.874
30.0105
30.106
30.2144
30.2098
29.6818
29.4502
29.3904
29.2457
29.1408
29.0636
29.0123
28.9849
28.9743
28.9777
28.9924
29.0201
29.0461
29.083
29.1061
29.1424
29.1631
29.1969
29.2242
29.2653
29.3204
29.4022
29.5049
29.6239
29.7565
29.8867
30.0228
30.1147
30.2243
30.2119
29.6503
29.4118
29.3598
29.2245
29.1296
29.0587
29.0121
28.9858
28.9761
28.9813
28.9965
29.0239
29.049
29.0852
29.1071
29.143
29.1629
29.1956
29.2197
29.2579
29.3113
29.3942
29.4988
29.6194
29.7528
29.882
30.0195
30.107
30.226
30.2038
29.603
29.3703
29.3187
29.193
29.1094
29.0466
29.0063
28.9841
28.9763
28.9833
28.998
29.025
29.0489
29.085
29.1058
29.1411
29.1585
29.1891
29.2093
29.243
29.2914
29.37
29.4747
29.5976
29.7325
29.8613
30.001
30.0859
30.2153
30.1854
29.5453
29.3282
29.2752
29.1606
29.0872
29.0322
28.9973
28.9792
28.9743
28.9821
28.9964
29.0232
29.0463
29.0815
29.0997
29.1333
29.1466
29.1733
29.1878
29.2162
29.2598
29.3343
29.4357
29.5561
29.6941
29.824
29.9679
30.051
30.1904
30.1579
29.4824
29.2865
29.2328
29.1298
29.0658
29.0182
28.9888
28.9744
28.9716
28.9802
28.9939
29.0203
29.0414
29.0752
29.0901
29.1211
29.1288
29.1498
29.1578
29.1802
29.2188
29.2901
29.389
29.5074
29.6442
29.7766
29.9231
30.0072
30.156
30.123
29.4185
29.2464
29.1931
29.1025
29.047
29.0063
28.9817
28.9704
28.9691
28.978
28.9908
29.0162
29.0349
29.0667
29.0776
29.1051
29.106
29.1199
29.1209
29.1371
29.1707
29.2393
29.3366
29.4538
29.5897
29.7225
29.871
29.9584
30.1145
30.0835
29.3549
29.2063
29.1571
29.0801
29.032
28.9971
28.9762
28.9673
28.967
28.976
28.9877
29.0116
29.0274
29.0568
29.0628
29.086
29.0792
29.0849
29.0785
29.0885
29.1173
29.1837
29.2802
29.3969
29.5324
29.6645
29.8153
29.907
30.0676
30.0414
29.2926
29.1657
29.125
29.0625
29.0212
28.9911
28.9729
28.9654
28.9655
28.9741
28.9846
29.0069
29.0192
29.0459
29.0462
29.0643
29.0487
29.046
29.0321
29.0361
29.0602
29.125
29.2214
29.3383
29.4737
29.6051
29.7576
29.8543
30.0166
29.9978
29.2347
29.1212
29.0946
29.0458
29.0126
28.9872
28.9715
28.9646
28.9645
28.9725
28.9815
29.002
29.0108
29.0346
29.0282
29.0406
29.0154
29.0043
28.983
28.9812
29.0009
29.0646
29.1615
29.2793
29.415
29.5456
29.6986
29.8013
29.9629
29.9537
29.1806
29.0769
29.0634
29.0267
29.0025
28.9831
28.9699
28.9641
28.9639
28.9713
28.9786
28.9971
29.0022
29.0229
29.0093
29.0156
28.98
28.9605
28.9321
28.9252
28.9407
29.0038
29.1019
29.2209
29.3571
29.4876
29.6402
29.7486
29.9079
29.9103
29.1303
29.0336
29.0315
29.0063
28.9909
28.9771
28.9672
28.9631
28.9632
28.9701
28.9759
28.9923
28.9933
29.0109
28.9898
28.9896
28.9434
28.9157
28.8805
28.869
28.8808
28.9438
29.0435
29.1644
29.3012
29.433
29.583
29.6973
29.8522
29.8691
29.0831
28.9907
28.9977
28.9829
28.9761
28.9685
28.9629
28.9611
28.962
28.9685
28.973
28.9876
28.9841
28.9984
28.9698
28.9632
28.9062
28.8708
28.8292
28.8135
28.8221
28.8855
28.9873
29.1106
29.2477
29.3822
29.5292
29.6483
29.7966
29.8303
29.0368
28.9463
28.9612
28.9562
28.9569
28.9556
28.9551
28.9565
28.9589
28.9659
28.9694
28.9823
28.9745
28.9855
28.9494
28.9366
28.8691
28.8262
28.7787
28.7594
28.7654
28.8297
28.9341
29.0601
29.1976
29.3356
29.48
29.6001
29.7413
29.7942
28.9897
28.8997
28.9226
28.9264
28.9335
28.9382
28.9425
28.9476
28.9525
28.961
28.9645
28.976
28.9641
28.9723
28.9284
28.9101
28.8327
28.7824
28.7297
28.7072
28.7114
28.777
28.8844
29.0122
29.1526
29.2928
29.4337
29.5546
29.6879
29.7615
28.9413
28.8517
28.8818
28.8925
28.9056
28.916
28.9252
28.9343
28.9419
28.9527
28.9569
28.9681
28.9525
28.9583
28.9069
28.8838
28.7968
28.7402
28.6826
28.6577
28.6605
28.7277
28.838
28.9675
29.1109
29.2518
29.3913
29.5141
29.6414
29.7298
28.8896
28.8013
28.8374
28.8546
28.8731
28.8889
28.9031
28.9165
28.9272
28.9405
28.946
28.9576
28.9389
28.9429
28.885
28.8577
28.7619
28.7003
28.6378
28.611
28.613
28.682
28.7939
28.9254
29.0706
29.2135
29.3532
29.478
29.6005
29.6997
28.8314
28.7479
28.7896
28.8128
28.8365
28.8575
28.8765
28.8945
28.9086
28.9244
28.9315
28.9438
28.923
28.9257
28.8621
28.8321
28.7294
28.663
28.5955
28.5671
28.5687
28.639
28.7515
28.8851
29.033
29.1786
29.3188
29.4456
29.5643
29.6711
28.7653
28.6914
28.7383
28.7674
28.7963
28.8225
28.8463
28.8687
28.8867
28.9052
28.9138
28.9269
28.9043
28.9065
28.8379
28.8071
28.6989
28.6285
28.5559
28.5259
28.5272
28.598
28.7113
28.8478
28.9981
29.1466
29.2876
29.4163
29.532
29.6437
28.69
28.6314
28.6833
28.7186
28.7529
28.7846
28.8133
28.8404
28.8623
28.8837
28.8938
28.9079
28.8835
28.8859
28.8131
28.7828
28.6698
28.596
28.5185
28.4873
28.4881
28.5583
28.6727
28.8124
28.9653
29.1165
29.2588
29.3893
29.5028
29.6179
28.6051
28.5676
28.6245
28.6667
28.707
28.7446
28.7786
28.8106
28.8365
28.8611
28.8727
28.8879
28.8625
28.8651
28.7888
28.7601
28.6427
28.5662
28.4836
28.4504
28.4498
28.5205
28.6355
28.7782
28.9338
29.0876
29.2316
29.3638
29.4759
29.5936
28.5108
28.4996
28.562
28.6117
28.6589
28.7031
28.7431
28.7807
28.8109
28.839
28.8523
28.8684
28.8424
28.8454
28.7663
28.7401
28.6189
28.5396
28.4511
28.4146
28.4144
28.4864
28.6004
28.7451
28.9026
29.0588
29.2048
29.3392
29.4506
29.5704
28.4096
28.4247
28.4955
28.554
28.6094
28.6616
28.7085
28.7521
28.7869
28.819
28.8338
28.8509
28.8246
28.8277
28.7466
28.724
28.5995
28.5167
28.4221
28.3836
28.3863
28.4566
28.5687
28.714
28.8721
29.03
29.1773
29.3139
29.4259
29.5474
28.3008
28.3432
28.4254
28.4949
28.5603
28.6214
28.6759
28.7265
28.7665
28.8027
28.8185
28.8362
28.8094
28.8134
28.7308
28.7128
28.5847
28.5001
28.4013
28.3619
28.3659
28.4322
28.5423
28.6863
28.8441
29.0025
29.1503
29.2877
29.4004
29.5241
28.1846
28.2595
28.3555
28.4377
28.5145
28.5856
28.6484
28.7069
28.7518
28.7914
28.8075
28.8255
28.798
28.8037
28.7195
28.7063
28.5753
28.4906
28.3881
28.3468
28.3509
28.4147
28.5234
28.6651
28.8219
28.9796
29.1274
29.2649
29.3775
29.5015
28.0641
28.1798
28.2894
28.3849
28.4747
28.5578
28.6297
28.695
28.7442
28.787
28.8042
28.823
28.7953
28.8048
28.719
28.711
28.5755
28.4898
28.383
28.339
28.3405
28.4019
28.5095
28.6502
28.8065
28.9646
29.1126
29.2493
29.3614
29.483
27.9579
28.1136
28.236
28.3473
28.4501
28.5429
28.6219
28.6943
28.7533
28.8003
28.8186
28.8393
28.8124
28.8269
28.7415
28.7422
28.6035
28.5171
28.4039
28.3552
28.355
28.4127
28.5156
28.6527
28.8082
28.9661
29.114
29.2503
29.3618
29.4788
27.885
28.0663
28.198
28.3221
28.4367
28.5418
28.6399
28.7228
28.7872
28.8377
28.857
28.8807
28.8571
28.8784
28.7946
28.808
28.6665
28.58
28.4597
28.4048
28.3992
28.4469
28.5382
28.6703
28.8224
28.9807
29.1292
29.2651
29.3749
29.4893
27.8835
28.0874
28.233
28.3673
28.4899
28.6023
28.7037
28.7895
28.856
28.9075
28.928
28.9549
28.9365
28.969
28.892
28.9279
28.7909
28.7111
28.584
28.5215
28.505
28.544
28.6237
28.7425
28.8838
29.0315
29.1717
29.3045
29.4152
29.5323
27.9921
28.1753
28.3177
28.4563
28.5826
28.6966
28.7957
28.8782
28.9412
28.9913
29.0144
29.0465
29.0344
29.0807
29.016
29.0832
28.9579
28.8928
28.7693
28.7063
28.6831
28.715
28.7845
28.8918
29.0258
29.1731
29.3204
29.4624
29.5834
29.7038
29.6818
29.4142
29.3454
29.1527
29.0083
28.9132
28.8632
28.8478
28.8469
28.8701
28.9017
28.9461
28.9784
29.0173
29.0184
29.0255
28.9868
28.959
28.9151
28.9032
28.9284
29.0136
29.1404
29.2947
29.4689
29.6465
29.8358
29.9802
30.1369
30.1489
29.6468
29.327
29.2835
29.1082
28.9879
28.9087
28.8654
28.8532
28.8558
28.8807
28.9127
28.9565
28.9878
29.0261
29.0266
29.0347
28.9983
28.975
28.9346
28.9221
28.9428
29.0269
29.1537
29.3078
29.4817
29.6589
29.8487
29.991
30.1493
30.1565
29.5956
29.265
29.232
29.0756
28.9716
28.9026
28.8658
28.8561
28.8622
28.8887
28.9207
28.9637
28.9933
29.03
29.0281
29.0348
28.9966
28.9722
28.9302
28.9142
28.9301
29.0175
29.1477
29.3036
29.4786
29.6544
29.8452
29.9844
30.1512
30.149
29.5231
29.2046
29.1759
29.0344
28.9475
28.8904
28.8624
28.8578
28.8678
28.8959
28.9279
28.9702
28.9979
29.0328
29.0276
29.0322
28.989
28.9613
28.9161
28.8956
28.9059
28.9882
29.1211
29.28
29.4555
29.6301
29.8217
29.9608
30.1377
30.1289
29.4363
29.1471
29.1199
28.994
28.9221
28.8768
28.8578
28.8587
28.8719
28.9014
28.9329
28.9749
28.9997
29.0326
29.0227
29.0233
28.9719
28.9383
28.8877
28.8626
28.8687
28.9474
29.0766
29.2376
29.4146
29.589
29.7818
29.9216
30.1077
30.0985
29.3444
29.0914
29.0651
28.9551
28.8987
28.8648
28.8541
28.8589
28.8748
28.9056
28.9365
28.9782
28.9994
29.0306
29.0144
29.0091
28.9472
28.9053
28.848
28.8189
28.8216
28.8984
29.0255
29.1843
29.3627
29.5369
29.7312
29.8719
30.0641
30.059
29.2526
29.0375
29.0135
28.9202
28.8787
28.8552
28.8515
28.8595
28.8776
28.9094
28.9394
28.9805
28.9984
29.027
29.0034
28.9907
28.9159
28.8635
28.7994
28.7665
28.7669
28.8434
28.9699
29.1268
29.3047
29.4789
29.6735
29.8166
30.011
30.0139
29.1637
28.9872
28.9673
28.8913
28.8628
28.8484
28.8502
28.8609
28.8809
28.9134
28.9423
28.9825
28.9969
29.0224
28.9901
28.9687
28.8789
28.815
28.7436
28.7072
28.7067
28.7845
28.9118
29.0677
29.2443
29.4186
29.6117
29.7577
29.9519
29.9671
29.0813
28.9403
28.9275
28.8685
28.8511
28.8443
28.8497
28.8633
28.885
28.918
28.9455
28.9847
28.9952
29.0169
28.9749
28.9436
28.8371
28.7611
28.6814
28.6433
28.6432
28.7234
28.8528
29.0087
29.1841
29.3583
29.5484
29.6973
29.8889
29.9196
29.0071
28.8976
28.8931
28.8507
28.8428
28.8424
28.8509
28.8675
28.8902
28.9233
28.949
28.9872
28.9931
29.0108
28.9582
28.9161
28.7915
28.7028
28.6153
28.5768
28.5778
28.662
28.7946
28.9511
29.1263
29.2999
29.4859
29.6386
29.8242
29.8734
28.9436
28.8593
28.8626
28.836
28.8367
28.8415
28.854
28.8734
28.8967
28.9296
28.9531
28.99
28.9907
29.0044
28.9404
28.8866
28.743
28.6416
28.548
28.5089
28.5124
28.6018
28.7385
28.8966
29.073
29.2462
29.4286
29.583
29.7593
29.8294
28.8891
28.8225
28.8344
28.823
28.8309
28.8404
28.8575
28.88
28.9041
28.9366
28.958
28.9929
28.9882
28.9976
28.9215
28.8555
28.6924
28.5791
28.4801
28.4409
28.4483
28.544
28.6855
28.8472
29.0255
29.1997
29.378
29.5303
29.6969
29.789
28.8399
28.7882
28.8075
28.8095
28.8241
28.8385
28.8601
28.8863
28.9116
28.9437
28.9633
28.9958
28.9854
28.9905
28.9018
28.8231
28.6405
28.5163
28.4121
28.3742
28.3869
28.4899
28.6355
28.8032
28.9848
29.1603
29.3321
29.4826
29.6412
29.7517
28.7964
28.756
28.7822
28.7942
28.8152
28.8349
28.8599
28.8906
28.9182
28.9507
28.9686
28.9987
28.9822
28.9831
28.8814
28.7899
28.5882
28.4546
28.3456
28.3099
28.3289
28.4397
28.5889
28.7659
28.951
29.1249
29.2915
29.442
29.5936
29.7165
28.7562
28.7228
28.757
28.777
28.8041
28.8292
28.8579
28.8917
28.9224
28.9567
28.9733
29.0013
28.9788
28.9749
28.8603
28.7562
28.5365
28.3951
28.2819
28.249
28.2754
28.3935
28.5508
28.7346
28.9199
29.093
29.2576
29.408
29.553
29.6841
28.7166
28.6871
28.7299
28.7571
28.7903
28.8211
28.8538
28.8905
28.9235
28.9607
28.9764
29.0032
28.9747
28.9659
28.8385
28.7226
28.486
28.3385
28.2218
28.1926
28.227
28.3519
28.5173
28.7042
28.891
29.0667
29.2302
29.3801
29.519
29.6545
28.6745
28.6492
28.7005
28.7348
28.7738
28.8106
28.8476
28.8874
28.9224
28.9614
28.9768
29.004
28.9696
28.9562
28.8159
28.6895
28.4378
28.286
28.1667
28.1417
28.1831
28.312
28.4834
28.6755
28.8668
29.0453
29.2084
29.3578
29.4912
29.6287
28.6285
28.6101
28.6692
28.71
28.7551
28.798
28.8396
28.8827
28.9197
28.9606
28.9761
29.004
28.9638
28.9459
28.7927
28.658
28.3928
28.2392
28.1184
28.0954
28.141
28.2722
28.4517
28.6503
28.8463
29.028
29.1915
29.3404
29.4691
29.607
28.5779
28.5684
28.6354
28.683
28.7347
28.7837
28.83
28.8769
28.9161
28.959
28.9748
29.0029
28.9576
28.9357
28.7703
28.6288
28.3531
28.1999
28.0745
28.0506
28.1008
28.2385
28.4225
28.6273
28.8284
29.014
29.1786
29.3274
29.4522
29.5893
28.5211
28.5236
28.5988
28.6541
28.713
28.768
28.8193
28.8702
28.9121
28.957
28.9732
29.0019
28.9518
28.927
28.7499
28.6046
28.3199
28.1663
28.0326
28.0097
28.0664
28.2075
28.3941
28.6051
28.8118
29.0016
29.1685
29.3179
29.4396
29.5753
28.4585
28.4749
28.559
28.6238
28.6902
28.7514
28.8078
28.863
28.9082
28.9553
28.9722
29.0023
28.9477
28.9208
28.7331
28.5866
28.292
28.1384
27.9981
27.9782
28.0345
28.1709
28.3651
28.5829
28.7952
28.9893
29.1593
29.3109
29.4305
29.5648
28.3888
28.4228
28.5173
28.5924
28.6665
28.7344
28.7961
28.8559
28.9046
28.9543
28.9724
29.004
28.9478
28.9208
28.7206
28.574
28.2714
28.1212
27.976
27.9547
28.0024
28.1363
28.3371
28.5606
28.7781
28.9767
29.1495
29.3037
29.4238
29.5566
28.31
28.3673
28.4742
28.5608
28.6426
28.7174
28.7848
28.8495
28.9018
28.9542
28.9757
29.008
28.9499
28.9232
28.7121
28.5682
28.2592
28.111
27.9604
27.9329
27.9751
28.1133
28.3124
28.539
28.7606
28.9635
29.1395
29.2955
29.4171
29.55
28.2227
28.3118
28.4308
28.5289
28.6192
28.7012
28.7745
28.8442
28.9002
28.9569
28.9812
29.0142
28.9542
28.9283
28.7087
28.5728
28.2543
28.1065
27.9497
27.9197
27.9638
28.1014
28.2944
28.519
28.7442
28.951
29.1303
29.2887
29.4123
29.545
28.1305
28.2579
28.3883
28.4982
28.5974
28.6868
28.766
28.8406
28.9001
28.9633
28.9892
29.0235
28.9624
28.9399
28.7138
28.5912
28.2605
28.1157
27.948
27.9226
27.9693
28.1039
28.2899
28.5078
28.7313
28.942
29.1247
29.2858
29.412
29.5425
28.0393
28.2068
28.3486
28.4703
28.5782
28.6749
28.7599
28.8392
28.9054
28.9747
29.0015
29.0388
28.9777
28.9626
28.7309
28.6186
28.2748
28.137
27.9622
27.9356
27.9786
28.1104
28.2938
28.5098
28.7296
28.9398
29.1259
29.2883
29.416
29.5445
27.96
28.1621
28.3142
28.4472
28.564
28.6678
28.7583
28.8468
28.9217
28.994
29.0232
29.065
29.0026
28.9973
28.7592
28.6628
28.3111
28.1832
27.9988
27.9679
28.0012
28.1279
28.3068
28.5182
28.7358
28.9454
29.1322
29.2968
29.4263
29.553
27.9055
28.1279
28.2882
28.4318
28.5575
28.6682
28.7712
28.8694
28.9485
29.0233
29.0546
29.1026
29.0394
29.0474
28.8036
28.7412
28.384
28.2672
28.0751
28.0417
28.0665
28.1765
28.3396
28.5429
28.754
28.9585
29.1444
29.3105
29.4444
29.572
27.8787
28.1092
28.2756
28.4267
28.561
28.6857
28.7968
28.8976
28.9783
29.0538
29.0864
29.1395
29.0787
29.1035
28.8609
28.8465
28.4868
28.3847
28.1872
28.1498
28.1634
28.2558
28.4007
28.5889
28.793
28.9949
29.1776
29.341
29.4748
29.6063
27.9093
28.1173
28.2827
28.4387
28.5789
28.7079
28.8206
28.9216
29.0025
29.0784
29.1128
29.1696
29.1148
29.1588
28.927
28.9727
28.6209
28.5382
28.3403
28.3002
28.3022
28.3784
28.5017
28.67
28.8572
29.0487
29.2293
29.3966
29.5403
29.6782
29.7701
29.4357
29.3621
29.1341
28.959
28.8448
28.7869
28.7759
28.7861
28.8261
28.8743
28.9451
28.9978
29.0738
29.0878
29.1133
29.0306
28.932
28.7813
28.6963
28.6844
28.7608
28.8949
29.0584
29.241
29.432
29.6483
29.8303
30.0432
30.0786
29.7205
29.3135
29.2788
29.0714
28.9275
28.8341
28.788
28.7819
28.7967
28.8392
28.888
28.9584
29.0101
29.0859
29.0989
29.1273
29.0488
28.958
28.8097
28.7192
28.695
28.7667
28.8999
29.064
29.2484
29.4416
29.6607
29.8428
30.0589
30.0906
29.6499
29.2233
29.2092
29.0245
28.9035
28.8246
28.7882
28.7872
28.8062
28.8506
28.8995
28.9696
29.0195
29.0956
29.1061
29.1368
29.0562
28.9611
28.8063
28.7145
28.685
28.7524
28.8881
29.0553
29.243
29.4374
29.6579
29.8358
30.0588
30.0845
29.5526
29.1397
29.1354
28.9676
28.8687
28.8075
28.7837
28.7912
28.8145
28.861
28.9099
28.9802
29.0279
29.1049
29.1117
29.1444
29.0555
28.9548
28.7932
28.6977
28.6605
28.7189
28.853
29.0249
29.2146