/*--------------------------------*- C++ -*----------------------------------*\
  =========                 |
  \\      /  F ield         | OpenFOAM: The Open Source CFD Toolbox
   \\    /   O peration     | Website:  https://openfoam.org
    \\  /    A nd           | Version:  12
     \\/     M anipulation  |
\*---------------------------------------------------------------------------*/
FoamFile
{
    format      ascii;
    class       volScalarField;
    location    "1400/air";
    object      T;
}
// * * * * * * * * * * * * * * * * * * * * * * * * * * * * * * * * * * * * * //

dimensions      [0 0 0 1 0 0 0];

internalField   nonuniform List<scalar> 
243000
(
300.521
300.502
300.49
300.479
300.471
300.462
300.455
300.448
300.441
300.435
300.428
300.422
300.415
300.409
300.402
300.395
300.388
300.38
300.37
300.359
300.344
300.327
300.309
300.291
300.273
300.257
300.244
300.231
300.221
300.209
300.553
300.521
300.501
300.486
300.474
300.464
300.455
300.447
300.44
300.432
300.426
300.419
300.412
300.405
300.399
300.391
300.384
300.375
300.366
300.354
300.34
300.324
300.307
300.289
300.272
300.256
300.242
300.23
300.22
300.211
300.614
300.552
300.519
300.497
300.481
300.468
300.458
300.448
300.44
300.432
300.425
300.417
300.41
300.403
300.396
300.389
300.381
300.372
300.362
300.35
300.337
300.322
300.305
300.288
300.272
300.256
300.242
300.23
300.219
300.21
300.716
300.604
300.548
300.515
300.492
300.476
300.463
300.452
300.442
300.433
300.425
300.417
300.409
300.402
300.394
300.386
300.378
300.369
300.359
300.348
300.335
300.32
300.304
300.288
300.272
300.257
300.243
300.23
300.219
300.21
300.86
300.686
300.595
300.544
300.511
300.488
300.471
300.457
300.446
300.436
300.427
300.418
300.41
300.402
300.394
300.385
300.377
300.367
300.357
300.345
300.333
300.318
300.303
300.288
300.272
300.257
300.243
300.231
300.219
300.21
301.033
300.809
300.67
300.589
300.539
300.507
300.484
300.466
300.452
300.44
300.43
300.42
300.411
300.402
300.394
300.385
300.376
300.366
300.355
300.344
300.331
300.317
300.303
300.288
300.273
300.258
300.245
300.232
300.22
300.211
301.193
300.961
300.777
300.658
300.583
300.535
300.503
300.479
300.461
300.447
300.434
300.424
300.414
300.404
300.395
300.385
300.376
300.365
300.354
300.342
300.33
300.316
300.302
300.288
300.273
300.259
300.246
300.233
300.222
300.212
301.321
301.127
300.918
300.759
300.65
300.579
300.531
300.498
300.475
300.456
300.441
300.429
300.417
300.407
300.397
300.387
300.376
300.365
300.354
300.342
300.329
300.316
300.302
300.288
300.274
300.261
300.248
300.235
300.223
300.213
301.41
301.279
301.085
300.896
300.75
300.647
300.577
300.529
300.495
300.47
300.451
300.436
300.423
300.411
300.4
300.389
300.378
300.366
300.354
300.342
300.329
300.316
300.302
300.289
300.275
300.262
300.249
300.237
300.225
300.215
301.462
301.392
301.25
301.066
300.89
300.75
300.648
300.577
300.528
300.492
300.466
300.446
300.43
300.416
300.404
300.392
300.38
300.368
300.355
300.342
300.329
300.316
300.303
300.29
300.276
300.264
300.251
300.239
300.228
300.217
301.491
301.46
301.379
301.239
301.063
300.895
300.757
300.654
300.58
300.528
300.49
300.462
300.441
300.424
300.41
300.396
300.384
300.37
300.357
300.344
300.33
300.317
300.304
300.291
300.278
300.265
300.253
300.241
300.23
300.22
301.514
301.495
301.457
301.374
301.238
301.071
300.907
300.769
300.663
300.585
300.528
300.487
300.458
300.436
300.418
300.402
300.388
300.374
300.36
300.346
300.332
300.318
300.305
300.292
300.28
300.267
300.255
300.244
300.233
300.222
301.534
301.52
301.5
301.458
301.374
301.244
301.083
300.923
300.783
300.672
300.589
300.528
300.485
300.453
300.43
300.411
300.394
300.379
300.364
300.349
300.334
300.32
300.307
300.294
300.281
300.269
300.258
300.246
300.235
300.225
301.554
301.54
301.525
301.502
301.458
301.376
301.25
301.096
300.938
300.795
300.68
300.592
300.528
300.482
300.448
300.423
300.403
300.385
300.369
300.353
300.338
300.323
300.309
300.296
300.284
300.272
300.26
300.249
300.238
300.228
301.573
301.559
301.545
301.529
301.503
301.457
301.375
301.254
301.104
300.947
300.803
300.684
300.592
300.525
300.477
300.442
300.416
300.394
300.375
300.358
300.342
300.327
300.312
300.299
300.286
300.275
300.263
300.252
300.241
300.231
301.591
301.576
301.562
301.547
301.529
301.501
301.452
301.371
301.252
301.105
300.949
300.804
300.683
300.589
300.52
300.47
300.434
300.407
300.384
300.365
300.347
300.331
300.316
300.303
300.29
300.278
300.266
300.255
300.244
300.234
301.607
301.592
301.577
301.562
301.546
301.525
301.494
301.443
301.36
301.242
301.096
300.941
300.797
300.677
300.582
300.513
300.462
300.425
300.397
300.374
300.354
300.337
300.321
300.307
300.293
300.281
300.27
300.258
300.248
300.238
301.622
301.606
301.59
301.574
301.558
301.54
301.518
301.484
301.429
301.343
301.223
301.078
300.926
300.784
300.665
300.572
300.503
300.453
300.415
300.387
300.364
300.344
300.327
300.312
300.298
300.285
300.273
300.262
300.251
300.241
301.634
301.617
301.601
301.585
301.568
301.551
301.531
301.505
301.468
301.408
301.318
301.197
301.053
300.903
300.765
300.649
300.559
300.491
300.442
300.405
300.377
300.354
300.335
300.318
300.303
300.29
300.278
300.266
300.255
300.245
301.642
301.625
301.609
301.592
301.575
301.558
301.539
301.517
301.489
301.447
301.382
301.287
301.163
301.021
300.875
300.742
300.631
300.544
300.479
300.431
300.395
300.367
300.344
300.326
300.31
300.295
300.283
300.271
300.26
300.249
301.646
301.629
301.613
301.597
301.58
301.562
301.543
301.523
301.499
301.467
301.42
301.35
301.25
301.125
300.984
300.843
300.717
300.611
300.529
300.466
300.42
300.385
300.358
300.336
300.318
300.303
300.289
300.276
300.265
300.254
301.646
301.63
301.615
301.598
301.582
301.564
301.545
301.526
301.504
301.477
301.442
301.389
301.313
301.209
301.083
300.945
300.811
300.691
300.592
300.514
300.455
300.411
300.377
300.351
300.329
300.312
300.296
300.283
300.27
300.259
301.639
301.624
301.609
301.593
301.577
301.559
301.541
301.522
301.502
301.479
301.45
301.411
301.353
301.271
301.165
301.039
300.907
300.78
300.667
300.574
300.501
300.445
300.403
300.37
300.344
300.324
300.306
300.291
300.278
300.266
301.626
301.612
301.597
301.582
301.567
301.55
301.533
301.515
301.496
301.475
301.451
301.42
301.376
301.313
301.227
301.119
300.997
300.87
300.751
300.646
300.559
300.491
300.438
300.397
300.365
300.34
300.319
300.302
300.287
300.273
301.606
301.593
301.581
301.568
301.554
301.539
301.523
301.506
301.488
301.469
301.448
301.422
301.388
301.34
301.272
301.183
301.075
300.957
300.838
300.726
300.628
300.548
300.483
300.432
300.393
300.361
300.336
300.316
300.298
300.283
301.577
301.568
301.559
301.549
301.538
301.525
301.512
301.497
301.481
301.463
301.444
301.421
301.393
301.354
301.301
301.229
301.139
301.034
300.921
300.809
300.706
300.615
300.54
300.478
300.429
300.39
300.359
300.334
300.313
300.295
301.537
301.532
301.527
301.521
301.514
301.505
301.493
301.48
301.465
301.448
301.43
301.409
301.385
301.353
301.311
301.254
301.181
301.093
300.993
300.888
300.785
300.689
300.605
300.534
300.475
300.428
300.389
300.358
300.332
300.311
301.474
301.474
301.473
301.471
301.466
301.459
301.449
301.435
301.419
301.401
301.381
301.36
301.337
301.31
301.276
301.232
301.177
301.108
301.027
300.937
300.843
300.752
300.666
300.59
300.525
300.469
300.423
300.385
300.354
300.328
301.325
301.324
301.323
301.32
301.313
301.301
301.285
301.264
301.241
301.216
301.191
301.166
301.142
301.117
301.091
301.06
301.024
300.979
300.925
300.862
300.794
300.722
300.652
300.585
300.525
300.472
300.427
300.388
300.356
300.329
300.656
300.652
300.658
300.662
300.658
300.648
300.634
300.618
300.601
300.583
300.565
300.55
300.536
300.522
300.509
300.495
300.481
300.463
300.442
300.417
300.389
300.36
300.331
300.303
300.277
300.253
300.232
300.214
300.198
300.185
300.512
300.492
300.479
300.469
300.461
300.453
300.445
300.438
300.432
300.425
300.418
300.412
300.405
300.398
300.391
300.383
300.375
300.364
300.351
300.333
300.312
300.289
300.266
300.245
300.226
300.211
300.198
300.188
300.178
300.167
300.537
300.507
300.488
300.474
300.463
300.453
300.444
300.436
300.429
300.422
300.415
300.408
300.401
300.393
300.386
300.378
300.368
300.358
300.345
300.328
300.309
300.287
300.266
300.246
300.228
300.212
300.199
300.189
300.179
300.168
300.564
300.527
300.503
300.485
300.47
300.458
300.448
300.438
300.43
300.421
300.414
300.406
300.398
300.39
300.382
300.373
300.364
300.352
300.339
300.323
300.305
300.285
300.265
300.246
300.229
300.214
300.201
300.19
300.18
300.17
300.598
300.556
300.526
300.503
300.484
300.469
300.456
300.444
300.434
300.424
300.415
300.406
300.398
300.389
300.38
300.37
300.36
300.348
300.335
300.319
300.302
300.284
300.265
300.247
300.231
300.216
300.203
300.191
300.181
300.172
300.641
300.596
300.56
300.53
300.506
300.487
300.47
300.455
300.442
300.431
300.42
300.41
300.4
300.39
300.38
300.369
300.358
300.345
300.331
300.316
300.3
300.282
300.265
300.248
300.232
300.218
300.205
300.193
300.183
300.173
300.7
300.654
300.61
300.572
300.54
300.514
300.491
300.472
300.456
300.441
300.428
300.416
300.405
300.393
300.382
300.37
300.357
300.343
300.329
300.314
300.298
300.281
300.265
300.248
300.233
300.219
300.207
300.195
300.185
300.175
300.783
300.739
300.683
300.632
300.588
300.552
300.522
300.497
300.476
300.457
300.441
300.426
300.412
300.399
300.386
300.372
300.358
300.343
300.328
300.312
300.297
300.281
300.265
300.249
300.235
300.221
300.209
300.197
300.187
300.177
300.87
300.838
300.776
300.71
300.652
300.604
300.564
300.531
300.503
300.479
300.459
300.44
300.423
300.408
300.392
300.377
300.361
300.344
300.328
300.312
300.296
300.28
300.265
300.25
300.236
300.223
300.211
300.199
300.189
300.179
300.938
300.93
300.876
300.803
300.731
300.669
300.617
300.574
300.539
300.509
300.482
300.459
300.439
300.42
300.402
300.384
300.365
300.347
300.329
300.312
300.296
300.281
300.266
300.251
300.238
300.225
300.213
300.202
300.192
300.182
300.988
301.006
300.973
300.906
300.826
300.75
300.684
300.63
300.584
300.546
300.513
300.484
300.459
300.436
300.415
300.394
300.373
300.352
300.333
300.314
300.298
300.282
300.267
300.253
300.24
300.227
300.216
300.205
300.194
300.185
301.026
301.061
301.054
301.007
300.933
300.849
300.77
300.701
300.642
300.593
300.552
300.517
300.485
300.458
300.432
300.407
300.383
300.36
300.338
300.318
300.3
300.284
300.269
300.255
300.242
300.23
300.218
300.208
300.197
300.188
301.058
301.099
301.113
301.092
301.038
300.959
300.873
300.791
300.717
300.655
300.602
300.557
300.519
300.485
300.454
300.425
300.397
300.37
300.346
300.324
300.305
300.288
300.272
300.258
300.245
300.233
300.221
300.211
300.2
300.191
301.088
301.127
301.152
301.153
301.124
301.065
300.985
300.896
300.811
300.734
300.667
300.61
300.562
300.52
300.482
300.447
300.414
300.384
300.357
300.332
300.311
300.293
300.276
300.262
300.248
300.236
300.225
300.214
300.204
300.194
301.12
301.153
301.18
301.193
301.184
301.149
301.087
301.007
300.917
300.829
300.748
300.677
300.616
300.564
300.518
300.476
300.437
300.402
300.371
300.343
300.32
300.3
300.282
300.267
300.253
300.24
300.229
300.218
300.208
300.198
301.155
301.179
301.202
301.219
301.221
301.205
301.166
301.103
301.022
300.932
300.842
300.758
300.683
300.619
300.562
300.512
300.466
300.425
300.389
300.358
300.331
300.309
300.29
300.273
300.258
300.245
300.233
300.222
300.212
300.202
301.192
301.208
301.224
301.238
301.245
301.239
301.218
301.175
301.111
301.03
300.94
300.848
300.762
300.685
300.617
300.556
300.502
300.454
300.412
300.376
300.346
300.321
300.299
300.281
300.265
300.251
300.239
300.227
300.216
300.206
301.231
301.24
301.248
301.256
301.261
301.259
301.247
301.22
301.175
301.11
301.029
300.939
300.847
300.76
300.68
300.609
300.545
300.489
300.44
300.399
300.364
300.336
300.312
300.291
300.274
300.259
300.245
300.233
300.221
300.211
301.271
301.272
301.274
301.275
301.275
301.272
301.264
301.245
301.214
301.165
301.099
301.019
300.93
300.839
300.751
300.67
300.596
300.531
300.475
300.427
300.387
300.354
300.327
300.304
300.284
300.268
300.253
300.24
300.228
300.217
301.309
301.304
301.299
301.294
301.289
301.282
301.273
301.258
301.234
301.198
301.147
301.08
301.001
300.913
300.823
300.735
300.654
300.58
300.516
300.461
300.415
300.377
300.346
300.32
300.298
300.279
300.262
300.248
300.235
300.223
301.343
301.333
301.323
301.312
301.302
301.291
301.278
301.263
301.243
301.214
301.175
301.122
301.055
300.976
300.89
300.802
300.716
300.636
300.564
300.502
300.449
300.405
300.369
300.339
300.314
300.293
300.274
300.258
300.244
300.231
301.371
301.357
301.343
301.328
301.313
301.297
301.281
301.264
301.245
301.221
301.189
301.147
301.092
301.026
300.948
300.864
300.778
300.694
300.617
300.548
300.489
300.439
300.397
300.363
300.334
300.31
300.289
300.27
300.254
300.241
301.392
301.375
301.358
301.34
301.321
301.302
301.283
301.264
301.244
301.222
301.194
301.159
301.115
301.06
300.994
300.918
300.837
300.754
300.674
300.6
300.535
300.479
300.431
300.392
300.358
300.33
300.306
300.285
300.267
300.252
301.403
301.385
301.365
301.346
301.325
301.305
301.284
301.263
301.242
301.22
301.195
301.164
301.127
301.082
301.027
300.962
300.889
300.811
300.732
300.656
300.586
300.524
300.471
300.426
300.388
300.356
300.328
300.304
300.283
300.265
301.404
301.386
301.367
301.347
301.326
301.304
301.282
301.259
301.237
301.214
301.189
301.163
301.131
301.093
301.048
300.994
300.932
300.862
300.788
300.713
300.642
300.576
300.518
300.467
300.423
300.386
300.354
300.326
300.302
300.282
301.391
301.373
301.355
301.335
301.315
301.293
301.271
301.248
301.225
301.201
301.178
301.152
301.125
301.093
301.056
301.013
300.962
300.903
300.838
300.769
300.699
300.631
300.569
300.513
300.464
300.422
300.385
300.353
300.325
300.301
301.36
301.344
301.327
301.309
301.289
301.269
301.247
301.224
301.201
301.177
301.154
301.13
301.105
301.078
301.048
301.013
300.973
300.926
300.872
300.812
300.748
300.683
300.621
300.562
300.508
300.461
300.419
300.383
300.351
300.323
301.306
301.291
301.275
301.259
301.241
301.223
301.202
301.18
301.157
301.133
301.109
301.085
301.062
301.038
301.013
300.984
300.953
300.916
300.872
300.823
300.769
300.711
300.653
300.596
300.543
300.494
300.449
300.41
300.375
300.344
301.202
301.186
301.173
301.16
301.146
301.131
301.112
301.09
301.066
301.041
301.016
300.992
300.969
300.947
300.924
300.9
300.875
300.847
300.814
300.774
300.73
300.682
300.632
300.582
300.534
300.489
300.447
300.41
300.377
300.347
300.985
300.964
300.953
300.947
300.94
300.928
300.912
300.89
300.866
300.841
300.818
300.795
300.774
300.754
300.734
300.713
300.692
300.669
300.644
300.614
300.581
300.546
300.509
300.473
300.438
300.405
300.375
300.348
300.323
300.301
300.55
300.545
300.548
300.553
300.555
300.553
300.546
300.536
300.524
300.51
300.496
300.483
300.47
300.457
300.442
300.427
300.412
300.395
300.377
300.356
300.333
300.31
300.286
300.263
300.242
300.222
300.204
300.188
300.174
300.162
300.494
300.48
300.47
300.462
300.454
300.447
300.44
300.433
300.426
300.419
300.412
300.406
300.399
300.391
300.383
300.375
300.365
300.352
300.334
300.31
300.282
300.255
300.232
300.212
300.197
300.185
300.175
300.167
300.158
300.145
300.496
300.481
300.469
300.458
300.449
300.441
300.434
300.426
300.419
300.412
300.405
300.398
300.391
300.383
300.375
300.366
300.355
300.342
300.325
300.303
300.279
300.254
300.232
300.214
300.198
300.186
300.176
300.167
300.159
300.148
300.502
300.486
300.473
300.461
300.451
300.442
300.434
300.425
300.418
300.41
300.402
300.394
300.387
300.378
300.369
300.359
300.348
300.335
300.318
300.298
300.275
300.253
300.233
300.215
300.2
300.187
300.177
300.168
300.159
300.15
300.511
300.495
300.481
300.469
300.457
300.447
300.437
300.428
300.419
300.411
300.402
300.394
300.385
300.376
300.366
300.355
300.343
300.328
300.312
300.293
300.273
300.252
300.233
300.216
300.201
300.189
300.178
300.169
300.16
300.151
300.524
300.509
300.495
300.482
300.469
300.457
300.446
300.436
300.425
300.416
300.406
300.396
300.386
300.376
300.365
300.352
300.339
300.324
300.307
300.289
300.27
300.251
300.233
300.217
300.203
300.191
300.18
300.17
300.162
300.153
300.541
300.529
300.516
300.502
300.488
300.474
300.461
300.448
300.436
300.425
300.413
300.402
300.391
300.379
300.366
300.352
300.337
300.321
300.304
300.286
300.268
300.251
300.234
300.218
300.205
300.192
300.182
300.172
300.163
300.155
300.565
300.557
300.546
300.532
300.516
300.499
300.483
300.467
300.453
300.439
300.425
300.411
300.398
300.384
300.37
300.353
300.336
300.319
300.302
300.285
300.267
300.25
300.234
300.22
300.206
300.194
300.184
300.174
300.165
300.156
300.595
300.598
300.591
300.575
300.556
300.535
300.514
300.495
300.476
300.458
300.442
300.426
300.41
300.393
300.376
300.358
300.338
300.319
300.301
300.284
300.267
300.251
300.235
300.221
300.208
300.197
300.186
300.176
300.167
300.159
300.637
300.652
300.649
300.633
300.61
300.583
300.556
300.531
300.507
300.485
300.465
300.445
300.426
300.406
300.386
300.365
300.343
300.321
300.302
300.284
300.267
300.251
300.237
300.223
300.211
300.199
300.189
300.179
300.169
300.161
300.683
300.708
300.714
300.7
300.675
300.643
300.61
300.578
300.548
300.52
300.494
300.47
300.447
300.424
300.4
300.375
300.35
300.326
300.305
300.286
300.268
300.253
300.239
300.226
300.213
300.202
300.191
300.182
300.172
300.164
300.729
300.762
300.777
300.771
300.747
300.713
300.674
300.635
300.598
300.564
300.532
300.502
300.474
300.446
300.418
300.388
300.36
300.333
300.31
300.29
300.272
300.256
300.241
300.228
300.216
300.205
300.195
300.185
300.175
300.167
300.775
300.811
300.835
300.838
300.822
300.789
300.747
300.702
300.658
300.616
300.578
300.542
300.507
300.474
300.441
300.406
300.374
300.344
300.318
300.296
300.277
300.26
300.246
300.232
300.22
300.209
300.198
300.188
300.179
300.17
300.821
300.856
300.885
300.898
300.89
300.865
300.825
300.778
300.728
300.679
300.632
300.589
300.548
300.509
300.469
300.429
300.391
300.358
300.329
300.305
300.284
300.266
300.251
300.237
300.225
300.213
300.202
300.192
300.182
300.173
300.868
300.9
300.928
300.947
300.948
300.932
300.9
300.855
300.803
300.749
300.695
300.644
300.596
300.55
300.503
300.457
300.414
300.376
300.343
300.316
300.293
300.274
300.258
300.243
300.23
300.218
300.207
300.196
300.186
300.177
300.917
300.943
300.968
300.988
300.995
300.987
300.964
300.926
300.877
300.821
300.763
300.706
300.65
300.597
300.543
300.49
300.442
300.399
300.362
300.331
300.306
300.285
300.267
300.251
300.237
300.224
300.213
300.201
300.191
300.182
300.968
300.987
301.007
301.023
301.032
301.03
301.015
300.985
300.943
300.89
300.831
300.77
300.709
300.649
300.589
300.529
300.474
300.426
300.385
300.351
300.322
300.298
300.278
300.261
300.246
300.232
300.219
300.207
300.196
300.187
301.02
301.032
301.045
301.056
301.063
301.062
301.052
301.03
300.995
300.949
300.894
300.832
300.768
300.703
300.638
300.573
300.512
300.459
300.413
300.374
300.342
300.315
300.292
300.273
300.256
300.241
300.227
300.215
300.203
300.192
301.071
301.077
301.083
301.087
301.09
301.088
301.079
301.062
301.034
300.995
300.945
300.887
300.824
300.757
300.688
300.619
300.555
300.497
300.446
300.403
300.366
300.336
300.31
300.288
300.269
300.252
300.237
300.223
300.21
300.199
301.121
301.121
301.12
301.118
301.115
301.109
301.1
301.084
301.06
301.027
300.984
300.932
300.872
300.807
300.738
300.668
300.6
300.539
300.483
300.435
300.395
300.36
300.331
300.306
300.285
300.266
300.249
300.233
300.219
300.207
301.167
301.162
301.155
301.147
301.139
301.129
301.116
301.1
301.078
301.049
301.012
300.966
300.912
300.85
300.784
300.715
300.647
300.583
300.525
300.473
300.428
300.389
300.357
300.328
300.304
300.282
300.263
300.246
300.23
300.216
301.206
301.197
301.186
301.173
301.16
301.145
301.13
301.112
301.09
301.064
301.031
300.99
300.942
300.887
300.825
300.759
300.693
300.629
300.569
300.514
300.466
300.424
300.387
300.355
300.327
300.302
300.28
300.261
300.243
300.227
301.237
301.225
301.211
301.195
301.178
301.16
301.141
301.12
301.098
301.072
301.042
301.007
300.965
300.916
300.86
300.8
300.738
300.676
300.616
300.56
300.508
300.463
300.422
300.386
300.355
300.326
300.301
300.278
300.258
300.24
301.258
301.243
301.227
301.209
301.19
301.169
301.147
301.125
301.102
301.077
301.048
301.016
300.979
300.936
300.888
300.835
300.78
300.722
300.665
300.609
300.556
300.507
300.463
300.423
300.387
300.355
300.326
300.3
300.276
300.256
301.265
301.251
301.234
301.215
301.195
301.173
301.15
301.127
301.102
301.077
301.049
301.019
300.985
300.947
300.906
300.861
300.813
300.763
300.711
300.658
300.605
300.555
300.508
300.464
300.424
300.387
300.354
300.324
300.297
300.274
301.257
301.243
301.226
301.208
301.187
301.165
301.142
301.117
301.092
301.066
301.038
301.009
300.978
300.945
300.909
300.872
300.832
300.791
300.747
300.7
300.652
300.603
300.555
300.508
300.464
300.423
300.386
300.352
300.321
300.294
301.227
301.213
301.198
301.18
301.16
301.139
301.116
301.091
301.065
301.038
301.01
300.982
300.952
300.922
300.89
300.858
300.825
300.792
300.757
300.72
300.679
300.637
300.592
300.546
300.501
300.457
300.417
300.379
300.345
300.316
301.164
301.149
301.134
301.118
301.101
301.082
301.06
301.036
301.009
300.982
300.953
300.925
300.896
300.866
300.837
300.806
300.779
300.752
300.725
300.697
300.666
300.632
300.594
300.555
300.514
300.474
300.434
300.397
300.362
300.331
301.045
301.027
301.012
300.999
300.987
300.972
300.954
300.931
300.906
300.878
300.849
300.821
300.793
300.766
300.737
300.709
300.684
300.661
300.638
300.615
300.59
300.563
300.535
300.506
300.476
300.445
300.413
300.382
300.352
300.325
300.828
300.815
300.806
300.801
300.796
300.787
300.774
300.757
300.735
300.712
300.687
300.663
300.639
300.615
300.589
300.562
300.54
300.518
300.498
300.478
300.458
300.436
300.414
300.391
300.368
300.346
300.326
300.306
300.286
300.268
300.493
300.494
300.499
300.506
300.512
300.515
300.513
300.506
300.496
300.483
300.468
300.453
300.436
300.418
300.397
300.375
300.356
300.338
300.32
300.304
300.287
300.27
300.253
300.236
300.22
300.205
300.191
300.177
300.165
300.155
300.492
300.478
300.468
300.46
300.452
300.444
300.437
300.43
300.423
300.416
300.409
300.402
300.394
300.386
300.378
300.368
300.356
300.34
300.315
300.285
300.253
300.227
300.206
300.19
300.179
300.17
300.162
300.156
300.149
300.142
300.486
300.471
300.459
300.45
300.442
300.434
300.427
300.42
300.413
300.406
300.399
300.391
300.384
300.376
300.367
300.357
300.345
300.328
300.306
300.278
300.251
300.227
300.207
300.192
300.18
300.17
300.162
300.155
300.149
300.142
300.486
300.471
300.459
300.449
300.439
300.431
300.423
300.415
300.408
300.4
300.393
300.385
300.377
300.368
300.359
300.348
300.335
300.318
300.297
300.273
300.248
300.226
300.208
300.193
300.18
300.171
300.162
300.155
300.149
300.141
300.49
300.476
300.463
300.452
300.442
300.433
300.424
300.416
300.407
300.399
300.391
300.382
300.373
300.364
300.353
300.341
300.327
300.31
300.291
300.268
300.246
300.226
300.208
300.194
300.182
300.172
300.163
300.156
300.149
300.142
300.497
300.483
300.471
300.459
300.449
300.438
300.429
300.419
300.41
300.401
300.392
300.382
300.372
300.361
300.35
300.336
300.321
300.304
300.285
300.264
300.244
300.225
300.209
300.195
300.183
300.173
300.164
300.156
300.149
300.142
300.507
300.495
300.483
300.471
300.46
300.448
300.438
300.427
300.417
300.406
300.396
300.385
300.374
300.362
300.348
300.333
300.316
300.299
300.28
300.261
300.243
300.225
300.21
300.197
300.185
300.175
300.166
300.157
300.15
300.143
300.521
300.511
300.5
300.489
300.476
300.464
300.452
300.44
300.428
300.416
300.404
300.392
300.379
300.365
300.349
300.332
300.314
300.295
300.277
300.259
300.242
300.226
300.212
300.199
300.187
300.177
300.167
300.159
300.151
300.144
300.54
300.533
300.524
300.513
300.5
300.486
300.472
300.458
300.444
300.43
300.416
300.402
300.387
300.371
300.353
300.333
300.313
300.293
300.275
300.258
300.242
300.227
300.213
300.201
300.19
300.179
300.17
300.161
300.153
300.145
300.564
300.561
300.555
300.545
300.532
300.517
300.5
300.484
300.467
300.45
300.434
300.417
300.399
300.38
300.359
300.336
300.314
300.293
300.274
300.258
300.242
300.228
300.215
300.204
300.193
300.182
300.172
300.163
300.155
300.147
300.594
300.596
300.594
300.587
300.574
300.557
300.537
300.517
300.497
300.477
300.457
300.437
300.416
300.393
300.368
300.342
300.317
300.295
300.275
300.258
300.244
300.23
300.218
300.207
300.196
300.185
300.175
300.166
300.157
300.149
300.629
300.637
300.639
300.635
300.623
300.604
300.582
300.559
300.535
300.511
300.487
300.463
300.437
300.411
300.381
300.351
300.323
300.299
300.279
300.261
300.247
300.234
300.222
300.21
300.2
300.189
300.179
300.169
300.16
300.151
300.669
300.68
300.687
300.686
300.677
300.659
300.635
300.608
300.58
300.552
300.523
300.495
300.464
300.432
300.398
300.363
300.332
300.305
300.284
300.266
300.251
300.238
300.226
300.215
300.204
300.193
300.182
300.172
300.163
300.154
300.712
300.724
300.735
300.738
300.732
300.716
300.693
300.664
300.632
300.599
300.566
300.532
300.496
300.459
300.418
300.379
300.344
300.315
300.292
300.273
300.258
300.244
300.232
300.22
300.209
300.198
300.187
300.176
300.166
300.157
300.758
300.771
300.782
300.789
300.786
300.773
300.751
300.722
300.688
300.652
300.614
300.575
300.534
300.49
300.443
300.398
300.36
300.329
300.304
300.283
300.266
300.252
300.239
300.226
300.215
300.203
300.192
300.181
300.17
300.161
300.807
300.818
300.829
300.836
300.835
300.826
300.808
300.78
300.746
300.707
300.665
300.621
300.575
300.525
300.472
300.422
300.38
300.346
300.318
300.296
300.277
300.261
300.247
300.234
300.222
300.21
300.198
300.186
300.175
300.165
300.858
300.867
300.875
300.88
300.881
300.873
300.858
300.833
300.8
300.761
300.717
300.669
300.618
300.563
300.505
300.45
300.404
300.367
300.337
300.312
300.292
300.274
300.258
300.244
300.231
300.218
300.205
300.193
300.181
300.171
300.911
300.916
300.92
300.923
300.921
300.915
300.901
300.879
300.848
300.81
300.766
300.716
300.662
300.604
300.541
300.483
300.433
300.393
300.36
300.332
300.309
300.29
300.272
300.257
300.242
300.228
300.214
300.2
300.188
300.176
300.963
300.964
300.964
300.962
300.959
300.951
300.937
300.917
300.889
300.853
300.81
300.76
300.705
300.644
300.58
300.518
300.467
300.424
300.387
300.357
300.331
300.309
300.29
300.272
300.255
300.239
300.224
300.209
300.195
300.183
301.013
301.01
301.006
301
300.993
300.983
300.968
300.949
300.923
300.889
300.848
300.8
300.745
300.684
300.62
300.557
300.504
300.458
300.419
300.386
300.358
300.333
300.311
300.291
300.272
300.254
300.237
300.22
300.205
300.191
301.059
301.053
301.045
301.035
301.024
301.011
300.995
300.975
300.949
300.918
300.879
300.834
300.781
300.721
300.659
300.598
300.544
300.497
300.456
300.42
300.389
300.362
300.337
300.314
300.292
300.271
300.252
300.233
300.216
300.201
301.098
301.09
301.079
301.066
301.051
301.035
301.017
300.996
300.971
300.941
300.905
300.862
300.813
300.756
300.697
300.639
300.586
300.539
300.497
300.459
300.426
300.396
300.367
300.341
300.316
300.292
300.27
300.248
300.229
300.212
301.129
301.119
301.107
301.091
301.074
301.055
301.035
301.013
300.987
300.958
300.925
300.885
300.839
300.788
300.733
300.679
300.629
300.583
300.541
300.503
300.467
300.434
300.403
300.373
300.344
300.317
300.291
300.266
300.244
300.225
301.15
301.139
301.126
301.109
301.091
301.07
301.048
301.024
300.998
300.97
300.938
300.901
300.86
300.813
300.764
300.715
300.669
300.626
300.586
300.548
300.512
300.477
300.443
300.409
300.376
300.345
300.315
300.287
300.262
300.24
301.157
301.147
301.134
301.117
301.098
301.077
301.054
301.029
301.003
300.974
300.943
300.908
300.87
300.828
300.784
300.74
300.699
300.661
300.625
300.59
300.555
300.52
300.484
300.448
300.411
300.376
300.342
300.311
300.282
300.257
301.148
301.139
301.127
301.11
301.091
301.07
301.046
301.021
300.994
300.965
300.934
300.901
300.865
300.827
300.787
300.747
300.71
300.677
300.646
300.617
300.587
300.555
300.52
300.483
300.445
300.408
300.371
300.336
300.304
300.276
301.116
301.107
301.096
301.081
301.063
301.042
301.019
300.994
300.966
300.937
300.906
300.873
300.838
300.802
300.765
300.725
300.69
300.661
300.636
300.613
300.589
300.565
300.536
300.504
300.469
300.432
300.395
300.359
300.325
300.295
301.049
301.039
301.028
301.015
301
300.982
300.961
300.937
300.91
300.88
300.849
300.816
300.783
300.746
300.71
300.67
300.637
300.61
300.588
300.57
300.552
300.533
300.513
300.489
300.463
300.432
300.4
300.368
300.336
300.307
300.926
300.916
300.907
300.897
300.887
300.875
300.859
300.838
300.813
300.785
300.755
300.724
300.693
300.658
300.623
300.582
300.55
300.525
300.505
300.489
300.475
300.46
300.445
300.429
300.41
300.39
300.368
300.345
300.32
300.296
300.723
300.721
300.719
300.719
300.717
300.712
300.703
300.688
300.669
300.647
300.622
300.596
300.569
300.538
300.504
300.465
300.435
300.411
300.392
300.377
300.365
300.353
300.341
300.328
300.315
300.301
300.287
300.271
300.256
300.241
300.452
300.459
300.469
300.48
300.489
300.495
300.497
300.493
300.484
300.471
300.456
300.438
300.417
300.392
300.363
300.329
300.303
300.282
300.265
300.251
300.239
300.229
300.219
300.209
300.199
300.189
300.179
300.169
300.158
300.149
300.494
300.479
300.468
300.46
300.451
300.444
300.436
300.429
300.421
300.414
300.406
300.399
300.391
300.383
300.374
300.363
300.349
300.328
300.296
300.259
300.228
300.204
300.188
300.176
300.167
300.16
300.154
300.149
300.144
300.138
300.482
300.466
300.455
300.445
300.437
300.429
300.422
300.415
300.408
300.401
300.393
300.386
300.378
300.37
300.36
300.349
300.335
300.314
300.285
300.254
300.226
300.204
300.188
300.176
300.167
300.16
300.154
300.148
300.143
300.137
300.477
300.461
300.449
300.44
300.431
300.423
300.415
300.408
300.4
300.393
300.385
300.377
300.369
300.36
300.35
300.338
300.323
300.303
300.277
300.249
300.224
300.204
300.189
300.177
300.168
300.16
300.154
300.148
300.142
300.136
300.477
300.463
300.451
300.441
300.431
300.422
300.414
300.405
300.397
300.389
300.381
300.372
300.363
300.353
300.342
300.329
300.313
300.294
300.27
300.245
300.223
300.204
300.19
300.179