/*--------------------------------*- C++ -*----------------------------------*\
  =========                 |
  \\      /  F ield         | OpenFOAM: The Open Source CFD Toolbox
   \\    /   O peration     | Website:  https://openfoam.org
    \\  /    A nd           | Version:  12
     \\/     M anipulation  |
\*---------------------------------------------------------------------------*/
FoamFile
{
    format      ascii;
    class       volScalarField;
    location    "1300/porous";
    object      rho;
}
// * * * * * * * * * * * * * * * * * * * * * * * * * * * * * * * * * * * * * //

dimensions      [1 -3 0 0 0 0 0];

internalField   nonuniform List<scalar> 
140000
(
933.891
933.891
933.891
933.891
933.891
933.891
933.891
933.891
933.892
933.898
934.183
934.406
934.605
934.792
934.971
935.144
935.314
935.481
935.645
935.807
935.967
936.125
936.282
936.437
936.59
936.743
936.893
937.042
937.189
937.335
937.48
937.622
937.763
937.902
938.04
938.176
938.31
938.444
938.575
938.706
938.835
938.963
939.091
939.217
939.342
939.465
939.588
939.708
939.828
939.945
940.062
940.176
940.288
940.399
940.507
940.612
940.715
940.813
940.907
940.972
940.577
940.325
940.13
939.969
939.83
939.707
939.596
939.496
939.405
939.325
933.891
933.891
933.891
933.891
933.891
933.891
933.891
933.891
933.891
933.896
934.113
934.29
934.449
934.599
934.744
934.886
935.024
935.16
935.295
935.428
935.56
935.691
935.821
935.95
936.078
936.206
936.332
936.458
936.584
936.708
936.832
936.954
937.077
937.198
937.319
937.438
937.558
937.676
937.794
937.911
938.028
938.145
938.26
938.376
938.49
938.604
938.717
938.829
938.941
939.051
939.16
939.268
939.374
939.479
939.582
939.683
939.782
939.878
939.971
940.046
939.809
939.654
939.532
939.428
939.336
939.254
939.179
939.109
939.045
938.987
933.891
933.891
933.891
933.891
933.891
933.891
933.891
933.891
933.891
933.895
934.095
934.253
934.395
934.527
934.654
934.776
934.895
935.011
935.126
935.239
935.35
935.46
935.569
935.677
935.785
935.891
935.997
936.102
936.206
936.31
936.413
936.516
936.618
936.719
936.821
936.921
937.021
937.121
937.221
937.32
937.419
937.518
937.617
937.715
937.813
937.911
938.008
938.105
938.201
938.296
938.391
938.485
938.577
938.669
938.759
938.848
938.935
939.02
939.102
939.173
938.983
938.864
938.773
938.699
938.634
938.577
938.526
938.479
938.436
938.397
933.891
933.891
933.891
933.891
933.891
933.891
933.891
933.891
933.891
933.895
934.09
934.244
934.38
934.507
934.627
934.742
934.853
934.961
935.067
935.171
935.273
935.374
935.473
935.571
935.668
935.764
935.858
935.952
936.046
936.138
936.23
936.321
936.411
936.501
936.59
936.678
936.767
936.854
936.941
937.028
937.115
937.202
937.288
937.374
937.46
937.545
937.63
937.715
937.799
937.882
937.964
938.046
938.127
938.206
938.285
938.362
938.437
938.511
938.582
938.643
938.465
938.353
938.269
938.2
938.141
938.09
938.044
938.002
937.965
937.93
933.891
933.891
933.891
933.891
933.891
933.891
933.891
933.891
933.891
933.895
934.089
934.242
934.377
934.501
934.619
934.732
934.841
934.947
935.05
935.15
935.249
935.346
935.441
935.535
935.628
935.719
935.809
935.898
935.987
936.074
936.161
936.246
936.331
936.415
936.499
936.581
936.663
936.745
936.826
936.907
936.987
937.067
937.147
937.227
937.306
937.384
937.462
937.54
937.617
937.693
937.768
937.842
937.916
937.988
938.059
938.129
938.197
938.263
938.326
938.38
938.205
938.094
938.01
937.94
937.881
937.829
937.782
937.74
937.702
937.667
933.891
933.891
933.891
933.891
933.891
933.891
933.891
933.891
933.891
933.895
934.089
934.242
934.377
934.501
934.619
934.731
934.84
934.944
935.047
935.146
935.244
935.34
935.434
935.526
935.617
935.707
935.795
935.883
935.969
936.055
936.139
936.222
936.305
936.387
936.468
936.548
936.627
936.706
936.784
936.862
936.939
937.017
937.093
937.17
937.246
937.321
937.396
937.47
937.543
937.616
937.687
937.758
937.828
937.896
937.963
938.029
938.093
938.155
938.214
938.265
938.09
937.978
937.893
937.822
937.762
937.708
937.661
937.617
937.578
937.542
933.891
933.891
933.891
933.891
933.891
933.891
933.891
933.891
933.891
933.895
934.089
934.242
934.377
934.501
934.619
934.732
934.84
934.945
935.047
935.147
935.244
935.34
935.433
935.526
935.616
935.705
935.793
935.88
935.966
936.051
936.134
936.217
936.299
936.379
936.459
936.538
936.617
936.694
936.771
936.848
936.924
937
937.075
937.15
937.225
937.299
937.372
937.445
937.517
937.587
937.658
937.727
937.794
937.861
937.926
937.99
938.051
938.111
938.169
938.217
938.043
937.931
937.845
937.774
937.712
937.658
937.61
937.565
937.525
937.488
933.891
933.891
933.891
933.891
933.891
933.891
933.891
933.891
933.891
933.895
934.089
934.242
934.377
934.502
934.62
934.733
934.842
934.947
935.049
935.149
935.246
935.342
935.436
935.528
935.619
935.708
935.796
935.883
935.968
936.053
936.136
936.218
936.3
936.38
936.46
936.538
936.616
936.693
936.77
936.846
936.922
936.997
937.072
937.147
937.221
937.294
937.367
937.438
937.51
937.58
937.649
937.717
937.784
937.85
937.914
937.977
938.038
938.096
938.152
938.2
938.026
937.914
937.827
937.756
937.694
937.64
937.591
937.546
937.505
937.468
933.891
933.891
933.891
933.891
933.891
933.891
933.891
933.891
933.891
933.895
934.09
934.243
934.378
934.503
934.621
934.734
934.843
934.948
935.051
935.151
935.249
935.344
935.438
935.531
935.621
935.711
935.799
935.886
935.971
936.056
936.139
936.221
936.303
936.383
936.462
936.541
936.618
936.696
936.772
936.848
936.924
936.999
937.074
937.148
937.222
937.295
937.367
937.439
937.51
937.58
937.649
937.717
937.784
937.849
937.913
937.975
938.035
938.093
938.149
938.196
938.022
937.909
937.823
937.751
937.69
937.635
937.586
937.541
937.5
937.462
933.891
933.891
933.891
933.891
933.891
933.891
933.891
933.891
933.891
933.895
934.09
934.243
934.378
934.503
934.622
934.735
934.844
934.95
935.052
935.153
935.251
935.347
935.441
935.533
935.624
935.714
935.802
935.889
935.974
936.059
936.142
936.225
936.306
936.386
936.466
936.544
936.622
936.699
936.775
936.851
936.927
937.002
937.077
937.151
937.225
937.298
937.37
937.442
937.513
937.583
937.652
937.72
937.786
937.851
937.915
937.977
938.037
938.095
938.15
938.196
938.023
937.91
937.824
937.752
937.69
937.635
937.586
937.541
937.5
937.462
933.891
933.891
933.891
933.891
933.891
933.891
933.891
933.891
933.891
933.895
934.09
934.243
934.378
934.503
934.622
934.735
934.845
934.95
935.053
935.154
935.252
935.348
935.443
935.535
935.626
935.716
935.804
935.891
935.977
936.062
936.145
936.227
936.309
936.389
936.468
936.547
936.624
936.701
936.778
936.854
936.93
937.005
937.08
937.154
937.228
937.301
937.374
937.445
937.516
937.586
937.655
937.723
937.79
937.855
937.918
937.98
938.04
938.097
938.152
938.199
938.025
937.912
937.826
937.754
937.692
937.637
937.588
937.543
937.501
937.464
933.891
933.891
933.891
933.891
933.891
933.891
933.891
933.891
933.891
933.895
934.09
934.243
934.378
934.503
934.622
934.735
934.845
934.951
935.054
935.155
935.253
935.35
935.444
935.537
935.628
935.718
935.806
935.893
935.979
936.064
936.147
936.23
936.311
936.391
936.471
936.549
936.627
936.704
936.78
936.856
936.932
937.008
937.083
937.157
937.231
937.304
937.377
937.448
937.519
937.589
937.658
937.726
937.793
937.858
937.921
937.983
938.043
938.1
938.155
938.201
938.027
937.915
937.828
937.757
937.695
937.64
937.59
937.545
937.504
937.466
933.891
933.891
933.891
933.891
933.891
933.891
933.891
933.891
933.891
933.895
934.09
934.243
934.378
934.503
934.622
934.736
934.845
934.951
935.055
935.155
935.254
935.35
935.445
935.538
935.629
935.719
935.807
935.894
935.98
936.065
936.149
936.231
936.312
936.393
936.472
936.55
936.628
936.705
936.782
936.858
936.934
937.009
937.084
937.159
937.233
937.306
937.379
937.451
937.522
937.592
937.661
937.728
937.795
937.86
937.924
937.985
938.045
938.102
938.157
938.203
938.029
937.917
937.83
937.759
937.697
937.642
937.592
937.547
937.506
937.468
933.891
933.891
933.891
933.891
933.891
933.891
933.891
933.891
933.891
933.895
934.09
934.243
934.378
934.503
934.622
934.735
934.845
934.951
935.055
935.156
935.254
935.351
935.445
935.538
935.63
935.72
935.808
935.895
935.981
936.066
936.15
936.232
936.313
936.393
936.473
936.551
936.629
936.706
936.783
936.859
936.935
937.011
937.086
937.16
937.234
937.308
937.38
937.452
937.523
937.593
937.662
937.73
937.797
937.862
937.925
937.987
938.047
938.104
938.159
938.205
938.031
937.918
937.832
937.76
937.698
937.643
937.594
937.549
937.507
937.47
933.891
933.891
933.891
933.891
933.891
933.891
933.891
933.891
933.891
933.895
934.09
934.243
934.378
934.503
934.621
934.735
934.845
934.951
935.055
935.156
935.254
935.351
935.446
935.539
935.63
935.72
935.808
935.896
935.982
936.066
936.15
936.232
936.313
936.394
936.473
936.551
936.629
936.706
936.783
936.859
936.936
937.011
937.086
937.161
937.235
937.308
937.381
937.453
937.524
937.594
937.663
937.731
937.798
937.863
937.926
937.988
938.047
938.105
938.159
938.205
938.032
937.919
937.833
937.761
937.699
937.644
937.594
937.549
937.508
937.47
933.891
933.891
933.891
933.891
933.891
933.891
933.891
933.891
933.891
933.895
934.09
934.242
934.377
934.502
934.621
934.734
934.844
934.951
935.054
935.155
935.254
935.351
935.446
935.539
935.63
935.72
935.808
935.896
935.982
936.066
936.15
936.232
936.313
936.393
936.473
936.551
936.629
936.706
936.783
936.859
936.936
937.011
937.087
937.161
937.235
937.309
937.381
937.453
937.524
937.594
937.663
937.731
937.798
937.863
937.926
937.988
938.048
938.105
938.16
938.206
938.032
937.919
937.833
937.761
937.699
937.644
937.594
937.549
937.508
937.47
933.891
933.891
933.891
933.891
933.891
933.891
933.891
933.891
933.891
933.895
934.09
934.243
934.377
934.502
934.62
934.734
934.844
934.95
935.054
935.155
935.254
935.35
935.445
935.538
935.63
935.72
935.808
935.895
935.981
936.066
936.149
936.231
936.312
936.393
936.472
936.551
936.629
936.706
936.783
936.859
936.935
937.011
937.086
937.161
937.235
937.308
937.381
937.453
937.524
937.594
937.663
937.731
937.798
937.863
937.926
937.988
938.047
938.105
938.159
938.205
938.032
937.919
937.832
937.761
937.699
937.644
937.594
937.549
937.507
937.47
933.891
933.891
933.891
933.891
933.891
933.891
933.891
933.891
933.891
933.895
934.089
934.242
934.377
934.501
934.62
934.733
934.843
934.949
935.053
935.154
935.253
935.35
935.445
935.538
935.629
935.719
935.808
935.895
935.981
936.065
936.148
936.23
936.311
936.392
936.471
936.55
936.628
936.705
936.782
936.858
936.934
937.01
937.085
937.16
937.234
937.308
937.38
937.452
937.523
937.593
937.663
937.731
937.797
937.862
937.926
937.987
938.047
938.104
938.159
938.205
938.031
937.918
937.832
937.76
937.698
937.643
937.593
937.548
937.507
937.469
933.891
933.891
933.891
933.891
933.891
933.891
933.891
933.891
933.891
933.895
934.089
934.242
934.376
934.501
934.619
934.733
934.842
934.949
935.052
935.154
935.253
935.35
935.444
935.538
935.629
935.719
935.807
935.894
935.98
936.064
936.148
936.229
936.31
936.391
936.471
936.55
936.628
936.705
936.781
936.858
936.934
937.01
937.085
937.159
937.234
937.307
937.38
937.452
937.523
937.593
937.662
937.73
937.797
937.862
937.925
937.987
938.046
938.104
938.158
938.204
938.03
937.918
937.831
937.759
937.697
937.642
937.593
937.548
937.506
937.468
933.891
933.891
933.891
933.891
933.891
933.891
933.891
933.891
933.891
933.895
934.089
934.242
934.376
934.5
934.619
934.732
934.842
934.948
935.052
935.153
935.252
935.349
935.444
935.537
935.629
935.719
935.807
935.894
935.98
936.064
936.147
936.229
936.31
936.391
936.471
936.55
936.628
936.705
936.782
936.858
936.934
937.009
937.085
937.159
937.233
937.307
937.379
937.451
937.522
937.592
937.662
937.73
937.796
937.861
937.925
937.986
938.046
938.103
938.158
938.203
938.03
937.917
937.831
937.759
937.697
937.642
937.592
937.547
937.505
937.468
933.891
933.891
933.891
933.891
933.891
933.891
933.891
933.891
933.891
933.895
934.089
934.241
934.375
934.5
934.618
934.731
934.841
934.948
935.051
935.153
935.252
935.349
935.444
935.537
935.628
935.718
935.807
935.893
935.979
936.063
936.146
936.228
936.31
936.391
936.471
936.55
936.628
936.706
936.782
936.858
936.934
937.01
937.085
937.159
937.233
937.306
937.379
937.451
937.522
937.592
937.661
937.729
937.796
937.861
937.925
937.986
938.046
938.103
938.157
938.203
938.029
937.917
937.83
937.759
937.696
937.641
937.592
937.547
937.505
937.468
933.891
933.891
933.891
933.891
933.891
933.891
933.891
933.891
933.891
933.895
934.089
934.241
934.375
934.499
934.617
934.731
934.84
934.947
935.051
935.152
935.251
935.348
935.443
935.537
935.628
935.718
935.806
935.893
935.979
936.063
936.146
936.229
936.31
936.391
936.471
936.551
936.629
936.706
936.783
936.859
936.935
937.01
937.085
937.159
937.233
937.307
937.379
937.451
937.522
937.592
937.661
937.729
937.796
937.861
937.925
937.986
938.046
938.103
938.157
938.203
938.029
937.917
937.83
937.758
937.696
937.641
937.592
937.547
937.505
937.467
933.891
933.891
933.891
933.891
933.891
933.891
933.891
933.891
933.891
933.895
934.089
934.241
934.375
934.499
934.617
934.73
934.84
934.947
935.05
935.152
935.251
935.348
935.443
935.536
935.628
935.718
935.806
935.893
935.979
936.063
936.146
936.229
936.311
936.392
936.472
936.551
936.63
936.707
936.784
936.86
936.935
937.01
937.085
937.16
937.233
937.307
937.379
937.451
937.522
937.592
937.661
937.729
937.796
937.861
937.925
937.986
938.046
938.103
938.158
938.204
938.03
937.917
937.831
937.759
937.697
937.641
937.592
937.547
937.505
937.467
933.891
933.891
933.891
933.891
933.891
933.891
933.891
933.891
933.891
933.895
934.088
934.24
934.374
934.498
934.616
934.73
934.839
934.946
935.05
935.151
935.251
935.348
935.443
935.536
935.628
935.718
935.806
935.893
935.979
936.063
936.146
936.229
936.311
936.392
936.472
936.551
936.63
936.708
936.784
936.86
936.936
937.011
937.086
937.16
937.234
937.307
937.379
937.451
937.522
937.592
937.661
937.729
937.796
937.861
937.925
937.986
938.046
938.103
938.158
938.204
938.03
937.917
937.831
937.759
937.697
937.642
937.592
937.547
937.505
937.468
933.891
933.891
933.891
933.891
933.891
933.891
933.891
933.891
933.891
933.895
934.088
934.24
934.374
934.498
934.616
934.729
934.839
934.946
935.05
935.151
935.25
935.347
935.443
935.536
935.628
935.718
935.806
935.893
935.979
936.063
936.147
936.229
936.311
936.392
936.472
936.552
936.63
936.708
936.785
936.861
936.936
937.011
937.086
937.16
937.233
937.307
937.379
937.451
937.522
937.592
937.661
937.729
937.796
937.861
937.924
937.986
938.046
938.103
938.158
938.204
938.03
937.917
937.831
937.759
937.697
937.642
937.592
937.547
937.505
937.468
933.891
933.891
933.891
933.891
933.891
933.891
933.891
933.891
933.891
933.895
934.088
934.24
934.373
934.498
934.615
934.729
934.838
934.945
935.049
935.15
935.25
935.347
935.442
935.536
935.628
935.718
935.806
935.893
935.979
936.063
936.147
936.229
936.311
936.392
936.472
936.552
936.63
936.708
936.785
936.86
936.936
937.011
937.085
937.159
937.233
937.306
937.379
937.45
937.521
937.591
937.66
937.728
937.795
937.861
937.924
937.986
938.046
938.104
938.159
938.205
938.031
937.918
937.831
937.759
937.697
937.642
937.592
937.547
937.505
937.468
933.891
933.891
933.891
933.891
933.891
933.891
933.891
933.891
933.891
933.895
934.088
934.24
934.373
934.497
934.615
934.728
934.838
934.945
935.049
935.15
935.25
935.347
935.442
935.536
935.627
935.718
935.806
935.893
935.979
936.063
936.147
936.229
936.311
936.392
936.472
936.552
936.63
936.708
936.784
936.86
936.936
937.01
937.085
937.159
937.233
937.306
937.378
937.45
937.521
937.591
937.66
937.728
937.795
937.86
937.924
937.986
938.046
938.103
938.158
938.205
938.031
937.918
937.831
937.759
937.697
937.642
937.592
937.547
937.505
937.468
933.891
933.891
933.891
933.891
933.891
933.891
933.891
933.891
933.891
933.895
934.088
934.239
934.373
934.497
934.615
934.728
934.838
934.944
935.048
935.15
935.249
935.347
935.442
935.535
935.627
935.718
935.806
935.893
935.979
936.063
936.147
936.229
936.311
936.392
936.472
936.551
936.63
936.707
936.784
936.859
936.935
937.01
937.084
937.158
937.232
937.305
937.377
937.449
937.52
937.59
937.659
937.727
937.794
937.86
937.924
937.986
938.046
938.104
938.159
938.205
938.031
937.918
937.831
937.759
937.697
937.642
937.592
937.547
937.506
937.468
933.891
933.891
933.891
933.891
933.891
933.891
933.891
933.891
933.891
933.895
934.088
934.239
934.373
934.497
934.614
934.728
934.837
934.944
935.048
935.149
935.249
935.346
935.442
935.535
935.627
935.717
935.806
935.893
935.979
936.063
936.146
936.229
936.31
936.391
936.471
936.55
936.629
936.706
936.783
936.858
936.934
937.009
937.083
937.157
937.231
937.304
937.376
937.448
937.519
937.589
937.658
937.727
937.794
937.859
937.923
937.985
938.045
938.103
938.159
938.205
938.031
937.918
937.831
937.759
937.697
937.642
937.592
937.547
937.506
937.468
933.891
933.891
933.891
933.891
933.891
933.891
933.891
933.891
933.891
933.895
934.088
934.239
934.372
934.496
934.614
934.727
934.837
934.944
935.048
935.149
935.248
935.346
935.441
935.535
935.627
935.717
935.806
935.893
935.979
936.063
936.146
936.228
936.31
936.391
936.471
936.55
936.628
936.705
936.781
936.857
936.933
937.008
937.082
937.156
937.23
937.303
937.376
937.447
937.518
937.588
937.658
937.726
937.793
937.859
937.923
937.985
938.046
938.104
938.159
938.205
938.031
937.918
937.831
937.759
937.697
937.642
937.593
937.547
937.506
937.468
933.891
933.891
933.891
933.891
933.891
933.891
933.891
933.891
933.891
933.895
934.088
934.239
934.372
934.496
934.614
934.727
934.837
934.943
935.047
935.149
935.248
935.345
935.441
935.534
935.626
935.717
935.806
935.893
935.979
936.063
936.146
936.228
936.309
936.39
936.47
936.549
936.627
936.704
936.78
936.856
936.932
937.007
937.082
937.156
937.229
937.302
937.375
937.447
937.518
937.588
937.657
937.725
937.793
937.859
937.923
937.985
938.046
938.104
938.16
938.207
938.032
937.919
937.832
937.76
937.698
937.643
937.593
937.548
937.506
937.469
933.891
933.891
933.891
933.891
933.891
933.891
933.891
933.891
933.891
933.895
934.087
934.239
934.372
934.496
934.614
934.727
934.836
934.943
935.047
935.148
935.247
935.345
935.44
935.534
935.626
935.716
935.805
935.892
935.978
936.063
936.146
936.227
936.309
936.389
936.469
936.548
936.626
936.703
936.779
936.855
936.931
937.006
937.081
937.155
937.229
937.302
937.374
937.446
937.517
937.588
937.657
937.725
937.793
937.859
937.923
937.986
938.046
938.105
938.16
938.207
938.033
937.92
937.833
937.761
937.699
937.643
937.594
937.548
937.507
937.469
933.891
933.891
933.891
933.891
933.891
933.891
933.891
933.891
933.891
933.895
934.087
934.239
934.372
934.496
934.613
934.726
934.836
934.942
935.046
935.148
935.247
935.344
935.44
935.533
935.625
935.716
935.804
935.892
935.978
936.062
936.145
936.227
936.308
936.388
936.468
936.547
936.625
936.702
936.779
936.855
936.931
937.006
937.081
937.155
937.229
937.302
937.374
937.446
937.517
937.587
937.657
937.725
937.793
937.859
937.923
937.986
938.047
938.106
938.162
938.209
938.034
937.921
937.834
937.762
937.699
937.644
937.595
937.549
937.508
937.47
933.891
933.891
933.891
933.891
933.891
933.891
933.891
933.891
933.891
933.895
934.087
934.239
934.372
934.495
934.613
934.726
934.835
934.942
935.045
935.147
935.246
935.343
935.439
935.532
935.624
935.715
935.803
935.891
935.977
936.061
936.144
936.226
936.307
936.387
936.467
936.546
936.624
936.701
936.778
936.854
936.93
937.006
937.081
937.155
937.229
937.302
937.374
937.446
937.517
937.587
937.657
937.725
937.793
937.859
937.924
937.987
938.048
938.107
938.163
938.211
938.035
937.922
937.835
937.763
937.701
937.645
937.596
937.55
937.509
937.471
933.891
933.891
933.891
933.891
933.891
933.891
933.891
933.891
933.891
933.895
934.087
934.238
934.371
934.495
934.612
934.725
934.834
934.941
935.045
935.146
935.245
935.342
935.438
935.531
935.623
935.713
935.802
935.89
935.976
936.06
936.143
936.225
936.306
936.386
936.466
936.545
936.623
936.7
936.777
936.854
936.93
937.005
937.08
937.155
937.228
937.301
937.374
937.446
937.517
937.587
937.657
937.725
937.793
937.859
937.924
937.988
938.049
938.108
938.164
938.211
938.036
937.923
937.836
937.764
937.701
937.646
937.596
937.551
937.509
937.472
933.891
933.891
933.891
933.891
933.891
933.891
933.891
933.891
933.891
933.895
934.087
934.238
934.371
934.495
934.612
934.725
934.834
934.94
935.044
935.145
935.244
935.341
935.436
935.53
935.622
935.712
935.801
935.888
935.974
936.059
936.142
936.224
936.305
936.385
936.464
936.543
936.621
936.699
936.776
936.853
936.929
937.004
937.079
937.154
937.227
937.301
937.373
937.445
937.516
937.586
937.656
937.725
937.792
937.859
937.924
937.988
938.049
938.108
938.165
938.212
938.037
937.923
937.836
937.764
937.702
937.646
937.597
937.551
937.51
937.472
933.891
933.891
933.891
933.891
933.891
933.891
933.891
933.891
933.891
933.895
934.087
934.238
934.371
934.494
934.611
934.724
934.833
934.939
935.043
935.144
935.243
935.34
935.435
935.528
935.62
935.71
935.799
935.886
935.972
936.057
936.14
936.222
936.303
936.383
936.462
936.541
936.62
936.697
936.775
936.851
936.927
937.003
937.078
937.152
937.226
937.299
937.372
937.443
937.515
937.585
937.655
937.723
937.791
937.858
937.923
937.987
938.049
938.108
938.165
938.213
938.037
937.923
937.836
937.764
937.701
937.646
937.596
937.551
937.509
937.472
933.891
933.891
933.891
933.891
933.891
933.891
933.891
933.891
933.891
933.895
934.087
934.237
934.37
934.494
934.611
934.723
934.832
934.938
935.041
935.142
935.241
935.338
935.433
935.526
935.618
935.708
935.797
935.884
935.97
936.054
936.137
936.219
936.3
936.38
936.46
936.539
936.617
936.695
936.773
936.849
936.925
937.001
937.076
937.15
937.224
937.297
937.37
937.441
937.513
937.583
937.653
937.722
937.789
937.856
937.922
937.986
938.048
938.107
938.164
938.212
938.036
937.922
937.835
937.763
937.7
937.645
937.595
937.55
937.508
937.471
933.891
933.891
933.891
933.891
933.891
933.891
933.891
933.891
933.891
933.895
934.087
934.237
934.37
934.493
934.61
934.722
934.831
934.937
935.04
935.141
935.24
935.336
935.431
935.524
935.616
935.706
935.795
935.882
935.967
936.052
936.135
936.217
936.298
936.378
936.457
936.536
936.615
936.693
936.77
936.847
936.923
936.999
937.073
937.148
937.221
937.295
937.367
937.439
937.51
937.58
937.65
937.719
937.787
937.854
937.92
937.984
938.046
938.106
938.163
938.211
938.035
937.921
937.834
937.762
937.699
937.644
937.594
937.549
937.507
937.469
933.891
933.891
933.891
933.891
933.891
933.891
933.891
933.891
933.891
933.895
934.086
934.237
934.369
934.492
934.609
934.721
934.83
934.935
935.038
935.139
935.238
935.334
935.429
935.522
935.614
935.703
935.792
935.879
935.964
936.049
936.132
936.213
936.294
936.375
936.454
936.533
936.612
936.69
936.767
936.844
936.92
936.995
937.07
937.145
937.218
937.291
937.364
937.436
937.507
937.577
937.647
937.716
937.784
937.851
937.917
937.981
938.044
938.104
938.161
938.209
938.033
937.919
937.832
937.76
937.697
937.642
937.592
937.547
937.505
937.467
933.891
933.891
933.891
933.891
933.891
933.891
933.891
933.891
933.891
933.895
934.086
934.237
934.369
934.492
934.608
934.72
934.828
934.934
935.037
935.137
935.236
935.332
935.427
935.52
935.611
935.701
935.789
935.876
935.961
936.045
936.128
936.21
936.291
936.372
936.451
936.53
936.609
936.687
936.764
936.841
936.917
936.992
937.067
937.141
937.215
937.288
937.36
937.432
937.503
937.574
937.643
937.713
937.781
937.848
937.914
937.979
938.041
938.102
938.159
938.207
938.031
937.917
937.83
937.758
937.695
937.64
937.59
937.545
937.504
937.466
933.891
933.891
933.891
933.891
933.891
933.891
933.891
933.891
933.891
933.895
934.086
934.236
934.368
934.491
934.607
934.719
934.827
934.932
935.035
935.135
935.233
935.329
935.424
935.517
935.608
935.697
935.786
935.872
935.958
936.042
936.125
936.207
936.288
936.368
936.448
936.527
936.605
936.683
936.761
936.837
936.913
936.989
937.064
937.138
937.212
937.285
937.357
937.429
937.5
937.571
937.641
937.71
937.778
937.846
937.912
937.977
938.04
938.1
938.158
938.207
938.031
937.917
937.83
937.758
937.695
937.64
937.591
937.545
937.504
937.466
933.891
933.891
933.891
933.891
933.891
933.891
933.891
933.891
933.891
933.895
934.086
934.236
934.368
934.49
934.606
934.718
934.826
934.93
935.033
935.133
935.231
935.327
935.421
935.514
935.605
935.695
935.783
935.87
935.955
936.039
936.122
936.204
936.285
936.366
936.445
936.525
936.603
936.681
936.759
936.835
936.912
936.987
937.062
937.137
937.21
937.284
937.356
937.428
937.5
937.571
937.641
937.71
937.779
937.847
937.913
937.979
938.043
938.104
938.162
938.212
938.035
937.922
937.835
937.763
937.7
937.645
937.596
937.551
937.51
937.473
933.891
933.891
933.891
933.891
933.891
933.891
933.891
933.891
933.891
933.895
934.085
934.235
934.367
934.489
934.605
934.716
934.824
934.929
935.031
935.131
935.229
935.325
935.419
935.512
935.603
935.693
935.781
935.868
935.953
936.038
936.121
936.203
936.285
936.365
936.446
936.525
936.604
936.683
936.76
936.838
936.914
936.99
937.066
937.141
937.215
937.289
937.362
937.435
937.507
937.578
937.649
937.719
937.789
937.858
937.925
937.992
938.056
938.119
938.179
938.229
938.053
937.939
937.852
937.781
937.719
937.664
937.615
937.571
937.53
937.493
933.891
933.891
933.891
933.891
933.891
933.891
933.891
933.891
933.891
933.895
934.085
934.235
934.367
934.489
934.605
934.716
934.824
934.929
935.031
935.131
935.229
935.326
935.42
935.513
935.605
935.695
935.784
935.871
935.957
936.042
936.126
936.21
936.292
936.374
936.455
936.536
936.616
936.695
936.774
936.852
936.93
937.007
937.084
937.16
937.236
937.311
937.386
937.46
937.534
937.607
937.679
937.751
937.822
937.893
937.962
938.031
938.098
938.162
938.224
938.277
938.1
937.987
937.901
937.829
937.768
937.715
937.666
937.623
937.583
937.547
933.891
933.891
933.891
933.891
933.891
933.891
933.891
933.891
933.891
933.895
934.085
934.235
934.367
934.49
934.606
934.718
934.826
934.932
935.035
935.136
935.235
935.333
935.429
935.523
935.616
935.708
935.799
935.888
935.976
936.063
936.149
936.235
936.319
936.404
936.487
936.57
936.653
936.735
936.817
936.898
936.979
937.059
937.139
937.218
937.297
937.375
937.453
937.53
937.608
937.684
937.76
937.836
937.91
937.985
938.058
938.131
938.201
938.27
938.336
938.393
938.215
938.103
938.017
937.947
937.887
937.835
937.788
937.745
937.707
937.672
933.891
933.891
933.891
933.891
933.891
933.891
933.891
933.891
933.891
933.895
934.086
934.238
934.371
934.496
934.614
934.728
934.839
934.948
935.054
935.158
935.261
935.362
935.462
935.561
935.658
935.754
935.849
935.943
936.036
936.129
936.22
936.311
936.401
936.491
936.58
936.669
936.757
936.846
936.933
937.021
937.108
937.194
937.28
937.366
937.452
937.537
937.622
937.706
937.79
937.873
937.956
938.039
938.121
938.203
938.283
938.363
938.442
938.518
938.592
938.655
938.475
938.362
938.277
938.207
938.148
938.096
938.05
938.008
937.97
937.936
933.891
933.891
933.891
933.891
933.891
933.891
933.891
933.891
933.891
933.895
934.091
934.247
934.387
934.517
934.642
934.763
934.882
934.999
935.114
935.227
935.339
935.45
935.56
935.668
935.776
935.883
935.989
936.094
936.199
936.302
936.405
936.508
936.61
936.711
936.812
936.913
937.014
937.114
937.214
937.314
937.413
937.512
937.61
937.708
937.806
937.903
938
938.096
938.192
938.288
938.383
938.478
938.572
938.665
938.757
938.849
938.939
939.027
939.111
939.185
938.993
938.873
938.782
938.706
938.642
938.584
938.533
938.485
938.442
938.404
933.891
933.891
933.891
933.891
933.891
933.891
933.891
933.891
933.891
933.896
934.109
934.284
934.44
934.589
934.733
934.874
935.012
935.149
935.284
935.418
935.55
935.682
935.813
935.943
936.072
936.2
936.327
936.453
936.578
936.703
936.826
936.949
937.071
937.192
937.313
937.433
937.552
937.671
937.789
937.907
938.023
938.139
938.255
938.369
938.483
938.597
938.709
938.821
938.932
939.042
939.151
939.26
939.367
939.474
939.579
939.683
939.786
939.885
939.981
940.06
939.821
939.664
939.541
939.437
939.345
939.262
939.187
939.117
939.052
938.994
933.891
933.891
933.891
933.891
933.891
933.891
933.891
933.891
933.892
933.898
934.179
934.399
934.595
934.781
934.959
935.132
935.302
935.469
935.634
935.797
935.958
936.118
936.276
936.432
936.587
936.74
936.891
937.04
937.187
937.333
937.476
937.619
937.759
937.898
938.036
938.172
938.306
938.44
938.572
938.702
938.831
938.959
939.085
939.21
939.334
939.457
939.578
939.698
939.817
939.934
940.051
940.166
940.28
940.393
940.503
940.613
940.719
940.822
940.92
940.989
940.591
940.338
940.142
939.98
939.84
939.716
939.606
939.505
939.414
939.334
933.891
933.891
933.891
933.891
933.891
933.891
933.891
933.891
933.891
933.896
934.111
934.314
934.505
934.688
934.865
935.037
935.206
935.373
935.537
935.699
935.859
936.018
936.175
936.331
936.485
936.638
936.789
936.939
937.087
937.234
937.379
937.522
937.664
937.804
937.942
938.079
938.214
938.348
938.48
938.611
938.741
938.87
938.998
939.124
939.25
939.374
939.496
939.617
939.737
939.855
939.972
940.087
940.2
940.312
940.42
940.526
940.63
940.729
940.824
940.895
940.57
940.329
940.137
939.976
939.837
939.714
939.604
939.504
939.412
939.331
933.891
933.891
933.891
933.891
933.891
933.891
933.891
933.891
933.891
933.894
934.047
934.2
934.348
934.492
934.632
934.77
934.906
935.04
935.173
935.305
935.436
935.566
935.695
935.823
935.951
936.078
936.204
936.33
936.455
936.579
936.702
936.825
936.947
937.069
937.189
937.309
937.428
937.547
937.665
937.782
937.899
938.016
938.132
938.247
938.362
938.476
938.589
938.702
938.813
938.924
939.033
939.141
939.248
939.354
939.458
939.56
939.66
939.757
939.852
939.932
939.766
939.63
939.515
939.416
939.328
939.248
939.175
939.107
939.044
938.986
933.891
933.891
933.891
933.891
933.891
933.891
933.891
933.891
933.891
933.894
934.032
934.167
934.298
934.424
934.545
934.664
934.78
934.895
935.007
935.119
935.229
935.338
935.446
935.553
935.659
935.765
935.87
935.974
936.078
936.181
936.283
936.386
936.487
936.588
936.689
936.789
936.889
936.989
937.088
937.187
937.285
937.384
937.482
937.581
937.678
937.776
937.873
937.97
938.066
938.161
938.256
938.35
938.443
938.535
938.625
938.715
938.802
938.888
938.971
939.046
938.923
938.823
938.741
938.671
938.61
938.556
938.507
938.461