/*--------------------------------*- C++ -*----------------------------------*\
  =========                 |
  \\      /  F ield         | OpenFOAM: The Open Source CFD Toolbox
   \\    /   O peration     | Website:  https://openfoam.org
    \\  /    A nd           | Version:  12
     \\/     M anipulation  |
\*---------------------------------------------------------------------------*/
FoamFile
{
    format      ascii;
    class       volScalarField;
    location    "1300/porous";
    object      T;
}
// * * * * * * * * * * * * * * * * * * * * * * * * * * * * * * * * * * * * * //

dimensions      [0 0 0 1 0 0 0];

internalField   nonuniform List<scalar> 
140000
(
400
400
400
400
400
400
400
400
400
399.993
399.688
399.448
399.234
399.033
398.839
398.652
398.468
398.288
398.111
397.935
397.761
397.59
397.419
397.251
397.084
396.918
396.754
396.591
396.43
396.27
396.112
395.956
395.802
395.649
395.498
395.348
395.2
395.053
394.908
394.764
394.621
394.479
394.339
394.199
394.06
393.923
393.788
393.654
393.521
393.39
393.261
393.134
393.008
392.884
392.765
392.646
392.532
392.422
392.317
392.244
392.685
392.967
393.184
393.364
393.519
393.656
393.778
393.889
393.99
394.079
400
400
400
400
400
400
400
400
400
399.995
399.762
399.572
399.401
399.239
399.083
398.931
398.782
398.635
398.489
398.345
398.202
398.061
397.92
397.78
397.641
397.502
397.364
397.227
397.091
396.956
396.821
396.687
396.553
396.421
396.289
396.157
396.027
395.897
395.768
395.639
395.51
395.382
395.255
395.128
395.002
394.876
394.751
394.628
394.505
394.383
394.262
394.143
394.025
393.909
393.794
393.682
393.572
393.465
393.361
393.278
393.542
393.714
393.85
393.965
394.067
394.158
394.241
394.318
394.389
394.453
400
400
400
400
400
400
400
400
400
399.996
399.782
399.612
399.459
399.317
399.181
399.049
398.921
398.796
398.672
398.55
398.43
398.311
398.193
398.075
397.959
397.844
397.729
397.615
397.502
397.389
397.277
397.165
397.054
396.943
396.833
396.723
396.613
396.504
396.396
396.287
396.179
396.07
395.962
395.854
395.746
395.639
395.532
395.426
395.32
395.215
395.111
395.008
394.906
394.805
394.705
394.607
394.511
394.416
394.327
394.248
394.458
394.589
394.689
394.772
394.843
394.906
394.962
395.014
395.062
395.104
400
400
400
400
400
400
400
400
400
399.996
399.787
399.621
399.475
399.339
399.21
399.086
398.966
398.849
398.735
398.623
398.513
398.404
398.297
398.191
398.086
397.982
397.879
397.777
397.676
397.576
397.476
397.377
397.279
397.181
397.084
396.988
396.892
396.796
396.701
396.606
396.511
396.416
396.322
396.228
396.134
396.04
395.947
395.855
395.763
395.671
395.581
395.491
395.402
395.315
395.228
395.144
395.06
394.979
394.901
394.834
395.03
395.153
395.246
395.322
395.386
395.443
395.493
395.539
395.58
395.618
400
400
400
400
400
400
400
400
400
399.996
399.788
399.624
399.479
399.345
399.218
399.096
398.979
398.865
398.754
398.645
398.539
398.434
398.331
398.23
398.129
398.03
397.933
397.836
397.74
397.645
397.551
397.458
397.366
397.274
397.184
397.093
397.004
396.915
396.827
396.739
396.651
396.563
396.476
396.389
396.303
396.217
396.131
396.046
395.962
395.879
395.796
395.714
395.634
395.554
395.476
395.4
395.325
395.252
395.182
395.123
395.315
395.438
395.531
395.607
395.672
395.73
395.781
395.827
395.869
395.907
400
400
400
400
400
400
400
400
400
399.996
399.788
399.624
399.479
399.345
399.219
399.098
398.981
398.868
398.757
398.65
398.544
398.441
398.339
398.239
398.141
398.043
397.947
397.853
397.759
397.666
397.575
397.484
397.394
397.305
397.217
397.13
397.044
396.958
396.872
396.788
396.703
396.619
396.535
396.452
396.369
396.286
396.204
396.123
396.043
395.963
395.885
395.807
395.731
395.656
395.582
395.51
395.44
395.371
395.306
395.25
395.442
395.565
395.659
395.736
395.803
395.861
395.914
395.962
396.005
396.044
400
400
400
400
400
400
400
400
400
399.996
399.788
399.624
399.479
399.345
399.218
399.097
398.98
398.867
398.757
398.649
398.544
398.441
398.34
398.24
398.142
398.045
397.95
397.855
397.763
397.671
397.58
397.49
397.401
397.313
397.226
397.14
397.055
396.97
396.886
396.803
396.72
396.637
396.554
396.472
396.391
396.31
396.23
396.151
396.072
395.994
395.917
395.842
395.767
395.694
395.623
395.553
395.485
395.419
395.356
395.303
395.494
395.618
395.712
395.79
395.857
395.916
395.97
396.018
396.063
396.103
400
400
400
400
400
400
400
400
400
399.996
399.788
399.623
399.478
399.344
399.217
399.096
398.979
398.865
398.755
398.647
398.542
398.438
398.337
398.237
398.139
398.042
397.947
397.853
397.76
397.669
397.578
397.489
397.4
397.313
397.226
397.14
397.056
396.971
396.888
396.805
396.722
396.64
396.558
396.477
396.396
396.316
396.236
396.157
396.079
396.002
395.926
395.852
395.778
395.706
395.636
395.567
395.5
395.435
395.374
395.322
395.513
395.636
395.731
395.809
395.877
395.937
395.99
396.039
396.084
396.125
400
400
400
400
400
400
400
400
400
399.996
399.787
399.623
399.478
399.344
399.216
399.095
398.977
398.864
398.753
398.645
398.539
398.436
398.334
398.234
398.136
398.039
397.944
397.85
397.757
397.665
397.575
397.485
397.397
397.31
397.223
397.138
397.053
396.969
396.886
396.803
396.72
396.638
396.556
396.475
396.395
396.314
396.235
396.157
396.079
396.002
395.927
395.852
395.779
395.707
395.637
395.569
395.503
395.439
395.378
395.326
395.517
395.641
395.736
395.814
395.882
395.942
395.996
396.045
396.09
396.131
400
400
400
400
400
400
400
400
400
399.996
399.787
399.623
399.478
399.343
399.216
399.094
398.976
398.862
398.751
398.643
398.537
398.433
398.332
398.232
398.133
398.036
397.941
397.846
397.753
397.662
397.571
397.482
397.393
397.306
397.22
397.134
397.05
396.966
396.882
396.799
396.717
396.635
396.553
396.472
396.391
396.311
396.232
396.153
396.076
395.999
395.924
395.849
395.776
395.705
395.635
395.567
395.501
395.437
395.377
395.325
395.517
395.64
395.735
395.814
395.882
395.942
395.996
396.045
396.09
396.131
400
400
400
400
400
400
400
400
400
399.996
399.787
399.623
399.478
399.343
399.215
399.093
398.975
398.861
398.75
398.642
398.536
398.432
398.33
398.229
398.131
398.034
397.938
397.844
397.751
397.659
397.568
397.479
397.39
397.303
397.217
397.131
397.047
396.963
396.879
396.796
396.714
396.631
396.55
396.468
396.388
396.308
396.228
396.15
396.072
395.996
395.92
395.846
395.772
395.701
395.631
395.564
395.498
395.434
395.374
395.323
395.514
395.638
395.733
395.811
395.879
395.939
395.994
396.043
396.088
396.129
400
400
400
400
400
400
400
400
400
399.996
399.787
399.622
399.477
399.343
399.215
399.093
398.975
398.861
398.749
398.641
398.534
398.43
398.328
398.228
398.129
398.032
397.936
397.842
397.748
397.656
397.566
397.476
397.388
397.301
397.214
397.129
397.044
396.96
396.877
396.794
396.711
396.629
396.547
396.465
396.384
396.304
396.225
396.147
396.069
395.992
395.917
395.842
395.769
395.698
395.628
395.56
395.495
395.431
395.371
395.32
395.511
395.635
395.73
395.809
395.877
395.937
395.991
396.04
396.086
396.127
400
400
400
400
400
400
400
400
400
399.996
399.787
399.623
399.477
399.343
399.215
399.093
398.975
398.86
398.749
398.64
398.534
398.429
398.327
398.227
398.128
398.031
397.935
397.84
397.747
397.655
397.564
397.475
397.386
397.299
397.213
397.127
397.043
396.959
396.875
396.792
396.709
396.627
396.545
396.463
396.382
396.302
396.223
396.144
396.066
395.99
395.914
395.84
395.766
395.695
395.625
395.558
395.492
395.429
395.369
395.318
395.509
395.633
395.728
395.806
395.874
395.935
395.989
396.038
396.084
396.125
400
400
400
400
400
400
400
400
400
399.996
399.787
399.623
399.478
399.343
399.215
399.093
398.975
398.86
398.749
398.64
398.533
398.429
398.326
398.226
398.127
398.03
397.934
397.839
397.746
397.654
397.563
397.474
397.385
397.298
397.212
397.126
397.042
396.958
396.874
396.791
396.708
396.625
396.543
396.462
396.381
396.3
396.221
396.142
396.065
395.988
395.912
395.838
395.765
395.693
395.624
395.556
395.49
395.427
395.367
395.316
395.507
395.631
395.726
395.805
395.873
395.933
395.987
396.037
396.082
396.123
400
400
400
400
400
400
400
400
400
399.996
399.787
399.623
399.478
399.344
399.216
399.094
398.975
398.861
398.749
398.64
398.533
398.429
398.326
398.226
398.127
398.029
397.933
397.839
397.746
397.654
397.563
397.474
397.385
397.298
397.212
397.126
397.041
396.957
396.874
396.79
396.707
396.625
396.542
396.461
396.38
396.3
396.22
396.141
396.064
395.987
395.911
395.837
395.764
395.692
395.622
395.555
395.489
395.426
395.366
395.315
395.507
395.63
395.725
395.804
395.872
395.932
395.987
396.036
396.081
396.123
400
400
400
400
400
400
400
400
400
399.996
399.787
399.623
399.478
399.344
399.216
399.094
398.976
398.861
398.749
398.64
398.533
398.429
398.326
398.226
398.127
398.029
397.933
397.839
397.746
397.654
397.563
397.474
397.386
397.298
397.212
397.126
397.042
396.957
396.874
396.79
396.707
396.625
396.542
396.461
396.38
396.299
396.22
396.141
396.063
395.987
395.911
395.836
395.763
395.692
395.622
395.554
395.489
395.426
395.366
395.315
395.506
395.63
395.725
395.804
395.872
395.932
395.986
396.036
396.081
396.123
400
400
400
400
400
400
400
400
400
399.996
399.787
399.623
399.479
399.345
399.217
399.095
398.976
398.862
398.75
398.641
398.534
398.429
398.327
398.226
398.127
398.03
397.934
397.839
397.746
397.654
397.564
397.474
397.386
397.299
397.213
397.127
397.042
396.958
396.874
396.791
396.708
396.625
396.543
396.461
396.38
396.3
396.22
396.142
396.064
395.987
395.911
395.837
395.763
395.692
395.622
395.555
395.489
395.426
395.366
395.316
395.507
395.63
395.725
395.804
395.872
395.933
395.987
396.036
396.082
396.123
400
400
400
400
400
400
400
400
400
399.996
399.788
399.624
399.479
399.345
399.218
399.096
398.977
398.862
398.75
398.641
398.534
398.43
398.327
398.226
398.127
398.03
397.934
397.84
397.747
397.655
397.564
397.475
397.387
397.3
397.213
397.127
397.043
396.958
396.875
396.791
396.708
396.626
396.544
396.462
396.381
396.301
396.221
396.142
396.064
395.988
395.912
395.837
395.764
395.693
395.623
395.555
395.49
395.427
395.367
395.316
395.507
395.631
395.726
395.805
395.873
395.933
395.988
396.037
396.083
396.124
400
400
400
400
400
400
400
400
400
399.996
399.788
399.624
399.48
399.346
399.218
399.096
398.978
398.863
398.751
398.642
398.535
398.43
398.328
398.227
398.128
398.03
397.935
397.84
397.747
397.656
397.565
397.477
397.388
397.301
397.214
397.128
397.043
396.959
396.875
396.792
396.709
396.626
396.544
396.463
396.382
396.301
396.222
396.143
396.065
395.988
395.912
395.838
395.765
395.693
395.624
395.556
395.49
395.428
395.368
395.317
395.508
395.632
395.727
395.806
395.874
395.934
395.988
396.038
396.083
396.125
400
400
400
400
400
400
400
400
400
399.996
399.788
399.624
399.48
399.346
399.219
399.097
398.979
398.864
398.752
398.642
398.535
398.431
398.328
398.227
398.128
398.031
397.935
397.841
397.748
397.656
397.566
397.477
397.389
397.301
397.214
397.128
397.043
396.958
396.875
396.792
396.709
396.627
396.545
396.463
396.382
396.302
396.222
396.143
396.066
395.989
395.913
395.838
395.765
395.694
395.624
395.556
395.491
395.428
395.368
395.318
395.509
395.632
395.727
395.806
395.874
395.935
395.989
396.038
396.084
396.125
400
400
400
400
400
400
400
400
400
399.996
399.788
399.625
399.481
399.347
399.22
399.097
398.979
398.864
398.752
398.643
398.536
398.431
398.328
398.228
398.129
398.031
397.935
397.841
397.748
397.657
397.567
397.478
397.389
397.301
397.214
397.128
397.042
396.958
396.875
396.792
396.709
396.626
396.544
396.463
396.382
396.302
396.222
396.144
396.066
395.989
395.913
395.839
395.765
395.694
395.624
395.557
395.491
395.428
395.368
395.318
395.509
395.633
395.728
395.807
395.875
395.935
395.989
396.039
396.084
396.126
400
400
400
400
400
400
400
400
400
399.996
399.788
399.625
399.481
399.347
399.22
399.098
398.98
398.865
398.753
398.644
398.537
398.432
398.329
398.228
398.129
398.031
397.936
397.841
397.749
397.657
397.567
397.477
397.389
397.301
397.213
397.127
397.042
396.957
396.874
396.791
396.708
396.626
396.544
396.463
396.382
396.302
396.222
396.144
396.066
395.989
395.913
395.839
395.765
395.694
395.624
395.557
395.491
395.428
395.368
395.318
395.509
395.633
395.728
395.807
395.875
395.935
395.989
396.039
396.084
396.126
400
400
400
400
400
400
400
400
400
399.996
399.789
399.625
399.481
399.348
399.221
399.098
398.98
398.865
398.753
398.644
398.537
398.432
398.329
398.228
398.129
398.032
397.936
397.842
397.749
397.657
397.567
397.477
397.388
397.3
397.213
397.126
397.041
396.956
396.873
396.79
396.708
396.625
396.544
396.462
396.382
396.302
396.222
396.144
396.066
395.989
395.913
395.839
395.765
395.694
395.624
395.557
395.491
395.428
395.368
395.317
395.509
395.632
395.727
395.806
395.875
395.935
395.989
396.039
396.084
396.126
400
400
400
400
400
400
400
400
400
399.996
399.789
399.626
399.482
399.348
399.221
399.099
398.981
398.866
398.754
398.644
398.537
398.432
398.329
398.228
398.129
398.032
397.936
397.842
397.749
397.657
397.567
397.477
397.388
397.3
397.212
397.126
397.041
396.956
396.872
396.789
396.707
396.625
396.543
396.462
396.382
396.302
396.222
396.144
396.066
395.989
395.913
395.839
395.766
395.694
395.624
395.557
395.491
395.428
395.368
395.317
395.508
395.632
395.727
395.806
395.874
395.935
395.989
396.039
396.084
396.125
400
400
400
400
400
400
400
400
400
399.996
399.789
399.626
399.482
399.348
399.221
399.099
398.981
398.866
398.754
398.645
398.538
398.433
398.33
398.228
398.129
398.032
397.936
397.842
397.749
397.657
397.566
397.477
397.388
397.299
397.212
397.126
397.04
396.956
396.872
396.789
396.707
396.625
396.543
396.462
396.382
396.302
396.222
396.144
396.066
395.989
395.914
395.839
395.766
395.694
395.624
395.557
395.491
395.428
395.368
395.317
395.508
395.632
395.727
395.806
395.874
395.935
395.989
396.039
396.084
396.125
400
400
400
400
400
400
400
400
400
399.996
399.789
399.626
399.483
399.349
399.222
399.1
398.982
398.867
398.755
398.645
398.538
398.433
398.33
398.229
398.129
398.032
397.936
397.842
397.749
397.657
397.566
397.477
397.388
397.299
397.212
397.126
397.04
396.956
396.872
396.789
396.707
396.625
396.544
396.463
396.382
396.302
396.223
396.144
396.067
395.99
395.914
395.839
395.766
395.695
395.625
395.557
395.491
395.427
395.367
395.316
395.508
395.632
395.727
395.806
395.874
395.934
395.989
396.038
396.084
396.125
400
400
400
400
400
400
400
400
400
399.996
399.789
399.626
399.483
399.349
399.223
399.101
398.982
398.867
398.755
398.646
398.538
398.433
398.33
398.229
398.129
398.032
397.936
397.841
397.748
397.657
397.566
397.477
397.388
397.3
397.212
397.126
397.041
396.956
396.872
396.79
396.707
396.625
396.544
396.463
396.383
396.303
396.224
396.145
396.067
395.99
395.915
395.84
395.767
395.695
395.625
395.557
395.491
395.428
395.367
395.316
395.508
395.632
395.727
395.806
395.874
395.934
395.989
396.038
396.084
396.125
400
400
400
400
400
400
400
400
400
399.996
399.789
399.627
399.483
399.35
399.223
399.101
398.983
398.868
398.756
398.646
398.539
398.434
398.33
398.229
398.13
398.032
397.936
397.841
397.748
397.657
397.566
397.477
397.388
397.3
397.213
397.126
397.041
396.957
396.873
396.79
396.708
396.626
396.545
396.464
396.383
396.304
396.224
396.146
396.068
395.991
395.915
395.841
395.767
395.695
395.625
395.557
395.491
395.427
395.367
395.316
395.508
395.632
395.727
395.806
395.874
395.934
395.989
396.038
396.084
396.125
400
400
400
400
400
400
400
400
400
399.996
399.79
399.627
399.483
399.35
399.223
399.102
398.983
398.868
398.756
398.646
398.539
398.434
398.331
398.229
398.13
398.032
397.936
397.841
397.748
397.657
397.567
397.477
397.388
397.3
397.213
397.127
397.042
396.957
396.874
396.791
396.709
396.627
396.546
396.465
396.384
396.305
396.225
396.147
396.069
395.992
395.916
395.841
395.768
395.696
395.626
395.558
395.491
395.428
395.367
395.316
395.507
395.631
395.727
395.806
395.874
395.934
395.989
396.038
396.084
396.125
400
400
400
400
400
400
400
400
400
399.996
399.79
399.627
399.484
399.35
399.224
399.102
398.984
398.869
398.757
398.647
398.54
398.434
398.331
398.23
398.13
398.032
397.936
397.842
397.748
397.657
397.567
397.478
397.389
397.301
397.214
397.128
397.043
396.959
396.875
396.793
396.71
396.628
396.547
396.466
396.385
396.306
396.226
396.148
396.07
395.993
395.917
395.842
395.769
395.697
395.626
395.557
395.491
395.427
395.367
395.315
395.507
395.631
395.726
395.805
395.874
395.934
395.989
396.038
396.084
396.125
400
400
400
400
400
400
400
400
400
399.996
399.79
399.627
399.484
399.351
399.224
399.102
398.984
398.869
398.757
398.647
398.54
398.435
398.332
398.23
398.131
398.033
397.936
397.842
397.749
397.657
397.567
397.478
397.39
397.302
397.215
397.129
397.044
396.96
396.877
396.794
396.711
396.629
396.548
396.467
396.386
396.306
396.227
396.148
396.071
395.994
395.918
395.843
395.769
395.697
395.626
395.558
395.491
395.427
395.366
395.314
395.506
395.63
395.726
395.805
395.873
395.934
395.988
396.038
396.083
396.124
400
400
400
400
400
400
400
400
400
399.996
399.79
399.627
399.484
399.351
399.224
399.103
398.985
398.87
398.757
398.648
398.541
398.435
398.332
398.231
398.131
398.033
397.937
397.842
397.749
397.658
397.567
397.479
397.39
397.303
397.216
397.13
397.045
396.961
396.878
396.795
396.712
396.63
396.548
396.467
396.387
396.307
396.228
396.149
396.071
395.994
395.918
395.843
395.769
395.697
395.626
395.557
395.49
395.426
395.365
395.313
395.505
395.63
395.725
395.804
395.872
395.933
395.987
396.037
396.082
396.124
400
400
400
400
400
400
400
400
400
399.996
399.79
399.628
399.484
399.351
399.225
399.103
398.985
398.87
398.758
398.649
398.541
398.436
398.333
398.232
398.132
398.034
397.938
397.843
397.75
397.658
397.568
397.479
397.391
397.304
397.217
397.131
397.046
396.962
396.879
396.795
396.712
396.63
396.548
396.467
396.387
396.307
396.228
396.149
396.071
395.994
395.918
395.843
395.769
395.696
395.625
395.556
395.489
395.425
395.363
395.312
395.504
395.629
395.724
395.803
395.871
395.932
395.986
396.036
396.081
396.123
400
400
400
400
400
400
400
400
400
399.996
399.79
399.628
399.484
399.351
399.225
399.103
398.986
398.871
398.759
398.649
398.542
398.437
398.334
398.233
398.133
398.035
397.939
397.844
397.751
397.659
397.569
397.48
397.392
397.305
397.218
397.132
397.047
396.963
396.879
396.796
396.713
396.63
396.549
396.467
396.387
396.307
396.228
396.149
396.071
395.994
395.918
395.843
395.769
395.696
395.625
395.555
395.489
395.424
395.362
395.31
395.503
395.627
395.723
395.802
395.87
395.931
395.985
396.035
396.08
396.122
400
400
400
400
400
400
400
400
400
399.996
399.79
399.628
399.485
399.352
399.226
399.104
398.986
398.872
398.76
398.65
398.543
398.438
398.335
398.234
398.134
398.036
397.94
397.845
397.752
397.66
397.57
397.481
397.393
397.306
397.219
397.134
397.048
396.964
396.88
396.796
396.713
396.631
396.549
396.468
396.387
396.307
396.228
396.15
396.072
395.995
395.918
395.843
395.769
395.696
395.625
395.555
395.487
395.423
395.361
395.309
395.502
395.626
395.722
395.801
395.869
395.93
395.984
396.034
396.08
396.121
400
400
400
400
400
400
400
400
400
399.996
399.79
399.628
399.485
399.352
399.226
399.105
398.987
398.872
398.761
398.651
398.544
398.439
398.336
398.235
398.136
398.038
397.942
397.847
397.754
397.662
397.572
397.483
397.395
397.308
397.221
397.135
397.05
396.965
396.881
396.798
396.714
396.632
396.55
396.469
396.388
396.308
396.229
396.15
396.073
395.995
395.919
395.844
395.769
395.696
395.625
395.555
395.488
395.422
395.36
395.308
395.501
395.626
395.721
395.801
395.869
395.93
395.984
396.034
396.079
396.121
400
400
400
400
400
400
400
400
400
399.996
399.79
399.628
399.485
399.353
399.227
399.105
398.988
398.874
398.762
398.653
398.546
398.441
398.338
398.237
398.137
398.04
397.944
397.849
397.756
397.664
397.574
397.485
397.397
397.31
397.223
397.137
397.052
396.967
396.883
396.799
396.716
396.634
396.552
396.47
396.39
396.31
396.231
396.152
396.074
395.997
395.92
395.845
395.771
395.697
395.626
395.555
395.488
395.423
395.36
395.308
395.501
395.626
395.721
395.801
395.869
395.93
395.984
396.034
396.08
396.121
400
400
400
400
400
400
400
400
400
399.996
399.79
399.629
399.486
399.353
399.227
399.106
398.989
398.875
398.763
398.654
398.547
398.443
398.34
398.239
398.14
398.042
397.946
397.851
397.758
397.667
397.576
397.487
397.399
397.312
397.226
397.14
397.054
396.969
396.885
396.801
396.718
396.636
396.554
396.473
396.392
396.312
396.233
396.154
396.076
395.999
395.923
395.847
395.773
395.699
395.627
395.557
395.489
395.423
395.361
395.309
395.502
395.627
395.722
395.802
395.87
395.931
395.985
396.035
396.081
396.122
400
400
400
400
400
400
400
400
400
399.996
399.791
399.629
399.486
399.354
399.228
399.107
398.99
398.876
398.765
398.656
398.549
398.445
398.342
398.241
398.142
398.044
397.948
397.854
397.761
397.67
397.579
397.49
397.402
397.315
397.228
397.142
397.057
396.972
396.888
396.804
396.721
396.638
396.557
396.475
396.395
396.315
396.236
396.157
396.079
396.002
395.925
395.85
395.775
395.702
395.63
395.559
395.491
395.425
395.362
395.31
395.503
395.628
395.724
395.803
395.872
395.932
395.987
396.037
396.082
396.124
400
400
400
400
400
400
400
400
400
399.996
399.791
399.629
399.487
399.355
399.229
399.108
398.992
398.878
398.766
398.658
398.551
398.447
398.344
398.244
398.145
398.047
397.951
397.857
397.764
397.673
397.583
397.494
397.406
397.318
397.232
397.146
397.06
396.975
396.891
396.807
396.724
396.642
396.56
396.479
396.398
396.318
396.239
396.161
396.083
396.005
395.929
395.853
395.779
395.705
395.633
395.562
395.493
395.427
395.365
395.312
395.505
395.63
395.726
395.805
395.874
395.934
395.989
396.039
396.084
396.126
400
400
400
400
400
400
400
400
400
399.996
399.791
399.63
399.487
399.355
399.23
399.11
398.993
398.879
398.768
398.66
398.553
398.449
398.347
398.246
398.148
398.05
397.955
397.86
397.768
397.676
397.586
397.497
397.409
397.322
397.235
397.149
397.064
396.979
396.895
396.811
396.728
396.646
396.564
396.483
396.402
396.322
396.243
396.164
396.086
396.009
395.933
395.857
395.782
395.708
395.636
395.565
395.496
395.43
395.367
395.314
395.507
395.632
395.728
395.807
395.876
395.936
395.991
396.04
396.086
396.127
400
400
400
400
400
400
400
400
400
399.996
399.791
399.63
399.488
399.356
399.231
399.111
398.995
398.881
398.77
398.662
398.556
398.452
398.35
398.25
398.151
398.054
397.958
397.864
397.771
397.68
397.59
397.501
397.413
397.326
397.239
397.153
397.067
396.982
396.898
396.815
396.732
396.649
396.567
396.486
396.406
396.326
396.246
396.168
396.09
396.012
395.936
395.86
395.785
395.711
395.638
395.567
395.497
395.431
395.367
395.313
395.507
395.632
395.728
395.807
395.876
395.936
395.991
396.04
396.086
396.127
400
400
400
400
400
400
400
400
400
399.996
399.792
399.631
399.488
399.357
399.232
399.112
398.996
398.883
398.772
398.664
398.558
398.455
398.353
398.252
398.154
398.057
397.961
397.867
397.775
397.683
397.593
397.504
397.416
397.328
397.242
397.155
397.07
396.985
396.9
396.817
396.733
396.651
396.569
396.488
396.407
396.327
396.247
396.168
396.09
396.013
395.936
395.86
395.784
395.71
395.636
395.565
395.495
395.427
395.363
395.309
395.502
395.627
395.723
395.802
395.87
395.931
395.985
396.034
396.079
396.12
400
400
400
400
400
400
400
400
400
399.996
399.792
399.631
399.489
399.358
399.233
399.114
398.998
398.885
398.774
398.666
398.561
398.457
398.355
398.255
398.156
398.059
397.963
397.869
397.776
397.685
397.594
397.505
397.416
397.328
397.241
397.155
397.069
396.983
396.898
396.814
396.731
396.647
396.565
396.483
396.402
396.321
396.241
396.161
396.082
396.004
395.926
395.849
395.773
395.698
395.623
395.55
395.479
395.411
395.345
395.29
395.484
395.608
395.704
395.782
395.85
395.91
395.964
396.013
396.057
396.098
400
400
400
400
400
400
400
400
400
399.996
399.792
399.631
399.489
399.358
399.234
399.114
398.998
398.885
398.774
398.666
398.56
398.456
398.354
398.253
398.154
398.056
397.96
397.865
397.772
397.68
397.588
397.498
397.408
397.319
397.231
397.143
397.056
396.97
396.884
396.798
396.713
396.629
396.545
396.462
396.379
396.297
396.215
396.134
396.053
395.973
395.894
395.815
395.737
395.659
395.583
395.508
395.434
395.363
395.295
395.237
395.431
395.556
395.651
395.729
395.796
395.855
395.908
395.956
395.999
396.039
400
400
400
400
400
400
400
400
400
399.996
399.792
399.631
399.489
399.357
399.232
399.112
398.995
398.881
398.77
398.661
398.554
398.448
398.345
398.242
398.142
398.042
397.944
397.847
397.752
397.657
397.563
397.471
397.378
397.287
397.196
397.105
397.015
396.926
396.837
396.748
396.66
396.573
396.485
396.399
396.313
396.227
396.141
396.057
395.972
395.888
395.805
395.722
395.64
395.558
395.477
395.398
395.32
395.244
395.171
395.109
395.305
395.429
395.522
395.599
395.665
395.723
395.774
395.821
395.863
395.901
400
400
400
400
400
400
400
400
400
399.996
399.791
399.628
399.485
399.351
399.224
399.101
398.981
398.864
398.75
398.637
398.526
398.417
398.309
398.202
398.097
397.992
397.889
397.787
397.686
397.586
397.487
397.388
397.29
397.192
397.095
396.998
396.902
396.805
396.71
396.614
396.519
396.425
396.33
396.236
396.143
396.05
395.957
395.864
395.772
395.68
395.589
395.498
395.408
395.319
395.23
395.142
395.055
394.971
394.89
394.82
395.019
395.143
395.237
395.314
395.379
395.436
395.487
395.533
395.574
395.612
400
400
400
400
400
400
400
400
400
399.996
399.786
399.619
399.468
399.328
399.194
399.063
398.935
398.809
398.685
398.563
398.442
398.322
398.203
398.085
397.968
397.852
397.737
397.623
397.51
397.397
397.285
397.174
397.063
396.952
396.842
396.731
396.622
396.512
396.403
396.294
396.185
396.077
395.969
395.862
395.755
395.648
395.541
395.435
395.33
395.225
395.12
395.016
394.912
394.809
394.707
394.606
394.507
394.409
394.316
394.234
394.447
394.579
394.68
394.763
394.835
394.898
394.955
395.007
395.054
395.097
400
400
400
400
400
400
400
400
400
399.995
399.766
399.579
399.411
399.25
399.096
398.944
398.795
398.647
398.501
398.357
398.213
398.07
397.929
397.788
397.648
397.508
397.37
397.233
397.097
396.961
396.827
396.693
396.56
396.427
396.295
396.164
396.033
395.903
395.773
395.644
395.516
395.388
395.261
395.135
395.009
394.885
394.761
394.637
394.515
394.393
394.272
394.152
394.032
393.914
393.797
393.682
393.568
393.457
393.35
393.263
393.529
393.703
393.839
393.955
394.057
394.149
394.232
394.31
394.381
394.445
400
400
400
400
400
400
400
400
400
399.993
399.692
399.455
399.244
399.044
398.852
398.666
398.482
398.301
398.122
397.946
397.771
397.598
397.426
397.256
397.088
396.921
396.756
396.593
396.432
396.273
396.116
395.96
395.806
395.653
395.502
395.353
395.204
395.057
394.912
394.768
394.626
394.484
394.345
394.206
394.069
393.933
393.799
393.665
393.533
393.403
393.273
393.145
393.018
392.892
392.768
392.646
392.527
392.411
392.302
392.225
392.67
392.953
393.171
393.352
393.508
393.645
393.768
393.879
393.981
394.069
400
400
400
400
400
400
400
400
400
399.995
399.764
399.546
399.341
399.144
398.954
398.768
398.585
398.405
398.228
398.052
397.878
397.706
397.535
397.366
397.198
397.032
396.867
396.703
396.541
396.381
396.223
396.066
395.91
395.757
395.605
395.455
395.306
395.159
395.013
394.868
394.725
394.583
394.442
394.302
394.163
394.025
393.889
393.755
393.622
393.49
393.36
393.233
393.107
392.982
392.861
392.743
392.627
392.516
392.409
392.33
392.694
392.963
393.177
393.356
393.511
393.647
393.77
393.881
393.983
394.072
400
400
400
400
400
400
400
400
400
399.997
399.833
399.669
399.51
399.355
399.204
399.055
398.909
398.764
398.621
398.478
398.337
398.196
398.056
397.917
397.779
397.641
397.504
397.367
397.231
397.096
396.962
396.828
396.694
396.562
396.43
396.299
396.168
396.039
395.909
395.78
395.652
395.524
395.397
395.27
395.143
395.018
394.893
394.769
394.646
394.523
394.402
394.282
394.164
394.047
393.932
393.819
393.707
393.599
393.494
393.405
393.59
393.741
393.868
393.978
394.075
394.164
394.245
394.321
394.391
394.454
400
400
400
400
400
400
400
400
400
399.998
399.85
399.704
399.564
399.429
399.298
399.17
399.045
398.921
398.8
398.68
398.561
398.443
398.326
398.211
398.095
397.981
397.867
397.754
397.641
397.529
397.418
397.307
397.196
397.086
396.976
396.867
396.758
396.649
396.541
396.433
396.325
396.217
396.109
396.002
395.894
395.787
395.681
395.575
395.469
395.364
395.26
395.157
395.054
394.953
394.853
394.754
394.658
394.562
394.471
394.388
394.524
394.635
394.725
394.802
394.87
394.93
394.984
395.034
395.079
395.121
400
400
400
400
400
400
400
400
400
399.998
399.854
399.712
399.578
399.449
399.325
399.205
399.088
398.973
398.861
398.75
398.641
398.534
398.427
398.322
398.219
398.116
398.014
397.912
397.812
397.712
397.613
397.515
397.417
397.32
397.223
397.127
397.032
396.936
396.842
396.747
396.653
396.559
396.465
396.371
396.277
396.184
396.091
395.999
395.907
395.816
395.726
395.636
395.547
395.459
395.373
395.287
395.203
395.122
395.042
394.971
395.096
395.198
395.282
395.353
395.415
395.469
395.517
395.561
395.601
395.638
400
400
400
400
400
400
400
400
400
399.998
399.855
399.715
399.582
399.455
399.332
399.214
399.1
398.988
398.879
398.772
398.667
398.563
398.461
398.36
398.261
398.163
398.065
397.969
397.874
397.78
397.686
397.594
397.502
397.411
397.32
397.23
397.141
397.053
396.965
396.877
396.79
396.702
396.616
396.529
396.443
396.357
396.272
396.187
396.103
396.02
395.937
395.855
395.775
395.695
395.616
395.539
395.464
395.39
395.319
395.255
395.378
395.48
395.564
395.635
395.697
395.752
395.802
395.847
395.887
395.925
400
400
400
400
400
400
400
400
400
399.998
399.854
399.714
399.582
399.455
399.333
399.215
399.101
398.99
398.882
398.776
398.672
398.569
398.469
398.369
398.272
398.175
398.08
397.985
397.892
397.8
397.709
397.619
397.529
397.441
397.353
397.266
397.179
397.094
397.009
396.924
396.84
396.756
396.673
396.589
396.507
396.425
396.343
396.262
396.182
396.102
396.023
395.946
395.869
395.793
395.719
395.647
395.576
395.506
395.44
395.38
395.502
395.605
395.69
395.762
395.825
395.882
395.932
395.979
396.021
396.059
400
400
400
400
400
400
400
400
400
399.998
399.854
399.714
399.581
399.454
399.332
399.215
399.101
398.99
398.881
398.775
398.671
398.569
398.469
398.37
398.273
398.177
398.082
397.988
397.896
397.804
397.714
397.624
397.536
397.448
397.361
397.276
397.19
397.106
397.022
396.939
396.856