/*--------------------------------*- C++ -*----------------------------------*\
  =========                 |
  \\      /  F ield         | OpenFOAM: The Open Source CFD Toolbox
   \\    /   O peration     | Website:  https://openfoam.org
    \\  /    A nd           | Version:  12
     \\/     M anipulation  |
\*---------------------------------------------------------------------------*/
FoamFile
{
    format      ascii;
    class       volScalarField;
    location    "400/air";
    object      alphat;
}
// * * * * * * * * * * * * * * * * * * * * * * * * * * * * * * * * * * * * * //

dimensions      [1 -1 -1 0 0 0 0];

internalField   nonuniform List<scalar> 
243000
(
0.000196784
0.000194427
0.000188913
0.000182177
0.000174584
0.000166429
0.000157899
0.000149146
0.000140325
0.00013171
0.00012366
0.000116681
0.00011031
0.000104173
9.73696e-05
9.20065e-05
0.000102851
0.000139503
0.000160926
0.000168184
0.000169218
0.00016724
0.00016302
0.000157305
0.000150458
0.000142831
0.000137902
0.000139335
0.000146317
0.000158736
0.00076079
0.000737384
0.000702207
0.000664903
0.000628304
0.000592888
0.000558654
0.000525642
0.000494039
0.000464488
0.000437771
0.000415089
0.000394346
0.000376232
0.000356987
0.000351076
0.000425422
0.000574172
0.000648587
0.000675386
0.00067953
0.000673578
0.000659998
0.000642572
0.000622356
0.000600994
0.000586369
0.000583619
0.000604546
0.000636095
0.000999087
0.0010066
0.000994675
0.000976398
0.00095504
0.000931289
0.00090522
0.000877033
0.00084716
0.000816887
0.000787756
0.000761738
0.000734515
0.000708168
0.000676023
0.00067197
0.000827297
0.00108558
0.00119994
0.00122962
0.00121632
0.0011819
0.00113301
0.00107722
0.00101778
0.000958262
0.000907269
0.000870221
0.000861648
0.000869262
0.00106427
0.001072
0.00106041
0.00104239
0.00102079
0.000996293
0.000969167
0.000939792
0.000908796
0.000877693
0.000848209
0.000821997
0.000793598
0.000764918
0.000728876
0.000725959
0.000901652
0.0011655
0.00128047
0.001313
0.00130246
0.0012695
0.00122166
0.00116665
0.00110811
0.00104988
0.000998785
0.00096014
0.000947515
0.000955153
0.00111162
0.00111881
0.00110818
0.00109123
0.00107031
0.00104603
0.00101876
0.000989034
0.000957647
0.000926303
0.000896753
0.000870339
0.000840791
0.00080946
0.00076874
0.000764564
0.000953804
0.00121714
0.00133142
0.00136614
0.00135864
0.00132804
0.00128238
0.00122938
0.00117293
0.00111711
0.00106745
0.00102934
0.00101414
0.00102224
0.0011476
0.00115394
0.00114435
0.00112869
0.00110881
0.00108519
0.00105824
0.00102865
0.000997317
0.000966063
0.00093654
0.000909785
0.000878988
0.000844662
0.000798814
0.000792709
0.000990159
0.00124917
0.00136263
0.00139912
0.00139459
0.00136677
0.00132393
0.00127356
0.00121984
0.00116694
0.0011196
0.00108313
0.00106665
0.00107533
0.00117566
0.00118113
0.00117253
0.00115816
0.00113939
0.0011166
0.00109022
0.00106102
0.00103
0.000998987
0.000969475
0.000942178
0.000909954
0.000872264
0.000821197
0.000816687
0.00101474
0.00126636
0.00137931
0.00141774
0.00141592
0.00139108
0.00135144
0.00130409
0.00125342
0.00120368
0.00115913
0.00112494
0.00110828
0.00111758
0.00119784
0.00120256
0.00119487
0.00118171
0.00116402
0.0011421
0.00111638
0.00108769
0.0010571
0.00102638
0.000996793
0.000968726
0.000934893
0.000893437
0.000837815
0.000838339
0.00103025
0.00127385
0.00138547
0.00142564
0.00142623
0.00140453
0.00136844
0.00132439
0.00127693
0.00123038
0.00118886
0.00115729
0.00114127
0.00115124
0.00121542
0.00121957
0.00121273
0.00120066
0.00118398
0.00116289
0.00113784
0.00110971
0.00107959
0.00104913
0.00101934
0.000990296
0.000954593
0.000909186
0.000853259
0.00085797
0.00103974
0.00127469
0.00138467
0.00142598
0.00142779
0.00140899
0.00137665
0.00133638
0.00129267
0.00124945
0.00121088
0.00118211
0.00116732
0.00117801
0.00122926
0.00123302
0.00122696
0.0012159
0.00120011
0.00117979
0.00115537
0.00112778
0.0010981
0.00106785
0.00103772
0.00100753
0.000969654
0.000920374
0.000867345
0.000875816
0.00104868
0.00126892
0.00137657
0.00141953
0.00142275
0.00140628
0.00137683
0.00134064
0.00130114
0.00126194
0.0012268
0.0012009
0.00118773
0.00119918
0.0012399
0.00124344
0.00123813
0.00122797
0.00121299
0.00119334
0.00116949
0.00114239
0.0011131
0.00108297
0.0010524
0.00102085
0.000980578
0.000928015
0.000879816
0.000892096
0.00105607
0.00125808
0.0013633
0.00140793
0.00141256
0.00139849
0.0013718
0.00133881
0.00130338
0.0012686
0.00123746
0.00121465
0.00120349
0.0012157
0.00124764
0.00125115
0.00124656
0.00123722
0.00122295
0.00120388
0.00118053
0.00115387
0.0011249
0.00109483
0.00106368
0.00103056
0.000987818
0.000934634
0.000891127
0.000906974
0.00106215
0.00124558
0.00134634
0.0013922
0.0013982
0.00138636
0.00136268
0.00133267
0.0013008
0.00127017
0.00124345
0.00122415
0.00121532
0.00122824
0.00125275
0.00125631
0.00125243
0.0012438
0.00123012
0.00121154
0.00118861
0.00116231
0.00113362
0.00110354
0.0010717
0.00103683
0.000992045
0.000941308
0.000901664
0.000920558
0.00106701
0.00123425
0.00132853
0.00137352
0.00138061
0.00137071
0.00134979
0.001323
0.00129449
0.00126768
0.00124522
0.00122995
0.00122359
0.00123726
0.00125527
0.00125898
0.00125578
0.00124785
0.00123472
0.00121659
0.00119404
0.00116806
0.00113955
0.00110934
0.00107672
0.00104026
0.000994962
0.000947714
0.000911598
0.000932928
0.0010707
0.00122374
0.00131229
0.00135564
0.00136225
0.00135277
0.00133409
0.00131021
0.00128507
0.00126187
0.00124334
0.00123211
0.00122838
0.00124303
0.00125507
0.00125914
0.00125678
0.0012495
0.00123683
0.00121911
0.00119693
0.00117127
0.00114293
0.00111258
0.0010792
0.0010416
0.000998295
0.000953969
0.00092104
0.000944151
0.00107325
0.00121374
0.00129716
0.00133899
0.00134535
0.00133651
0.00131895
0.0012965
0.00127309
0.00125333
0.00123846
0.00123088
0.00122986
0.00124574
0.00125236
0.00125677
0.00125532
0.0012488
0.00123667
0.00121933
0.00119751
0.00117217
0.00114402
0.00111356
0.0010797
0.00104287
0.00100186
0.000960119
0.000930046
0.000954289
0.00107488
0.00120397
0.00128278
0.00132321
0.00132951
0.00132132
0.00130486
0.00128388
0.00126231
0.00124376
0.0012309
0.00122656
0.0012282
0.00124557
0.00124693
0.00125183
0.00125126
0.00124547
0.00123389
0.00121699
0.00119559
0.0011707
0.00114288
0.00111286
0.00108022
0.00104472
0.00100563
0.000966198
0.000938651
0.000963379
0.00107536
0.00119425
0.00126886
0.001308
0.00131437
0.00130682
0.00129147
0.001272
0.00125218
0.00123499
0.00122323
0.00121939
0.00122325
0.00124222
0.00123869
0.0012442
0.00124462
0.00123957
0.00122849
0.0012121
0.0011913
0.00116768
0.00114124
0.00111252
0.00108113
0.00104692
0.00100956
0.000972211
0.00094686
0.000971422
0.00107475
0.0011844
0.00125514
0.0012931
0.00129967
0.00129276
0.00127851
0.00126054
0.00124241
0.00122664
0.00121599
0.00121231
0.00121542
0.00123558
0.00122906
0.00123502
0.00123639
0.00123213
0.00122193
0.00120664
0.00118719
0.00116483
0.00113977
0.00111235
0.00108222
0.00104932
0.00101361
0.000978153
0.000954678
0.000978435
0.00107317
0.00117431
0.00124144
0.00127829
0.00128518
0.00127893
0.00126579
0.0012493
0.00123278
0.00121845
0.00120891
0.00120555
0.00120824
0.00122602
0.00122009
0.00122632
0.00122845
0.00122491
0.00121551
0.00120127
0.00118307
0.00116198
0.00113828
0.0011122
0.00108338
0.00105181
0.00101771
0.000984015
0.000962103
0.000984441
0.00107067
0.00116389
0.00122757
0.00126339
0.00127064
0.0012651
0.00125313
0.00123812
0.00122315
0.00121023
0.00120176
0.00119881
0.00120126
0.00121666
0.00121134
0.00121775
0.00122048
0.00121762
0.00120899
0.00119574
0.00117879
0.00115899
0.00113668
0.00111197
0.00108452
0.00105435
0.00102185
0.000989799
0.000969141
0.000989483
0.00106723
0.00115303
0.0012134
0.00124819
0.00125583
0.00125105
0.00124029
0.00122676
0.00121334
0.00120186
0.00119441
0.00119188
0.00119415
0.00120772
0.00120245
0.001209
0.00121222
0.00121003
0.00120219
0.00118992
0.00117422
0.00115575
0.00113486
0.0011116
0.00108561
0.00105692
0.00102601
0.000995517
0.000975807
0.000993629
0.00106298
0.00114167
0.0011988
0.00123252
0.00124056
0.00123656
0.00122703
0.00121503
0.00120319
0.0011931
0.00118662
0.00118449
0.00118657
0.00119867
0.00119308
0.00119977
0.00120348
0.00120199
0.00119495
0.0011837
0.00116925
0.00115221
0.00113281
0.00111106
0.00108663
0.00105953
0.00103023
0.00100123
0.000982173
0.000997017
0.00105808
0.00112983
0.00118369
0.00121627
0.00122468
0.00122148
0.00121318
0.00120279
0.00119247
0.00118373
0.00117818
0.00117643
0.00117838
0.00118911
0.00118297
0.0011899
0.00119412
0.00119334
0.00118718
0.00117702
0.00116388
0.00114834
0.00113051
0.00111039
0.00108768
0.00106229
0.00103463
0.00100711
0.00098848
0.000999964
0.00105282
0.00111766
0.00116814
0.00119941
0.00120814
0.00120571
0.00119868
0.00118984
0.00118103
0.00117362
0.00116895
0.00116755
0.00116938
0.00117885
0.00117194
0.00117925
0.00118401
0.00118398
0.0011788
0.00116983
0.00115813
0.00114418
0.0011281
0.00110985
0.00108911
0.00106554
0.00103976
0.00101383
0.000995522
0.00100335
0.00104797
0.00110577
0.00115261
0.00118229
0.00119117
0.00118939
0.00118362
0.00117625
0.00116888
0.00116273
0.00115888
0.00115779
0.00115947
0.00116772
0.00115994
0.00116777
0.00117312
0.00117393
0.00116985
0.00116229
0.0011523
0.00114019
0.0011264
0.00111051
0.00109202
0.00107093
0.00104759
0.0010237
0.00100586
0.00100982
0.00104591
0.00109604
0.00113876
0.00116628
0.00117492
0.0011735
0.00116869
0.00116253
0.00115639
0.00115131
0.00114813
0.00114724
0.00114871
0.00115573
0.00114753
0.00115607
0.00116219
0.00116402
0.00116142
0.00115593
0.00114842
0.00113936
0.0011287
0.00111626
0.00110158
0.00108445
0.00106501
0.00104436
0.00102759
0.00102745
0.0010541
0.00109543
0.00113219
0.00115623
0.00116364
0.00116186
0.00115714
0.00115139
0.00114575
0.00114118
0.00113811
0.00113702
0.00113799
0.00114356
0.00113939
0.00114917
0.00115709
0.00116117
0.00116177
0.00116057
0.00115812
0.00115481
0.0011504
0.00114463
0.001137
0.00112702
0.0011143
0.00109911
0.00108463
0.00108015
0.00109529
0.00112404
0.0011515
0.00116919
0.00117334
0.00116919
0.00116262
0.00115525
0.00114808
0.00114181
0.00113712
0.00113415
0.00113327
0.00113611
0.001179
0.00119146
0.00120354
0.00121423
0.00122336
0.00123207
0.00123999
0.0012471
0.00125297
0.00125763
0.00126036
0.00126011
0.0012559
0.00124725
0.00123564
0.00122667
0.00122847
0.00124048
0.00125361
0.00126104
0.00125917
0.001251
0.00124113
0.00123024
0.00121906
0.00120815
0.00119809
0.00118893
0.00118168
0.00117801
0.0014995
0.00151043
0.00152153
0.00153347
0.00154628
0.00155756
0.00156552
0.00157109
0.00157447
0.0015782
0.00158078
0.00158011
0.00157493
0.00156585
0.00155397
0.00154358
0.00153665
0.00153647
0.00153863
0.0015409
0.00154075
0.00153985
0.00153914
0.00153756
0.00153466
0.0015302
0.00152438
0.00151703
0.00150909
0.00150139
0.000240395
0.000240223
0.000233254
0.000223724
0.000212757
0.000200981
0.000188673
0.000176045
0.000163347
0.000151077
0.000139851
0.000130415
0.000122384
0.000119052
0.000124976
0.00015211
0.000182973
0.000212605
0.000228626
0.000235745
0.000236947
0.000235003
0.000230919
0.000225735
0.000220036
0.00021432
0.000209769
0.000205786
0.000205586
0.000205993
0.00107336
0.00109599
0.00100423
0.000899235
0.000810495
0.000738943
0.00068059
0.000632849
0.000593891
0.000564075
0.00053428
0.000507003
0.000489519
0.000510894
0.000568116
0.000718416
0.000866729
0.00101964
0.0011148
0.0011406
0.00112019
0.0010833
0.00103547
0.000986258
0.000934597
0.000886214
0.000846332
0.000804687
0.000755568
0.000724337
0.00179076
0.00191903
0.0018516
0.00171852
0.00157878
0.00145165
0.00134085
0.00124734
0.00117046
0.0011106
0.00104769
0.000986193
0.000937616
0.000954056
0.00104532
0.00130599
0.00157857
0.00185653
0.00203716
0.00209981
0.00207315
0.00200658
0.00191708
0.00181936
0.00172299
0.00163583
0.00155846
0.00147974
0.00138996
0.00134272
0.00239048
0.00259237
0.00258831
0.002474
0.00231707
0.00215427
0.00200146
0.00186697
0.00175498
0.0016553
0.001558
0.00146078
0.00137704
0.00138055
0.00149457
0.00183186
0.00220388
0.00257455
0.00281946
0.00291985
0.0029016
0.00281985
0.00270367
0.00257741
0.00245023
0.00232789
0.00222048
0.00211529
0.00200173
0.00195123
0.00291336
0.00316361
0.00322835
0.00314808
0.00299242
0.00280934
0.00262536
0.0024586
0.00230778
0.00217662
0.0020443
0.00191237
0.00179477
0.00178256
0.00190897
0.00229564
0.00273785
0.00317646
0.00346671
0.00359949
0.00359818
0.00351342
0.0033841
0.00324349
0.00309827
0.00295971
0.00282903
0.00270211
0.00257086
0.00252993
0.00338213
0.00367119
0.00379011
0.00374883
0.00360255
0.00340873
0.0032022
0.0030081
0.00282573
0.0026638
0.0024995
0.00233572
0.0021872
0.0021565
0.00228622
0.0026984
0.00318928
0.00367069
0.00399777
0.00415588
0.0041745
0.00409662
0.00396628
0.00381768
0.00366788
0.0035219
0.00338679
0.00325179
0.00310902
0.00308185
0.00381889
0.00413498
0.00429374
0.00428595
0.00415066
0.00395156
0.00372902
0.00351203
0.00330407
0.003114
0.00292095
0.00272878
0.0025529
0.00249994
0.00262629
0.00304139
0.00356648
0.00406904
0.00442558
0.00460798
0.00464347
0.00458071
0.00446163
0.0043158
0.00416644
0.00402091
0.00388669
0.00375598
0.00361372
0.00360271
0.00422947
0.00456343
0.0047488
0.00476604
0.00463994
0.00443847
0.00420478
0.00396914
0.00374064
0.00352601
0.00330751
0.00309053
0.00289145
0.00281838
0.00292502
0.00332761
0.00387714
0.00439904
0.00477549
0.00497312
0.00501692
0.00497477
0.00488073
0.00474953
0.00460531
0.00446645
0.00433698
0.00421415
0.00407866
0.00408646
0.00461593
0.00495939
0.00515929
0.00519153
0.00507263
0.0048705
0.00462918
0.004379
0.00413425
0.00389945
0.00365925
0.00342092
0.00320152
0.00310411
0.00318212
0.00356428
0.00414389
0.00468084
0.00504698
0.00526232
0.00530962
0.00527405
0.0051944
0.00510534
0.00499266
0.00486727
0.00474744
0.00463303
0.00450779
0.00453552
0.00497858
0.00532274
0.00552596
0.00556378
0.00545053
0.00524877
0.00500256
0.00474169
0.00448411
0.00423424
0.00397644
0.00372016
0.00348661
0.00336078
0.00340658
0.00376934
0.00435761
0.00488205
0.00524962
0.00548544
0.00553846
0.00551826
0.00545102
0.00537059
0.00529601
0.0052104
0.00511502
0.00502061
0.00490622
0.00495051
0.00531532
0.00565158
0.00584852
0.00588478
0.00577528
0.00557458
0.0053258
0.00505789
0.00478958
0.00452801
0.00425682
0.0039886
0.00374091
0.00359069
0.00361432
0.00395738
0.00451873
0.00503783
0.00540071
0.00565161
0.0057121
0.00570871
0.00566263
0.00559624
0.00553757
0.00548877
0.00543308
0.00536919
0.00527683
0.0053309
0.00562051
0.00594288
0.00612634
0.00615614
0.00604834
0.00584933
0.00560023
0.00532916
0.00505409
0.00478261
0.00450399
0.00422714
0.00396811
0.00379818
0.00380453
0.00412419
0.00465049
0.00515718
0.00551062
0.0057709
0.00583816
0.00585196
0.00582775
0.00578637
0.00574387
0.00571723
0.00570061
0.00567591
0.00562031
0.00567566
0.00589377
0.00619366
0.0063588
0.00637914
0.00627109
0.00607461
0.00582746
0.00555671
0.00528003
0.00500405
0.00472041
0.00443753
0.00417191
0.00398559
0.0039762
0.00426625
0.00475147
0.00523253
0.00558615
0.00585429
0.00592351
0.00595398
0.00595049
0.00593436
0.00591689
0.00591178
0.00592058
0.00593893
0.00592669
0.00598474
0.00613059
0.00639954
0.00654518
0.00655463
0.00644504
0.00625218
0.00600949
0.005743
0.00546893
0.00519341
0.00490833
0.00462307
0.00435437
0.00415181
0.00412809
0.00438208
0.00482057
0.00526561
0.00560843
0.00588863
0.00597314
0.00602062
0.00603306
0.00604213
0.00605223
0.00607195
0.00610524
0.00615009
0.00618501
0.00625153
0.00632898
0.00656083
0.00668491
0.00668336
0.0065719
0.00638385
0.00614882
0.00589162
0.00562476
0.00535405
0.00507317
0.0047905
0.00450811
0.00429482
0.00425728
0.00447056
0.00485747
0.00525929
0.00558248
0.00586646
0.00596491
0.00603266
0.00607268
0.00610673
0.00614493
0.00619375
0.00625243
0.00632123
0.00638142
0.00646644
0.00649064
0.0066826
0.00677955
0.00676752
0.00665707
0.00647671
0.00625289
0.00600682
0.00575192
0.00548968
0.00521193
0.0049206
0.00463312
0.00441472
0.00436037
0.00453279
0.00486292
0.00521689
0.00551375
0.00579278
0.00590341
0.00599286
0.00606011
0.00612005
0.00618495
0.00626402
0.00635641
0.00644965
0.00653079
0.00662297
0.00660405
0.00676677
0.00683741
0.0068151
0.00670651
0.00653557
0.00632608
0.00609443
0.00585258
0.00559445
0.00531265
0.00501576
0.00472898
0.00450676
0.00443719
0.00456784
0.00483924
0.00514299
0.00540764
0.00567257
0.00579301
0.00590373
0.00599742
0.00608332
0.00617354
0.00627889
0.00640035
0.00652777
0.00663401
0.00673302
0.00666464
0.00680013
0.00685496
0.00682819
0.00672929
0.00657177
0.0063739
0.00614925
0.00591195
0.00565551
0.00537228
0.00507563
0.00479534
0.00456958
0.00448189
0.00456923
0.00477225
0.00502496
0.00526468
0.00551227
0.00564077
0.00577048
0.00588645
0.00599523
0.00610908
0.00623732
0.00638274
0.00653951
0.00668077
0.00679137
0.00667604
0.00678318
0.00682866
0.00680258
0.00670709
0.00655677
0.00636729
0.00615229
0.00592344
0.00567287
0.00539334
0.00510173
0.00483076
0.00460123
0.0044945
0.00453852
0.00468475
0.00488423
0.00509273
0.00531907
0.00546699
0.00561524
0.00574983
0.0058774
0.00600987
0.00615513
0.00631721
0.00649198
0.00665666
0.00680043
0.00659943
0.00669137
0.00673212
0.00671129
0.00662448
0.00648533
0.00630764
0.00610731
0.00589036
0.00564883
0.00537694
0.00509381
0.00483266
0.00459977
0.0044737
0.00447695
0.00457099
0.00472522
0.00489977
0.00509856
0.00525015
0.00542249
0.00558926
0.00574032
0.00588733
0.00604323
0.00621388
0.0063967
0.00657429
0.00674091
0.00646294
0.00653851
0.0065769
0.00656248
0.00648552
0.00635971
0.00620071
0.00601865
0.00581488
0.00558393
0.00532204
0.00504935
0.00479679
0.00456175
0.00441729
0.0043844
0.00443253
0.00454472
0.00468715
0.00485734
0.00500882
0.00519068
0.00537734
0.00555577
0.00572603
0.00589702
0.00607517
0.00626181
0.00644113
0.00661065
0.00626575
0.00633551
0.0063705
0.00636728
0.00630102
0.00619252
0.0060523
0.00588757
0.00569649
0.00547537
0.00522309
0.00496148
0.00471446
0.0044807
0.00432058
0.00425882
0.00427674
0.00434487
0.00445762
0.00460015
0.00474792
0.00493606
0.00513482
0.00532664
0.00551104
0.005691
0.00587312
0.00605619
0.00623423
0.00640454
0.00601994
0.00608281
0.00612926
0.00613553
0.00608043
0.00598697
0.00586311
0.00571194
0.00552936
0.00531443
0.00506903
0.00481614
0.00457214
0.0043452
0.00417384
0.00409374
0.00408461
0.00412425
0.00421176
0.00432735
0.00447245
0.00466237
0.00486792
0.00506904
0.00525931
0.00544198
0.00562479
0.0058065
0.00598046
0.0061414
0.00573456
0.00580478
0.00585756
0.00586882
0.00582466
0.00573999
0.00562549
0.0054798
0.00529862
0.00508372
0.00484053
0.0045915
0.00435088
0.0041356
0.00396438
0.00387833
0.00385719
0.00388423
0.003946
0.00403776
0.00418236
0.00437065
0.004576
0.00477586
0.00496971
0.00516004
0.00534498
0.00552285
0.00568751
0.00583568
0.00541905
0.00549677
0.00555113
0.00555973
0.0055171
0.00543439
0.00531841
0.00516632
0.00497809
0.00475745
0.00451387
0.00426802
0.00403504
0.0038362
0.00368259
0.00360335
0.00358677
0.00360743
0.00365452
0.00373068
0.00387265
0.00405453
0.00425675
0.00445912
0.00465771
0.0048506
0.00503467
0.00520698
0.00536131
0.00549775
0.00506302
0.00514081
0.00518492
0.00517901
0.00512417
0.00503035
0.00490241
0.00474023
0.00454539
0.00432282
0.00408834
0.00385761
0.00364592
0.00347371
0.0033503
0.003288
0.00328112
0.00330464
0.00334715
0.00341636
0.00354516
0.00370926
0.00389806
0.00409463
0.00429223
0.0044857
0.00466996
0.00483995
0.0049883
0.00511711
0.00462605
0.00468916
0.00470926
0.00467801
0.004604
0.00449797
0.0043655
0.00420902
0.0040318
0.00384003
0.00364554
0.00345769
0.0032906
0.00315904
0.00306853
0.00302117
0.00301981
0.00304429
0.00308324
0.00314056
0.00323954
0.00336665
0.00351888
0.0036865
0.00386292
0.0040425
0.00421855
0.0043836
0.00452805
0.00465294
0.00406588
0.00410762
0.00410919
0.00407066
0.00400381
0.0039207
0.00382283
0.00371597
0.00359879
0.0034733
0.00334795
0.00322714
0.00311663
0.00302938
0.00296256
0.00292428
0.00291837
0.00293466
0.00295985
0.00299636
0.00305726
0.00313516
0.00322929
0.00333738
0.00345599
0.00358376
0.00371719
0.00384796
0.00396566
0.00407002
0.00355198
0.00359125
0.00360581
0.00359767
0.00357466
0.00354491
0.00350611
0.0034593
0.0034024
0.00332938
0.00325128
0.00317326
0.00310538
0.00304528
0.00299389
0.00296217
0.00295318
0.00296014
0.00297335
0.00299186
0.00301964
0.00305867
0.00310881
0.00317029
0.0032377
0.0033117
0.00339028
0.00345628
0.00350786
0.00355023
0.0033281
0.00337169
0.0033955
0.0034023
0.00339816
0.00338676
0.00336808
0.00334158
0.00330992
0.00326666
0.00322377
0.00317951
0.00313487
0.00309672
0.00306547
0.00305109
0.00304873
0.00305581
0.00306391
0.00307553
0.00308984
0.00311189
0.00313837
0.00316775
0.00319609
0.00322289
0.00324974
0.00328124
0.00330339
0.00331881
0.000275803
0.000271968
0.000262882
0.000251755
0.000239336
0.000226136
0.000212348
0.000198169
0.000183902
0.000170158
0.000157493
0.000147013
0.000143664
0.000156181
0.000181497
0.000211743
0.000239216
0.000267463
0.000282072
0.000287783
0.000288137
0.00028568
0.000281335
0.000276076
0.000270419
0.000264607
0.000259195
0.000253124
0.000248674
0.000242882
0.00128346
0.00137589
0.00128942
0.00117077
0.00106814
0.00098493
0.000915522
0.000857587
0.000808452
0.000767562
0.000713402
0.000664384
0.00067338
0.000787655
0.000943545
0.00114653
0.00133787
0.00153818
0.00163687
0.00165296
0.00160906
0.0015461
0.00147028
0.00139506
0.00131951
0.00124499
0.00116995
0.0010789
0.000970551
0.000876143
0.00223197
0.00244987
0.00242487
0.00229411
0.00214066
0.00199265
0.00185744
0.0017392
0.00163697
0.00155082
0.00144241
0.00133943
0.00133079
0.00151155
0.0017771
0.00214014
0.00248634
0.0028157
0.00301353
0.00307361
0.00301335
0.00290369
0.00276399
0.00261944
0.00247364
0.00232744
0.0021818
0.00201587
0.00182375
0.00167037
0.00301716
0.00335206
0.00342595
0.0033387
0.00317423
0.00298482
0.00279532
0.00262085
0.00246593
0.00233236
0.00217132
0.00202048
0.00198523
0.00221295
0.00254364
0.00301494
0.0034712
0.00387926
0.00415473
0.00426263
0.00420777
0.00407456
0.0038939
0.00370014
0.00350313
0.0033092
0.00311802
0.00290485
0.00265963
0.00247414
0.00373202
0.00414694
0.00432589
0.00429497
0.00413489
0.00391926
0.0036863
0.00346271
0.00325933
0.00308074
0.00287319
0.00267931
0.00262387
0.0028798
0.00324099
0.00377528
0.00430012
0.00476405
0.00509671
0.00524491
0.00520713
0.00506914
0.00486778
0.00464316
0.00441164
0.00418877
0.00397049
0.0037297
0.00345191
0.00326719
0.00440816
0.00489203
0.00516003
0.00517792
0.0050243
0.0047901
0.0045217
0.00425538
0.00400831
0.00378633
0.00354023
0.00330805
0.00324073
0.00350599
0.00387458
0.0044386
0.00500082
0.0054985
0.00588195
0.00605836
0.00604141
0.00591499
0.00571165
0.00547306
0.00522098
0.0049754
0.00474596
0.00449291
0.00419819
0.00403292
0.005064
0.00560796
0.00594633
0.00599689
0.00584584
0.00559634
0.00529896
0.00499565
0.0047098
0.00444881
0.00416871
0.00390403
0.00383294
0.00408695
0.00445013
0.00501977
0.00559619
0.00610882
0.00653771
0.00673552
0.00673377
0.00663462
0.0064484
0.00621407
0.00595571
0.00569586
0.0054573
0.00520592
0.00490715
0.0047756
0.00570908
0.00630125
0.00668498
0.0067541
0.00660048
0.00633697
0.00601608
0.00568155
0.00536218
0.00506654
0.00475545
0.00446543
0.00440596
0.00462568
0.00497243
0.00553078
0.00610688
0.00665469
0.00708686
0.00730109
0.00730416
0.00719549
0.00704465
0.00686202
0.00662653
0.00637131
0.00612779
0.00588463
0.00558919
0.00549835
0.00634636
0.00696981
0.00737304
0.00744799
0.00728748
0.00701115
0.00667068
0.00631146
0.00596432
0.00563973
0.00530777
0.00499882
0.00495133
0.00512589
0.00544523
0.00598063
0.00656844
0.00708636
0.00754536
0.00777451
0.00778971
0.00770091
0.00754298
0.00736541
0.00718557
0.00696702
0.00674163
0.00651699
0.00625313
0.0062028
0.00697232
0.0076069
0.00800512
0.00807573
0.0079057
0.00761794
0.00726201
0.0068839
0.00651553
0.00616874
0.00582218
0.00550844
0.00545724
0.00558748
0.00587116
0.0063764
0.00694292
0.00744888
0.00792532
0.00816889
0.00820031
0.0081346
0.00799642
0.00782738
0.00766081
0.00749817
0.00730797
0.00711923
0.00690142
0.00688636
0.00757797
0.0082024
0.00857589
0.00863495
0.00845431
0.00815704
0.00778996
0.0073989
0.00701579
0.00665324
0.00629587
0.00598099
0.00592048
0.0060095
0.00625153
0.00672023
0.00726102
0.00774944
0.00823486
0.00849245
0.00854387
0.00850558
0.00839657
0.0082497
0.00810443
0.00797068
0.00783761
0.00769356
0.00753104
0.00754234
0.00815193
0.00874661
0.00908222
0.00912438
0.00893327
0.00862888
0.00825526
0.0078572
0.00746574
0.00709333
0.00672859
0.00641555
0.00634271
0.00639183
0.00659938
0.0070227
0.00752542
0.00799173
0.00847866
0.00874938
0.00882461
0.00881726
0.00874266
0.00863194
0.00851336
0.00841336
0.00833237
0.00824002
0.00813537
0.00816158
0.00868144
0.00923162
0.00952234
0.00954355
0.00934328
0.00903475
0.00865934
0.00826013
0.00786627
0.00748966
0.007121
0.00681244
0.0067248
0.00674099
0.00690934
0.0072786
0.00773225
0.0081689
0.00864633
0.00893948
0.00904343
0.00906975
0.00903445
0.00896476
0.00888218
0.00881898
0.00877819
0.00875059
0.00870353
0.00873589
0.00915349
0.00965145
0.00989503
0.00989277
0.00968557
0.00937639
0.00900393
0.00860918
0.00821829
0.00784234
0.00747541
0.00717189
0.00706614
0.00705047
0.00717505
0.00748202
0.00787714
0.0082771
0.0087342
0.00904765
0.00918648
0.00925852
0.00926804
0.00924218
0.00920391
0.00917944
0.0091795
0.00920942
0.00921762
0.00925976
0.00956588
0.0100024
0.0101994
0.0101728
0.0099619
0.00965573
0.00929083
0.00890589
0.00852227
0.00815395
0.00779666
0.00749587
0.00736452
0.00731296
0.00738953
0.00762707
0.00795583
0.00831224
0.00873894
0.00906897
0.00924565
0.00936787
0.00943126
0.00945709
0.00946929
0.00948491
0.00952454
0.00958988
0.00965889
0.00971519
0.00991491
0.0102795
0.0104349
0.0103848
0.0101745
0.00987426
0.00952265
0.00915592
0.00878832
0.00842768
0.00806922
0.007774
0.00762064
0.00751951
0.00754542
0.00770828
0.00796499
0.00827077
0.00865885
0.00899888
0.00921348
0.00938879
0.00951266
0.00959664
0.00966143
0.00972317
0.00980252
0.00990177
0.0100025
0.0100881
0.0101974
0.0104915
0.0106007
0.0105313
0.0103298
0.0100448
0.00970322
0.00934435
0.00898711
0.00863322
0.00827592
0.0079786
0.00780341
0.00767574
0.00763576
0.00772077
0.00790297
0.00814962
0.00849507
0.00883378
0.00908447
0.00931286
0.0095021
0.00965024
0.00977064
0.0098815
0.0100003
0.0101327
0.0102591
0.0103599
0.0104103
0.0106292
0.0106835
0.0106116
0.0104143
0.0101344
0.00980729
0.00946464
0.00912025
0.00877475
0.00841968
0.00811672
0.00791553
0.00774926
0.00765299
0.00765985
0.00775558
0.00794281
0.00824751
0.00858644
0.00887713
0.00915568
0.00940793
0.00961627
0.00978972
0.00994971
0.0101094
0.0102747
0.0104287
0.0105507
0.0105246
0.0106571
0.0106917
0.0106134
0.0104184
0.0101488
0.00983835
0.00951226
0.00918032
0.00884232
0.0084901
0.00818049
0.00794884
0.00774336
0.00759135
0.00752363
0.00754594
0.00766893
0.00792421
0.00824483
0.00856984
0.00892957
0.00925548
0.00951987
0.00974313
0.00994746
0.0101437
0.0103366
0.010512
0.0106579
0.0105062
0.0106026
0.010619
0.01053
0.0103394
0.010083
0.00978956
0.00947894
0.0091575
0.00882473
0.00847388
0.00815856
0.00789394
0.00764938
0.00744511
0.00730946
0.00726459
0.00732834
0.00753222
0.00782453
0.00816424
0.00855724
0.00896052
0.00932631
0.0096295
0.00987732
0.0101054
0.0103202
0.0105115
0.0106732
0.0103946
0.0104511
0.0104523
0.0103571
0.0101723
0.00992953
0.00965145
0.00935342
0.00903896
0.00870788
0.00835657
0.00803307
0.00774114
0.00745719
0.00720798
0.00701612
0.00691402
0.00692617
0.00707703
0.0073379
0.00768232
0.00809414
0.00853799
0.00895508
0.0093227
0.00964781
0.0099378
0.0101948
0.0104077
0.0105769
0.0101443
0.0101916
0.0101807
0.0100846
0.00990874
0.00967778
0.00941101
0.00912048
0.00880832
0.00847436
0.0081205
0.00778715
0.00747232
0.00715786
0.00687298
0.00663937
0.00649692
0.00646516
0.00656623
0.00679362
0.00713672
0.00755384
0.00801924
0.00846751
0.00887304
0.00923797
0.00956776
0.009862
0.0101096
0.0103097
0.00976395
0.00981156
0.00979623
0.00970138
0.00953202
0.00930897
0.00904843
0.00875966
0.00844451
0.00810459
0.00774666
0.0074034
0.00707131
0.00674288
0.00643429
0.00617877
0.00601504
0.00594874
0.00600823
0.00620061
0.00653407
0.00694712
0.00741862
0.00787096
0.00829863
0.00870201
0.00907082
0.00940155
0.00968413
0.00990417
0.00924643
0.00930096
0.00928417
0.00918892
0.00902058
0.00879929
0.00853878
0.00824665
0.0079257
0.0075803
0.00722075
0.00687228
0.00653255
0.00620852
0.00590007
0.00564222
0.00547161
0.00538777
0.00541697
0.00557548
0.00588359
0.00628151
0.00674532
0.00720415
0.00765033
0.00807515
0.00846794
0.00882157
0.00912154
0.00935156
0.00857966
0.00864101
0.00861972
0.00851952
0.00834567
0.0081217
0.00785896
0.00756477
0.00724358
0.00690235
0.00655267
0.00621227
0.00588385
0.00558124
0.0053005
0.0050612
0.0048916
0.00480298
0.00481268
0.0049427
0.00521284
0.00557331
0.00600864
0.00645201
0.00689459
0.00732355
0.00772636
0.00809192
0.00840308
0.00864748
0.00774217
0.00780333
0.00777254
0.00766547
0.0074871
0.00726666
0.00701315
0.00673407
0.00643431
0.00612095
0.00580507
0.00549803
0.00520481
0.00494315
0.00470989
0.00450179
0.00434303
0.00425813
0.00426663
0.00436928
0.00457386
0.00486899
0.00524814
0.00564617
0.00605409
0.00645705
0.0068456
0.00720486
0.00751675
0.0077711
0.0067281
0.00678196
0.00674707
0.00664668
0.00648617
0.00629668
0.0060849
0.00585658
0.00561389
0.00536136
0.005108
0.00486136
0.00462568
0.00441817
0.00423552
0.00405502
0.00393782
0.00388298
0.00389053
0.00396199
0.0041048
0.00429628
0.00455119
0.00487297
0.00521183
0.00554782
0.00588049
0.00619624
0.00647965
0.00672235
0.00565364
0.00570446
0.00568883
0.00562665
0.00552216
0.0054007
0.00526507
0.00511751
0.00495546
0.0047797
0.00459852
0.00441912
0.00424414
0.0040816
0.00393833
0.00380378
0.00372054
0.00368104
0.00368269
0.003728
0.00382222
0.00394401
0.00409912
0.0042873
0.00451279
0.00476321
0.0050102
0.00523961
0.00544744
0.00563209
0.00482277
0.00487698
0.00489116
0.00487585
0.00483339
0.00477834
0.00471092
0.00463087
0.00453258
0.00441231
0.00427776
0.00414466
0.00401739
0.00388718
0.00377056
0.00366421
0.00359893
0.00356891
0.00356961
0.00359663
0.00364925
0.00373042
0.00383333
0.00396013
0.00409627
0.00422776
0.00437494
0.0045448
0.00468865
0.00480596
0.00423177
0.00430069
0.00434391