/*--------------------------------*- C++ -*----------------------------------*\
  =========                 |
  \\      /  F ield         | OpenFOAM: The Open Source CFD Toolbox
   \\    /   O peration     | Website:  https://openfoam.org
    \\  /    A nd           | Version:  12
     \\/     M anipulation  |
\*---------------------------------------------------------------------------*/
FoamFile
{
    format      ascii;
    class       volScalarField;
    location    "400/air";
    object      epsilon;
}
// * * * * * * * * * * * * * * * * * * * * * * * * * * * * * * * * * * * * * //

dimensions      [0 2 -3 0 0 0 0];

internalField   nonuniform List<scalar> 
243000
(
5.60068
6.29499
6.70946
6.95689
7.03496
6.9502
6.70959
6.32909
5.83581
5.27706
4.71353
4.21292
3.72754
3.23292
2.66801
2.28319
3.36564
8.18266
11.5632
12.2397
11.4777
10.0957
8.43257
6.77222
5.25799
3.96576
3.08196
2.71902
2.70107
2.94791
3.9781
4.22048
4.23362
4.1553
4.02909
3.86154
3.653
3.40727
3.13302
2.84892
2.57545
2.33728
2.10011
1.88115
1.627
1.58791
2.97083
6.90165
9.21869
9.67175
9.07148
8.05009
6.8272
5.62643
4.52852
3.58652
2.89774
2.46041
2.34581
2.34291
4.64386
4.75482
4.59412
4.3509
4.0756
3.7814
3.47365
3.15927
2.84689
2.55161
2.28723
2.06657
1.8502
1.6555
1.43552
1.45516
2.88458
6.31349
8.31799
8.86906
8.54176
7.81652
6.87613
5.90748
4.98616
4.16823
3.5364
3.11106
3.00733
3.08067
5.62152
5.75018
5.57227
5.29823
4.97925
4.63156
4.26448
3.88858
3.51612
3.16655
2.8569
2.59823
2.3346
2.08675
1.80041
1.84466
3.73804
7.78626
10.0913
10.7885
10.4793
9.67773
8.61039
7.49417
6.42357
5.46917
4.7094
4.17663
4.00084
4.08959
6.4143
6.54421
6.36564
6.08257
5.74247
5.36234
4.95461
4.53371
4.11544
3.72364
3.37715
3.08485
2.77656
2.47231
2.1122
2.1643
4.4275
8.84684
11.3306
12.1445
11.8877
11.0721
9.95179
8.76073
7.60874
6.57809
5.74087
5.14282
4.90601
5.01506
7.06622
7.18782
7.01566
6.7353
6.38772
5.98942
5.55486
5.10193
4.64964
4.22517
3.84772
3.5239
3.17205
2.80759
2.36917
2.42044
4.9549
9.54759
12.1371
13.04
12.8519
12.0645
10.9453
9.73327
8.55123
7.4899
6.61696
5.98808
5.7084
5.83924
7.60591
7.71566
7.55293
7.28129
6.93426
6.52712
6.07563
5.60046
5.12318
4.67311
4.26873
3.91387
3.51839
3.08968
2.57362
2.64641
5.33272
9.93763
12.5847
13.5643
13.4484
12.7178
11.6393
10.4465
9.2723
8.21394
7.33771
6.70556
6.40348
6.55636
8.05313
8.1511
7.99917
7.7392
7.39723
6.98715
6.52563
6.03528
5.53977
5.06917
4.64029
4.25386
3.81436
3.31765
2.73709
2.86525
5.57767
10.108
12.7515
13.7922
13.7453
13.0917
12.0847
10.9412
9.80152
8.76931
7.91357
7.29898
6.99347
7.16865
8.42174
8.50993
8.36945
8.12248
7.78792
7.37853
6.91151
6.41104
5.90215
5.41463
4.96255
4.54388
4.05884
3.49351
2.8981
3.07492
5.72368
10.1247
12.7293
13.8014
13.7929
13.2202
12.3068
11.2438
10.1694
9.18243
8.36042
7.77841
7.4852
7.68316
8.72154
8.80261
8.67398
8.44046
8.11446
7.70775
7.23815
6.73111
6.2123
5.71039
5.23593
4.78445
4.25185
3.62157
3.04872
3.27391
5.83519
9.98602
12.5097
13.6182
13.6526
13.1484
12.3186
11.3584
10.3757
9.46337
8.69565
8.15669
7.88771
8.10844
8.95897
9.03576
8.91932
8.69926
8.38224
7.97927
7.509
6.99782
6.47155
5.95713
5.46123
4.9754
4.3947
3.71183
3.18685
3.46227
5.92963
9.72901
12.1578
13.293
13.3676
12.9389
12.1914
11.3196
10.4379
9.62038
8.92857
8.44371
8.20991
8.45265
9.13731
9.21286
9.10908
8.90222
8.59413
8.19539
7.72579
7.21252
6.68069
6.15538
5.63815
5.11704
4.49019
3.79811
3.31697
3.63999
6.00636
9.42508
11.7155
12.8597
12.9717
12.6137
11.9584
11.1736
10.3849
9.66586
9.06636
8.64868
8.45939
8.72239
9.25887
9.33526
9.24453
9.04981
8.74971
8.35547
7.88746
7.37315
6.83789
6.30349
5.76557
5.20877
4.54684
3.88457
3.44182
3.80668
6.06528
9.1575
11.2511
12.3553
12.4959
12.2008
11.6323
10.942
10.2448
9.61884
9.11512
8.7794
8.63967
8.92201
9.32399
9.40257
9.32483
9.14278
8.85138
8.46273
7.99777
7.48417
6.94617
6.40303
5.8458
5.25898
4.59138
3.96882
3.56266
3.96188
6.1066
8.91471
10.84
11.8752
12.0027
11.7338
11.2409
10.6383
10.0334
9.49786
9.0836
8.83507
8.7496
9.05362
9.32844
9.41316
9.352
9.18259
8.89971
8.51745
8.05725
7.54678
7.00834
6.45859
5.88527
5.27904
4.64136
4.05222
3.6802
4.10523
6.13095
8.6884
10.4675
11.4413
11.562
11.3178
10.8643
10.3108
9.76588
9.31628
8.98686
8.81723
8.78891
9.11993
9.27575
9.36666
9.32452
9.17071
8.89846
8.52367
8.06976
7.56441
7.028
6.47492
5.89343
5.30294
4.69494
4.13534
3.79457
4.23642
6.13904
8.47223
10.1221
11.0412
11.1599
10.9383
10.5226
10.0168
9.52277
9.10826
8.8328
8.73435
8.76184
9.12256
9.16275
9.26209
9.23844
9.10053
8.84052
8.47576
8.03153
7.53598
7.00653
6.46482
5.90547
5.33468
4.7517
4.21845
3.90574
4.35513
6.12999
8.26214
9.79562
10.6656
10.7856
10.5851
10.2058
9.74606
9.29933
8.92124
8.67182
8.5904
8.66402
9.05603
8.98856
9.09852
9.09523
8.97408
8.72674
8.37498
7.94784
7.48015
6.97898
6.46099
5.92292
5.37114
4.81088
4.30144
4.01339
4.46065
6.1046
8.05413
9.48157
10.3072
10.4308
10.2506
9.90604
9.49041
9.08795
8.74645
8.52268
8.44495
8.50455
8.91754
8.78412
8.90184
8.9197
8.8167
8.59072
8.26542
7.86812
7.42777
6.95415
6.45976
5.94285
5.4102
4.87166
4.38415
4.11718
4.55253
6.06431
7.84604
9.17527
9.95988
10.0892
9.92916
9.61832
9.24453
8.8834
8.57757
8.37868
8.30798
8.35842
8.71733
8.59623
8.71812
8.75191
8.66529
8.45869
8.15812
7.78865
7.37527
6.92887
6.45858
5.96342
5.45063
4.93339
4.46634
4.21669
4.63054
6.00945
7.63557
8.87265
9.61855
9.7542
9.61491
9.33776
9.00424
8.68197
8.41022
8.23488
8.17284
8.2175
8.52314
8.41541
8.53894
8.58501
8.51374
8.3256
8.04847
7.70617
7.31999
6.90097
6.45573
5.98345
5.49171
4.99575
4.54793
4.31155
4.69476
5.94003
7.42097
8.57062
9.27892
9.42094
9.30246
9.05866
8.76395
8.47983
8.24144
8.08837
8.03473
8.07483
8.33966
8.23351
8.35785
8.4138
8.3574
8.18756
7.93328
7.61847
7.26013
6.8691
6.4501
6.00226
5.53312
5.05857
4.62895
4.40161
4.74577
5.85877
7.20105
8.26657
8.9375
9.08536
8.98759
8.77625
8.52028
8.27328
8.06655
7.93435
7.88865
7.92394
8.15625
8.04397
8.16916
8.23459
8.193
8.04191
7.81098
7.5236
7.19458
6.83262
6.44132
6.01982
5.575
5.12228
4.71014
4.48749
4.78518
5.76752
6.97621
7.95953
8.59187
8.74464
8.66705
8.48743
8.26997
8.05829
7.88145
7.76882
7.73062
7.76215
7.96466
7.84189
7.96979
8.0446
8.01811
7.88692
7.68032
7.42118
7.123
6.79164
6.42996
6.03758
5.61902
5.18891
4.794
4.57219
4.81729
5.6705
6.74964
7.65095
8.24244
8.39842
8.33945
8.19122
8.0098
7.83176
7.68364
7.5895
7.55814
7.58615
7.76081
7.62459
7.75744
7.84195
7.83128
7.72136
7.54098
7.31219
7.04625
6.74834
6.42058
6.06127
5.67083
5.26655
4.89004
4.66647
4.85411
5.57954
6.53126
7.34962
7.89641
8.05205
8.00875
7.88971
7.74151
7.595
7.47344
7.39611
7.37048
7.39482
7.5429
7.39168
7.53198
7.62686
7.63329
7.54682
7.39635
7.20232
6.9728
6.71758
6.43181
6.10973
5.7568
5.38568
5.03223
4.80659
4.93273
5.53022
6.35264
7.08486
7.57951
7.72791
7.6937
7.59679
7.4754
7.35526
7.25583
7.19197
7.16997
7.18956
7.31153
7.15484
7.30603
7.41385
7.44081
7.38425
7.27522
7.12958
6.9571
6.75809
6.53099
6.27012
5.97595
5.6565
5.33857
5.11336
5.17267
5.63635
6.32386
6.95359
7.37929
7.50412
7.46459
7.37213
7.26108
7.15305
7.06396
7.00295
6.97741
6.98722
7.08051
6.99898
7.17195
7.31346
7.3836
7.38912
7.36138
7.30995
7.24176
7.15295
7.03881
6.89139
6.70404
6.474
6.21434
5.99297
5.97212
6.27838
6.79645
7.28966
7.61031
7.67747
7.59372
7.46588
7.32438
7.1872
7.06795
6.97737
6.91757
6.89421
6.9381
7.73784
7.9788
8.21781
8.43129
8.61683
8.79776
8.96303
9.11195
9.23428
9.32807
9.37859
9.36358
9.26152
9.06871
8.83037
8.68157
8.76884
9.04909
9.33565
9.49057
9.43786
9.25626
9.04029
8.8054
8.56791
8.33962
8.13114
7.94298
7.79386
7.71577
15.8238
16.1707
16.5288
16.9169
17.338
17.7247
17.9951
18.1836
18.2953
18.4081
18.4845
18.449
18.2574
17.9389
17.5411
17.2142
17.0151
17.0229
17.1025
17.1757
17.1653
17.1364
17.1136
17.0609
16.9639
16.8156
16.6232
16.3829
16.1256
15.8778
10.2227
11.8749
12.6229
12.876
12.725
12.2349
11.4451
10.4108
9.21306
7.97771
6.83899
5.91413
5.13929
4.94388
5.94842
10.9049
18.4557
27.776
32.7193
33.4867
31.3418
27.8524
23.8022
19.8309
16.2371
13.1592
10.7415
8.77748
7.53749
6.50618
7.21424
7.2521
7.40835
7.52794
7.49581
7.28806
6.9129
6.3974
5.79148
5.1643
4.62741
4.21062
3.95526
4.24512
5.53753
9.30666
14.1538
18.9721
21.4591
22.0182
21.0698
19.2598
17.0239
14.7085
12.5469
10.604
8.97374
7.58944
6.6904
6.12579
7.24862
6.74383
6.57845
6.55227
6.51281
6.37868
6.123
5.75527
5.31272
4.8539
4.48824
4.22202
4.10223
4.54385
5.88307
9.35407
13.3723
16.9637
18.9296
19.4962
18.914
17.5992
15.8809
14.0516
12.2565
10.5767
9.1642
7.93769
7.1567
6.71622
7.4216
6.67777
6.32667
6.20463
6.14246
6.03583
5.84199
5.55711
5.20216
4.86149
4.58697
4.40022
4.355
4.86312
6.16587
9.39238
12.8414
15.7928
17.511
18.0946
17.7261
16.7124
15.31
13.7469
12.1828
10.7154
9.4478
8.32524
7.58335
7.19257
7.51601
6.66237
6.19964
6.02066
5.94191
5.85157
5.70034
5.47213
5.20002
4.92789
4.71909
4.58452
4.58692
5.11241
6.3385
9.28924
12.2805
14.8146
16.3618
16.9416
16.7189
15.9291
14.7689
13.4144
12.0364
10.715
9.5808
8.57052
7.85875
7.48039
7.5285
6.62521
6.11188
5.89494
5.80568
5.72764
5.609
5.42876
5.2169
5.00309
4.83966
4.73955
4.77282
5.2827
6.41231
9.06636
11.6747
13.8964
15.3096
15.8678
15.7433
15.1251
14.1618
13.0015
11.7747
10.5882
9.54313
8.6259
7.94584
7.57365
7.45696
6.55698
6.03049
5.79565
5.70225
5.63506
5.54226
5.40215
5.23635
5.06889
4.93751
4.85878
4.9084
5.37892
6.39641
8.74378
11.0381
13.0241
14.3185
14.843
14.7797
14.2932
13.4922
12.498
11.4169
10.3514
9.39539
8.55179
7.89571
7.52762
7.32669
6.46463
5.94993
5.71239
5.62035
5.5631
5.49085
5.3831
5.25251
5.11977
5.01012
4.94263
4.99502
5.39505
6.30879
8.35429
10.4203
12.2022
13.388
13.8713
13.8408
13.4529
12.7857
11.9342
10.9914
10.0339
9.16346
8.39148
7.76557
7.39882
7.16002
6.35686
5.87086
5.64298
5.55521
5.50658
5.45019
5.36728
5.2629
5.15408
5.05726
4.9933
5.03832
5.36274
6.1665
7.93682
9.81621
11.4387
12.5254
12.964
12.9448
12.627
12.0669
11.3382
10.5172
9.6711
8.87533
8.17092
7.58246
7.21797
6.97372
6.2415
5.79576
5.58619
5.50399
5.46222
5.41712
5.35192
5.26673
5.17206
5.08052
5.01405
5.0388
5.2932
5.99411
7.52634
9.24259
10.7392
11.7382
12.1314
12.1092
11.8379
11.3603
10.7337
10.0191
9.27332
8.55728
7.91455
7.36671
7.01061
6.78002
6.12478
5.72639
5.53964
5.46412
5.42742
5.38928
5.33519
5.26401
5.17781
5.08592
5.00949
5.01264
5.20238
5.83016
7.16662
8.73119
10.1152
11.0354
11.3822
11.3468
11.103
10.6865
10.1419
9.51779
8.8615
8.2223
7.64098
7.13631
6.79486
6.5875
6.01112
5.66324
5.50108
5.433
5.39978
5.36489
5.31596
5.25239
5.17152
5.07365
4.98533
4.96529
5.11116
5.67955
6.86288
8.29945
9.5863
10.4286
10.7251
10.668
10.4344
10.0599
9.57943
9.03009
8.45155
7.88306
7.36288
6.90392
6.58219
6.40126
5.9029
5.60589
5.46847
5.4083
5.37699
5.34247
5.2946
5.23249
5.15159
5.04822
4.949
4.90927
5.03142
5.54826
6.60847
7.94535
9.15555
9.9336
10.1737
10.0829
9.84278
9.49174
9.05772
8.56815
8.05551
7.55037
7.08732
6.67558
6.37902
6.22428
5.80119
5.55378
5.44033
5.38814
5.35734
5.32114
5.2716
5.20809
5.1248
5.01667
4.91035
4.86245
4.96935
5.44553
6.40237
7.66575
8.81659
9.54501
9.73894
9.60852
9.3424
8.9934
8.58696
8.14149
7.68232
7.23236
6.82129
6.45616
6.18846
6.05833
5.70663
5.50642
5.41564
5.37097
5.33986
5.30106
5.24906
5.18325
5.09748
4.98837
4.88447
4.83274
4.93094
5.37393
6.24816
7.45705
8.56255
9.25347
9.41406
9.24688
8.94845
8.58456
8.18303
7.76092
7.34055
6.93578
6.57009
6.24857
6.01187
5.90509
5.62008
5.46364
5.39395
5.35661
5.32565
5.28526
5.23254
5.16694
5.08348
4.98109
4.88276
4.82782
4.91993
5.33622
6.15016
7.31523
8.38613
9.05065
9.19012
8.9903
8.6561
8.26873
7.86005
7.44651
7.0442
6.66894
6.33875
6.05556
5.84996
5.76633
5.54311
5.42732
5.37811
5.3502
5.32236
5.28443
5.23477
5.17234
5.09283
4.99759
4.90728
4.85466
4.9449
5.33489
6.10922
7.2347
8.2787
8.92876
9.0598
8.83308
8.46291
8.04587
7.61996
7.20422
6.80975
6.44815
6.13569
5.88082
5.70247
5.64643
5.48139
5.40674
5.3776
5.35761
5.33508
5.30299
5.26106
5.20599
5.13374
5.04904
4.96813
4.92068
5.01226
5.38416
6.12702
7.2353
8.25907
8.88723
9.01514
8.76725
8.36429
7.91788
7.46936
7.04092
6.64431
6.28735
5.98073
5.73345
5.57382
5.56377
5.45823
5.41637
5.40327
5.39584
5.38363
5.36132
5.3281
5.28179
5.21877
5.14593
5.07541
5.03616
5.13079
5.48765
6.20512
7.28437
8.29665
8.91651
9.04731
8.76278
8.33106
7.85948
7.38863
6.9441
6.53964
6.18201
5.87806
5.63544
5.47607
5.5459
5.48445
5.46973
5.47436
5.48108
5.48062
5.46958
5.44691
5.41208
5.36168
5.30305
5.24405
5.21567
5.31325
5.65735
6.34964
7.39427
8.38582
9.00443
9.15058
8.85627
8.38559
7.87041
7.37094
6.90964
6.49512
6.13317
5.82864
5.58788
5.42844
5.58624
5.5647
5.57638
5.60139
5.62511
5.63931
5.64194
5.63351
5.61509
5.58254
5.54217
5.49681
5.48207
5.58113
5.91268
6.57419
7.57684
8.54156
9.15602
9.32009
9.02499
8.53858
7.99488
7.45601
6.96198
6.52491
6.14955
5.83858
5.59806
5.44197
5.70264
5.71176
5.75155
5.79958
5.84442
5.87782
5.90038
5.91329
5.91996
5.91398
5.89923
5.8729
5.87569
5.97339
6.28939
6.90867
7.85578
8.7809
9.38265
9.56086
9.27363
8.77635
8.21566
7.65365
7.13484
6.67388
6.27883
5.95413
5.70419
5.54246
5.908
5.94507
6.01556
6.09211
6.1656
6.22745
6.28111
6.32955
6.37783
6.41532
6.44103
6.44548
6.47366
6.56784
6.86063
7.41923
8.28779
9.15194
9.72416
9.90575
9.62375
9.11874
8.5431
7.96085
7.41922
6.9357
6.51907
6.17452
5.90848
5.74195
6.22859
6.29493
6.40412
6.52094
6.6381
6.74724
6.85556
6.96855
7.09018
7.20428
7.30197
7.36656
7.437
7.53193
7.78531
8.25541
9.00828
9.77437
10.2915
10.4492
10.1501
9.62547
9.02846
8.42203
7.85442
7.3446
6.90193
6.53235
6.24413
6.06665
6.71995
6.82495
6.9927
7.17535
7.3687
7.5664
7.78086
8.02038
8.28272
8.54354
8.7827
8.97142
9.12878
9.24263
9.43225
9.76543
10.3366
10.9513
11.3604
11.436
11.062
10.4747
9.82152
9.16428
8.54917
7.99423
7.50889
7.09936
6.77495
6.57341
7.52228
7.69583
7.96886
8.27877
8.62466
9.00724
9.44448
9.94726
10.4981
11.0607
11.5962
12.0516
12.4018
12.5799
12.6717
12.7675
13.0475
13.4037
13.5942
13.4669
12.9019
12.1485
11.3432
10.5468
9.80775
9.14227
8.55871
8.06345
7.66385
7.40601
9.07791
9.40575
9.89856
10.487
11.1704
11.9666
12.8892
13.9532
15.1056
16.2893
17.429
18.4242
19.1596
19.4646
19.3739
19.0366
18.7728
18.6547
18.4121
17.8835
16.9418
15.8601
14.7337
13.6026
12.5441
11.5826
10.7371
10.0185
9.42706
9.02166
12.8185
13.5337
14.5425
15.7534
17.1871
18.8734
20.753
22.8902
25.1269
27.3582
29.4182
31.1511
32.3
32.5598
31.949
30.7692
29.5352
28.5848
27.6173
26.5394
25.2147
23.8365
22.3655
20.7804
19.1606
17.5704
16.0963
14.8036
13.6972
12.888
23.1924
24.7479
26.7213
28.9595
31.5303
34.439
37.5328
40.6993
43.7486
46.377
48.2469
49.4185
49.5775
48.6221
46.6067
43.7775
41.2534
39.1647
37.3542
36.0683
35.2581
34.7962
34.3018
33.5558
32.4393
30.9285
29.0595
27.0016
25.0323
23.4461
41.5743
44.3499
47.0101
49.2234
51.3045
53.2786
54.8601
55.9974
56.6109
56.2942
55.0117
53.2214
50.8238
47.8077
44.4598
41.2587
38.5664
36.2734
34.4297
33.4234
33.1797
33.8288
35.1313
36.7485
38.4204
39.9593
41.1
41.4079
41.3187
41.2947
15.4099
17.2057
18.048
18.3348
18.1134
17.4377
16.3362
14.8773
13.1817
11.4403
9.81824
8.54446
8.45104
11.4119
18.2134
28.8233
40.7564
54.8406
61.1144
60.6808
56.1816
49.8836
42.9017
36.1383
30.0031
24.6376
20.1617
16.2615
13.2874
10.6308
9.54841
9.1871
9.26388
9.47275
9.55197
9.42132
9.06237
8.49504
7.78266
7.01605
6.34646
5.86025
6.34309
8.71253
13.1291
19.0023
24.9462
30.8304
33.2669
33.1041
31.2826
28.5339
25.3641
22.1171
19.0328
16.208
13.7714
11.6026
10.0378
8.74026
9.14977
8.22429
7.86548
7.8506
7.8973
7.85924
7.67036
7.32674
6.87132
6.37054
5.96086
5.7329
6.35835
8.59664
12.2935
16.9284
21.4166
25.5583
27.2561
27.1998
26.0134
24.1159
21.851
19.4465
17.0882
14.8774
12.9343
11.1468
9.8734
8.87422
9.11854
7.89671
7.3424
7.20058
7.20606
7.19286
7.08272
6.85778
6.54661
6.19989
5.94448
5.86762
6.57891
8.67341
11.8852
15.7995
19.4616
22.7225
24.0921
24.1189
23.2794
21.8414
20.0627
18.1163
16.1574
14.2658
12.5787
11.0066
9.86316
9.00451
8.96397
7.67158
7.01777
6.81126
6.79216
6.79052
6.73073
6.58777
6.37956
6.14356
5.99591
6.03261
6.78527
8.71071
11.5292
14.8641
17.9268
20.5868
21.7441
21.8232
21.2186
20.1001
18.6647
17.051
15.3873
13.731
12.2315
10.8308
9.75763
8.96838
8.70943
7.43756
6.75646
6.52505
6.49529
6.50295
6.48034
6.39951
6.26999
6.12225
6.05124
6.17718
6.94489
8.68665
11.1534
13.9919
16.573
18.7754
19.7679
19.8709
19.4285
18.5459
17.3732
16.0213
14.5957
13.1528
11.7995
10.5445
9.52658
8.79274
8.40047
7.19464
6.52644
6.29633
6.26575
6.28271
6.28823
6.25517
6.18621
6.10576
6.09495
6.28949
7.05077
8.61405
10.7519
13.1593
15.3413
17.18
18.0342
18.1381
17.8045
17.1
16.1342
14.994
13.7664
12.5075
11.2966
10.1635
9.20395
8.51372
8.06594
6.95376
6.3268
6.10996
6.0838
6.10966
6.13578
6.13846
6.11533
6.08631
6.12488
6.36876
7.08998
8.49427
10.3325
12.3687
14.2195
15.7672
16.4993
16.5879
16.3225
15.7481
14.9472
13.9831
12.9236
11.8219
10.7467
9.7244
8.82893
8.18003
7.72948
6.72494
6.15553
5.95849
5.93887
5.97193
6.01301
6.04046
6.05092
6.05985
6.13083
6.40831
7.07776
8.32934
9.90584
11.6281
13.208
14.5206
15.1459
15.2098
14.9829
14.502
13.8284
13.0084
12.0935
11.1289
10.1739
9.26298
8.43669
7.83073
7.40826
6.5153
6.01129
5.83622
5.82333
5.86135
5.91208
5.95602
5.98965
6.02517
6.11901
6.40677
7.03474
8.14017
9.48253
10.9447
12.3086
13.4326
13.9665
14.0004
13.7906
13.374
12.7965
12.0924
11.2997
10.4558
9.60897
8.79917
8.05156
7.49126
7.1121
6.32915
5.89154
5.73777
5.7308
5.77155
5.82742
5.88117
5.92988
5.98379
6.09495
6.38555
6.96816
7.93405
9.07185
10.33
11.5268
12.5014
12.9577
12.9586
12.7487
12.3714
11.8641
11.2517
10.5607
9.82169
9.0726
8.35493
7.68662
7.17569
6.84428
6.16616
5.79175
5.65815
5.65599
5.69762
5.75511
5.81371
5.87157
5.93842
6.06283
6.35063
6.8907
7.72429
8.71096
9.80728
10.872
11.7295
12.1214
12.0847
11.8596
11.4984
11.0378
10.4954
9.88737
9.23806
8.57667
7.9426
7.35051
6.88997
6.60463
6.02349
5.70717
5.59311
5.59482
5.63606
5.69289
5.75325
5.81665
5.8933
6.02821
6.31142
6.80931
7.53997
8.40608
9.3756
10.3374
11.1024
11.4467
11.3824
11.1275
10.7589
10.3219
9.82801
9.2848
8.71043
8.1261
7.56715
7.04581
6.63452
6.39059
5.89765
5.63404
5.53952
5.54477
5.58527
5.64069
5.7018
5.7696
5.85534
5.9984
6.27679
6.74419
7.39091
8.16233
9.03288
9.91624
10.6087
10.9208
10.8345
10.5486
10.1599
9.72184
9.25357
8.75593
8.24093
7.72215
7.2291
6.77141
6.40704
6.19932
5.78593
5.57038
5.49596
5.50521
5.54606
5.60118
5.66441
5.73827
5.83325
5.98304
6.25921
6.70207
7.28568
7.984
8.77739
9.60154
10.2386
10.5315
10.4299
10.1137
9.69782
9.24435
8.77872
8.30556
7.83211
7.36535
6.92715
6.52503
6.20442
6.02871
5.68739
5.51668
5.46344
5.47812
5.52283
5.58031
5.64791
5.72872
5.83339
5.99585
6.26796
6.6873
7.23369
7.87478
8.60812
9.38727
9.98398
10.2678
10.1594
9.81579
9.36885
8.88894
8.41015
7.94198
7.48969
7.05853
6.66162
6.30515
6.02418
5.879
5.60482
5.47797
5.4465
5.46771
5.5186
5.5862
5.66622
5.75953
5.87858
6.05525
6.33005
6.73137
7.23125
7.83877
8.52545
9.26888
9.84022
10.1201
10.0171
9.64959
9.17078
8.65573
8.15072
7.67186
7.22422
6.80966
6.43828
6.11371
5.86586
5.75616
5.54964
5.47073
5.45662
5.49133
5.55544
5.63568
5.72879
5.83765
5.9733
6.16594
6.44678
6.8383
7.31172
7.88476
8.534
9.2609
9.81082
10.0858
9.98627
9.59096
9.08326
8.53291
7.9986
7.50016
7.04275
6.62961
6.26811
5.9596
5.73279
5.67961
5.54499
5.49583
5.50344
5.55769
5.63917
5.73691
5.84868
5.97842
6.13524
6.34646
6.63583
7.02563
7.48043
8.02629
8.6409
9.34262
9.88044
10.1604
10.0811
9.65957
9.08827
8.49475
7.92987
7.40769
6.93261
6.51209
6.15127
5.85171
5.63656
5.67029
5.58298
5.5658
5.6028
5.68197
5.7866
5.90838
6.04568
6.20355
6.38849
6.62401
6.92483
7.31992
7.76288
8.28712
8.86643
9.54099
10.0632
10.349
10.297
9.86791
9.27128
8.61474
7.97207
7.39473
6.89585
6.46171
6.0947
5.79708
5.58807
5.72284
5.68354
5.70302
5.77524
5.8863
6.02194
6.17663
6.3492
6.54601
6.76986
7.03908
7.36011
7.76388
8.20208
8.7093
9.24786
9.88665
10.3838
10.6747
10.6436
10.2161
9.59722
8.90029
8.2042
7.56282
6.99948
6.51901
6.12323
5.81498
5.60747
5.87904
5.87416
5.93726
6.05091
6.20384
6.38223
6.58321
6.80658
7.05964
7.33984
7.65899
8.01477
8.4369
8.87282
9.36899
9.85608
10.4413
10.8994
11.1849
11.1621
10.7334
10.0931
9.35777
8.60504
7.90283
7.28123
6.74963
6.31159
5.97114
5.742
6.16966
6.19925
6.31141
6.47772
6.68857
6.92924
7.19911
7.49968
7.83834
8.20503
8.60269
9.0185
9.47725
9.91739
10.4078
10.8255
11.3271
11.7263
11.9823
11.9426
11.4984
10.8261
10.0432
9.22686
8.4518
7.75936
7.16204
6.66581
6.27797
6.02074
6.6531
6.72452
6.90039
7.14044
7.43808
7.77598
8.1558
8.58108
9.05735
9.56393
10.092
10.6142
11.1437
11.608
12.0935
12.4113
12.7938
13.0905
13.2786
13.1769
12.6799
11.9466
11.0889
10.1893
9.31689
8.5262
7.83812
7.26089
6.80547
6.50273
7.44618
7.58006
7.85333
8.20919
8.649
9.14963
9.71652
10.355
11.0638
11.8065
12.5585
13.2712
13.9365
14.4624
14.9453
15.1109
15.3164
15.4393
15.4936
15.255
14.6346
13.7803
12.7832
11.7482
10.7301
9.78589
8.95395
8.25028
7.68808
7.3082
8.82011
9.06508
9.50566
10.0634
10.7544
11.5439
12.444
13.4595
14.5697
15.7164
16.851
17.8943
18.8016
19.4373
19.8969
19.8118
19.7237
19.5487
19.2617
18.7702
18.0208
16.9877
15.747
14.474
13.2084
12.0097
10.9242
9.99496
9.24038
8.71703
11.4827
11.9445
12.6928
13.6196
14.7658
16.0755
17.5642
19.2259
20.9962
22.7824
24.4996
26.0272
27.2598
27.9623
28.2212
27.607
26.64
25.6417
24.769
23.9393
23.1116
22.225
21.0728
19.52
17.885
16.2791
14.7565
13.4086
12.2746
11.4585
17.3279
18.1987
19.4891
21.0423
22.9333
25.0649
27.4345
29.9891
32.5906
35.0905
37.3367
39.1653
40.3695
40.5113
39.5864
37.1026
34.6544
32.551
30.9537
29.8328
29.1414
28.8017
28.4255
27.7232
26.4393
24.6049
22.6049
20.6623
18.8612
17.4725
30.1396
31.6445
33.6045
35.8152
38.3667
41.1582
44.0994
47.0242
49.753
52.0477
53.5877
54.137
53.3943
51.0669
47.5916
42.9893
39.1583
36.1035
33.9275
32.7433
32.4477
33.0435
34.0362
35.0345
35.8092
36.1257
35.5932
34.1078
32.237
30.4753
44.8447
47.7184
50.4261
52.6786
54.5625
56.4661
58.1041
59.3335
59.9976
59.7878
58.4297
55.9915
52.5016
48.1802
43.1998
37.9333
33.8581
30.7539
28.5789
27.5204
27.4342
28.4524
30.2525
32.5226
35.0285
37.5511
39.85
41.6619
43.0796
44.301
20.5048
22.51
23.2334
23.5251
23.2981
22.5544
21.2884
19.5638
17.5082
15.333
13.1597
11.5263
14.1509
22.6757
35.1129
52.1399
69.608
88.3642
96.276
92.9702
84.8156
74.7291
64.0943
54.0307
45.0207
37.1268
30.4119
24.4013
19.4446
14.8012
11.6978
11.0341
10.9704
11.2508
11.4393
11.3982
11.0826
10.5049
9.73652
8.85672
8.03692
7.537
9.70903
14.7301
21.2955
29.2164
36.9139
44.047
46.5674
45.1331
41.9104
37.8168
33.4376
29.1202
25.1191
21.4724
18.2968
15.4103
13.2594
11.2145
10.8188
9.54687
9.02002
9.01388
9.13182
9.17048
9.03949
8.72305
8.26867
7.72906
7.2776
7.18365
9.19891
13.276
18.3397
24.1594
29.7839
34.7394
36.2747
35.3418
33.1686
30.3703
27.3406
24.2852
21.3657
18.626
16.1871
13.9483
12.3059
10.808
10.5064
8.93653
8.23011
8.08599
8.14463
8.19463
8.14424
7.962
7.67861
7.33538
7.09879
7.22555
9.13378
12.642
16.8705
21.5798
26.1014
29.9277
31.0755
30.432
28.8166
26.6744
24.3181
21.8957
19.5267
17.2512
15.1867
13.2584
11.7969
10.5
10.1104
8.48999
7.72324
7.52372
7.55208
7.60544
7.60465
7.51374
7.35054
7.15069
7.07055
7.37414
9.15286
12.2068
15.8209
19.7338
23.4574
26.4799
27.4063
26.9552
25.7169
24.0086
22.0962
20.0986
18.1086
16.1628
14.3622
12.6547
11.2969
10.1716
9.62131
8.08045
7.33025
7.12136
7.13903
7.19852
7.23236
7.20955
7.13729
7.05008
7.08488
7.53199
9.18856
11.8612
14.9553
18.2277
21.2899
23.6931
24.4603
24.1359
23.1702
21.7802
20.1921
18.5088
16.8069
15.1205
13.5321
12.0129
10.7401
9.73908
9.11171
7.70613
7.01119
6.81703
6.83472
6.90235
6.96316
6.99029
6.98867
6.99099
7.12432
7.68049
9.21391
11.5612
14.2076
16.9307
19.4404
21.3515
21.9841
21.7345
20.963
19.8171
18.4825
17.0456
15.5726
14.0971
12.6861
11.3396
10.1543
9.24803
8.62479
7.37892
6.75436
6.586
6.60815
6.68389
6.76571
6.83028
6.88233
6.95728
7.17448
7.81053
9.22587
11.2906
13.5487
15.8022
17.8518
19.3649
19.8758
19.6648
19.0306
18.0696
16.9335
15.6951
14.4116
13.1131
11.856
10.6581
9.57341
8.75638
8.18512
7.10303
6.55187
6.41373
6.44113
6.52355
6.62097
6.71314
6.80591
6.93788
7.22814
7.91988
9.22705
11.0428
12.9666
14.8255
16.4953
17.6863
18.0851
17.8894
17.3496
16.5288
15.5473
14.4696
13.3441
12.1974
11.0769
10.0122
9.03503
8.30199
7.80519
6.87624
6.40271
6.28889
6.3203
6.40754
6.51593
6.62817
6.75262
6.92899
7.28236
8.01002
9.22109
10.8159
12.4566
13.9937
15.3566
16.2881
16.5829
16.3857
15.9059
15.1903
14.3304
13.3827
12.3888
11.3731
10.3744
9.43003
8.56076
7.90411
7.48723
6.69711
6.29913
6.20088
6.23475
6.32518
6.44096
6.56786
6.71787
6.92918
7.33633
8.08359
9.20889
10.6117
12.0196
13.3071
14.4307
15.153
15.3494
15.138
14.6878
14.0464
13.2807
12.4383
11.554
10.6506
9.76035
8.92321
8.1554
7.56768
7.22599
6.55822
6.2264
6.14001
6.17545
6.26839
6.38955
6.52767
6.6962
6.94206
7.39077
8.14446
9.19385
10.4369
11.6673
12.7535
13.6821
14.2483
14.3732
14.1359
13.6863
13.0884
12.3914
11.6313
10.8372
10.0294
9.23433
8.49144
7.81254
7.28883
7.01186
6.44928
6.17335
6.09854
6.13555
6.23003
6.35501
6.50169
6.68623
6.96775
7.44886
8.19947
9.18235
10.3073
11.3917
12.3126
13.0819
13.5271
13.5988
13.349
12.8964
12.3107
11.6553
10.9539
10.2305
9.50189
8.78857
8.12782
7.525
7.05923
6.83424
6.36113
6.13264
6.07104
6.10998
6.2058
6.3349
6.48948
6.69512
7.01172
7.51918
8.26198
9.19052
10.2261
11.1869
11.9711
12.61
12.9603
12.9959
12.7406
12.2848
11.7097
11.0694
10.3994
9.72588
9.05858
8.41344
7.82092
7.28327
6.86861
6.68381
6.28744
6.10131
6.05428
6.09637
6.1947
6.32954
6.50096
6.73645
7.08806
7.62139
8.36004
9.24363
10.1878
11.0503
11.7211
12.2531
12.5293
12.5432
12.2876
11.8301
11.2581
10.6243
9.96758
9.31708
8.69299
8.10138
7.56113
7.07756
6.70796
6.55394
6.22575
6.0808
6.04937
6.09807
6.20718
6.36035
6.55664
6.82087
7.20152
7.75728
8.49292
9.34367
10.1967
10.9843
11.5599
12.0043
12.2236
12.2268
11.9759
11.5193
10.943
10.3071
9.65238
9.01043
8.40447
7.84482
7.3411
6.90167
6.57109
6.4426
6.17956
6.07872
6.06248
6.13154
6.2604
6.43358
6.65283
6.94596
7.35681
7.9345
8.66732
9.4897
10.281
10.9967
11.4908
11.8639
12.038
12.0403
11.7993
11.3428
10.7586
10.1106
9.44253
8.79316
8.18794
7.6393
7.15986
6.75389
6.45451
6.35626
6.1644
6.09619
6.10607
6.20114
6.35359
6.55178
6.7997
7.12406
7.56735
8.16761
8.89941
9.69916
10.4421
11.1013
11.5243
11.8381
11.9758
11.9834
11.7457
11.2762
10.6719
10.002
9.31526
8.6521
8.03936
7.49276
7.02383
6.63698
6.36041
6.31859
6.1856
6.14925
6.19339
6.31948
6.50146
6.73133
7.01457
7.3762
7.85256
8.47835
9.21329
9.99777
10.7057
11.3231
11.6806
11.941
12.0477
12.0596
11.8348
11.362
10.7102
9.98469
9.2732
8.59064
7.96335
7.4093
6.93947
6.56108
6.29774
6.33734
6.25478
6.25466
6.34182
6.50579
6.72526
6.99542
7.32259
7.72987
8.24641
8.89967
9.64557
10.4246
11.1117
11.7025
11.9951
12.2046
12.2777
12.2813
12.0758
11.6176
10.9657
10.2062
9.41919
8.66481
7.98067
7.39431
6.91241
6.53279
6.27431
6.4302
6.39351
6.44203
6.5776
6.78874
7.05673
7.37876
7.76209
8.22821
8.79799
9.48904
10.253
11.0412
11.7239
12.3053
12.5265
12.6828
12.7039
12.6835
12.489
12.0493
11.4024
10.6144
9.77596
8.96635
8.21575
7.55628
7.01922
6.61084
6.34249
6.64183
6.64118
6.74815
6.9415
7.21275
7.54549
7.93654
8.3949
8.94105
9.5855
10.3344
11.1356
11.9459
12.6436
13.2386
13.376
13.4563
13.3892
13.323
13.1246
12.7026
12.0642
11.2563
10.3538
9.47282
8.64926
7.91396
7.30675
6.84163
6.53305
7.01714
7.05859
7.23312
7.49992
7.85117
8.2736
8.76108
9.32535
9.98561
10.7397
11.5804
12.4501
13.3101
14.04
14.6742
14.7146
14.6454
14.4353
14.2869
14.061
13.6549
13.0324
12.2129
11.2455
10.2647
9.34456
8.51199
7.80742
7.2608
6.89871
7.64536
7.74115
8.00231
8.36909
8.83321
9.38551
10.0151
10.7363
11.5656
12.485
13.4722
14.4607
15.4127
16.2031
16.8869
16.7456
16.4186
15.9844
15.6959
15.4084
15.017
14.4298
13.6233
12.6222
11.5052
10.4448
9.47741
8.63787
7.97317
7.52863
8.69633
8.87123
9.25563
9.76816
10.4015
11.1504
11.9968
12.9575
14.043
15.2129
16.429
17.6097
18.7133
19.5872
20.3023
19.7273
18.9697
18.1861
17.6728
17.281
16.9127
16.4093
15.6787
14.697
13.4991
12.2237
11.0533
10.0189
9.17498
8.59759
10.5293
10.829
11.4011
12.1365
13.0331
14.0854
15.2648
16.5891
18.0542
19.59
21.1381
22.5933
23.8982
24.8165
25.2992
23.8135
22.3653
21.0625
20.2167
19.6824
19.3747
19.0612
18.5578
17.7544
16.6314
15.2093
13.7314
12.3986
11.2787
10.4768
13.944
14.4441
15.3019
16.3739
17.6668
19.1644
20.8224
22.6525
24.6197
26.6117
28.5424
30.2672
31.6693
32.3005
31.7027
28.6518
26.1807
24.1882
22.9263
22.2444
22.0646
22.1272
22.1417
21.855
21.1629
20.0301
18.43
16.6857
15.1585
13.9892
20.6046
21.3983
22.6368
24.1352
25.9113
27.9175
30.0969
32.4292
34.8283
37.1249
39.1678
40.7321
41.5076
40.4975
37.9372
32.7206
29.1012
26.378
24.7345
23.9561
23.9605
24.5478
25.3725
26.1008
26.4798
26.3649
25.6173
24.2282
22.3901
20.8137
32.0944
33.4268
35.0838
36.8723
38.8676
41.0229
43.2774
45.5346
47.6647
49.4371
50.4751
50.3927
48.7483
45.3285
40.3116
33.2866
28.9064
25.7693
23.9302
23.15
23.2598
24.284
25.8881
27.7505
29.6353
31.2939
32.4117
32.9037
32.8828
32.2563
39.5312
42.6678
45.4812
47.7612
49.6678
51.355
52.7956
53.8514
54.4294
54.3012
52.9822
50.4368
46.5016
41.4485
35.2768
28.1956
23.965
21.1075
19.3992
18.6694
18.7227
19.6467
21.2485
23.3554
25.8252
28.4951
31.181
33.7203
36.0911
38.4802
25.6533
28.1382
28.5206
28.7225
28.488
27.7207
26.3635
24.4507
22.0769
19.4188
16.4451
14.4314
21.2407
35.186
54.4836
79.8213
106.163
132.649
141.291
133.837
119.79
103.804
87.8126
73.3376
60.9404
50.1947
41.0556
32.8092
25.7572
18.9326
13.8348
13.04
12.7729
13.0551
13.3178
13.3405
13.0532
12.4579
11.6226
10.599
9.56482
9.08255
13.3736
20.3713
29.3279
39.9525
50.9785
60.8141
63.1183
59.9299
54.3817
48.1189
41.8804
36.1089
31.0377
26.5069
22.6207
19.0999
16.4689
13.6234
12.5107
10.9955
10.301
10.2663
10.4143
10.4885
10.3763
10.0506
9.56177
8.94309
8.40502
8.48243
12.0208
17.403
24.0696
31.8007
39.7418
46.3767
47.6176
45.4189
41.6147
37.3319
33.1031
29.131
25.5168
22.2136
19.3125
16.6329
14.6766
12.6871
11.9467
10.115
9.25556
9.0856
9.15922
9.22868
9.18968
9.00141
8.69932
8.31392
8.06589
8.43789
11.5744
16.0965
21.5845
27.8578
34.1924
39.2429
40.1115
38.4742
35.5464
32.1994
28.8856
25.7445
22.8324
20.1229
17.6946