/*--------------------------------*- C++ -*----------------------------------*\
  =========                 |
  \\      /  F ield         | OpenFOAM: The Open Source CFD Toolbox
   \\    /   O peration     | Website:  https://openfoam.org
    \\  /    A nd           | Version:  12
     \\/     M anipulation  |
\*---------------------------------------------------------------------------*/
FoamFile
{
    format      ascii;
    class       volScalarField;
    location    "400/air";
    object      k;
}
// * * * * * * * * * * * * * * * * * * * * * * * * * * * * * * * * * * * * * //

dimensions      [0 2 -2 0 0 0 0];

internalField   nonuniform List<scalar> 
243000
(
0.102764
0.108287
0.110188
0.110174
0.10845
0.105245
0.100722
0.0950777
0.0885606
0.0815937
0.0747257
0.0686291
0.0627762
0.0568235
0.0499229
0.0448705
0.0573817
0.104104
0.13318
0.140186
0.136211
0.127015
0.114613
0.100886
0.0869204
0.073527
0.0637424
0.0602116
0.0615139
0.0669504
0.170287
0.172668
0.168746
0.162661
0.155689
0.148052
0.139776
0.130943
0.121731
0.112558
0.103899
0.0963839
0.0890584
0.0823372
0.0746064
0.0730155
0.109515
0.194092
0.23882
0.249783
0.242721
0.227679
0.207563
0.185922
0.164137
0.143523
0.127448
0.117204
0.116507
0.119445
0.210825
0.214115
0.209197
0.201688
0.193044
0.18361
0.173495
0.16286
0.151943
0.141256
0.131334
0.122764
0.114074
0.105962
0.0964243
0.0966626
0.150457
0.255337
0.308611
0.322775
0.315138
0.297211
0.272955
0.246697
0.220291
0.195418
0.175153
0.160927
0.157476
0.160105
0.239386
0.242973
0.23787
0.229952
0.220588
0.210171
0.198902
0.187031
0.17489
0.163106
0.152304
0.142989
0.13319
0.123638
0.112124
0.113094
0.178785
0.293867
0.351174
0.367884
0.361222
0.342763
0.317187
0.289185
0.260923
0.234333
0.212094
0.195859
0.190464
0.19336
0.261315
0.264787
0.259888
0.252079
0.242561
0.231716
0.219805
0.20717
0.194224
0.1817
0.170261
0.160318
0.149506
0.138441
0.124724
0.125694
0.200104
0.320148
0.379472
0.398153
0.392953
0.374995
0.349387
0.320982
0.292184
0.265119
0.242106
0.225037
0.218197
0.22151
0.278656
0.281807
0.277237
0.269764
0.260378
0.249425
0.237202
0.224123
0.210674
0.197657
0.185721
0.175186
0.16339
0.150707
0.134656
0.13533
0.215664
0.336964
0.397341
0.417532
0.413956
0.397117
0.37231
0.344367
0.315901
0.289157
0.266212
0.249097
0.24138
0.245143
0.292595
0.295372
0.291162
0.284111
0.274996
0.264116
0.251787
0.23848
0.224732
0.21138
0.199026
0.187883
0.175086
0.160666
0.142303
0.143628
0.226484
0.346153
0.407076
0.428675
0.426684
0.411341
0.387906
0.36102
0.333458
0.307554
0.285253
0.268644
0.260592
0.264808
0.303881
0.306317
0.302466
0.29586
0.287073
0.276361
0.264052
0.250653
0.236742
0.223151
0.210409
0.198615
0.184786
0.168503
0.148235
0.151408
0.233391
0.350152
0.410683
0.433464
0.432934
0.419354
0.397736
0.372336
0.346046
0.321293
0.300016
0.284283
0.276352
0.28103
0.313011
0.315174
0.311676
0.305507
0.297062
0.286562
0.274341
0.260935
0.246944
0.233169
0.220039
0.207547
0.192618
0.174437
0.153904
0.158661
0.237534
0.350563
0.410209
0.433662
0.433916
0.42207
0.402569
0.379148
0.354646
0.331315
0.311215
0.296601
0.289141
0.294296
0.320322
0.322293
0.319137
0.313388
0.305276
0.294998
0.282898
0.269533
0.255509
0.241577
0.228047
0.214818
0.198699
0.178702
0.159135
0.165394
0.240968
0.347372
0.405461
0.429791
0.430934
0.42051
0.402777
0.38167
0.359386
0.338017
0.319471
0.306127
0.299389
0.305027
0.326034
0.327892
0.325075
0.319721
0.311925
0.301862
0.289893
0.276592
0.262558
0.248481
0.234544
0.220509
0.20315
0.181671
0.163854
0.171647
0.243842
0.341417
0.397774
0.42288
0.424872
0.415976
0.399949
0.380742
0.360755
0.341694
0.325115
0.313237
0.307454
0.313561
0.33027
0.332097
0.329617
0.324635
0.317129
0.307264
0.295427
0.282207
0.268175
0.25396
0.239587
0.224691
0.206108
0.184409
0.168223
0.177449
0.246181
0.334416
0.388024
0.413587
0.416386
0.408915
0.39477
0.377395
0.359465
0.342694
0.328391
0.318243
0.313609
0.320153
0.33312
0.334968
0.332826
0.328174
0.320915
0.31123
0.299518
0.28637
0.272359
0.258017
0.243193
0.22739
0.207852
0.187149
0.172355
0.182812
0.248004
0.328169
0.377746
0.402655
0.406085
0.399874
0.387487
0.372087
0.356147
0.341505
0.329486
0.32138
0.317996
0.324968
0.334607
0.336515
0.334703
0.330383
0.32337
0.313868
0.30229
0.289228
0.275223
0.260729
0.245455
0.228865
0.209164
0.189799
0.176304
0.187745
0.249325
0.322438
0.368518
0.392183
0.395338
0.389571
0.378674
0.365089
0.351148
0.338552
0.328648
0.322661
0.32062
0.328105
0.334641
0.33671
0.335313
0.331312
0.324524
0.315203
0.303776
0.290833
0.276863
0.262241
0.246569
0.229451
0.210643
0.192404
0.180099
0.192254
0.250164
0.317035
0.360043
0.382585
0.3856
0.380287
0.370156
0.357535
0.344795
0.334144
0.326232
0.322156
0.321517
0.32965
0.333319
0.335549
0.334615
0.330997
0.324474
0.315345
0.304084
0.291284
0.277383
0.26269
0.2468
0.230101
0.212226
0.194982
0.183755
0.196348
0.250551
0.311822
0.352087
0.373617
0.376595
0.37172
0.362332
0.350676
0.339026
0.329121
0.322415
0.320056
0.320788
0.329661
0.330547
0.333002
0.332521
0.329283
0.323048
0.314152
0.303117
0.290553
0.276823
0.262398
0.247102
0.230984
0.213896
0.197544
0.187275
0.200028
0.250469
0.306702
0.344479
0.365089
0.368108
0.363653
0.354992
0.34429
0.333671
0.324565
0.318459
0.31646
0.318331
0.328002
0.326293
0.329031
0.329049
0.326208
0.320256
0.31165
0.300988
0.289096
0.276074
0.262276
0.247564
0.232009
0.215638
0.200088
0.190656
0.203286
0.249916
0.301578
0.337074
0.356849
0.359968
0.355922
0.347972
0.3382
0.328558
0.320272
0.314766
0.31285
0.31437
0.324599
0.321298
0.324245
0.324773
0.322356
0.316895
0.3089
0.298952
0.287726
0.275399
0.262227
0.248101
0.233111
0.217423
0.202611
0.193891
0.206118
0.24894
0.296398
0.329768
0.348766
0.352037
0.348411
0.341162
0.332287
0.323568
0.316094
0.311177
0.30943
0.310725
0.31968
0.316673
0.319744
0.320662
0.318632
0.313618
0.306198
0.296918
0.286353
0.274716
0.262182
0.248659
0.234254
0.219233
0.205106
0.196975
0.208525
0.247553
0.291105
0.322466
0.340727
0.344172
0.340986
0.334454
0.326458
0.318615
0.311927
0.307572
0.306036
0.307195
0.314882
0.312194
0.315327
0.316552
0.314887
0.310301
0.303428
0.294802
0.284906
0.273965
0.262094
0.249205
0.235416
0.221058
0.207572
0.1999
0.210517
0.245754
0.285651
0.315092
0.332631
0.336256
0.333522
0.327715
0.320579
0.313608
0.3077
0.303881
0.302553
0.303607
0.31032
0.307661
0.310838
0.312313
0.311006
0.306846
0.300511
0.292548
0.28334
0.273111
0.261934
0.249719
0.236587
0.222892
0.210013
0.202668
0.212118
0.243607
0.280006
0.307581
0.324392
0.328191
0.325915
0.320827
0.314565
0.308456
0.303297
0.299983
0.298853
0.299797
0.305731
0.302908
0.306131
0.307851
0.306903
0.303185
0.297403
0.290103
0.281623
0.272136
0.261691
0.250201
0.237772
0.224749
0.212451
0.205303
0.213379
0.241173
0.274174
0.299904
0.315946
0.319903
0.318083
0.313708
0.308334
0.303054
0.29861
0.295773
0.294832
0.295692
0.300907
0.297806
0.301125
0.303091
0.302514
0.29927
0.294068
0.287457
0.279745
0.271043
0.26138
0.25069
0.239018
0.226687
0.214961
0.207899
0.214434
0.238569
0.26824
0.292093
0.307296
0.311374
0.309984
0.306327
0.301798
0.297318
0.293569
0.291188
0.290419
0.2912
0.295744
0.292279
0.295753
0.297979
0.297794
0.295063
0.290496
0.284632
0.277729
0.269888
0.261126
0.251346
0.240484
0.228942
0.217828
0.210787
0.215645
0.236136
0.262471
0.284375
0.298618
0.30273
0.301706
0.298733
0.294993
0.291273
0.288175
0.286211
0.285589
0.286284
0.290185
0.286304
0.290003
0.292512
0.292754
0.290599
0.286768
0.281772
0.275796
0.26907
0.261433
0.252687
0.242913
0.232389
0.222049
0.21505
0.21812
0.234901
0.257735
0.277529
0.290578
0.294542
0.293725
0.291275
0.288179
0.2851
0.282548
0.280921
0.280391
0.280972
0.28423
0.280174
0.28419
0.287054
0.287818
0.286415
0.283631
0.279874
0.275385
0.270157
0.264124
0.257102
0.249054
0.240136
0.231013
0.224213
0.225356
0.238133
0.257125
0.274174
0.285489
0.288857
0.287884
0.285518
0.282655
0.279859
0.27756
0.275996
0.275371
0.2757
0.278232
0.27613
0.280736
0.284483
0.286362
0.286556
0.28588
0.284589
0.282864
0.2806
0.277667
0.273844
0.268925
0.262789
0.255706
0.249416
0.248355
0.256296
0.270102
0.283164
0.291585
0.293421
0.291306
0.288029
0.28438
0.28083
0.277734
0.275387
0.273856
0.273304
0.274533
0.295374
0.301533
0.307575
0.312938
0.317561
0.322026
0.326088
0.329739
0.332738
0.335061
0.336351
0.336067
0.333688
0.329066
0.323183
0.31921
0.320947
0.327577
0.334487
0.338274
0.337106
0.332761
0.327551
0.321842
0.316025
0.310389
0.305208
0.300506
0.296772
0.294835
0.476478
0.483424
0.490541
0.498213
0.506488
0.513957
0.519186
0.522833
0.525007
0.52727
0.528816
0.528212
0.524616
0.518529
0.510793
0.504285
0.500189
0.500249
0.501761
0.503206
0.503038
0.502468
0.502016
0.500985
0.499088
0.496182
0.492398
0.48765
0.48254
0.477599
0.153443
0.16532
0.167947
0.166109
0.161024
0.153454
0.143801
0.132481
0.120051
0.107437
0.0957065
0.0859428
0.0776052
0.0750315
0.084226
0.125667
0.179421
0.237386
0.267263
0.274639
0.266433
0.250168
0.229269
0.20692
0.184859
0.164243
0.146812
0.131451
0.12176
0.113244
0.272289
0.275866
0.266846
0.254469
0.241001
0.22685
0.211992
0.196629
0.181226
0.166784
0.153665
0.142807
0.136005
0.143901
0.173172
0.252312
0.342194
0.429696
0.478013
0.489978
0.475154
0.446826
0.410764
0.372643
0.335036
0.299924
0.269645
0.241795
0.219937
0.20602
0.352437
0.351863
0.341292
0.328077
0.313445
0.297399
0.280001
0.261808
0.243662
0.226884
0.211931
0.199454
0.191716
0.203478
0.242097
0.341073
0.448771
0.548213
0.606875
0.625543
0.612425
0.581307
0.539818
0.494685
0.44961
0.406961
0.369725
0.335275
0.308477
0.293636
0.411931
0.406804
0.395582
0.382951
0.368707
0.352387
0.334138
0.31474
0.295256
0.277221
0.261289
0.247839
0.239411
0.253222
0.296352
0.404806
0.519544
0.62289
0.686675
0.710601
0.701383
0.671505
0.629424
0.582367
0.53454
0.4886
0.448058
0.410479
0.381026
0.366257
0.457532
0.448747
0.437211
0.425443
0.41206
0.396198
0.378015
0.358416
0.338528
0.320079
0.303598
0.28946
0.280521
0.295017
0.339579
0.450672
0.566224
0.670116
0.736016
0.763398
0.758499
0.731739
0.691602
0.645335
0.597452
0.550912
0.509242
0.470666
0.439523
0.425239
0.493268
0.48194
0.470262
0.459327
0.446869
0.431759
0.414124
0.394886
0.375217
0.356801
0.339976
0.325267
0.315893
0.329846
0.373776
0.482701
0.595806
0.697674
0.764541
0.793832
0.792745
0.769886
0.733134
0.689238
0.642922
0.59737
0.556063
0.517926
0.485931
0.472174
0.521541
0.508736
0.497115
0.486931
0.475346
0.461089
0.44423
0.425649
0.406504
0.388319
0.371227
0.355966
0.34609
0.358357
0.400129
0.503216
0.612582
0.71111
0.777909
0.808429
0.810036
0.79132
0.758885
0.71843
0.674689
0.631072
0.591021
0.554191
0.522174
0.508906
0.543938
0.530582
0.519238
0.50975
0.49895
0.485543
0.469534
0.451719
0.433208
0.41529
0.397928
0.382076
0.371549
0.381023
0.419376
0.514459
0.620532
0.715666
0.781348
0.811851
0.814734
0.799944
0.772558
0.736372
0.695915
0.65478
0.616516
0.58144
0.550092
0.537279
0.561645
0.548428
0.537576
0.528768
0.518666
0.506045
0.490846
0.473787
0.455892
0.438199
0.42052
0.404029
0.39264
0.398643
0.432487
0.518931
0.62262
0.714759
0.776934
0.807297
0.810516
0.797903
0.774116
0.74396
0.708655
0.670987
0.634753
0.601537
0.57138
0.559012
0.575565
0.562939
0.55277
0.544644
0.535167
0.523223
0.508723
0.492329
0.474969
0.45742
0.439373
0.422198
0.409752
0.412078
0.441194
0.519648
0.619355
0.707249
0.767016
0.797271
0.800551
0.79015
0.769356
0.742303
0.712156
0.679654
0.64685
0.616208
0.587492
0.575524
0.586305
0.574591
0.565266
0.557814
0.548898
0.537517
0.523571
0.507702
0.490767
0.473284
0.454834
0.436957
0.423308
0.422265
0.448203
0.519592
0.612978
0.697206
0.754264
0.783811
0.786906
0.778213
0.760411
0.736447
0.709642
0.681674
0.653331
0.626024
0.599636
0.587924
0.594232
0.58371
0.575354
0.568563
0.560146
0.549222
0.535696
0.520216
0.503594
0.486119
0.467284
0.448736
0.433886
0.43049
0.453875
0.519096
0.606262
0.686645
0.740617
0.768777
0.771284
0.763719
0.748343
0.727659
0.703861
0.679314
0.655063
0.631719
0.608624
0.597049
0.599816
0.590513
0.583216
0.577076
0.569098
0.55854
0.545336
0.530155
0.513766
0.496294
0.477177
0.458079
0.442348
0.437539
0.458613
0.518115
0.599588
0.675858
0.727665
0.754103
0.755205
0.748084
0.734401
0.716435
0.695767
0.674286
0.653241
0.633828
0.614509
0.603544
0.603228
0.595054
0.588973
0.583483
0.575894
0.565634
0.552703
0.537813
0.521666
0.504285
0.485056
0.465722
0.449767
0.443815
0.462949
0.516871
0.593218
0.665272
0.71464
0.739864
0.740184
0.732787
0.719699
0.703751
0.685812
0.667251
0.649143
0.632704
0.617261
0.607555
0.604698
0.597617
0.592717
0.587878
0.580636
0.57065
0.55804
0.543578
0.527791
0.510661
0.491733
0.472832
0.456243
0.449654
0.467045
0.515768
0.587343
0.65519
0.701958
0.725958
0.725517
0.717776
0.705329
0.690542
0.674589
0.658648
0.643246
0.629466
0.616766
0.608986
0.604615
0.598602
0.59462
0.590421
0.583638
0.574061
0.561943
0.548034
0.532902
0.516397
0.498074
0.479166
0.462296
0.455384
0.471026
0.515311
0.582092
0.645771
0.689898
0.712679
0.711598
0.703522
0.691419
0.67742
0.662832
0.648773
0.635909
0.624505
0.614217
0.607974
0.602661
0.598252
0.595217
0.591672
0.585489
0.576518
0.5652
0.552152
0.537845
0.521816
0.503746
0.485027
0.46836
0.461289
0.475138
0.515624
0.577519
0.637062
0.678585
0.700177
0.698654
0.690361
0.678432
0.664921
0.651288
0.638583
0.627396
0.618103
0.610067
0.605251
0.59911
0.596418
0.594897
0.592237
0.586911
0.578829
0.568372
0.556066
0.542372
0.526805
0.509212
0.490964
0.474846
0.467674
0.479772
0.516505
0.573574
0.628992
0.667992
0.688481
0.68677
0.678463
0.666687
0.653479
0.64045
0.628649
0.618639
0.610778
0.604495
0.600985
0.595242
0.594469
0.594315
0.592581
0.58808
0.580844
0.571238
0.55978
0.546888
0.532013
0.515126
0.497546
0.482177
0.474851
0.485099
0.518115
0.570258
0.621528
0.658042
0.677503
0.675912
0.667882
0.656406
0.643469
0.630804
0.61952
0.61025
0.603288
0.59822
0.596112
0.590926
0.591904
0.593049
0.592507
0.589095
0.582898
0.574312
0.563965
0.552098
0.538155
0.522182
0.505389
0.490822
0.483196
0.491467
0.520631
0.567603
0.614648
0.648642
0.667095
0.665892
0.658484
0.647632
0.635127
0.622761
0.611748
0.602828
0.596315
0.591994
0.590924
0.586976
0.589427
0.591928
0.59271
0.590542
0.585576
0.57838
0.569419
0.558797
0.546014
0.531138
0.515198
0.501368
0.493234
0.499329
0.524342
0.565897
0.608425
0.639762
0.657145
0.656584
0.650114
0.640279
0.62849
0.61655
0.605733
0.596911
0.590553
0.586569
0.585986
0.584022
0.587904
0.591697
0.594142
0.593385
0.589977
0.58441
0.577054
0.567949
0.556552
0.542904
0.527905
0.514626
0.505779
0.509385
0.529848
0.566111
0.603247
0.631622
0.647745
0.648027
0.64276
0.634283
0.623538
0.612381
0.601894
0.593112
0.586568
0.582585
0.582153
0.582748
0.587773
0.59363
0.597826
0.59878
0.597166
0.593526
0.588099
0.580842
0.571124
0.558891
0.544904
0.53199
0.522308
0.522948
0.538398
0.568316
0.600096
0.625091
0.639515
0.640746
0.636796
0.629818
0.620432
0.610115
0.600086
0.591515
0.584961
0.580815
0.580325
0.584093
0.590925
0.598852
0.604983
0.608152
0.608692
0.607429
0.604447
0.599546
0.591971
0.58152
0.568798
0.556233
0.545646
0.542955
0.552819
0.575821
0.601888
0.622516
0.634509
0.636383
0.633509
0.62782
0.6195
0.610308
0.601406
0.593411
0.586902
0.582369
0.581574
0.589875
0.59884
0.609261
0.617737
0.623649
0.62723
0.62925
0.629669
0.628118
0.623623
0.615856
0.605173
0.593441
0.582093
0.575978
0.579537
0.594803
0.614009
0.629473
0.638092
0.639343
0.636582
0.631629
0.624503
0.616505
0.608429
0.600817
0.594189
0.589074
0.587691
0.603343
0.615054
0.628646
0.640458
0.650264
0.658431
0.665599
0.671686
0.675697
0.676356
0.673445
0.666803
0.657465
0.646173
0.636732
0.632956
0.639135
0.650168
0.659023
0.662656
0.660692
0.655784
0.649637
0.642059
0.633969
0.625786
0.617866
0.610621
0.604442
0.601914
0.63363
0.649456
0.667755
0.68508
0.701449
0.717612
0.733705
0.749573
0.763314
0.77357
0.77963
0.780596
0.776425
0.766613
0.753597
0.740986
0.73556
0.736276
0.736197
0.732252
0.723841
0.713948
0.703529
0.691933
0.680229
0.668728
0.65781
0.647818
0.638771
0.633548
0.70591
0.72913
0.75602
0.783207
0.811335
0.841337
0.871163
0.90206
0.930114
0.953497
0.970769
0.980754
0.981352
0.971266
0.951248
0.927219
0.907364
0.895152
0.883693
0.871584
0.858129
0.844875
0.830564
0.813877
0.795299
0.775578
0.756096
0.737832
0.720593
0.70822
0.887542
0.921935
0.959979
0.99829
1.03835
1.08068
1.12201
1.1606
1.19341
1.21553
1.22523
1.22504
1.21375
1.1902
1.1553
1.11355
1.0792
1.05275
1.03045
1.0157
1.00886
1.00867
1.00963
1.00838
1.00194
0.989456
0.970442
0.944569
0.916291
0.892193
1.15052
1.19608
1.23578
1.26583
1.29154
1.31393
1.3296
1.33803
1.33898
1.32652
1.30272
1.27251
1.23472
1.19019
1.14181
1.09726
1.0604
1.02959
1.00443
0.991518
0.990193
1.0034
1.02686
1.05513
1.08369
1.10983
1.13027
1.14002
1.14267
1.14504
0.201809
0.211755
0.213207
0.210278
0.203764
0.194322
0.182252
0.168012
0.152344
0.136513
0.121657
0.109629
0.107728
0.130402
0.177578
0.241335
0.305079
0.374305
0.40585
0.408566
0.393439
0.369198
0.339812
0.308976
0.278647
0.249786
0.223643
0.198485
0.177838
0.157211
0.342594
0.347889
0.338096
0.325639
0.312213
0.297662
0.281413
0.263685
0.245056
0.226731
0.207919
0.192797
0.201881
0.255828
0.343726
0.455934
0.564446
0.673022
0.721342
0.72334
0.693922
0.649763
0.597499
0.543541
0.4904
0.439584
0.392766
0.346153
0.305308
0.27064
0.442043
0.438982
0.426981
0.414796
0.40177
0.386631
0.368739
0.348722
0.327648
0.307099
0.286526
0.270775
0.284149
0.352097
0.45643
0.587891
0.712932
0.829047
0.885902
0.894043
0.86594
0.818617
0.760388
0.698399
0.636234
0.575828
0.519794
0.463752
0.41503
0.376436
0.512939
0.502926
0.490137
0.479089
0.467258
0.45266
0.43468
0.414169
0.392546
0.371556
0.351069
0.336464
0.353052
0.427885
0.536939
0.674092
0.802998
0.917535
0.977967
0.991411
0.967974
0.922832
0.86479
0.80116
0.736226
0.672349
0.612769
0.553153
0.500885
0.461372
0.565451
0.551149
0.538274
0.528378
0.517704
0.503964
0.486617
0.466617
0.445525
0.425103
0.405597
0.392879
0.412218
0.489142
0.596955
0.731643
0.857779
0.967836
1.02903
1.04604
1.02799
0.987382
0.93256
0.870646
0.80624
0.742106
0.681838
0.62172
0.567509
0.529023
0.605577
0.589242
0.576706
0.567759
0.558034
0.545219
0.528837
0.509851
0.489829
0.470467
0.452302
0.441754
0.463486
0.539018
0.64199
0.769682
0.889407
0.992942
1.05402
1.07274
1.05948
1.02442
0.974497
0.916201
0.85417
0.791538
0.732123
0.673233
0.618319
0.581865
0.637266
0.620354
0.608377
0.600171
0.591194
0.579268
0.563957
0.546178
0.527424
0.509292
0.492587
0.48424
0.507859
0.579563
0.675527
0.793778
0.905206
1.00111
1.06132
1.08063
1.07068
1.04165
0.997693
0.944315
0.885911
0.825802
0.768096
0.711404
0.656971
0.622939
0.662855
0.646373
0.635062
0.627433
0.61902
0.607883
0.593607
0.577031
0.559553
0.542641
0.527408
0.521137
0.545971
0.612265
0.699997
0.807761
0.910342
1.00098
1.0569
1.0759
1.06762
1.04094
1.00349
0.958053
0.905261
0.849012
0.793764
0.739768
0.686596
0.655079
0.683991
0.668452
0.65785
0.650679
0.642673
0.632187
0.618815
0.60333
0.587035
0.571271
0.557463
0.553061
0.57828
0.638216
0.717224
0.814393
0.909884
0.991202
1.04479
1.06304
1.05623
1.03331
0.998651
0.957157
0.911581
0.861205
0.809913
0.759657
0.709832
0.680669
0.701759
0.687338
0.677425
0.6706
0.662875
0.652886
0.640254
0.625704
0.610463
0.595753
0.583284
0.580482
0.605259
0.658713
0.728641
0.815783
0.902994
0.977359
1.02816
1.04537
1.03958
1.01972
0.989012
0.951177
0.909647
0.865705
0.819302
0.773663
0.728381
0.701404
0.716753
0.703477
0.694197
0.687613
0.680068
0.670442
0.658391
0.644626
0.63031
0.616583
0.605354
0.603848
0.627431
0.674426
0.735403
0.813601
0.893575
0.961641
1.0094
1.02536
1.02015
1.00273
0.975668
0.941798
0.90432
0.864813
0.824236
0.78353
0.743336
0.71838
0.729232
0.717065
0.70839
0.701973
0.69454
0.685176
0.673589
0.660497
0.647019
0.634239
0.624166
0.623668
0.645806
0.686297
0.740402
0.810376
0.883429
0.945864
0.990551
1.00495
0.999863
0.984128
0.960142
0.930315
0.896665
0.861532
0.826049
0.79047
0.755429
0.732253
0.73923
0.728165
0.72011
0.713844
0.706503
0.697354
0.686176
0.673718
0.661053
0.649248
0.640277
0.640672
0.661054
0.696344
0.744224
0.806646
0.87316
0.930314
0.971978
0.985758
0.980344
0.965369
0.943719
0.91727
0.887405
0.856365
0.825118
0.794973
0.764933
0.743459
0.746711
0.736796
0.729426
0.723362
0.71616
0.707257
0.696521
0.684756
0.672968
0.662235
0.654397
0.655547
0.674406
0.705096
0.747347
0.802769
0.863146
0.915351
0.954122
0.967448
0.961912
0.94771
0.927531
0.90361
0.877136
0.84972
0.822445
0.796975
0.771666
0.752226
0.751909
0.743019
0.736443
0.730704
0.723767
0.715241
0.705092
0.694208
0.683474
0.673989
0.667462
0.669272
0.686375
0.713005
0.750142
0.799001
0.853572
0.901113
0.937151
0.950243
0.944807
0.931265
0.912292
0.890198
0.866409
0.84198
0.818132
0.796063
0.775378
0.758265
0.75499
0.746888
0.74138
0.736161
0.72971
0.721825
0.712531
0.702879
0.693509
0.68528
0.679815
0.682105
0.697474
0.72047
0.752864
0.795509
0.8445
0.887589
0.921047
0.934134
0.929086
0.916276
0.898358
0.877649
0.855721
0.83361
0.812499
0.793257
0.775599
0.761416
0.756208
0.749168
0.744712
0.740258
0.734613
0.72781
0.719721
0.711298
0.703246
0.696318
0.691922
0.694497
0.708167
0.727848
0.755693
0.792389
0.835912
0.874678
0.905681
0.918971
0.91465
0.902803
0.885952
0.866376
0.845766
0.825344
0.806085
0.788943
0.773538
0.761427
0.756155
0.750469
0.74721
0.743834
0.739279
0.733557
0.726821
0.719857
0.713285
0.707696
0.704315
0.706981
0.718942
0.735459
0.75884
0.789713
0.827775
0.862249
0.890867
0.904532
0.901305
0.890776
0.875194
0.856686
0.83701
0.817701
0.799681
0.783902
0.770081
0.759727
0.755316
0.751229
0.749269
0.747155
0.743954
0.739657
0.73454
0.729241
0.724275
0.720049
0.717596
0.72016
0.730326
0.743692
0.762618
0.787636
0.820156
0.850264
0.876456
0.890525
0.88875
0.879983
0.866075
0.848666
0.829857
0.811191
0.793922
0.778932
0.766178
0.757227
0.754128
0.751946
0.75153
0.750974
0.749444
0.7469
0.743651
0.74019
0.736939
0.734102
0.732486
0.73476
0.742965
0.75307
0.767497
0.786504
0.813288
0.838848
0.862422
0.87675
0.876747
0.870069
0.858247
0.842318
0.824304
0.806195
0.789376
0.774766
0.762633
0.754581
0.753687
0.753317
0.754829
0.756238
0.75669
0.756185
0.755032
0.753575
0.752165
0.750749
0.749904
0.75172
0.757801
0.76436
0.774253
0.78703
0.807739
0.828442
0.849037
0.863217
0.865345
0.860954
0.85157
0.837383
0.820374
0.802884
0.786414
0.771997
0.760182
0.752622
0.754758
0.756382
0.760192
0.763906
0.766774
0.768617
0.769786
0.770538
0.771157
0.771229
0.771152
0.772391
0.776176
0.778942
0.784215
0.790452
0.804719
0.820093
0.837176
0.850584
0.854915
0.852956
0.846277
0.833986
0.818222
0.801396
0.785267
0.770988
0.759317
0.752033
0.758667
0.762513
0.768925
0.775304
0.780957
0.785537
0.789394
0.792719
0.795675
0.79748
0.798281
0.798916
0.800276
0.799326
0.799754
0.799196
0.806517
0.816003
0.828895
0.840561
0.846693
0.847191
0.843296
0.83268
0.818369
0.803019
0.787729
0.773742
0.762161
0.754888
0.766784
0.773324
0.782793
0.79228
0.801215
0.809103
0.816251
0.822783
0.828654
0.832699
0.834767
0.83504
0.834057
0.829761
0.825534
0.81772
0.817512
0.820533
0.828613
0.837269
0.84374
0.846278
0.84499
0.837189
0.82505
0.810957
0.796307
0.782337
0.77024
0.762443
0.781515
0.791472
0.80473
0.818032
0.831067
0.843222
0.854752
0.865672
0.875557
0.88284
0.887066
0.887733
0.885177
0.878086
0.869795
0.854524
0.845714
0.841365
0.843666
0.848252
0.853264
0.856184
0.856311
0.850768
0.840587
0.827442
0.813055
0.798792
0.785864
0.777366
0.808072
0.822576
0.840756
0.859138
0.877756
0.895891
0.913754
0.931154
0.946936
0.959179
0.967136
0.969757
0.966988
0.957998
0.946011
0.922783
0.904322
0.891465
0.885735
0.884707
0.886971
0.888588
0.888269
0.883402
0.873945
0.860743
0.84537
0.829669
0.814922
0.804896
0.859542
0.880271
0.905158
0.930658
0.95725
0.98407
1.01114
1.03781
1.0618
1.08083
1.09395
1.09986
1.09781
1.08647
1.06856
1.034
1.00091
0.975115
0.959284
0.951603
0.951734
0.954847
0.957017
0.95314
0.943595
0.928892
0.910632
0.891169
0.872052
0.858313
0.96789
0.996459
1.02984
1.06426
1.1007
1.13797
1.17548
1.21164
1.24295
1.26667
1.28154
1.28662
1.27997
1.25729
1.22075
1.16135
1.10997
1.07001
1.04364
1.03078
1.03155
1.04173
1.05508
1.06563
1.06775
1.05827
1.04038
1.01729
0.991148
0.970101
1.17905
1.21497
1.25392
1.29254
1.33199
1.37171
1.40983
1.44343
1.46893
1.4824
1.48104
1.4652
1.43253
1.37796
1.31002
1.22727
1.16076
1.10987
1.07596
1.061
1.06385
1.08548
1.11678
1.15165
1.18416
1.20835
1.2203
1.21756
1.20235
1.18357
1.34758
1.40139
1.44785
1.48291
1.50778
1.52988
1.54601
1.55465
1.55228
1.53368
1.49944
1.45079
1.38725
1.31246
1.22809
1.13947
1.07083
1.0193
0.984014
0.968665
0.971575
0.995323
1.03349
1.08048
1.13136
1.18203
1.22998
1.27181
1.30552
1.33522
0.244203
0.253405
0.252382
0.248339
0.241006
0.230661
0.21739
0.201597
0.183998
0.165848
0.147778
0.133637
0.151567
0.206413
0.27559
0.358868
0.436537
0.514891
0.549854
0.54328
0.518028
0.483607
0.444305
0.404207
0.365432
0.328534
0.294359
0.260344
0.229386
0.196143
0.406321
0.409261
0.400251
0.388793
0.376558
0.362718
0.346177
0.327055
0.305822
0.283556
0.257899
0.239487
0.284692
0.392883
0.518773
0.6656
0.796938
0.919281
0.968139
0.956147
0.907255
0.843491
0.772879
0.702104
0.633277
0.567815
0.506715
0.444233
0.386336
0.32979
0.516847
0.511694
0.499379
0.489251
0.478893
0.465646
0.44826
0.427398
0.404157
0.379993
0.353517
0.336969
0.392449
0.520695
0.66519
0.829644
0.975911
1.1047
1.16048
1.15408
1.1057
1.03763
0.960185
0.880558
0.801617
0.725223
0.653372
0.579607
0.512043
0.449293
0.593745
0.580825
0.567658
0.559301
0.550868
0.538874
0.522129
0.501577
0.478749
0.455328
0.431093
0.419439
0.480719
0.614266
0.762599
0.927995
1.07567
1.19992
1.25804
1.25772
1.21479
1.14925
1.07233
0.991255
0.909491
0.829257
0.753408
0.675832
0.604237
0.539927
0.650623
0.632089
0.619119
0.612314
0.60534
0.594578
0.579059
0.559845
0.538686
0.517362
0.49668
0.491042
0.556287
0.686728
0.831562
0.989921
1.13135
1.24742
1.30546
1.3097
1.2737
1.21346
1.1404
1.0614
0.980374
0.899908
0.823409
0.745608
0.672115
0.61152
0.692178
0.672162
0.660207
0.65464
0.648713
0.639089
0.62502
0.607595
0.588655
0.570065
0.553407
0.554292
0.621877
0.745402
0.88187
1.02885
1.15945
1.26518
1.32268
1.32925
1.30027
1.24655
1.17921
1.10434
1.02602
0.947268
0.871841
0.79579
0.721832
0.665972
0.724551
0.705213
0.694507
0.689816
0.684603
0.675989
0.66339
0.64789
0.631345
0.615717
0.603147
0.610712
0.679177
0.793766
0.919323
1.05223
1.17004
1.2671
1.32218
1.32771
1.30197
1.25563
1.19681
1.1285
1.05441
0.978483
0.904868
0.831786
0.75877
0.707665
0.751306
0.733642
0.724123
0.719955
0.715175
0.707408
0.696189
0.682567
0.668404
0.655752
0.647272
0.661193
0.72929
0.833973
0.947379
1.06524
1.17148
1.25579
1.30846
1.31406
1.29266
1.24931
1.19405
1.13158
1.06452
0.99344
0.923552
0.85497
0.786295
0.740797
0.774535
0.75881
0.750251
0.746302
0.741734
0.734647
0.724658
0.71279
0.700894
0.691128
0.686719
0.706389
0.772993
0.867494
0.968421
1.07132
1.1645
1.23851
1.28791
1.29333
1.27522
1.23706
1.18532
1.12692
1.06408
0.999133
0.933885
0.870704
0.808223
0.768353
0.795424
0.781437
0.773529
0.769559
0.765048
0.75849
0.749575
0.739314
0.729548
0.722516
0.722171
0.746797
0.81091
0.895395
0.984144
1.07295
1.15401
1.2184
1.26392
1.269
1.2535
1.2199
1.17296
1.11894
1.06061
1.0006
0.940363
0.882883
0.827141
0.792211
0.814439
0.801799
0.794267
0.79011
0.785557
0.779415
0.771442
0.762663
0.754903
0.750397
0.754197
0.782854
0.843557
0.918507
0.995806
1.0724
1.1421
1.19765
1.23884
1.24355
1.22999
1.20042
1.15868
1.10913
1.05559
1.00053
0.945484
0.893623
0.844412
0.813355
0.831578
0.819894
0.812558
0.808139
0.803508
0.79772
0.790616
0.783244
0.77741
0.775331
0.783128
0.814836
0.87155
0.937561
1.00472
1.06946
1.12888
1.17676
1.21428
1.21876
1.20639
1.18023
1.14325
1.09837
1.04979
0.999906
0.950219
0.903702
0.860388
0.832142
0.846606
0.83558
0.828378
0.823722
0.819055
0.813633
0.807401
0.801437
0.79746
0.797854
0.809302
0.843058
0.895546
0.953602
1.01131
1.06496
1.11472
1.15555
1.18947
1.19461
1.18394
1.16043
1.12753
1.08715
1.04341
0.998692
0.95451
0.913034
0.874886
0.848552
0.859225
0.848699
0.841682
0.83692
0.832347
0.827391
0.822136
0.817639
0.81548
0.818534
0.833139
0.867964
0.916367
0.967087
1.01589
1.05916
1.09987
1.13413
1.16465
1.17089
1.16201
1.14168
1.11229
1.07582
1.03649
0.996544
0.957745
0.921029
0.887462
0.862463
0.869143
0.859161
0.852492
0.847855
0.843604
0.839318
0.835241
0.832335
0.832121
0.837942
0.855225
0.890266
0.934543
0.978306
1.01871
1.05224
1.08446
1.11254
1.13987
1.14753
1.14056
1.12334
1.09744
1.06474
1.02902
0.993234
0.959037
0.926869
0.89735
0.873985
0.876187
0.867025
0.860972
0.856782
0.853188
0.849878
0.847277
0.846148
0.848219
0.856491
0.875949
0.910323
0.950423
0.987563
1.02007
1.04438
1.0686
1.09084
1.1151
1.12436
1.11951
1.10532
1.08288
1.05389
1.02138
0.988774
0.957784
0.92985
0.903938
0.882701
0.880961
0.872623
0.867521
0.864171
0.861697
0.859736
0.858748
0.859579
0.864047
0.874573
0.895623
0.928519
0.964425
0.995212
1.02009
1.03579
1.05241
1.06898
1.09027
1.10119
1.09872
1.08758
1.06859
1.04333
1.01367
0.983656
0.955055
0.929405
0.906908
0.888062
0.883858
0.876564
0.872853
0.870763
0.869635
0.869288
0.870207
0.873299
0.880117
0.892623
0.914571
0.945409
0.977059
1.00174
1.01953
1.02677
1.0361
1.04701
1.06537
1.07784
1.07811
1.07008
1.05464
1.03299
1.00612
0.978249
0.95147
0.927416
0.906451
0.890233
0.885591
0.879732
0.877582
0.877043
0.877659
0.879328
0.882474
0.88792
0.896986
0.911163
0.933305
0.961673
0.988986
1.00776
1.0188
1.01777
1.01988
1.02523
1.04047
1.05408
1.05759
1.05278
1.04104
1.02295
0.998966
0.973004
0.947615
0.924657
0.904873
0.890051
0.886885
0.882853
0.882399
0.883859
0.886733
0.890739
0.89631
0.904142
0.915327
0.930868
0.952602
0.978178
1.00108
1.01413
1.01877
1.00938
1.00428
1.00414
1.01589
1.03005
1.03695
1.03566
1.02765
1.01324
0.992406
0.968351
0.944106
0.921905
0.902959
0.889266
0.888516
0.886575
0.888356
0.892335
0.89784
0.904474
0.912613
0.92284
0.936045
0.952686
0.973622
0.996074
1.01458
1.02207
1.02069
1.00276
0.99009
0.984617
0.992282
1.00626
1.01626
1.01898
1.0147
1.00412
0.9867
0.964677
0.94148
0.919882
0.901545
0.888627
0.891565
0.891962
0.896773
0.903703