/*--------------------------------*- C++ -*----------------------------------*\
  =========                 |
  \\      /  F ield         | OpenFOAM: The Open Source CFD Toolbox
   \\    /   O peration     | Website:  https://openfoam.org
    \\  /    A nd           | Version:  12
     \\/     M anipulation  |
\*---------------------------------------------------------------------------*/
FoamFile
{
    format      ascii;
    class       volScalarField;
    location    "400/air";
    object      nut;
}
// * * * * * * * * * * * * * * * * * * * * * * * * * * * * * * * * * * * * * //

dimensions      [0 2 -1 0 0 0 0];

internalField   nonuniform List<scalar> 
243000
(
0.0001697
0.000167648
0.000162863
0.000157031
0.000150468
0.000143432
0.000136081
0.000128546
0.000120955
0.000113544
0.000106619
0.000100618
9.51502e-05
8.98883e-05
8.40726e-05
7.93639e-05
8.80483e-05
0.000119202
0.000138052
0.000144505
0.000145483
0.00014382
0.0001402
0.000135262
0.00012932
0.00012269
0.000118651
0.000120003
0.000126082
0.000136847
0.000656039
0.000635774
0.000605336
0.000573071
0.000541441
0.000510868
0.000481345
0.000452897
0.000425678
0.000400236
0.000377236
0.000357718
0.000339899
0.000324348
0.000307898
0.000302167
0.000363339
0.000491254
0.00055682
0.000580584
0.000584494
0.000579544
0.000567936
0.000552928
0.000535427
0.000516904
0.000504488
0.000502484
0.000520778
0.00054805
0.000861403
0.000867766
0.000857335
0.000841446
0.000822927
0.000802387
0.000779884
0.000755584
0.00072985
0.000703788
0.000678715
0.000656344
0.00063299
0.000610397
0.000582915
0.000577896
0.000706289
0.000929394
0.0010305
0.00105722
0.0010464
0.00101709
0.00097517
0.000927189
0.000875931
0.000824555
0.000780761
0.000749189
0.000742151
0.00074887
0.000917458
0.00092401
0.000913879
0.000898227
0.000879513
0.000858345
0.000834938
0.000809614
0.000782909
0.000756127
0.00073075
0.00070822
0.000683869
0.000659291
0.000628452
0.000624034
0.000769591
0.000998192
0.00109987
0.00112902
0.00112061
0.00109259
0.0010516
0.00100432
0.00095387
0.000903624
0.000859674
0.000826612
0.000816048
0.000822804
0.000958122
0.000964222
0.000954931
0.00094022
0.00092212
0.000901156
0.000877627
0.000852004
0.00082496
0.00079797
0.00077254
0.000749848
0.000724528
0.000697697
0.000662836
0.000656983
0.000813943
0.00104269
0.0011438
0.0011748
0.00116903
0.00114305
0.00110396
0.00105843
0.00100982
0.00096167
0.000918917
0.000886237
0.000873398
0.000880546
0.00098899
0.000994371
0.000985996
0.000972418
0.000955227
0.000934843
0.000911604
0.000886095
0.000859104
0.000832194
0.000806794
0.000783823
0.00075745
0.000728076
0.000688804
0.00068098
0.000844817
0.00107032
0.00117072
0.00120322
0.00120001
0.00117644
0.00113979
0.00109654
0.0010503
0.0010047
0.000963914
0.000932595
0.000918606
0.000926241
0.00101303
0.00101768
0.00101017
0.000997724
0.000981512
0.000961858
0.000939113
0.000913947
0.000887226
0.00086053
0.00083515
0.000811729
0.000784151
0.000751926
0.000708148
0.000701557
0.000865705
0.00108517
0.00118509
0.00121927
0.00121838
0.00119738
0.00116351
0.00112288
0.00107929
0.00103641
0.000998028
0.000968636
0.00095444
0.000962593
0.00103201
0.00103602
0.00102932
0.00101793
0.00100267
0.000983773
0.000961609
0.000936893
0.000910548
0.000884105
0.000858672
0.000834606
0.00080567
0.000770246
0.000722524
0.000720073
0.000878941
0.00109167
0.00119041
0.00122607
0.00122725
0.00120895
0.00117814
0.00114037
0.00109956
0.00105945
0.00102367
0.000996511
0.000982824
0.000991539
0.00104703
0.00105055
0.0010446
0.00103418
0.0010198
0.00100163
0.000980059
0.000955827
0.000929887
0.000903681
0.000878085
0.000853197
0.000822685
0.000783893
0.00073558
0.000736798
0.000887193
0.00109243
0.00118973
0.00122637
0.00122857
0.00121275
0.00118516
0.00115066
0.0011131
0.00107589
0.00104264
0.00101788
0.00100521
0.00101454
0.00105882
0.00106202
0.00105677
0.00104723
0.00103364
0.00101614
0.00099512
0.00097136
0.000945808
0.000919788
0.000893917
0.000868063
0.000835709
0.000793608
0.00074758
0.000751998
0.000895586
0.00108753
0.00118275
0.00122078
0.00122419
0.00121038
0.00118525
0.00115425
0.00112034
0.00108661
0.00105634
0.00103403
0.00102274
0.00103272
0.00106785
0.00107088
0.00106629
0.00105756
0.00104468
0.00102777
0.00100724
0.000983916
0.000958706
0.000932806
0.000906568
0.000879561
0.000845175
0.000800248
0.000758222
0.000765869
0.000902471
0.00107831
0.00117127
0.00121075
0.00121536
0.0012036
0.00118086
0.00115259
0.00112216
0.00109226
0.00106546
0.00104582
0.00103625
0.00104687
0.00107439
0.0010774
0.00107346
0.00106545
0.0010532
0.0010368
0.00101672
0.00099378
0.000968856
0.000943013
0.000916291
0.000887961
0.000851471
0.000805824
0.000767843
0.000778553
0.000908118
0.0010679
0.00115664
0.00119714
0.00120292
0.00119307
0.0011729
0.0011472
0.00111983
0.00109349
0.00107051
0.00105393
0.00104636
0.0010576
0.00107866
0.00108174
0.00107843
0.00107105
0.00105933
0.00104336
0.00102365
0.00100102
0.000976349
0.000950516
0.000923216
0.000893405
0.000855144
0.000811475
0.00077679
0.000790145
0.000912661
0.00105843
0.00114143
0.00118101
0.00118771
0.00117951
0.00116169
0.00113876
0.00111429
0.00109122
0.0010719
0.00105881
0.00105339
0.00106527
0.00108071
0.00108394
0.00108124
0.00107448
0.00106324
0.00104768
0.0010283
0.00100596
0.000981449
0.000955512
0.000927557
0.000896393
0.000857579
0.000816899
0.000785218
0.000800714
0.000916164
0.00104961
0.00112753
0.00116568
0.00117193
0.00116407
0.00114808
0.00112763
0.00110604
0.0010861
0.00107016
0.00106054
0.00105739
0.00107015
0.00108042
0.00108398
0.00108203
0.00107585
0.00106503
0.00104982
0.00103077
0.00100872
0.000984365
0.000958311
0.000929721
0.00089757
0.000860387
0.000822197
0.000793224
0.00081032
0.000918678
0.00104116
0.00111457
0.00115139
0.0011574
0.00115002
0.00113504
0.0011158
0.0010956
0.00107862
0.00106583
0.00105936
0.00105856
0.0010724
0.00107799
0.00108186
0.00108071
0.0010752
0.00106485
0.00105
0.00103126
0.00100949
0.000985304
0.000959171
0.000930173
0.000898592
0.000863393
0.000827409
0.000800861
0.000819021
0.000920312
0.0010329
0.00110223
0.00113783
0.00114375
0.00113691
0.00112288
0.0011049
0.00108629
0.00107033
0.00105919
0.00105552
0.00105702
0.00107216
0.00107321
0.00107752
0.00107716
0.00107229
0.00106243
0.00104796
0.00102959
0.00100822
0.000984334
0.000958535
0.000930555
0.000900114
0.000866565
0.000832563
0.000808162
0.000826846
0.000921065
0.00102467
0.00109027
0.00112474
0.00113071
0.0011244
0.00111131
0.00109462
0.00107753
0.00106272
0.00105254
0.00104922
0.00105265
0.0010692
0.00106603
0.00107089
0.0010714
0.00106719
0.00105776
0.00104374
0.00102587
0.00100558
0.000982884
0.000958209
0.000931285
0.000901954
0.000869894
0.000837666
0.000815136
0.000833796
0.00092082
0.00101631
0.00107848
0.00111191
0.00111802
0.00111226
0.0011001
0.00108469
0.00106906
0.00105547
0.00104627
0.00104308
0.00104586
0.00106339
0.00105769
0.00106294
0.00106427
0.00106074
0.00105207
0.00103899
0.00102229
0.0010031
0.000981578
0.000958033
0.00093219
0.000903974
0.000873326
0.000842717
0.000821787
0.000839885
0.000919709
0.00100773
0.0010667
0.00109915
0.00110551
0.0011003
0.00108909
0.00107494
0.0010607
0.00104836
0.00104011
0.00103722
0.00103961
0.00105509
0.00104992
0.00105542
0.00105739
0.00105448
0.0010465
0.00103433
0.00101872
0.00100062
0.000980273
0.000957881
0.000933159
0.00090609
0.000876816
0.000847709
0.000828117
0.000845134
0.000917788
0.000998847
0.00105477
0.00108629
0.00109295
0.00108835
0.00107813
0.00106524
0.00105234
0.00104121
0.0010339
0.00103137
0.00103355
0.00104698
0.00104236
0.001048
0.00105049
0.00104817
0.00104086
0.00102953
0.001015
0.000998013
0.000978863
0.000957661
0.000934121
0.000908254
0.000880345
0.000852644
0.000834131
0.000849577
0.000915074
0.000989589
0.00104257
0.00107317
0.00108016
0.0010762
0.00106701
0.00105539
0.00104383
0.00103394
0.00102752
0.00102536
0.00102738
0.00103924
0.00103467
0.00104044
0.00104335
0.00104162
0.00103497
0.00102449
0.00101104
0.000995206
0.000977284
0.000957324
0.00093504
0.000910448
0.000883901
0.000857535
0.000839849
0.000853275
0.000911626
0.000979896
0.00103
0.00105966
0.00106698
0.00106367
0.00105554
0.00104522
0.00103502
0.00102634
0.00102076
0.00101896
0.00102084
0.00103141
0.00102658
0.00103248
0.00103581
0.00103467
0.00102872
0.00101912
0.00100675
0.000992139
0.000975501
0.000956851
0.000935914
0.000912681
0.000887512
0.000862432
0.000845333
0.000856346
0.000907632
0.000969788
0.00101699
0.00104564
0.00105326
0.00105064
0.00104356
0.00103462
0.00102574
0.00101823
0.00101346
0.00101199
0.00101377
0.00102315
0.00101786
0.00102397
0.00102774
0.00102721
0.00102202
0.00101335
0.00100211
0.000988794
0.000973517
0.000956269
0.000936816
0.000915045
0.000891295
0.000867491
0.000850795
0.000859068
0.000903338
0.000959421
0.00100362
0.0010311
0.00103898
0.00103701
0.00103101
0.00102342
0.00101584
0.00100948
0.00100548
0.00100434
0.00100601
0.0010143
0.00100837
0.0010148
0.00101903
0.00101916
0.00101479
0.00100715
0.000997153
0.000985203
0.000971433
0.000955805
0.000938042
0.000917843
0.00089571
0.000873287
0.000856922
0.000862208
0.000899434
0.000949312
0.000990283
0.00101635
0.00102435
0.00102293
0.001018
0.00101168
0.00100535
0.00100008
0.000996807
0.000995929
0.000997489
0.00100474
0.000998054
0.00100493
0.00100968
0.0010105
0.00100709
0.00100066
0.000992124
0.00098177
0.000969972
0.000956382
0.00094056
0.000922495
0.00090247
0.00088182
0.000865934
0.000868054
0.000897989
0.000941097
0.000978427
0.00100259
0.00101036
0.00100923
0.00100513
0.000999846
0.000994579
0.000990242
0.000987559
0.000986859
0.000988246
0.000994433
0.000987409
0.000994896
0.00100029
0.00100198
0.000999836
0.000995183
0.00098879
0.00098106
0.000971964
0.000961344
0.00094881
0.000934166
0.000917508
0.000899688
0.000884827
0.00088362
0.000905487
0.000940915
0.000972943
0.000994047
0.00100071
0.000999247
0.000995211
0.000990274
0.000985439
0.000981538
0.000978964
0.000978102
0.000979063
0.000983995
0.000980473
0.000989009
0.000995939
0.000999555
0.00100016
0.000999196
0.000997162
0.000994384
0.000990675
0.000985808
0.000979359
0.000970882
0.00096003
0.000946951
0.000934222
0.000929521
0.000941626
0.000966086
0.000989945
0.00100547
0.00100927
0.00100574
0.00100008
0.000993735
0.000987578
0.000982215
0.000978225
0.000975737
0.0009751
0.000977665
0.00101477
0.00102559
0.00103607
0.00104536
0.00105329
0.00106084
0.00106772
0.00107392
0.00107905
0.00108317
0.00108565
0.00108555
0.00108204
0.00107464
0.00106454
0.00105633
0.00105722
0.00106725
0.00107859
0.00108515
0.00108368
0.00107664
0.00106811
0.00105871
0.00104909
0.0010397
0.00103106
0.00102321
0.00101704
0.00101396
0.00129127
0.00130068
0.00131024
0.00132054
0.00133162
0.00134127
0.00134814
0.00135297
0.00135591
0.00135926
0.00136158
0.00136109
0.00135671
0.00134894
0.00133867
0.00132956
0.00132335
0.00132306
0.00132488
0.00132685
0.00132677
0.00132599
0.00132537
0.00132401
0.00132151
0.00131768
0.00131269
0.00130638
0.00129956
0.00129295
0.000207287
0.00020714
0.000201107
0.000192862
0.000183385
0.000173221
0.000162609
0.000151729
0.00014079
0.000130218
0.000120541
0.000112401
0.000105468
0.000102486
0.000107333
0.000130335
0.000156986
0.000182592
0.000196479
0.000202719
0.000203843
0.00020223
0.000198755
0.000194313
0.000189415
0.000184496
0.000180594
0.000177175
0.000177022
0.000177397
0.000924935
0.00094444
0.00086505
0.000774169
0.00069737
0.00063549
0.000585088
0.000543919
0.000510379
0.000484773
0.000459254
0.000435911
0.000420896
0.000439014
0.000487398
0.000615637
0.000744587
0.000875891
0.000958317
0.00098133
0.000964389
0.000932972
0.000892005
0.000849693
0.000805176
0.00076348
0.00072921
0.000693312
0.000650707
0.000623591
0.00154224
0.00165228
0.00159357
0.00147844
0.00135768
0.00124794
0.00115239
0.00107187
0.00100577
0.000954468
0.000900647
0.000848022
0.000806381
0.000820073
0.000896636
0.00111927
0.00135546
0.00159449
0.00175106
0.00180637
0.0017847
0.00172806
0.00165143
0.00156738
0.00148439
0.00140928
0.00134247
0.00127453
0.00119667
0.00115541
0.00205775
0.0022304
0.00222608
0.00212723
0.00199188
0.0018516
0.00172002
0.00160435
0.00150819
0.00142274
0.00133954
0.00125634
0.00118452
0.00118667
0.00128193
0.00157022
0.00189179
0.0022111
0.00242346
0.00251157
0.00249769
0.00242829
0.00232891
0.0022204
0.00211085
0.00200513
0.00191241
0.0018215
0.00172302
0.00167854
0.00250668
0.00272029
0.00277497
0.00270571
0.0025718
0.00241431
0.00225611
0.00211281
0.00198348
0.00187109
0.00175786
0.00164485
0.00154402
0.00153219
0.00163734
0.00196781
0.00234965
0.00272805
0.0029798
0.00309593
0.00309702
0.00302526
0.00291478
0.0027941
0.00266901
0.00254926
0.00243607
0.00232627
0.00221234
0.00217562
0.00290871
0.00315522
0.00325647
0.00322112
0.00309564
0.00292921
0.00275181
0.00258515
0.00242881
0.00229011
0.00214944
0.00200903
0.00188168
0.00185357
0.00196088
0.00231295
0.00273657
0.00315243
0.00343622
0.00357423
0.00359265
0.00352693
0.00341577
0.00328841
0.00315943
0.00303325
0.00291608
0.00279881
0.00267455
0.00264936
0.0032829
0.00355241
0.00368811
0.00368193
0.00356628
0.00339558
0.00320459
0.00301841
0.00284017
0.00267736
0.00251197
0.0023471
0.00219624
0.00214872
0.00225271
0.00260647
0.00305967
0.00349436
0.00380366
0.00396282
0.00399562
0.00394291
0.00384158
0.0037168
0.0035884
0.00346259
0.00334606
0.00323224
0.00310801
0.00309642
0.00363441
0.00391927
0.00407815
0.00409392
0.00398652
0.00381401
0.00361357
0.00341151
0.00321565
0.00303176
0.00284448
0.00265818
0.00248735
0.00242186
0.00250902
0.00285125
0.00332576
0.00377767
0.00410407
0.00427641
0.00431633
0.004281
0.00420126
0.00408925
0.00396555
0.00384561
0.00373312
0.00362589
0.00350703
0.0035114
0.00396508
0.00425833
0.00443017
0.00445929
0.00435831
0.00418542
0.00397851
0.00376405
0.0035542
0.003353
0.00314702
0.00294225
0.00275389
0.00266701
0.00272992
0.00305362
0.00355422
0.00401964
0.0043373
0.0045245
0.00456741
0.00453776
0.00446951
0.00439335
0.00429748
0.00418981
0.00408571
0.00398563
0.0038751
0.00389646
0.00427531
0.00456958
0.00474484
0.00477917
0.00468321
0.00451074
0.00429969
0.00407608
0.00385506
0.00364091
0.00341981
0.00319952
0.00299888
0.00288724
0.00292265
0.00322907
0.00373532
0.00419194
0.00451076
0.00471565
0.00476329
0.00474663
0.00468929
0.00462016
0.00455581
0.00448315
0.00440062
0.00431789
0.0042167
0.0042522
0.00456309
0.00485143
0.0050219
0.00505521
0.00496257
0.00479107
0.00457787
0.00434821
0.0041179
0.0038935
0.00366082
0.00343026
0.00321729
0.00308468
0.00310106
0.00339042
0.0038731
0.00432507
0.00463983
0.00485778
0.0049115
0.00490908
0.00486972
0.00481288
0.00476195
0.00471943
0.00467214
0.0046161
0.00453466
0.0045783
0.00482429
0.0051013
0.00526076
0.00528874
0.00519763
0.00502761
0.00481414
0.00458172
0.00434558
0.00411253
0.00387333
0.00363521
0.00341232
0.00326325
0.00326439
0.00353371
0.00398579
0.00442646
0.00473371
0.00495957
0.00501866
0.00503084
0.00501014
0.00497461
0.0049377
0.00491413
0.00489908
0.00487802
0.00482886
0.00487406
0.0050584
0.00531662
0.00546081
0.0054808
0.00538959
0.0052217
0.00500989
0.00477766
0.00454009
0.00430308
0.00405941
0.00381597
0.00358718
0.00342441
0.00341177
0.00365589
0.00407226
0.00449023
0.00479732
0.00503063
0.00509083
0.00511712
0.00511402
0.00510008
0.00508491
0.0050797
0.00508652
0.00510157
0.00509108
0.00513933
0.00526159
0.00549336
0.00562141
0.00563214
0.00553972
0.00537482
0.0051668
0.00493814
0.00470272
0.00446599
0.00422095
0.00397544
0.00374423
0.00356735
0.00354215
0.00375548
0.00413158
0.00451794
0.0048155
0.00505865
0.00513175
0.00517297
0.00518346
0.00519088
0.00519934
0.00521589
0.00524375
0.00528173
0.00531136
0.00536822
0.00543208
0.0056326
0.00574206
0.00574337
0.00564934
0.00548849
0.00528701
0.00506623
0.00483687
0.00460418
0.00436257
0.00411944
0.00387652
0.00369037
0.00365316
0.00383177
0.0041635
0.00451205
0.00479248
0.00503835
0.00512321
0.0051817
0.00521564
0.00524455
0.00527726
0.00531888
0.0053691
0.00542771
0.00547901
0.00555197
0.00557152
0.00573821
0.00582424
0.00581646
0.00572321
0.0055691
0.00537726
0.00516589
0.00494657
0.00472116
0.00448236
0.00423204
0.00398412
0.00379349
0.00374195
0.00388593
0.00416867
0.00447546
0.00473295
0.00497404
0.00506918
0.00514606
0.00520339
0.00525451
0.00531004
0.0053777
0.00545727
0.00553746
0.00560702
0.00568669
0.00566878
0.00581108
0.00587499
0.00585834
0.00576648
0.00562035
0.00544062
0.00524158
0.00503349
0.00481192
0.00456989
0.00431454
0.00406671
0.00387286
0.00380852
0.00391672
0.0041491
0.00441208
0.00464151
0.00487012
0.00497341
0.00506846
0.00514851
0.00522192
0.0052991
0.00538947
0.00549402
0.00560404
0.00569587
0.00578163
0.00572114
0.00584055
0.00589101
0.00587008
0.00578649
0.00565199
0.0054826
0.00528958
0.0050855
0.00486528
0.00462201
0.00436665
0.00412405
0.0039273
0.00384763
0.00391871
0.00409227
0.00431123
0.00451876
0.00473211
0.00484175
0.00495298
0.00505216
0.00514544
0.00524305
0.00535315
0.00547835
0.00561377
0.00573603
0.005832
0.0057314
0.00582705
0.00586903
0.00584899
0.00576841
0.00564009
0.00547778
0.00529303
0.00509635
0.00488111
0.00464093
0.00438973
0.00415485
0.00395523
0.00385938
0.00389353
0.00401784
0.00419045
0.00437074
0.00456611
0.00469224
0.00481883
0.00493394
0.00504353
0.00515721
0.00528202
0.00542161
0.00557259
0.00571526
0.00584022
0.00566679
0.00574926
0.00578704
0.00577161
0.00569832
0.00557954
0.0054273
0.00525529
0.00506886
0.00486134
0.00462765
0.00438356
0.00415701
0.00395484
0.00384254
0.00384197
0.00392136
0.00405461
0.00420529
0.00437693
0.00450609
0.00465371
0.00479625
0.0049254
0.00505161
0.00518561
0.00533267
0.00549068
0.00564457
0.00578936
0.00555091
0.00561902
0.00565494
0.00564458
0.00557973
0.00547246
0.00533631
0.00517998
0.00500487
0.00480638
0.00458118
0.0043459
0.00412679
0.00392307
0.00379517
0.00376383
0.0038039
0.0039005
0.00402321
0.00417008
0.00429909
0.00445488
0.00461497
0.00476796
0.00491413
0.00506094
0.00521457
0.00537592
0.00553151
0.00567885
0.005383
0.00544609
0.00547844
0.00547807
0.00542219
0.00532962
0.00520953
0.00506811
0.0049039
0.00471383
0.0044967
0.00427073
0.00405664
0.00385428
0.00371301
0.00365722
0.0036716
0.00372987
0.00382677
0.00394961
0.00407548
0.00423669
0.00440724
0.00457194
0.00473044
0.00488544
0.00504241
0.0052007
0.0053551
0.00550319
0.00517325
0.00523004
0.00527227
0.00527988
0.00523361
0.00515374
0.00504761
0.0049178
0.00476086
0.00457599
0.00436456
0.00414598
0.00393459
0.0037383
0.00358753
0.00351634
0.00350739
0.00354137
0.0036164
0.00371583
0.00383946
0.00400229
0.00417885
0.00435183
0.00451553
0.00467282
0.00483046
0.00498762
0.00513856
0.00527868
0.00492966
0.00499248
0.0050399
0.00505148
0.00501444
0.0049421
0.00484384
0.00471864
0.00456279
0.00437778
0.00416805
0.00395271
0.0037442
0.00355761
0.00340796
0.00333173
0.00331266
0.00333569
0.00338894
0.00346765
0.00359096
0.00375255
0.00392916
0.00410118
0.00426803
0.0044321
0.0045918
0.00474574
0.0048884
0.00501768
0.00466011
0.00472896
0.00477754
0.00478638
0.00475042
0.00467958
0.00457996
0.0044491
0.00428698
0.00409684
0.00388663
0.00367401
0.00347204
0.00329937
0.00316548
0.00309537
0.00308043
0.00309833
0.00313907
0.0032043
0.00332564
0.00348184
0.00365585
0.00383013
0.00400122
0.00416759
0.00432664
0.00447582
0.00460974
0.00472879
0.00435534
0.00442398
0.00446332
0.00445921
0.00441245
0.00433183
0.00422172
0.00408199
0.00391412
0.00372228
0.00351989
0.00332042
0.00313691
0.00298719
0.00287953
0.00282413
0.00281775
0.00283837
0.00287536
0.00293461
0.00304499
0.00318598
0.00334848
0.00351782
0.00368816
0.00385514
0.00401442
0.00416164
0.00429046
0.00440277
0.00398041
0.00403598
0.00405419
0.00402784
0.00396431
0.00387301
0.0037589
0.00362406
0.00347145
0.00330627
0.00313868
0.0029765
0.00283175
0.00271738
0.00263817
0.00259582
0.00259388
0.00261538
0.00264928
0.00269843
0.00278335
0.00289248
0.0030234
0.00316774
0.00331983
0.00347485
0.00362707
0.00377003
0.00389544
0.0040042
0.00349869
0.00353539
0.00353729
0.00350445
0.00344699
0.00337546
0.00329124
0.00319937
0.00309867
0.00299084
0.00288309
0.00277901
0.00268343
0.00260758
0.00254901
0.00251472
0.0025088
0.0025229
0.00254486
0.00257615
0.00262841
0.00269517
0.00277595
0.00286884
0.00297095
0.00308114
0.00319647
0.00330971
0.00341185
0.00350262
0.00305685
0.00309104
0.0031039
0.00309717
0.0030775
0.00305201
0.00301874
0.00297868
0.00292993
0.00286727
0.00280031
0.00273307
0.00267436
0.0026221
0.00257741
0.00254925
0.00254091
0.00254681
0.00255833
0.00257422
0.00259803
0.00263152
0.00267452
0.00272724
0.00278518
0.00284889
0.00291671
0.00297386
0.00301863
0.00305555
0.00286552
0.00290315
0.00292371
0.00292967
0.00292617
0.0029163
0.00290021
0.00287746
0.0028503
0.00281326
0.00277647
0.00273829
0.00269967
0.00266672
0.00263914
0.00262632
0.00262406
0.00263018
0.00263725
0.00264724
0.00265956
0.00267856
0.00270129
0.00272657
0.00275099
0.0027742
0.00279746
0.00282477
0.00284403
0.00285754
0.000237861
0.000234551
0.000226683
0.000217047
0.0002063
0.000194893
0.000182993
0.000170764
0.000158461
0.000146606
0.000135671
0.000126593
0.000123592
0.000134108
0.000155823
0.000181861
0.000205528
0.000229928
0.000242566
0.00024758
0.000247972
0.000245926
0.000242241
0.000237752
0.000232908
0.000227919
0.000223268
0.000218041
0.000214216
0.000209238
0.0011063
0.00118562
0.00111053
0.00100748
0.00091844
0.000846405
0.000786482
0.00073663
0.000694455
0.000659435
0.000613054
0.000570854
0.00057827
0.000676076
0.000809901
0.000984556
0.00114943
0.00132227
0.00140771
0.00142248
0.00138536
0.00133165
0.00126677
0.0012022
0.00113721
0.00107299
0.00100817
0.000929441
0.000835763
0.000754224
0.00192203
0.00210881
0.0020861
0.00197246
0.00183958
0.00171181
0.00159538
0.00149379
0.00140611
0.00133237
0.00123955
0.00115103
0.00114286
0.00129789
0.00152516
0.00183746
0.00213594
0.0024203
0.00259149
0.0026448
0.00259431
0.00250092
0.00238145
0.0022574
0.00213196
0.00200586
0.00188001
0.00173646
0.00157013
0.00143712
0.00259687
0.00288273
0.00294469
0.00286885
0.00272683
0.0025638
0.00240095
0.0022512
0.00211839
0.00200405
0.00186601
0.00173643
0.00170516
0.00189979
0.00218316
0.00258843
0.0029819
0.00333451
0.00357285
0.00366769
0.00362241
0.0035092
0.00335485
0.00318869
0.00301921
0.00285191
0.00268658
0.00250195
0.0022893
0.00212758
0.0032102
0.00356365
0.00371578
0.00368897
0.00355139
0.00336619
0.00316632
0.00297457
0.00280025
0.00264734
0.00246932
0.00230279
0.00225387
0.00247206
0.00278181
0.00324116
0.00369394
0.00409502
0.0043829
0.00451256
0.00448234
0.0043653
0.00419348
0.00400107
0.00380197
0.00360971
0.00342077
0.00321196
0.0029706
0.00280852
0.00378959
0.00420145
0.00443029
0.00444618
0.00431485
0.00411409
0.00388408
0.00365579
0.00344402
0.0032538
0.00304267
0.00284324
0.00278388
0.00301021
0.00332575
0.00381055
0.00429579
0.00472609
0.00505798
0.00521209
0.00519978
0.00509274
0.00491954
0.00471548
0.00449891
0.00428714
0.00408835
0.00386853
0.00361186
0.00346547
0.00435091
0.00481408
0.00510402
0.00514878
0.00502029
0.00480677
0.00455204
0.00429211
0.00404704
0.00382328
0.00358292
0.00335544
0.00329224
0.00350943
0.00381981
0.00430932
0.004807
0.00525025
0.00562135
0.00579436
0.00579469
0.00571076
0.0055525
0.00535253
0.00513102
0.00490707
0.00470028
0.00448157
0.00422047
0.00410218
0.00490257
0.00540741
0.00573707
0.0057988
0.00566861
0.00544335
0.00516858
0.0048818
0.00460791
0.00435426
0.00408732
0.00383788
0.00378387
0.00397187
0.00426805
0.0047477
0.00524526
0.00571928
0.00609319
0.00628046
0.00628482
0.00619245
0.00606332
0.0059077
0.00570701
0.00548761
0.00527655
0.00506489
0.00480548
0.00472144
0.00544746
0.00597992
0.00632749
0.00639499
0.0062592
0.00602309
0.00573156
0.00542354
0.00512564
0.0048469
0.00456199
0.00429581
0.00425229
0.00440116
0.0046737
0.00513337
0.00564128
0.00608951
0.00648643
0.00668686
0.00670136
0.00662631
0.00649077
0.00633848
0.00618416
0.00599794
0.0058027
0.00560696
0.00537504
0.00532491
0.00598277
0.00652603
0.00687063
0.00693486
0.00679101
0.00654516
0.00624032
0.00591595
0.00559962
0.00530159
0.00500405
0.00473349
0.0046868
0.00479735
0.00503902
0.00547252
0.00596215
0.00640017
0.00681201
0.00702497
0.0070531
0.00699756
0.00687948
0.00673369
0.00659053
0.00645094
0.00628715
0.00612215
0.00593034
0.0059105
0.00650106
0.00703715
0.00736173
0.0074163
0.00726328
0.00700927
0.00669475
0.00635907
0.00602983
0.00571807
0.00541117
0.00513925
0.0050846
0.0051596
0.00536534
0.00576722
0.00623443
0.00665748
0.00707689
0.00730195
0.00734697
0.00731466
0.00722127
0.00709479
0.00696938
0.00685332
0.00673929
0.00661319
0.0064696
0.00647274
0.00699272
0.0075049
0.00779791
0.00783807
0.00767589
0.00741571
0.00709543
0.00675352
0.00641686
0.00609645
0.00578318
0.00551229
0.00544732
0.00548792
0.00566386
0.00602652
0.00646066
0.00686466
0.00728522
0.00752142
0.00758674
0.00758068
0.00751674
0.00742171
0.00731851
0.00723111
0.00716038
0.00708028
0.00698734
0.00700402
0.00744651
0.00792236
0.00817748
0.00819965
0.00802942
0.00776557
0.00744356
0.00710045
0.0067615
0.00643732
0.00612055
0.00585312
0.00577581
0.00578788
0.00593003
0.00624611
0.0066377
0.00701596
0.00742803
0.00768331
0.00777325
0.0077958
0.00776548
0.00770497
0.00763332
0.0075774
0.00754038
0.00751648
0.0074741
0.00749803
0.00785247
0.00828434
0.00849933
0.00850124
0.0083249
0.00806033
0.00774067
0.0074012
0.00706458
0.00674086
0.00642525
0.00616188
0.00606953
0.00605398
0.00615847
0.00642092
0.00676182
0.00710812
0.00750232
0.00777477
0.00789438
0.0079562
0.00796437
0.00794136
0.00790814
0.0078853
0.00788349
0.00790764
0.00791447
0.00794844
0.00820785
0.00858754
0.00876268
0.00874345
0.0085638
0.00830162
0.00798831
0.00765715
0.00732666
0.0070087
0.00670152
0.00644063
0.0063264
0.00627996
0.0063432
0.00654594
0.0068294
0.00713772
0.00750537
0.00779169
0.00794359
0.00804851
0.00810278
0.00812428
0.00813429
0.00814643
0.00817891
0.00823346
0.00829254
0.00834032
0.00850943
0.00882757
0.008967
0.00892734
0.00874806
0.00849074
0.00818827
0.00787257
0.00755595
0.00724533
0.00693703
0.00668066
0.00654708
0.00645825
0.00647795
0.00661644
0.00683757
0.0071017
0.00743583
0.00773027
0.00791461
0.00806508
0.00817131
0.00824291
0.00829808
0.00835036
0.00841734
0.00850139
0.0085866
0.00866141
0.00875431
0.00901237
0.00911169
0.00905505
0.00888288
0.00863872
0.00834554
0.00803624
0.00772804
0.0074231
0.0071158
0.00685766
0.00670518
0.00659342
0.00655669
0.0066283
0.0067848
0.00699736
0.00729474
0.0075876
0.00780267
0.00799875
0.00816131
0.00828818
0.00839155
0.00848636
0.00858774
0.00870089
0.00880849
0.00889544
0.00893988
0.00913362
0.00918507
0.00912582
0.0089574
0.0087175
0.00843629
0.0081409
0.00784387
0.0075461
0.00724063
0.00697775
0.00680272
0.00665793
0.00657286
0.00657701
0.00665907
0.00682028
0.00708202
0.00737373
0.00762297
0.00786209
0.00807893
0.00825794
0.00840685
0.00854455
0.00868136
0.00882327
0.00895568
0.00906131
0.00904026
0.00915982
0.00919358
0.00912914
0.00896274
0.00873149
0.00846438
0.00818328
0.007897
0.00760564
0.00730249
0.00703404
0.00683268
0.00665429
0.00652141
0.00646152
0.00647988
0.00658527
0.00680446
0.0070799
0.00735943
0.00766848
0.00794699
0.00817429
0.00836693
0.00854263
0.0087112
0.00887722
0.00902858
0.00915548
0.00902666
0.00911486
0.00913288
0.00905915
0.00889655
0.00867648
0.00842388
0.00815612
0.00787891
0.00759202
0.00728987
0.00701656
0.00678693
0.00657491
0.00639724
0.00627907
0.00623934
0.0062932
0.0064682
0.00671869
0.00701078
0.00734869
0.0076953
0.00800983
0.00826981
0.00848272
0.00867888
0.00886403
0.00902952
0.00917049
0.00893332
0.00898626
0.00899155
0.0089123
0.0087546
0.00854598
0.00830657
0.00804964
0.00777843
0.00749294
0.00719016
0.00690987
0.00665694
0.00641084
0.00619476
0.00602815
0.0059393
0.00594856
0.00607773
0.00630074
0.00659684
0.00695116
0.00733295
0.00769227
0.00800909
0.00828861
0.00853815
0.00875978
0.00894395
0.00909138
0.00872072
0.00876555
0.00875999
0.00867964
0.00852938
0.00833088
0.00810111
0.00785059
0.00758134
0.00729327
0.00698797
0.00669925
0.00642658
0.00615448
0.00590773
0.00570545
0.00558185
0.00555348
0.00563953
0.00583351
0.00612845
0.00648737
0.00688803
0.00727457
0.00762434
0.00793839
0.00822238
0.00847615
0.00869023
0.00886448
0.00839623
0.00844108
0.0084311
0.00835151
0.0082066
0.00801475
0.00779024
0.00754116
0.00726925
0.00697592
0.00666683
0.00636957
0.00608191
0.00579819
0.00553093
0.00531007
0.00516835
0.00511051
0.00516062
0.00532453
0.0056112
0.00596668
0.00637281
0.00676308
0.00713167
0.00747943
0.00779756
0.00808316
0.00832754
0.0085184
0.00795363
0.00800393
0.00799212
0.00791179
0.00776747
0.00757695
0.0073523
0.0071002
0.0068232
0.00652503
0.00621436
0.0059125
0.00561832
0.00533817
0.00507176
0.00484881
0.00470146
0.0046289
0.00465365
0.00478806
0.00505295
0.00539543
0.00579506
0.00619078
0.00657555
0.00694198
0.00728101
0.00758649
0.00784578
0.00804565
0.00738217
0.00743774
0.00742146
0.0073364
0.00718702
0.00699396
0.00676724
0.00651326
0.00623599
0.00594136
0.00563918
0.00534437
0.00505998
0.00479816
0.00455587
0.00434911
0.00420275
0.00412651
0.00413458
0.00424502
0.00447741
0.00478759
0.00516257
0.00554487
0.00592658
0.00629676
0.00664458
0.00696051
0.00722969
0.00744188
0.00666298
0.00671774
0.00669268
0.00660124
0.00644768
0.00625749
0.00603864
0.0057977
0.005539
0.00526853
0.00499565
0.00472991
0.00447601
0.00424949
0.00404808
0.00386829
0.00373163
0.00365875
0.00366568
0.00375296
0.00392906
0.00418319
0.00450955
0.00485257
0.00520428
0.00555209
0.00588769
0.00619828
0.00646823
0.00668888
0.00579072
0.00583856
0.00580945
0.00572344
0.00558516
0.00542163
0.00523886
0.00504188
0.00483263
0.00461488
0.00439622
0.00418302
0.00397897
0.00379931
0.00364139
0.00348552
0.00338453
0.00333739
0.00334371
0.00340442
0.00352731
0.00369205
0.00391164
0.00418867
0.00448047
0.00477028
0.00505759
0.00533062
0.00557597
0.00578638
0.00486574
0.00491046
0.00489764
0.00484446
0.00475456
0.00464982
0.0045329
0.00440582
0.00426636
0.00411507
0.00395888
0.00380399
0.0036525
0.00351186
0.00338804
0.00327163
0.0031997
0.00316557
0.00316685
0.00320537
0.00328632
0.00339109
0.00352455
0.00368649
0.00388087
0.00409648
0.00430948
0.00450772
0.00468759
0.00484754
0.00415118
0.00419835
0.00421099