/*--------------------------------*- C++ -*----------------------------------*\
  =========                 |
  \\      /  F ield         | OpenFOAM: The Open Source CFD Toolbox
   \\    /   O peration     | Website:  https://openfoam.org
    \\  /    A nd           | Version:  12
     \\/     M anipulation  |
\*---------------------------------------------------------------------------*/
FoamFile
{
    format      ascii;
    class       volScalarField;
    location    "400/air";
    object      p_rgh;
}
// * * * * * * * * * * * * * * * * * * * * * * * * * * * * * * * * * * * * * //

dimensions      [1 -1 -2 0 0 0 0];

internalField   nonuniform List<scalar> 
243000
(
30.3134
30.2745
30.2176
30.0473
29.8622
29.6758
29.4921
29.3165
29.1472
28.9889
28.8252
28.6524
28.3826
28.1799
28.1023
28.2197
28.2656
28.3329
28.3652
28.4943
28.6201
28.7871
28.9542
29.1343
29.3148
29.4824
29.6512
29.7909
29.9965
30.1198
30.3047
30.2658
30.226
30.0607
29.8798
29.6956
29.5125
29.3363
29.1659
29.0064
28.841
28.6672
28.3963
28.1961
28.1204
28.2357
28.2817
28.3617
28.3945
28.523
28.6471
28.8144
28.9804
29.159
29.3374
29.5018
29.6705
29.808
30.0205
30.1494
30.2574
30.1902
30.1563
29.9971
29.8322
29.6601
29.4873
29.3206
29.1586
29.0061
28.8416
28.6683
28.3981
28.1994
28.1247
28.2377
28.2816
28.3546
28.3782
28.5005
28.6175
28.7878
28.9564
29.1406
29.3244
29.4942
29.6724
29.8115
30.0276
30.1574
30.1485
30.06
30.0342
29.885
29.737
29.5801
29.422
29.269
29.1181
28.9738
28.8125
28.6395
28.3763
28.1881
28.1174
28.2229
28.255
28.3005
28.3074
28.4164
28.5252
28.6931
28.8629
29.0503
29.2388
29.4137
29.6015
29.7542
29.9797
30.1133
30.0004
29.903
29.8848
29.7498
29.6216
29.482
29.3407
29.203
29.0651
28.9304
28.7717
28.599
28.3446
28.1679
28.1014
28.1974
28.213
28.2245
28.2112
28.3021
28.4003
28.5651
28.7365
28.9285
29.1236
29.3059
29.5009
29.6578
29.8807
30.0221
29.8234
29.7293
29.7189
29.6013
29.4945
29.374
29.251
29.1298
29.0059
28.8811
28.725
28.553
28.3083
28.1437
28.0813
28.1664
28.1635
28.1457
28.1105
28.1796
28.2639
28.4228
28.5937
28.7886
28.9888
29.1778
29.3787
29.5415
29.7575
29.9074
29.6258
29.5435
29.5402
29.4423
29.3576
29.2573
29.1537
29.0498
28.9403
28.8252
28.6721
28.5016
28.2677
28.1158
28.0576
28.13
28.1086
28.0648
28.0074
28.0521
28.1198
28.2698
28.4379
28.6338
28.8375
29.0318
29.2369
29.4061
29.6117
29.7712
29.4149
29.3506
29.3533
29.2767
29.2141
29.1345
29.0509
28.9647
28.8696
28.7638
28.6141
28.4461
28.224
28.0856
28.0314
28.0912
28.0516
27.9831
27.9055
27.9251
27.9743
28.1124
28.2749
28.4692
28.6742
28.8722
29.079
29.2545
29.4477
29.6177
29.1977
29.1549
29.1623
29.1082
29.0671
29.0085
28.9449
28.8764
28.7952
28.6983
28.5525
28.3884
28.1784
28.0553
28.0045
28.0521
27.9959
27.9052
27.8086
27.8048
27.8349
27.958
28.1117
28.3014
28.5044
28.7037
28.9096
29.0908
29.2709
29.4515
28.9799
28.959
28.9713
28.9401
28.9195
28.8816
28.8379
28.7866
28.719
28.6303
28.489
28.3301
28.1337
28.0261
27.979
28.0145
27.9446
27.8347
27.721
27.6962
27.7071
27.8132
27.9548
28.1363
28.334
28.5317
28.7338
28.9192
29.0863
29.2767
28.7663
28.766
28.7841
28.7753
28.7741
28.7567
28.7323
28.6973
28.6424
28.5611
28.4248
28.2726
28.0933
27.9993
27.9555
27.9802
27.8989
27.7752
27.6485
27.6039
27.5956
27.6826
27.8098
27.9795
28.1682
28.3611
28.5564
28.744
28.8985
29.0975
28.5617
28.5781
28.6048
28.6172
28.6332
28.6359
28.6299
28.6102
28.5669
28.4926
28.3621
28.2189
28.0586
27.9762
27.9346
27.9506
27.8605
27.7287
27.5917
27.5307
27.5053
27.5706
27.6814
27.8365
28.0124
28.197
28.3823
28.5696
28.7121
28.918
28.3686
28.4001
28.4366
28.4683
28.5013
28.522
28.5325
28.5273
28.495
28.4274
28.3044
28.1729
28.0294
27.9576
27.9173
27.9255
27.8301
27.6942
27.5501
27.4766
27.4371
27.4822
27.5734
27.7112
27.8715
28.0444
28.2165
28.4004
28.5313
28.7418
28.1901
28.2355
28.2821
28.332
28.3809
28.4185
28.4439
28.4516
28.4296
28.3688
28.2551
28.1358
28.0067
27.944
27.9047
27.9046
27.8073
27.671
27.5245
27.4402
27.3894
27.4184
27.4896
27.6078
27.7495
27.9079
28.0642
28.2412
28.3608
28.573
28.0293
28.087
28.1442
28.2114
28.2757
28.3293
28.3681
28.387
28.3742
28.3195
28.2156
28.1075
27.9919
27.9361
27.8976
27.8898
27.7935
27.6584
27.5119
27.4206
27.3599
27.3761
27.4306
27.5289
27.6511
27.792
27.9303
28.0968
28.2053
28.4152
27.8894
27.9587
28.0271
28.1109
28.1902
28.2589
28.3096
28.3369
28.3306
28.2809
28.1866
28.0889
27.9859
27.9356
27.8964
27.8831
27.7886
27.6536
27.5074
27.4133
27.347
27.3528
27.393
27.4731
27.5769
27.7001
27.8196
27.9721
28.0694
28.2716
27.7733
27.8554
27.9358
28.0358
28.1285
28.2102
28.2706
28.3034
28.3002
28.2552
28.1696
28.0854
27.9893
27.9403
27.9012
27.8853
27.7927
27.6616
27.5175
27.4183
27.3471
27.3484
27.3766
27.4388
27.525
27.6321
27.735
27.8722
27.9576
28.1465
27.6858
27.7803
27.8721
27.9881
28.0923
28.1846
28.2538
28.289
28.2853
28.2457
28.1713
28.0911
27.9988
27.9511
27.9121
27.8953
27.8069
27.6831
27.5437
27.4428
27.3667
27.3626
27.3845
27.439
27.5042
27.5897
27.677
27.7988
27.8748
28.0446
27.6272
27.7338
27.8346
27.9606
28.0746
28.176
28.2523
28.2938
28.2886
28.2523
28.1816
28.1037
28.0154
27.9685
27.9292
27.9121
27.8288
27.7136
27.5809
27.4811
27.403
27.3945
27.4107
27.4554
27.5137
27.5903
27.6586
27.7562
27.8241
27.9696
27.5947
27.7095
27.8188
27.9543
28.0818
28.2022
28.2833
28.3186
28.3089
28.2715
28.2029
28.1259
28.0394
27.992
27.9518
27.9346
27.8571
27.7516
27.6272
27.5313
27.4547
27.4437
27.4557
27.4927
27.541
27.6091
27.6716
27.7598
27.8182
27.9329
27.5861
27.71
27.8405
27.9975
28.1402
28.2625
28.3364
28.3624
28.3468
28.3055
28.2361
28.1577
28.0707
28.0208
27.9786
27.9613
27.8903
27.7954
27.6807
27.5913
27.5199
27.5086
27.5182
27.5501
27.5918
27.6516
27.7057
27.7845
27.8381
27.9389
27.6295
27.7736
27.919
28.0854
28.2309
28.3472
28.41
28.4248
28.402
28.3547
28.2813
28.1986
28.1082
28.0536
28.0085
27.9907
27.9267
27.8429
27.7393
27.6592
27.596
27.587
27.5963
27.6262
27.6649
27.7203
27.7698
27.8398
27.8876
27.9736
27.7192
27.8782
28.0351
28.2084
28.3502
28.4561
28.5046
28.5066
28.4747
28.4188
28.3377
28.2472
28.1504
28.089
28.0398
28.0213
27.9645
27.8919
27.8003
27.7324
27.6801
27.6754
27.6873
27.7185
27.7583
27.8133
27.8623
27.9295
27.9749
28.0525
27.8523
28.0234
28.1892
28.3649
28.4985
28.5892
28.6201
28.6087
28.5646
28.4969
28.4041
28.3019
28.1957
28.1258
28.0716
28.0516
28.0018
27.9407
27.8618
27.8078
27.7692
27.7702
27.7875
27.8237
27.8687
27.9277
27.9811
28.0503
28.0982
28.1732
28.0262
28.2073
28.3794
28.5527
28.6746
28.7458
28.7568
28.7299
28.6705
28.5875
28.4786
28.3614
28.2431
28.1628
28.1027
28.0809
28.0379
27.9883
27.9226
27.8836
27.86
27.868
27.893
27.9378
27.9922
28.0599
28.123
28.199
28.255
28.3328
28.2345
28.4245
28.6008
28.7688
28.8752
28.9233
28.9139
28.8686
28.7906
28.6885
28.5598
28.4246
28.2922
28.1999
28.1331
28.1099
28.0736
28.0355
27.9829
27.9593
27.9502
27.9667
28.001
28.057
28.1239
28.2038
28.2808
28.3683
28.4375
28.5234
28.4838
28.6808
28.8577
29.0171
29.1046
29.1274
29.0971
29.0289
28.9274
28.8013
28.6489
28.493
28.3436
28.2379
28.1633
28.1393
28.1101
28.0842
28.0445
28.0359
28.0397
28.0668
28.1133
28.1836
28.267
28.364
28.46
28.5646
28.6525
28.7525
28.7142
28.9304
29.1163
29.2664
29.3325
29.3297
29.2761
29.1816
29.0528
28.9001
28.7242
28.5479
28.3807
28.2611
28.1799
28.1577
28.1382
28.1266
28.1006
28.1062
28.1208
28.1573
28.2128
28.2927
28.3878
28.4976
28.6089
28.7283
28.8351
28.9529
29.1942
29.3928
29.5481
29.6618
29.7001
29.6709
29.5826
29.4508
29.2849
29.0962
28.8883
28.6838
28.4953
28.3592
28.2666
28.2446
28.2382
28.2435
28.235
28.2537
28.2823
28.339
28.4229
28.539
28.6715
28.8191
28.9691
29.1233
29.2651
29.415
28.6674
28.9717
29.2292
29.3902
29.4189
29.3689
29.2572
29.1022
28.9148
28.7076
28.4848
28.2679
28.0718
27.931
27.8334
27.8089
27.8088
27.8154
27.8039
27.8168
27.8308
27.8634
27.9235
28.0203
28.1348
28.2651
28.3996
28.5445
28.682
28.8355
29.7904
29.409
29.2879
29.134
29.0219
28.9263
28.8384
28.7571
28.6742
28.5952
28.4929
28.3693
28.1348
27.9882
27.8689
27.8093
27.7123
27.5034
27.3606
27.3983
27.5316
27.7747
28.0538
28.3573
28.6552
28.9255
29.1723
29.3373
29.5316
29.5676
29.7057
29.3513
29.2769
29.1413
29.0382
28.9475
28.8615
28.7806
28.6982
28.6185
28.514
28.3888
28.1531
28.0105
27.8942
27.8426
27.7534
27.5413
27.3945
27.4271
27.5579
27.8021
28.0811
28.3838
28.68
28.9484
29.1951
29.36
29.5574
29.6
29.5973
29.2668
29.2172
29.0957
29.0072
28.9255
28.8477
28.7748
28.6984
28.6211
28.5165
28.3918
28.1573
28.0169
27.8992
27.8511
27.7598
27.5361
27.3884
27.4082
27.5284
27.7732
28.052
28.3554
28.6513
28.9187
29.1676
29.3353
29.5349
29.5859
29.4488
29.1544
29.1318
29.0271
28.9564
28.8862
28.8185
28.7539
28.6852
28.6142
28.5072
28.3808
28.1491
28.0096
27.886
27.8369
27.7405
27.5096
27.3574
27.3617
27.4641
27.6964
27.9664
28.2689
28.5665
28.836
29.087
29.2619
29.4596
29.5263
29.2822
29.0347
29.0284
28.9405
28.8874
28.8299
28.7739
28.7194
28.6581
28.5913
28.4818
28.3526
28.1265
27.9916
27.8618
27.8107
27.7065
27.4674
27.3096
27.2982
27.3821
27.5994
27.8593
28.1552
28.4504
28.7201
28.975
29.1568
29.3525
29.4416
29.1027
28.9079
28.9111
28.8407
28.8045
28.7605
28.7174
28.674
28.6211
28.5591
28.4471
28.3155
28.0962
27.9653
27.8299
27.777
27.6637
27.4179
27.2534
27.2268
27.2907
27.4909
27.739
28.0268
28.318
28.587
28.844
29.0328
29.2216
29.3357
28.9172
28.7757
28.7836
28.7316
28.7114
28.6816
28.6521
28.6203
28.5765
28.5191
28.4056
28.2722
28.0605
27.9328
27.7933
27.7396
27.6174
27.3677
27.1962
27.1538
27.1972
27.3783
27.6124
27.8902
28.1755
28.4424
28.6989
28.8948
29.0732
29.2133
28.7301
28.6391
28.6494
28.6164
28.6111
28.5961
28.5805
28.5606
28.526
28.4733
28.359
28.2247
28.0217
27.8963
27.7555
27.7027
27.574
27.321
27.1427
27.0849
27.1076
27.2673
27.4852
27.7511
28.0283
28.2913
28.5444
28.7469
28.9132
29.0783
28.545
28.4994
28.5116
28.4981
28.5064
28.5066
28.505
28.4969
28.4716
28.4234
28.3092
28.1756
27.982
27.8587
27.7207
27.6709
27.5358
27.2816
27.0966
27.0243
27.0271
27.1637
27.3622
27.6136
27.8805
28.1378
28.3848
28.593
28.7466
28.9347
28.3649
28.3581
28.3731
28.3789
28.4006
28.4156
28.4274
28.431
28.415
28.3713
28.2584
28.1272
27.9436
27.8232
27.6919
27.6469
27.5048
27.2527
27.0619
26.9753
26.9598
27.0725
27.2488
27.4822
27.7359
27.9856
28.2241
28.4367
28.5781
28.786
28.1931
28.2163
28.2367
28.2606
28.2962
28.326
28.3508
28.3652
28.3583
28.319
28.2086
28.0817
27.9089
27.793
27.6707
27.6305
27.4839
27.2357
27.0415
26.9408
26.9086
26.9975
27.1496
27.362
27.5988
27.8384
28.0659
28.2811
28.4112
28.6347
28.0301
28.0777
28.105
28.1466
28.1961
28.2408
28.2778
28.3024
28.3037
28.2688
28.1623
28.0415
27.8796
27.7702
27.657
27.622
27.4724
27.2275
27.0319
26.9239
26.8754
26.9418
27.068
27.2571
27.4738
27.7001
27.9139
28.1292
28.2495
28.4839
27.8776
27.946
27.9814
28.0405
28.1036
28.1627
28.2115
28.2457
28.2537
28.223
28.122
28.0088
27.8571
27.756
27.6518
27.6224
27.4675
27.227
27.0305
26.9191
26.8621
26.9077
27.0071
27.1705
27.3646
27.575
27.7723
27.9844
28.0962
28.3368
27.7391
27.8249
27.8695
27.9456
28.022
28.0951
28.1548
28.1975
28.2108
28.1839
28.0897
27.9848
27.843
27.753
27.6574
27.6327
27.475
27.2486
27.0477
26.9292
26.8656
26.8963
26.9707
27.1054
27.2744
27.4665
27.6452
27.8503
27.9544
28.1966
27.6169
27.718
27.7728
27.8657
27.9548
28.0411
28.1108
28.1607
28.1778
28.1543
28.0674
27.9713
27.8436
27.7604
27.6756
27.6519
27.4968
27.283
27.0832
26.9583
26.8844
26.9051
26.9702
27.0725
27.2083
27.3779
27.5367
27.7313
27.8278
28.0665
27.5134
27.6294
27.6951
27.8045
27.9054
28.0041
28.0828
28.1387
28.1576
28.1359
28.0582
27.9733
27.8524
27.7797
27.7049
27.6815
27.531
27.3304
27.1338
27.0052
26.9229
26.933
26.9849
27.0762
27.1822
27.3169
27.4516
27.6313
27.7211
27.9489
27.4328
27.5638
27.639
27.7623
27.8737
27.9823
28.0689
28.1309
28.1509
28.1332
28.0629
27.9843
27.8742
27.8115
27.7446
27.7225
27.5776
27.3906
27.1989
27.0694
26.9813
26.9815
27.0195
27.0959
27.1897
27.3025
27.4037
27.5562
27.6372
27.8487
27.3797
27.5194
27.6042
27.7368
27.8571
27.9736
28.067
28.1391
28.1597
28.1428
28.0793
28.0093
27.9101
27.8563
27.7959
27.775
27.6365
27.4633
27.2781
27.151
27.0595
27.0501
27.0762
27.1372
27.2151
27.3154
27.4034
27.5216
27.5904
27.7712
27.3495
27.4926
27.5875
27.7276
27.8564
27.9895
28.098
28.1709
28.1878
28.1709
28.1132
28.0501
27.9606
27.9141
27.8587
27.8387
27.707
27.5477
27.3702
27.2489
27.1567
27.1394
27.1553
27.2028
27.2651
27.3482
27.4246
27.529
27.5883
27.7259
27.3414
27.4869
27.5979
27.7564
27.9055
28.0482
28.1564
28.2243
28.2369
28.2196
28.1656
28.1068
28.0256
27.9843
27.9324
27.913
27.7883
27.6425
27.4742
27.3616
27.2717
27.2487
27.2567
27.2931
27.3417
27.4101
27.4719
27.5589
27.611
27.7273
27.3842
27.5385
27.6714
27.841
27.9956
28.1376
28.2401
28.3007
28.3081
28.2894
28.2373
28.1806
28.1047
28.0666
28.0167
27.9971
27.879
27.7464
27.5884
27.487
27.4025
27.3765
27.3796
27.4079
27.4462
27.5026
27.5522
27.6241
27.6654
27.7588
27.4772
27.6435
27.7886
27.9654
28.1193
28.256
28.35
28.4012
28.4023
28.3806
28.3283
28.2714
28.1977
28.1606
28.1111
28.0901
27.9781
27.8579
27.7113
27.6226
27.5465
27.5209
27.5222
27.5461
27.5784
27.6266
27.6679
27.7287
27.7618
27.84
27.6198
27.7956
27.9489
28.1268
28.2771
28.4046
28.4868
28.5261
28.5202
28.4937
28.4384
28.3795
28.3045
28.2664
28.2148
28.1912
28.0843
27.9756
27.8409
27.7661
27.701
27.679
27.6822
27.7058
27.7368
27.7814
27.8193
27.8734
27.9027
27.9712
27.8116
27.993
28.1515
28.3264
28.4692
28.5838
28.6508
28.6762
28.6621
28.6285
28.5677
28.5045
28.4255
28.3835
28.3276
28.2999
28.1971
28.0983
27.9756
27.9153
27.8633
27.8481
27.8566
27.884
27.9185
27.9647
28.0046
28.057
28.0876
28.1511
28.051
28.2351
28.396
28.5639
28.6952
28.7932
28.8424
28.8526
28.8285
28.7854
28.7165
28.6461
28.5615
28.5122
28.4495
28.4166
28.3165
28.226
28.1147
28.0686
28.0311
28.0263
28.0429
28.078
28.1208
28.1737
28.221
28.2778
28.3144
28.378
28.3333
28.5197
28.6806
28.8382
28.9545
29.0329
29.062
29.0565
29.0202
28.9648
28.8845
28.8037
28.7115
28.6523
28.5801
28.5422
28.4432
28.3588
28.2583
28.2262
28.2039
28.2112
28.2396
28.2859
28.3408
28.4053
28.465
28.5312
28.5785
28.6466
28.6683
28.8543
29.0113
29.1541
29.2521
29.3073
29.3153
29.293
29.2398
29.167
29.0702
28.9744
28.8712
28.8015
28.72
28.6756
28.5788
28.5021
28.4126
28.393
28.3857
28.4044
28.4465
28.5099
28.5828
28.6642
28.7422
28.8247
28.8884
28.9657
29.0241
29.2114
29.3657
29.492
29.5688
29.6002
29.5869
29.543
29.47
29.3794
29.2686
29.1598
29.0465
28.9678
28.88
28.829
28.733
28.6632
28.583
28.5732
28.5788
28.6088
28.662
28.7365
28.8252
28.9253
29.0235
29.1247
29.2086
29.2989
29.5353
29.7086
29.8436
29.9457
29.9971
30.0043
29.9713
29.9075
29.8177
29.7107
29.5866
29.4666
29.3445
29.2602
29.1691
29.1132
29.0149
28.9522
28.8817
28.8792
28.8928
28.933
28.9984
29.0874
29.1932
29.3123
29.4361
29.5628
29.6767
29.7844
30.2938
30.4314
30.5482
30.626
30.6507
30.6349
30.5789
30.4924
30.379
30.2489
30.1064
29.9747
29.8451
29.7534
29.6503
29.592
29.4983
29.4501
29.3979
29.4094
29.4391
29.499
29.5847
29.6958
29.8246
29.9667
30.1117
30.2605
30.4003
30.5361
29.6599
29.073
28.9263
28.7355
28.6216
28.5422
28.4789
28.4288
28.3811
28.3356
28.2599
28.1584
27.9095
27.7249
27.519
27.3279
27.078
26.9058
26.7882
26.8118
26.9056
27.1305
27.4024
27.7195
28.0418
28.344
28.6375
28.8556
29.1391
29.1947
29.5374
29.0013
28.9106
28.7449
28.6421
28.5692
28.5126
28.4649
28.4177
28.3712
28.2945
28.1897
27.9378
27.7591
27.5587
27.3708
27.1167
26.9347
26.8088
26.8309
26.9279
27.1572
27.4315
27.7499
28.0725
28.374
28.6678
28.8851
29.1737
29.2347
29.3996
28.9314
28.8658
28.727
28.6397
28.5714
28.517
28.4721
28.4273
28.3828
28.304
28.1991
27.9486
27.7728
27.5753
27.3886
27.1303
26.9333
26.8035
26.8176
26.9133
27.1493
27.4267
27.7475
28.07
28.3698
28.6627
28.8766
29.1604
29.233
29.2128
28.8202
28.7904
28.6735
28.6077
28.5523
28.5085
28.4724
28.4304
28.388
28.3064
28.1999
27.9496
27.7727
27.5685
27.38
27.1177
26.9158
26.7776
26.7797
26.8606
27.086
27.3638
27.6882
28.0124
28.3147
28.6086
28.8251
29.0981
29.1973
29.0123
28.7032
28.6993
28.6032
28.5571
28.5143
28.4804
28.4522
28.4162
28.3774
28.2886
28.1755
27.9285
27.7542
27.5462
27.3548
27.0891
26.884
26.7374
26.7263
26.791
27.0028
27.2688
27.5872
27.9123
28.2175
28.5101
28.7334
28.9849
29.1224
28.8059
28.584
28.5936
28.5188
28.4913
28.4616
28.4386
28.4191
28.3898
28.3539
28.2587
28.1395
27.897
27.7254
27.5135
27.3201
27.0516
26.8446
26.6893
26.6646
26.7118
26.9082
27.1614
27.4704
27.7896
28.0928
28.3851
28.6132
28.848
29.0272
28.6001
28.4617
28.4769
28.4238
28.4133
28.3971
28.3856
28.3753
28.353
28.3198
28.2194
28.0948
27.8579
27.6894
27.4744
27.2808
27.0103
26.8033
26.6391
26.6006
26.6293
26.8081
27.0471
27.3456
27.6575
27.9573
28.2469
28.4812
28.695
28.9146
28.3986
28.3352
28.3518
28.3209
28.3256
28.3233
28.3236
28.3228
28.3075
28.2771
28.1724
28.0441
27.8142
27.6486
27.4325
27.2413
26.9703
26.7651
26.5916
26.5395
26.5493
26.7079
26.9302
27.2164
27.5198
27.8152
28.0996
28.3411
28.5325
28.7909
28.2048
28.2039
28.2204
28.2126
28.2308
28.2424
28.2545
28.2631
28.2553
28.2279
28.1202
27.9902
27.7684
27.6062
27.3911
27.2052
26.9357
26.7331
26.5509
26.4855
26.4771
26.6139
26.816
27.0866
27.3792
27.6694
27.9465
28.1955
28.3653
28.6589
28.0207
28.0661
28.0851
28.0999
28.1315
28.1571
28.1808
28.1987
28.1982
28.1741
28.0649
27.9356
27.7217
27.5664
27.3526
27.1754
26.9092
26.711
26.5207
26.442
26.4165
26.5307
26.7102
26.9617
27.2399
27.523
27.7909
28.047
28.1976
28.5193
27.8471
27.927
27.9498
27.9855
28.0302
28.0701
28.1053
28.1323
28.1384
28.118
28.0086
27.8823
27.6763
27.5308
27.3212
27.1542
26.8927
26.6992
26.5045
26.4126
26.3701
26.4613
26.6166
26.8465
27.1068
27.3798
27.6364
27.8982
28.0322
28.3739
27.6845
27.7894
27.8173
27.8729
27.9303
27.9844
28.0307
28.0664
28.0785
28.0619
27.9544
27.8329
27.6371
27.5013
27.2979
27.1397
26.8837
26.695
26.4968
26.4014
26.3413
26.409
26.5385
26.744
26.9835
27.2436
27.4863
27.7513
27.8721
28.2255
27.5301
27.6558
27.6909
27.7653
27.8349
27.9031
27.9598
28.0038
28.0212
28.0084
27.9045
27.7906
27.6065
27.4794
27.2808
27.1315
26.8803
26.6984
26.4963
26.3993
26.3288
26.3771
26.4797
26.6575
26.8733
27.1177
27.344
27.6093
27.7208
28.0761
27.3869
27.5303
27.5739
27.6662
27.7476
27.8293
27.8957
27.9475
27.9693
27.9602
27.8617
27.757
27.5831
27.4649
27.2711
27.1317
26.8888
26.7206
26.5168
26.4127
26.3297
26.3668
26.4429
26.5911
26.7797
27.0054
27.2132
27.4745
27.579
27.9304
27.2582
27.4169
27.4701
27.5796
27.6721
27.7666
27.8418
27.9007
27.9261
27.9198
27.8273
27.732
27.5674
27.4618
27.271
27.1452
26.9105
26.7543
26.5514
26.4436
26.348
26.3743
26.439
26.5553
26.7094
26.91
27.0979
27.3498
27.4486
27.7921
27.1477
27.3203
27.3834
27.5092
27.6121
27.719
27.8017
27.866
27.893
27.8883
27.8025
27.7181
27.5664
27.4679
27.28
27.1702
26.9437
26.8001
26.5996
26.4904
26.3833
26.3975
26.451
26.555
26.6759
26.843
27.0043
27.2395
27.334
27.6643
27.0581
27.2469
27.3173
27.4581
27.5701
27.6863
27.7766
27.845
27.8718
27.8681
27.7903
27.7207
27.5738
27.484
27.3011
27.2068
26.989
26.8579
26.6612
26.5529
26.4361
26.4385
26.4782
26.5697
26.6782
26.8163
26.9466
27.1515
27.2452
27.5514
26.9971
27.1909
27.2708
27.4207
27.5411
27.6649
27.7621
27.8365
27.866
27.8635
27.7947
27.7318
27.5912
27.512
27.3351
27.2555
27.0464
26.9276
26.7358
26.6311
26.5071
26.4978
26.5255
26.5996
26.6965
26.8218
26.9315
27.0981
27.1885
27.4594
26.9592
27.1509
27.2418
27.3983
27.5263
27.6575
27.7612
27.8469
27.8773
27.8734
27.8104
27.7552
27.6215
27.5529
27.3815
27.3162
27.1155
27.0086
26.8229
26.724
26.5957
26.5754
26.5926
26.652
26.732
26.8449
26.9447
27.0901
27.1693
27.3929
26.9415
27.1301
27.2316
27.3943
27.5342
27.6814
27.7967
27.8814
27.9063
27.9009
27.8428
27.7931
27.6658
27.6067
27.4402
27.3886
27.1955
27.1002
26.9213
26.8303
26.7006
26.672
26.68
26.7269
26.7926
26.8873
26.9775
27.1073
27.181
27.3661
26.9514
27.1366
27.2616
27.4379
27.5937
27.7436
27.8569
27.9355
27.9547
27.9478
27.8925
27.8465
27.7247
27.6736
27.5111
27.4722
27.286
27.2014
27.0295
26.9481
26.8203
26.7863
26.787
26.8245
26.8785
26.9594
27.037
27.1477
27.2159
27.3769
27.0155
27.2048
27.3456
27.527
27.6849
27.8329
27.9392
28.0101
28.0233
28.0147
27.9607
27.9167
27.7988
27.7535
27.5943
27.5666
27.3862
27.3113
27.1465
27.0751
26.9524
26.9165
26.9125
26.9441
26.9905
27.061
27.1292
27.2239
27.2838
27.4188
27.1235
27.3158
27.4667
27.6496
27.806
27.9468
28.0445
28.1065
28.1136
28.1026
28.0484
28.0049
27.889
27.8471
27.6899
27.671
27.4954
27.4289
27.2711
27.2095
27.0949
27.0602
27.055
27.0834
27.1264
27.1909
27.2537
27.3386
27.3939
27.5071
27.2757
27.467
27.6245
27.8052
27.9555
28.0866
28.1739
28.2258
28.2267
28.2124
28.1568
28.1118
27.9963
27.9549
27.798
27.7859
27.6136
27.5535
27.4026
27.3508
27.2457
27.2148
27.212
27.2399
27.2838
27.3466
27.4086
27.4884
27.5421
27.6429
27.47
27.6578
27.8185
27.9917
28.1336
28.253
28.3282
28.3688
28.3636
28.3445
28.286
28.2376
28.1207
28.0764
27.9174
27.9109
27.7413
27.6869
27.5414
27.4976
27.4053
27.3807
27.3816
27.4125
27.4597
27.5261
27.5918
27.6716
27.7284
27.8219
27.7036
27.8859
28.046
28.209
28.3398
28.4457
28.5071
28.5349
28.5227
28.4966
28.4328
28.3782
28.2578
28.208
28.046
28.0458
27.875
27.8215
27.6797
27.6421
27.5634
27.5526
27.5651
27.6005
27.6529
27.726
27.8007
27.8852
27.9492
28.04
27.9778
28.151
28.3061
28.4556
28.5717
28.6613
28.7064
28.7188
28.6967
28.6604
28.5885
28.5254
28.3991
28.344
28.1797
28.1794
28.0052
27.9529
27.8153
27.7834
27.7159
27.7199
27.7483
27.8009
27.8664
27.9451
28.0305
28.127
28.2031
28.2962
28.2741
28.4351
28.5798
28.7131
28.8113
28.8822
28.9081
28.9032
28.8687
28.8202
28.7397
28.6686
28.5336
28.474
28.3041
28.3082
28.1362
28.092
27.96
27.9326
27.8735
27.8832
27.9198
27.9884
28.073
28.172
28.273
28.3796
28.4726
28.571
28.5758
28.7237
28.8516
28.9629
29.0402
29.0888
29.094
29.0738
29.0263
28.9671
28.8777
28.797
28.6586
28.6007
28.4356
28.4635
28.3033
28.2734
28.1506
28.1296
28.0809
28.0935
28.1273
28.1909
28.2768
28.3833
28.4948
28.6164
28.7294
28.8471
28.8755
28.9914
29.101
29.1934
29.2567
29.2883
29.279
29.2453
29.1852
29.1082
29.0002
28.9095
28.7723
28.7289
28.5834
28.65
28.5127
28.5077
28.404
28.3937
28.357
28.3753
28.4129
28.4796
28.5666
28.6727
28.7905
28.9165
29.0341
29.1485
29.5259
28.7378
28.5555
28.3096
28.1878
28.1238
28.0834
28.0621
28.0453
28.0325
27.99
27.9158
27.6217
27.3733
27.0503
26.8199
26.6161
26.5161
26.4391
26.4337
26.4593
26.6421
26.8752
27.1771
27.4965
27.8102
28.1318
28.3794
28.7393
28.8159
29.3288
28.6075
28.5025
28.3063
28.2019
28.1484
28.1173
28.1005
28.0858
28.0737
28.031
27.9499
27.6501
27.407
27.0801
26.835
26.6074
26.4757
26.3898
26.3887
26.4223
26.6299
26.881
27.1904
27.5155
27.8329
28.1583
28.4071
28.7736
28.854
29.134
28.5182
28.441
28.2832
28.2015
28.1524
28.1245
28.1139
28.1028
28.0927
28.0454
27.9614
27.6625
27.4199
27.0893
26.8309
26.5819
26.4223
26.3249
26.325
26.3616
26.5695
26.8397
27.1668
27.5024
27.8248
28.1531
28.3988
28.7544
28.839
28.8892
28.3929
28.3559
28.228
28.1741
28.1397
28.1229
28.1172
28.1099
28.1021
28.0505
27.9625
27.6633
27.4131
27.0732
26.8011
26.5345
26.3561
26.2484
26.2433
26.2792
26.4841
26.7507
27.0913
27.4379
27.768
28.0993
28.3504
28.6841
28.7976
28.6395
28.265
28.2621
28.1618
28.1318
28.1113
28.1043
28.1055
28.103
28.0986
28.0367
27.936
27.6376
27.3855
27.0403
26.7564
26.4743
26.2832
26.1651
26.1527
26.1844
26.3838
26.6451
26.982
27.3363
27.6735
28.0067
28.2633
28.5587
28.7339
28.3936
28.1426
28.1575
28.0849
28.0764
28.0695
28.0724
28.0807
28.0829
28.0801
28.0093
27.8965
27.5999
27.3462
26.9961
26.7029
26.4074
26.2074
26.0785
26.0575
26.0822
26.2738
26.5284
26.8596
27.2116
27.5548
27.8854
28.1515
28.4131
28.6462
28.1613
28.0235
28.045
27.9999
28.0093
28.0158
28.0287
28.0443
28.051
28.0497
27.9704
27.8469
27.5528
27.2981
26.9448
26.6453
26.3395
26.1332
25.9928
25.9625
25.9777
26.1583
26.4042
26.7287
27.0761
27.4184
27.7462
28.0207
28.2543
28.5426
27.9444
27.9038
27.9256
27.9079
27.9322
27.9514
27.9748
27.9979
28.009
28.009
27.922
27.7901
27.4989
27.2447
26.8899
26.5885
26.2749
26.065
25.9121
25.8723
25.8762
26.0428
26.2765
26.5918
26.9333
27.2734
27.5977
27.883
28.0884
28.4253
27.7422
27.7784
27.7996
27.8089
27.8464
27.8787
27.9124
27.9431
27.9586
27.9599
27.8664
27.7283
27.4406
27.1887
26.8348
26.5359
26.2172
26.0065
25.84
25.7908
25.7825
25.9328
26.1511
26.4539
26.7868
27.1238
27.4425
27.7403
27.9202
28.2999
27.5561
27.6475
27.6698
27.7039
27.7539
27.7996
27.8435
27.8819
27.9017
27.9044
27.8058
27.664
27.3804
27.1334
26.7824
26.4911
26.1704
25.9618
25.7807
25.722
25.7003
25.8324
26.0326
26.3198
26.641
26.9729
27.2841
27.5946
27.7535
28.1644
27.3854
27.5145
27.5386
27.5957
27.6573
27.7166
27.7705
27.8165
27.8405
27.8446
27.7423
27.5994
27.3205
27.0819
26.7363
26.4548
26.1325
25.9309
25.7395
25.6707
25.6332
25.7452
25.9244
26.1927
26.499
26.8237
27.1251
27.4472
27.59
28.0202
27.2247
27.3804
27.4088
27.4869
27.5594
27.6323
27.6957
27.7492
27.7772
27.7828
27.6783
27.5366
27.2633
27.0371
26.6965
26.4255
26.1008
25.9091
25.7099
25.6347
25.5852
25.6748
25.8303
26.0761
26.364
26.6788
26.9681
27.2989
27.4304
27.8706
27.0718
27.2478
27.2828
27.3803
27.4634
27.5495
27.622
27.6826
27.7142
27.7212
27.6159
27.4779
27.2122
26.9997
26.6621
26.4039
26.0781
25.8949
25.6881
25.6099
25.5514
25.625
25.7547
25.9734
26.2391
26.5409
26.8158
27.1514
27.2771
27.7188
26.9281
27.1202
27.1638
27.2789
27.3724
27.4712
27.552
27.6194
27.654
27.6626
27.5577
27.4259
27.1683
26.9694
26.6351
26.3921
26.0658
25.8899
25.6775
25.5994
25.5294
25.5918
25.6981
25.8895
26.1276
26.4129
26.6716
27.0061
27.1304
27.5678
26.7955
27.0014
27.0549
27.1864
27.2899
27.4005
27.4889
27.5624
27.5993
27.6088
27.5055
27.3818
27.1324
26.9478
26.6175
26.39
26.062
25.9002
25.6776
25.6007
25.5249
25.5742
25.6614
25.8285
26.0366
26.2984
26.5398
26.8664
26.9923
27.421
26.6765
26.8968
26.96
27.1065
27.2194
27.3407
27.4351
27.5136
27.5516
27.5614
27.4613
27.3464
27.1057
26.9387
26.6106
26.402
26.0763
25.9299
25.7029
25.6256
25.5391
25.5816
25.6581
25.7981
25.9772
26.2103
26.4276
26.7368
26.867
27.2813
26.5759
26.8108
26.8819
27.0439
27.1632
27.2939
27.393
27.4754
27.5133
27.523
27.427
27.3219
27.0921
26.9439
26.6158
26.4271
26.1053
25.974
25.7445
25.6685
25.5716
25.6059
25.6721
25.8011
25.9508
26.1559
26.3462
26.6242
26.7597
27.1525
26.5005
26.7404
26.8227
26.9925
27.1201
27.2582
27.3641
27.4512
27.4874
27.4963
27.4051
27.3176
27.0953
26.9578
26.6333
26.4662
26.1492
26.0329
25.8023
25.7294
25.6236
25.6504
25.7018
25.8195
25.9568
26.1369
26.3018
26.5424
26.6783
27.0395
26.4495
26.6847
26.7789
26.9542
27.0902
27.2345
27.3463
27.4392
27.4762
27.4837
27.402
27.3254
27.1072
26.9851
26.6642
26.52
26.2083
26.1061
25.8761
25.808
25.6956
25.7154
25.7548
25.8539
25.9798
26.1465
26.2983
26.5016
26.6281
26.9464
26.4176
26.6461
26.7527
26.9321
27.0753
27.2245
27.3414
27.4393
27.4801
27.4885
27.4113
27.3432
27.1305
27.0266
26.7092
26.589
26.282
26.1936
25.9657
25.9037
25.7873
25.801
25.8311
25.9132
26.021
26.174
26.3165
26.5022
26.6166
26.8826
26.4067
26.6281
26.7459
26.9284
27.0802
27.2386
27.3658
27.4682
27.5034
27.5088
27.4354
27.376
27.1689
27.0827
26.7685
26.6737
26.3693
26.2944
26.0699
26.0153
25.8979
25.9073
25.9309
25.998
26.0897
26.2214
26.3552
26.5239
26.6327
26.8581
26.4313
26.6417
26.7812
26.9691
27.1327
27.2941
27.4191
27.5175
27.5452
27.548
27.4783
27.426
27.2231
27.1538
26.8416
26.7757
26.4701
26.4083
26.1878
26.1413
26.026
26.0329
26.0516
26.1091
26.1874
26.301
26.4177
26.5698
26.6729
26.8707
26.5058
26.7142
26.8665
27.0539
27.2173
27.3746
27.4949
27.5861
27.6073
27.6082
27.5408
27.4947
27.2953
27.2404
26.9296
26.8916
26.5841
26.5343
26.3181
26.28
26.1699
26.1764
26.1924
26.2462
26.3128
26.4125
26.5176
26.6494
26.7413
26.9138
26.6227
26.8272
26.9856
27.1688
27.3295
27.4808
27.5929
27.6756
27.691
27.6903
27.6244
27.5832
27.3871
27.3419
27.0341
27.0185
26.7104
26.6712
26.4594
26.4297
26.3273
26.3356
26.3523
26.4044
26.4674
26.5543
26.6491
26.7684
26.8549
27.0013
26.7817
26.9777
27.1383
27.3145
27.4697
27.6111
27.7137
27.7868
27.7968
27.794
27.7289
27.6909
27.4978
27.4593
27.1524
27.1572
26.847
26.8183
26.6112
26.5898
26.4968
26.5083
26.5281
26.5811
26.6472
26.7283
26.8146
26.924
27.0096
27.1349
26.9815
27.1653
27.3237
27.4899
27.6353
27.7647
27.8562
27.9186
27.9226
27.9165
27.8508
27.814
27.6237
27.592
27.2796
27.3051
26.9914
26.9776
26.7757
26.7623
26.6804
26.6947
26.7175
26.7737
26.844
26.9313
27.0154
27.1137
27.2002
27.3136
27.2183
27.3863
27.5375
27.6895
27.8221
27.9369
28.0149
28.0643
28.0613
28.0499
27.9819
27.9447
27.7568
27.727
27.4154
27.4668
27.1481
27.1491
26.9549
26.9506
26.8798
26.8989
26.9253
26.9812
27.0538
27.1476
27.2425
27.3417
27.4222
27.5289
27.4806
27.6289
27.7679
27.9011
28.0178
28.1156
28.1777
28.2118
28.201
28.1827
28.1118
28.0734
27.8827
27.8609
27.5605
27.6398
27.3232
27.3394
27.1567
27.162
27.1031
27.1262
27.1558
27.2139
27.2844
27.3735
27.4743
27.5841
27.6767
27.7741
27.7371
27.8683
27.9904
28.1044
28.2037
28.2838
28.3284
28.3464
28.3273
28.3025
28.2269
28.186
27.9991
27.9969
27.7102
27.8224
27.5216
27.5626
27.3939
27.4094
27.3649
27.3921
27.4227
27.4791
27.5471
27.6327
27.7238
27.8227
27.9173
28.0157
28.0322
28.1256
28.2152
28.2981
28.3719
28.4299
28.4578
28.4615
28.4346
28.4028
28.3194
28.2767
28.1016
28.1288
27.8642
28.025
27.7428
27.8182
27.6739
27.7088
27.6819
27.7166
27.7508
27.808
27.8742
27.955
28.0422
28.1344
28.224
28.315
29.6885
28.7076
28.5027
28.2053
28.0486
27.9761
27.9334
27.9131
27.9026
27.9046
27.8937
27.8584
27.5353
27.271
26.9988
27.007
27.0416
27.1921
27.1298
27.0488
26.8738
26.835
26.8977
27.099
27.334
27.5969
27.8981
28.1439
28.5683
28.6749
29.411
28.5127
28.4104
28.1759
28.0559
27.9942
27.9624
27.9485
27.9424
27.9485
27.9389
27.8933
27.5603
27.2942
27.0014
26.9665
26.9468
27.0386
26.9698
26.9113
26.772
26.7612
26.8371
27.0653
27.3313
27.6053
27.9147
28.1655
28.5998
28.71
29.1567
28.4033
28.3305
28.1449
28.0547
27.9994
27.9716
27.9645
27.9626
27.9718
27.9573
27.908
27.5732
27.3068
26.9946
26.9247
26.8527
26.8949
26.8142
26.7781
26.6672
26.678
26.7645
27.0037
27.293
27.5844
27.9056
28.1578
28.5748
28.6867
28.8452
28.2551
28.2292
28.0806
28.0233
27.9852
27.9682
27.9677
27.9701
27.9821
27.9607
27.9098
27.5683
27.2987
26.9637
26.8657
26.7482
26.7568
26.6637
26.6353
26.5436
26.5723
26.6676