/*--------------------------------*- C++ -*----------------------------------*\
  =========                 |
  \\      /  F ield         | OpenFOAM: The Open Source CFD Toolbox
   \\    /   O peration     | Website:  https://openfoam.org
    \\  /    A nd           | Version:  12
     \\/     M anipulation  |
\*---------------------------------------------------------------------------*/
FoamFile
{
    format      ascii;
    class       volScalarField;
    location    "1450/air";
    object      alphat;
}
// * * * * * * * * * * * * * * * * * * * * * * * * * * * * * * * * * * * * * //

dimensions      [1 -1 -1 0 0 0 0];

internalField   nonuniform List<scalar> 
243000
(
0.000147363
0.00015002
0.000149048
0.00014642
0.00014253
0.000137773
0.000132514
0.000127046
0.000121582
0.000116286
0.000111268
0.000106669
0.000102564
9.89983e-05
9.59402e-05
9.33882e-05
9.13445e-05
8.99457e-05
8.93866e-05
8.98157e-05
9.11133e-05
9.28368e-05
9.43321e-05
9.48786e-05
9.39239e-05
9.09658e-05
8.55659e-05
8.03701e-05
0.000347896
0.000313045
0.00054423
0.000549391
0.000538176
0.000519155
0.000496854
0.000473314
0.000449719
0.000426841
0.000405159
0.000384983
0.000366536
0.000350049
0.000335569
0.000323214
0.000313004
0.00030505
0.000299542
0.000297185
0.000298671
0.000304482
0.000313992
0.000325535
0.000336739
0.000345202
0.000348792
0.000345697
0.000336268
0.000315351
0.000296035
0.000265371
0.000671864
0.000716451
0.000732662
0.000735458
0.000730178
0.000719687
0.000705735
0.000689551
0.000671971
0.000653645
0.000635062
0.000616769
0.000599024
0.000582341
0.000567087
0.000553815
0.000543251
0.000536906
0.000535836
0.000540262
0.000548604
0.000557896
0.000564482
0.000565174
0.000557309
0.000539043
0.000510731
0.000470607
0.000425473
0.000367895
0.000658239
0.000714995
0.000742075
0.000751766
0.00075084
0.00074331
0.000731379
0.00071656
0.000699945
0.000682271
0.000664109
0.000646071
0.00062852
0.000612072
0.000597217
0.000584667
0.000575329
0.000570787
0.000571833
0.000578244
0.000588155
0.000598639
0.000606319
0.000608324
0.000602098
0.000585724
0.000559271
0.000521167
0.000476288
0.000419438
0.000622836
0.000689739
0.000727385
0.000745713
0.000751535
0.000749015
0.000740893
0.000728978
0.000714807
0.000698973
0.000682261
0.000665364
0.000648773
0.000633224
0.000619321
0.00060796
0.000600183
0.000597573
0.00060057
0.000608556
0.000619451
0.000630454
0.00063853
0.000641174
0.00063608
0.000621388
0.000596937
0.000561505
0.00051861
0.000464868
0.000580744
0.000646139
0.000693771
0.00072202
0.000736272
0.000740567
0.000737892
0.000730392
0.000719392
0.000706134
0.000691769
0.000676724
0.000661693
0.000647546
0.000634977
0.000625129
0.000619108
0.000618451
0.000623231
0.000632509
0.000644073
0.000655271
0.000663405
0.000666333
0.000662042
0.000648819
0.000626352
0.000593775
0.000553553
0.000503582
0.000561327
0.00060445
0.000650808
0.000685617
0.000708536
0.000720504
0.000724272
0.000722089
0.000715499
0.000706018
0.000694323
0.000681557
0.000668584
0.000656216
0.000645301
0.000637185
0.000633038
0.000634264
0.000640671
0.000651047
0.000663107
0.000674357
0.000682408
0.000685437
0.000681742
0.000669789
0.000649214
0.000619427
0.000582179
0.000536039
0.000565708
0.000580282
0.000614717
0.000649343
0.00067606
0.000693099
0.000702733
0.000706144
0.000704486
0.000699124
0.000690963
0.00068114
0.000670475
0.00066014
0.000651125
0.000644881
0.000642652
0.000645667
0.000653547
0.000664884
0.000677355
0.000688623
0.00069656
0.000699621
0.000696395
0.00068555
0.00066674
0.000639585
0.00060546
0.000562962
0.000587952
0.000576653
0.000590733
0.000617561
0.000644416
0.000664972
0.000678541
0.000685787
0.000688273
0.00068708
0.000682688
0.000676073
0.000668118
0.000660117
0.000653116
0.000648806
0.000648471
0.000653154
0.000662376
0.000674575
0.000687429
0.00069874
0.000706607
0.000709708
0.000706892
0.000697034
0.000679868
0.000655233
0.000624089
0.000585045
0.000621832
0.000595393
0.000585937
0.000596243
0.000616664
0.000637329
0.000653586
0.000664292
0.000670065
0.000671802
0.00067075
0.000667328
0.000662229
0.00065666
0.000651803
0.000649452
0.000650909
0.000657123
0.000667558
0.000680548
0.000693795
0.000705215
0.000713109
0.000716316
0.000713909
0.00070497
0.000689413
0.000666983
0.000638582
0.000602861
0.000657907
0.000627853
0.000603041
0.000593002
0.000599107
0.000613765
0.0006295
0.000642244
0.000650875
0.000655519
0.000656948
0.000656009
0.00065355
0.000650403
0.000647681
0.00064723
0.000650361
0.000657998
0.000669479
0.000683117
0.000696759
0.000708409
0.000716486
0.00071992
0.000717975
0.000709967
0.000695751
0.00067532
0.000649466
0.000617081
0.000694002
0.000667271
0.000636398
0.000611454
0.000599371
0.000600823
0.000610292
0.000621747
0.000631642
0.000638566
0.000642393
0.000643563
0.000643011
0.00064198
0.000641256
0.000642557
0.000647193
0.000656047
0.000668549
0.00068302
0.000697136
0.000709046
0.00071732
0.000720971
0.00071944
0.000712255
0.000699332
0.000680735
0.000657211
0.000627888
0.000729505
0.000705053
0.000675267
0.000645103
0.000619995
0.000605462
0.00060245
0.000607166
0.000614857
0.000622213
0.000627635
0.000630693
0.000631809
0.000632189
0.000633087
0.000635883
0.000641786
0.000651627
0.000664886
0.000679956
0.000694597
0.000706952
0.000715631
0.00071971
0.00071862
0.000712134
0.000700444
0.000683607
0.000662207
0.000635682
0.000764244
0.000741712
0.000715881
0.000685835
0.000655475
0.000629298
0.000611929
0.000604652
0.000605017
0.000609226
0.000614187
0.000618131
0.000620559
0.00062202
0.000623864
0.000627728
0.000634567
0.000645113
0.000658909
0.000674447
0.000689565
0.000702428
0.000711653
0.000716336
0.000715883
0.000710205
0.000699585
0.000684251
0.000664838
0.000640886
0.000798155
0.000777317
0.000754285
0.00072683
0.000696835
0.000666173
0.000638762
0.000618661
0.000607521
0.000603941
0.000604902
0.000607537
0.000610121
0.000612212
0.000614482
0.000618741
0.000626041
0.000636934
0.00065099
0.00066682
0.000682342
0.000695726
0.000705589
0.000711017
0.000711376
0.000706673
0.000697147
0.00068318
0.000665478
0.000643885
0.000831165
0.000811755
0.000790612
0.000766014
0.000738453
0.000708093
0.000676783
0.000647972
0.000625321
0.000610781
0.000603694
0.000601673
0.000602192
0.000603685
0.000605855
0.000609744
0.00061685
0.000627605
0.000641566
0.000657434
0.000673216
0.000687087
0.000697636
0.000703911
0.000705246
0.00070162
0.000693328
0.000680769
0.00066479
0.000645474
0.000863093
0.000844841
0.000825197
0.000803342
0.000778236
0.000749932
0.000718802
0.000686565
0.000656291
0.000631397
0.000613985
0.000603904
0.000599315
0.000598067
0.000598911
0.000601879
0.000607901
0.000617818
0.000631188
0.000646734
0.000662545
0.000676801
0.000688033
0.000695225
0.000697679
0.000695268
0.000688668
0.000677943
0.000663798
0.000646552
0.000893727
0.000876392
0.000857959
0.000837796
0.000815131
0.000789364
0.000760222
0.000728169
0.000694871
0.000663224
0.000636456
0.000616744
0.000604264
0.000597631
0.000595169
0.000596044
0.000600383
0.000608671
0.000620684
0.000635366
0.000650865
0.000665348
0.000677278
0.000685546
0.000689424
0.000688622
0.000683677
0.00067474
0.000662387
0.000647054
0.000922833
0.000906255
0.000888854
0.00087024
0.000849607
0.000826127
0.000799312
0.000769011
0.000735794
0.000701356
0.000668488
0.000640285
0.00061887
0.000604634
0.000596584
0.000593619
0.000595166
0.000601168
0.00061133
0.000624694
0.000639547
0.000654016
0.000666462
0.000675669
0.000680862
0.000681606
0.000678264
0.000671066
0.000660461
0.000646913
0.000950263
0.00093435
0.000917925
0.000900987
0.000882013
0.000860435
0.000835741
0.000807556
0.000775865
0.000741378
0.000705869
0.000672071
0.000642915
0.000620401
0.000605009
0.000596297
0.000593522
0.00059617
0.000603708
0.000615152
0.000628865
0.000642945
0.000655637
0.000665594
0.000671953
0.000674172
0.000672383
0.000666869
0.00065796
0.000646136
0.000975931
0.000960708
0.000945569
0.000929788
0.000912203
0.000892257
0.000869451
0.000843345
0.00081367
0.000780559
0.0007449
0.000708561
0.000674251
0.000644604
0.000621471
0.00060564
0.000596955
0.000594888
0.000598719
0.000607379
0.000619262
0.000632427
0.000644977
0.000655415
0.000662741
0.000666317
0.000666012
0.000662096
0.000654859
0.000644716
0.000999825
0.000985821
0.000971853
0.000956864
0.000940327
0.00092172
0.000900559
0.000876389
0.000848833
0.000817719
0.000783344
0.000746766
0.000710021
0.000675508
0.000645729
0.000622569
0.000606912
0.000598742
0.000597595
0.000602354
0.000611476
0.000622977
0.000634834
0.000645359
0.000653374
0.000658105
0.00065921
0.000656801
0.000651219
0.000642702
0.00102258
0.00100945
0.00099599
0.000981711
0.000966132
0.000948805
0.00092927
0.000907051
0.000881693
0.000852851
0.000820462
0.000785064
0.000748009
0.000711076
0.000676681
0.000647213
0.000624461
0.000609289
0.000601852
0.000601466
0.0006066
0.000615449
0.00062584
0.000635878
0.000644163
0.000649748
0.000652107
0.000651113
0.000647083
0.000640195
0.00104256
0.00103019
0.0010175
0.0010041
0.000989637
0.000973992
0.000956569
0.000936668
0.000913679
0.000887155
0.000856816
0.00082337
0.000787439
0.000750141
0.000713387
0.000679433
0.00065047
0.000628166
0.000613525
0.000606612
0.000606493
0.000611299
0.000619082
0.000627766
0.000635698
0.000641685
0.000645001
0.00064526
0.000642661
0.000637384
0.00106076
0.00104921
0.00103736
0.00102493
0.00101213
0.000998419
0.000983083
0.000965496
0.000945039
0.000921175
0.000893626
0.00086293
0.000829341
0.000793413
0.00075643
0.000720151
0.000686601
0.000657844
0.000635692
0.000621129
0.000614036
0.000613233
0.000616801
0.00062275
0.000629241
0.000634866
0.0006386
0.000639807
0.000638428
0.000634647
0.00107826
0.00106779
0.00105705
0.00104592
0.00103436
0.00102214
0.00100887
0.000994032
0.000977026
0.000957222
0.000934062
0.000907469
0.000877535
0.000844661
0.000809513
0.0007732
0.000737188
0.000703435
0.000674271
0.000651429
0.000635774
0.000627078
0.000624133
0.000625204
0.000628405
0.000632092
0.000635052
0.000636402
0.00063573
0.000633084
0.00109851
0.0010899
0.00108105
0.00107197
0.00106267
0.00105307
0.00104294
0.00103189
0.00101934
0.0010046
0.00098694
0.000965866
0.000941154
0.000913037
0.000881956
0.000848118
0.000812137
0.000775742
0.000741202
0.000710593
0.000685532
0.000666828
0.00065432
0.000647081
0.000643679
0.000642535
0.000642264
0.000641754
0.000640278
0.000637773
0.00113254
0.00112706
0.00112127
0.00111558
0.00111026
0.00110536
0.00110069
0.0010958
0.00108995
0.00108232
0.00107204
0.00105842
0.00104102
0.00101988
0.000995477
0.000967109
0.000934267
0.000898778
0.000862307
0.000826835
0.000794121
0.000765507
0.000741733
0.000722993
0.000708793
0.000698075
0.000689796
0.000682998
0.000676872
0.000671696
0.0012224
0.001221
0.00121978
0.00122032
0.00122308
0.00122735
0.00123229
0.00123699
0.00124058
0.00124192
0.0012404
0.00123559
0.00122713
0.00121532
0.00120024
0.00118089
0.00115556
0.00112652
0.00109514
0.00106284
0.00103089
0.00100024
0.000971824
0.000946372
0.000923843
0.000902908
0.000883803
0.000866698
0.000851618
0.000839605
0.00153906
0.00153627
0.00153869
0.00154745
0.00155819
0.00156672
0.00157357
0.00157881
0.00158261
0.00158301
0.00158156
0.00157868
0.00157448
0.00156973
0.00156372
0.00155623
0.00154351
0.00153059
0.00151783
0.00150619
0.00149559
0.00148631
0.00147838
0.00147218
0.00146637
0.00145598
0.00144505
0.00143463
0.00142667
0.00141909
0.000184364
0.000188969
0.000186844
0.000182085
0.000175722
0.000168423
0.000160686
0.000152915
0.00014537
0.000138267
0.000131771
0.000126015
0.000121031
0.000116916
0.000113664
0.000111367
0.000110105
0.000110201
0.000112053
0.000115728
0.000120416
0.000124856
0.000127943
0.000128861
0.000127067
0.000121967
0.000113403
9.9959e-05
8.30366e-05
0.000397291
0.000759134
0.000847724
0.000823245
0.000759033
0.000686318
0.000617508
0.000556727
0.000504169
0.000458952
0.000420768
0.000388445
0.000361132
0.000338004
0.000319205
0.000303984
0.000292703
0.000285395
0.000283826
0.000287712
0.000297198
0.000311734
0.000329867
0.000348393
0.000363195
0.000368261
0.000361091
0.000342737
0.000313142
0.00029003
0.000313739
0.00116975
0.00133127
0.00134175
0.00128014
0.00119158
0.00109643
0.00100505
0.00092179
0.000847761
0.000783669
0.000728523
0.000681635
0.000641912
0.000609952
0.00058481
0.00056685
0.000556449
0.000554393
0.000557119
0.000564194
0.00057734
0.00059729
0.00062056
0.000640577
0.000648088
0.000635344
0.000603091
0.000548971
0.000499198
0.000472766
0.00141022
0.00161165
0.00165722
0.00161911
0.00154286
0.0014482
0.0013495
0.00125501
0.00116834
0.00109087
0.0010229
0.000964882
0.000916104
0.000877822
0.000849537
0.000831879
0.000825697
0.000828463
0.000833248
0.000838367
0.000846871
0.000862015
0.000882274
0.000902185
0.000908041
0.000890381
0.000847983
0.000777274
0.000703807
0.000651492
0.0015205
0.00172825
0.00181318
0.001813
0.00175761
0.00167566
0.00158266
0.00149083
0.00140491
0.00132417
0.00125174
0.00119009
0.00113877
0.00109998
0.00107387
0.00106229
0.00106504
0.00107661
0.00108467
0.00108888
0.0010937
0.00110351
0.00111916
0.00113635
0.00114066
0.00112017
0.0010722
0.000992429
0.000902961
0.00083364
0.00157924
0.00176577
0.00185952
0.00188482
0.00185951
0.00180204
0.00173124
0.00165038
0.00156626
0.00148777
0.00141708
0.00135892
0.00131031
0.00127551
0.00125573
0.00125437
0.00126909
0.00129111
0.00130577
0.00131085
0.00131227
0.00131732
0.00132815
0.00134391
0.00134642
0.00132483
0.00127443
0.00119096
0.00109302
0.00101217
0.00158383
0.00171725
0.00181037
0.00185844
0.00186259
0.00183593
0.00178923
0.00172862
0.00166094
0.00159468
0.00153255
0.00147783
0.00143523
0.00140797
0.00139779
0.00140962
0.00143818
0.0014704
0.00149308
0.00150053
0.00150095
0.00150306
0.00151022
0.00152322
0.00152694
0.00150561
0.00145529
0.0013723
0.00127057
0.00118064
0.00154696
0.00161977
0.00169001
0.00174621
0.00177893
0.00178981
0.00177566
0.00174108
0.00169509
0.00164471
0.00159575
0.00155252
0.00151918
0.00150203
0.00150357
0.00153014
0.00157396
0.00161877
0.00164743
0.00165919
0.0016611
0.00166281
0.00166656
0.00167696
0.00168108
0.00166349
0.00161573
0.00153637
0.00143533
0.00133883
0.00152897
0.00153852
0.00157199
0.0016145
0.00165566
0.00168644
0.00169986
0.0016957
0.00167691
0.00164808
0.00161644
0.00158781
0.00156722
0.00156246
0.00157698
0.00161889
0.00167774
0.00173509
0.00177332
0.00179061
0.00179615
0.00179721
0.00179907
0.0018072
0.00181064
0.00179733
0.00175695
0.00168413
0.00158761
0.00148541
0.00156377
0.00150484
0.00148259
0.00149412
0.00152416
0.00155986
0.00158982
0.00160841
0.00161499
0.00161085
0.00159986
0.00158851
0.00158328
0.00159294
0.00162138
0.00167872
0.00175221
0.00182
0.00186869
0.00189439
0.00190484
0.00190778
0.00190977
0.0019162
0.00191913
0.00191051
0.00187773
0.00181429
0.00172305
0.00161925
0.001624
0.0015257
0.00144741
0.00141112
0.00141376
0.00143744
0.00146953
0.00150034
0.00152486
0.00154154
0.00155173
0.00155976
0.00157195
0.00159663
0.00163985
0.00171237
0.00179987
0.00188437
0.00194469
0.00197821
0.00199335
0.00199895
0.00200148
0.00200628
0.00200903
0.00200206
0.00197491
0.00192196
0.00184033
0.00174159
0.00172166
0.00158958
0.00147328
0.00139256
0.00135202
0.00134749
0.00136508
0.00139437
0.00142638
0.00145609
0.00148248
0.00150785
0.00153739
0.00157759
0.00163583
0.00172271
0.00182341
0.00191906
0.00199176
0.00203924
0.00206381
0.00207421
0.00207787
0.00207989
0.00207799
0.00206972
0.0020501
0.00200761
0.00193857
0.00184864
0.00185128
0.00170379
0.00156056
0.00144337
0.0013618
0.00131734
0.00130445
0.0013164
0.00134168
0.00137352
0.00140775
0.00144433
0.00148626
0.0015408
0.00161327
0.00171306
0.00182537
0.00193183
0.00201629
0.0020743
0.00210889
0.00212725
0.00213535
0.00213824
0.00213549
0.00212505
0.00210588
0.00207386
0.00201708
0.0019396
0.00202198
0.00186873
0.00171291
0.00156993
0.00145262
0.00136633
0.0013139
0.00129278
0.00129552
0.00131562
0.0013461
0.00138455
0.00143197
0.00149299
0.0015773
0.00168762
0.00180934
0.00192533
0.00202058
0.0020896
0.00213527
0.00216207
0.00217607
0.00218205
0.00218047
0.0021714
0.00215283
0.00212461
0.00208153
0.00201943
0.00222547
0.0020803
0.00192439
0.00176774
0.00162333
0.00150046
0.00140666
0.00134465
0.00131247
0.00130579
0.00131823
0.00134626
0.00138936
0.00144922
0.00153513
0.00165195
0.00177981
0.00190307
0.00200738
0.00208749
0.00214381
0.00217982
0.00220105
0.00221213
0.00221393
0.00220794
0.00219313
0.00217095
0.00213823
0.00208886
0.00245953
0.00232987
0.00218153
0.00202085
0.00186114
0.00171229
0.00158333
0.00148073
0.00140734
0.00136298
0.00134467
0.0013492
0.00137473
0.0014235
0.00150041
0.00161368
0.00174249
0.00186945
0.00198031
0.0020701
0.00213647
0.00218207
0.00221165
0.0022297
0.00223753
0.00223741
0.00222949
0.00221211
0.00218496
0.00214609
0.00271467
0.00260316
0.00246707
0.00231164
0.00214799
0.00198488
0.00183108
0.0016947
0.00158184
0.00149612
0.00143854
0.00140875
0.00140529
0.00142985
0.00148721
0.00158273
0.00170432
0.00183
0.0019441
0.00204083
0.0021163
0.00217149
0.00221035
0.00223752
0.00225437
0.00226122
0.00225796
0.00224432
0.00222047
0.00218917
0.00298101
0.00288717
0.00276754
0.00262385
0.00246465
0.00229746
0.00212968
0.00196941
0.00182422
0.00170031
0.00160186
0.00153168
0.00149043
0.00148041
0.00150673
0.00157488
0.00167532
0.00179117
0.00190443
0.0020049
0.00208814
0.00215263
0.00220081
0.00223621
0.0022605
0.00227413
0.00227616
0.00226808
0.00224781
0.00222035
0.00324695
0.00317143
0.00307004
0.00294188
0.00279281
0.00262902
0.00245648
0.00228231
0.00211409
0.00195914
0.00182364
0.00171288
0.00162984
0.00157865
0.00156526
0.00159638
0.0016658
0.00176191
0.00186627
0.00196525
0.00205147
0.00212259
0.00217873
0.00222216
0.00225436
0.00227602
0.00228462
0.0022828
0.00226778
0.00224498
0.00350368
0.00344549
0.00336218
0.0032509
0.00311509
0.00295935
0.00278865
0.0026087
0.00242621
0.0022484
0.00208225
0.0019348
0.00181107
0.00171779
0.0016595
0.00164671
0.00167864
0.00174529
0.00183285
0.00192541
0.00200898
0.00208406
0.00214644
0.00219701
0.00223707
0.00226684
0.00228439
0.00228908
0.00228133
0.0022646
0.00374377
0.00369953
0.0036316
0.00353579
0.00341365
0.00326797
0.0031027
0.00292214
0.00273172
0.00253782
0.00234755
0.00216903
0.00200903
0.00187651
0.00177534
0.00171629
0.00170417
0.00173742
0.0018012
0.00187816
0.00195735
0.00203732
0.0021041
0.00216095
0.00220882
0.00224734
0.00227498
0.00228807
0.00228921
0.00228024
0.00395718
0.00392087
0.00386306
0.00377882
0.00366803
0.00353166
0.00337217
0.00319258
0.002997
0.00279105
0.00258193
0.00237846
0.00218876
0.00202275
0.00188474
0.00178402
0.0017287
0.00172142
0.00175708
0.00182048
0.00189706
0.0019712
0.00204339
0.00210856
0.00216632
0.0022157
0.00225343
0.00227792
0.0022894
0.00229112
0.00412493
0.0040886
0.00403414
0.003956
0.00385215
0.00372152
0.003565
0.00338448
0.00318334
0.00296733
0.00274431
0.00252357
0.0023139
0.00212479
0.00196194
0.00182945
0.00173409
0.00168502
0.00168433
0.00172459
0.00179457
0.00187328
0.00195548
0.00202954
0.00209759
0.00215868
0.00221123
0.00225109
0.00228009
0.0022984
0.00421434
0.00417084
0.00411311
0.00403524
0.00393292
0.0038026
0.00364456
0.00346034
0.00325407
0.00303301
0.00280608
0.00258192
0.00236849
0.00217277
0.00200239
0.00185299
0.00172685
0.00163847
0.00159402
0.00159545
0.00163898
0.00171134
0.00180041
0.00189021
0.00197657
0.00205675
0.00212858
0.00218929
0.0022404
0.00228233
0.00418068
0.00412487
0.00405991
0.00397953
0.00387638
0.00374706
0.00359014
0.00340773
0.00320665
0.00299641
0.00278544
0.00258136
0.00238839
0.00220981
0.0020519
0.00190569
0.00176509
0.00164649
0.00155749
0.00150539
0.00149507
0.00152536
0.00158922
0.00167458
0.0017718
0.00187269
0.00197055
0.00206033
0.00214042
0.00221261
0.00397232
0.00391183
0.00384788
0.0037735
0.00368154
0.00356693
0.00342903
0.00327236
0.00310537
0.00293619
0.00276938
0.00261015
0.002458
0.0023163
0.00218817
0.00206268
0.00192918
0.00180039
0.00168255
0.00158364
0.00151099
0.0014703
0.00146451
0.00149267
0.001551
0.00163305
0.00173019
0.00183377
0.00193689
0.00203876
0.00360261
0.00356237
0.00352596
0.00348506
0.00343181
0.00336098
0.00327288
0.00317265
0.00306664
0.00295923
0.00285232
0.00274572
0.00263728
0.00253349
0.00243879
0.00234125
0.00222897
0.00211132
0.00199234
0.00187792
0.00177331
0.00168324
0.00161274
0.0015662
0.00154633
0.00155386
0.00158712
0.00164209
0.00171355
0.00180478
0.00328196
0.00329253
0.00331094
0.0033206
0.00331591
0.00329442
0.00325745
0.00320949
0.0031527
0.00309081
0.00302463
0.00295363
0.00287717
0.00280082
0.00273053
0.00265724
0.00257258
0.00248219
0.0023876
0.00229293
0.00220151
0.00211437
0.00203363
0.00196298
0.00190427
0.00185941
0.00183047
0.00181799
0.00182246
0.00186162
0.00318657
0.00321048
0.00324676
0.00328188
0.0033026
0.00330808
0.00329712
0.00327186
0.00323609
0.00319376
0.00314648
0.0030931
0.003035
0.00297833
0.00292436
0.00286778
0.00280925
0.00274864
0.00268927
0.00263335
0.00258406
0.0025388
0.00249881
0.00246637
0.00243756
0.00241175
0.0023908
0.00237593
0.00236863
0.00238889
0.00319314
0.00321983
0.00324838
0.00327397
0.00328468
0.00328384
0.00327272
0.00325296
0.00322633
0.0031943
0.00315889
0.00311973
0.00307658
0.00303599
0.00299499
0.00295702
0.00292319
0.00289181
0.00286652
0.00284925
0.00284026
0.002843
0.00285388
0.00286728
0.00288318
0.00289793
0.00291395
0.00293206
0.00294891
0.00295754
0.000218218
0.000222116
0.000216922
0.000209747
0.000201446
0.000192339
0.000182861
0.000173447
0.000164391
0.000155959
0.000148295
0.000141535
0.000135712
0.000130981
0.000127365
0.000125073
0.000124319
0.000125891
0.000130795
0.000138737
0.000147422
0.000154568
0.000158986
0.00016019
0.000157961
0.000151827
0.000141545
0.000125805
0.000107324
9.29354e-05
0.000984524
0.001103
0.00109634
0.00103282
0.000944494
0.000855965
0.000775889
0.000706335
0.000646154
0.000594801
0.000550631
0.000513268
0.000481111
0.000454826
0.000432479
0.000415027
0.000402472
0.000400054
0.000409014
0.000430544
0.000462037
0.000497569
0.000529845
0.00055178
0.000555712
0.000535981
0.000497562
0.000443535
0.000397084
0.00034955
0.00155298
0.00178334
0.00182869
0.00176966
0.00166538
0.00154546
0.0014266
0.00131694
0.0012183
0.00113202
0.00105675
0.000992536
0.000937637
0.000893754
0.000858557
0.000832971
0.00081699
0.000812375
0.000815812
0.000832777
0.000866063
0.000910714
0.000956106
0.000990046
0.000992702
0.000960895
0.000896113
0.000799474
0.000702681
0.00062199
0.00195727
0.0022212
0.00230156
0.00226569
0.00217222
0.00205035
0.00192112
0.00179572
0.00167821
0.00157284
0.0014799
0.00140027
0.00133327
0.00128178
0.00124416
0.00122218
0.00121398
0.00121278
0.00121207
0.00122267
0.00124745
0.00128752
0.00133437
0.0013736
0.00137876
0.00134064
0.00125907
0.00113544
0.00100154
0.000890433
0.00222638
0.0024948
0.00259227
0.00258069
0.00250421
0.00239179
0.00226843
0.00214339
0.00201968
0.00190742
0.00180789
0.00172202
0.00165142
0.00159995
0.00156754
0.00155724
0.0015616
0.00156588
0.00155845
0.00156019
0.00158003
0.00161259
0.00165564
0.00169691
0.00170724
0.00166922
0.00158177
0.00144437
0.00128771
0.00115084
0.00241526
0.00264501
0.00275033
0.00276162
0.00271105
0.00262239
0.00250471
0.0023806
0.00225648
0.00214835
0.00205206
0.00196687
0.00189937
0.00185453
0.00183321
0.00184014
0.00185938
0.00186839
0.00185752
0.00184944
0.00186044
0.00188637
0.00192425
0.00196595
0.00198211
0.00195225
0.00186622
0.00172621
0.00155762
0.00140098
0.0025427
0.0027251
0.00281257
0.00283032
0.00279764
0.00272934
0.00263483
0.00252991
0.00242741
0.0023219
0.00222542
0.00214417
0.00208594
0.0020533
0.00204795
0.00207587
0.00211065
0.00212347
0.00211052
0.00209454
0.00209532
0.0021145
0.0021471
0.00218785
0.00220932
0.00218939
0.00211698
0.00198222
0.00181146
0.00163941
0.00264251
0.00273708
0.00278959
0.00280683
0.00279202
0.00274674
0.00267754
0.0025956
0.00250953
0.00242089
0.00233782
0.00227043
0.00222098
0.00220321
0.00221767
0.00226828
0.0023198
0.00233622
0.00232114
0.0022982
0.00229125
0.00230383
0.00233135
0.00236994
0.00239431
0.00238619
0.00233159
0.00221442
0.00204936
0.00186448
0.0026874
0.00269201
0.00270655
0.00271595
0.00271203
0.00268989
0.0026475
0.00259369
0.00253007
0.00246197
0.00239684
0.00234438
0.00231133
0.00231154
0.00234796
0.00242138
0.00248498
0.00250897
0.00249268
0.00246529
0.00245547
0.0024612
0.00248372
0.00251894
0.00254578
0.00255023
0.0025099
0.00241285
0.00225848
0.00207273
0.00270594
0.00264894
0.00262108
0.00260884
0.00260283
0.00259259
0.00257215
0.00254055
0.00249975
0.00245537
0.00241108
0.00237749
0.00236377
0.00238402
0.00244384
0.00253901
0.00261548
0.00264052
0.00262587
0.00260243
0.0025911
0.00259215
0.00261029
0.00264034
0.00266448
0.00267432
0.00264825
0.00257266
0.00244149
0.00226774
0.00275206
0.00264848
0.0025655
0.00251961
0.00249572
0.00248343
0.00247302
0.00245893
0.00243847
0.00241423
0.00239007
0.00237785
0.00238559
0.00242567
0.00250954
0.00262543
0.00271145
0.00274273
0.00273373
0.00271524
0.00270151
0.00270248
0.00271722
0.00273847
0.00275638
0.00276399
0.00275131
0.00269773
0.00259152
0.00243959
0.00284437
0.00272081
0.00259043
0.00248206
0.00242539
0.0023915
0.0023781
0.00237085
0.00236396
0.00235646
0.00235032
0.00235523
0.0023831
0.00244332
0.00254973
0.00268335
0.00278505
0.00282364
0.00282237
0.00281107
0.00280102
0.00279812
0.00280743
0.00282293
0.00283692
0.0028425
0.00283319
0.00279683
0.00271851
0.00259295
0.00295262
0.00281089
0.0026568
0.00252596
0.00242175
0.00234605
0.00231677
0.00230365
0.00229898
0.0023003
0.00230693
0.00232515
0.00236608
0.00244452
0.00257002
0.00271787
0.00282779
0.00287956
0.00289307
0.00288722
0.00287923
0.00287717
0.00288348
0.00289521
0.00290727
0.00291254
0.00290727
0.00288454
0.00282855
0.0027281
0.00310459
0.00295007
0.00277512
0.00261471
0.00248147
0.00238616
0.00232198
0.00228549
0.00226821
0.00226751
0.00227754
0.00230211
0.0023498
0.00243826
0.00257728
0.00273454
0.00285093
0.00291388
0.0029397
0.00294403
0.00294283
0.00294249
0.00294776
0.00295773
0.00296937
0.0029773
0.00297778
0.00296207
0.00292198
0.00284063
0.00329721
0.00314375
0.00297126
0.00279471
0.00263374
0.00250191
0.0024027
0.00233431
0.00229447
0.00227997
0.00228102
0.00230168
0.00234772
0.00243502
0.00257916
0.00273971
0.00286073
0.00293373
0.00297074
0.00298701
0.00299274
0.00299579
0.00300228
0.00301281
0.00302607
0.00303936
0.00304478
0.00303322
0.00300157
0.0029353
0.0035456
0.00340281
0.00323356
0.00305021
0.00287024
0.00270799
0.00257272
0.0024683
0.0023953
0.00235174
0.00233233
0.00233689
0.00237147
0.00244949
0.00258235
0.00273936
0.00286149
0.00294234
0.00298959
0.00301696
0.00303037
0.00303857
0.00304879
0.00306279
0.00308034
0.00309675
0.00310593
0.00309859
0.00307133
0.00301672
0.00383608
0.00370514
0.0035454
0.00336349
0.00317389
0.00299008
0.00282362
0.00268246
0.00257096
0.00249024
0.00243864
0.00241641
0.0024265
0.00248369
0.00259346
0.00273717
0.00285693
0.00294232
0.00299809
0.00303513
0.00305671
0.00307181
0.00308791
0.00310706
0.00312778
0.00314759
0.00316113
0.00315816
0.00313449
0.00308838
0.00414751
0.00403234
0.00388572
0.00371066
0.00351889
0.00332224
0.00313235
0.00295903
0.00280934
0.00268761
0.00259565
0.00253579
0.00251211
0.00253481
0.00261347
0.0027319
0.00284546
0.00293207
0.00299507
0.00304033
0.00307005
0.00309239
0.0031145
0.00314039
0.00316606
0.00319055
0.00320988
0.00321118
0.00319198
0.0031525
0.0044671
0.00436599
0.00423223
0.004066
0.00387646
0.00367351
0.00346764
0.00326876
0.00308509
0.00292287
0.00278678
0.00268175
0.00261408
0.00259422
0.00263068
0.00271629
0.00281222
0.00290099
0.0029717
0.00302506
0.00306356
0.00309517
0.00312521
0.00315809
0.00319227
0.00322261
0.00324804
0.00325561
0.0032422
0.00320942
0.00477636
0.00468537
0.00456171
0.00440356
0.00421783
0.00401228
0.00379577
0.00357714
0.00336448
0.00316481
0.0029848
0.00283174
0.00271429
0.00264441
0.00263135
0.00267569
0.00274966
0.00283221
0.00290793
0.0029741
0.0030238
0.00306999
0.00311123
0.00315283
0.00319777
0.00323724
0.00327078
0.003287
0.00328219
0.00325818
0.00505451
0.00496788
0.00484973
0.00469705
0.0045145
0.00430757
0.00408312
0.00384838
0.00361066
0.0033774
0.00315695
0.00295852
0.00279267
0.00267165
0.00260678
0.00259974
0.00263979
0.00270728
0.00278553
0.00286344
0.00293475
0.00299434
0.00305059
0.00310788
0.00316589
0.00322085
0.00327011
0.0033007
0.00330702
0.00329779
0.00527576
0.00518697
0.00506919
0.00491849
0.00473721
0.0045284
0.0042968
0.00404795
0.00378865
0.00352731
0.0032745
0.00304099
0.00283822
0.00267665
0.00256758
0.0025091
0.00250056
0.00253363
0.00259579
0.00267467
0.00275885
0.00284
0.00291922
0.00299827
0.00307662
0.0031525
0.00321899
0.00327271
0.00330546
0.00332012
0.00540639
0.00531035
0.00518906
0.00503759
0.00485592
0.00464476
0.00440733
0.00414793
0.0038739
0.00359604
0.00332761
0.00308017
0.00286387
0.00268522
0.00255245
0.00245883
0.00240228
0.00238354
0.00239968
0.00244631
0.00251612
0.00260052
0.00269509
0.00279687
0.00290199
0.00300628
0.00310315
0.00318701
0.00324877
0.00329477
0.00540697
0.00530252
0.0051771
0.00502528
0.00484493
0.00463506
0.00439917
0.00414057
0.00386846
0.00359717
0.00334144
0.00311101
0.00291175
0.00274523
0.00261468
0.00251165
0.00242436
0.00235703
0.00231274
0.0022964
0.00231063
0.00235446
0.00242626
0.00252286
0.00263818
0.0027642
0.00289113
0.00301001
0.00311075
0.00319137
0.00524382
0.00513564
0.00501255
0.00486886
0.00470109
0.00450693
0.00428922
0.00405487
0.00381575
0.00358524
0.00337589
0.00319147
0.00303342
0.00289929
0.00278814
0.00269525
0.00259775
0.0025018
0.00241121
0.00233397
0.00227817
0.00224961
0.0022534
0.00229339
0.0023694
0.00247594
0.00260248
0.00273685
0.00286569
0.00298009
0.00491963
0.00481867
0.00471351
0.00460025
0.00447028
0.00432027
0.00415291
0.00397606
0.00380059
0.00363605
0.00348856
0.00335838
0.00324535
0.00314582
0.00305733
0.00297754
0.00288186
0.00277802
0.00266863
0.00256016
0.00245979
0.00237308
0.0023065
0.00226812
0.0022648
0.00229921
0.00236749
0.00246137
0.00256988
0.00268697
0.00451557
0.0044489
0.00439773
0.00434892
0.00428365
0.00419993
0.00410007
0.00399093
0.00388092
0.00377618
0.00367932
0.00358926
0.00350641
0.00342764
0.00335281
0.00327755
0.00318564
0.00308648
0.00298234
0.0028767