/*--------------------------------*- C++ -*----------------------------------*\
  =========                 |
  \\      /  F ield         | OpenFOAM: The Open Source CFD Toolbox
   \\    /   O peration     | Website:  https://openfoam.org
    \\  /    A nd           | Version:  12
     \\/     M anipulation  |
\*---------------------------------------------------------------------------*/
FoamFile
{
    format      ascii;
    class       volScalarField;
    location    "1450/air";
    object      epsilon;
}
// * * * * * * * * * * * * * * * * * * * * * * * * * * * * * * * * * * * * * //

dimensions      [0 2 -3 0 0 0 0];

internalField   nonuniform List<scalar> 
243000
(
2.38101
2.92415
3.32588
3.64003
3.85381
3.96741
3.99097
3.93873
3.82509
3.66394
3.46828
3.25586
3.03784
2.82246
2.61172
2.40905
2.21793
2.05047
1.9185
1.8281
1.76764
1.70897
1.61853
1.47055
1.26166
1.00511
0.777875
0.153775
0.129653
0.0993701
1.47255
1.76223
1.92082
1.99025
2.00217
1.97259
1.91257
1.83101
1.7346
1.62896
1.51884
1.40932
1.3029
1.20282
1.11056
1.02821
0.958015
0.906138
0.877294
0.873457
0.887454
0.90407
0.903591
0.869351
0.793182
0.677307
0.540544
0.393958
0.277238
0.170908
1.42608
1.72801
1.84754
1.86847
1.82826
1.75037
1.65033
1.53918
1.42425
1.31072
1.20195
1.10095
1.00857
0.926634
0.855784
0.797282
0.75288
0.72738
0.723835
0.742825
0.778624
0.819499
0.849199
0.852393
0.817195
0.739218
0.628521
0.492083
0.363262
0.234705
1.34125
1.71736
1.91916
1.99485
1.98716
1.92779
1.83624
1.72667
1.60914
1.49014
1.37415
1.26509
1.16472
1.07567
0.999358
0.937939
0.894204
0.873964
0.879794
0.910866
0.959575
1.01259
1.05248
1.06305
1.0306
0.948518
0.8255
0.667803
0.509524
0.347906
1.1365
1.54152
1.80694
1.94642
1.99207
1.97184
1.90813
1.8173
1.71322
1.60175
1.48946
1.38142
1.28061
1.19078
1.11422
1.05438
1.01506
1.00284
1.01924
1.0618
1.1211
1.18283
1.22937
1.24483
1.21524
1.13266
1.00384
0.835195
0.657824
0.473676
0.921759
1.26727
1.56751
1.76612
1.87236
1.90504
1.88422
1.82724
1.74572
1.65092
1.55202
1.4529
1.35822
1.27304
1.20057
1.14602
1.11399
1.1116
1.139
1.19218
1.26018
1.3281
1.37877
1.39726
1.37029
1.28949
1.15975
0.987694
0.800006
0.602168
0.834309
1.03899
1.29492
1.51208
1.66805
1.75362
1.78096
1.76476
1.71675
1.64927
1.56862
1.48372
1.4006
1.32444
1.25972
1.21332
1.1907
1.19894
1.23725
1.30007
1.37521
1.44756
1.50069
1.52098
1.49639
1.41871
1.29154
1.1214
0.930711
0.726294
0.856149
0.921095
1.09243
1.28548
1.44945
1.56106
1.62619
1.64966
1.63789
1.60066
1.54523
1.48026
1.41192
1.34787
1.29371
1.25746
1.24551
1.26459
1.31325
1.38465
1.46571
1.54134
1.59601
1.61741
1.59506
1.52135
1.39909
1.23458
1.04697
0.841364
0.963064
0.906091
0.971272
1.10709
1.25602
1.37889
1.46406
1.51091
1.5268
1.51866
1.48966
1.44679
1.39645
1.34709
1.30511
1.28016
1.27932
1.30884
1.367
1.44594
1.53198
1.61021
1.66605
1.68842
1.66837
1.59922
1.4835
1.32755
1.14671
0.944369
1.14147
1.00021
0.950425
0.998459
1.10198
1.21469
1.30873
1.37327
1.40871
1.41935
1.41233
1.39074
1.35921
1.32545
1.2967
1.28351
1.2934
1.33249
1.39907
1.48448
1.57478
1.65529
1.71242
1.73604
1.71862
1.65459
1.54701
1.40039
1.22857
1.03338
1.35291
1.1753
1.03953
0.985371
1.01294
1.08643
1.17019
1.24141
1.29122
1.31852
1.32675
1.32071
1.3059
1.28734
1.2717
1.26985
1.28967
1.33747
1.41087
1.50111
1.59482
1.67772
1.73678
1.76239
1.74822
1.69015
1.59022
1.45371
1.2926
1.10835
1.58913
1.41314
1.22498
1.08435
1.01815
1.02206
1.06825
1.12744
1.18068
1.21902
1.24048
1.24686
1.24335
1.23746
1.23368
1.242
1.27039
1.32512
1.40458
1.50014
1.59722
1.68213
1.7428
1.77012
1.75901
1.70667
1.61506
1.48913
1.33955
1.16773
1.84681
1.66781
1.46548
1.27705
1.13155
1.05046
1.03117
1.0524
1.09053
1.12854
1.15729
1.17363
1.17946
1.18138
1.18666
1.20316
1.23825
1.29796
1.38113
1.47962
1.5795
1.66706
1.73041
1.76083
1.75305
1.7059
1.62294
1.50823
1.3705
1.2119
2.12461
1.94296
1.74843
1.53744
1.34132
1.18466
1.08574
1.04356
1.04197
1.06122
1.08554
1.10543
1.11779
1.12532
1.13526
1.157
1.19637
1.25883
1.34363
1.44342
1.54499
1.63495
1.70153
1.73612
1.73312
1.69216
1.6171
1.51269
1.38708
1.24209
2.42152
2.23766
2.04563
1.83125
1.61414
1.40954
1.24032
1.1233
1.05961
1.03724
1.03922
1.05088
1.06304
1.07325
1.08489
1.10774
1.1483
1.21093
1.2951
1.39438
1.49642
1.58821
1.65815
1.69761
1.70058
1.6671
1.60038
1.50576
1.39129
1.25979
2.73605
2.54972
2.35662
2.14511
1.92261
1.69534
1.47939
1.29605
1.16119
1.07783
1.03681
1.02325
1.02365
1.02988
1.04025
1.06021
1.09815
1.15793
1.23898
1.33562
1.43655
1.52927
1.60237
1.64701
1.65693
1.63163
1.57433
1.49002
1.38714
1.26931
3.06519
2.87564
2.68058
2.47451
2.25066
2.01485
1.77455
1.54552
1.3476
1.19631
1.09572
1.03853
1.01172
1.00306
1.00583
1.02015
1.05111
1.10422
1.17918
1.27072
1.3686
1.46101
1.53665
1.58651
1.60404
1.5877
1.54283
1.47164
1.3811
1.27586
3.40488
3.21128
3.01365
2.80696
2.58633
2.34988
2.10008
1.8458
1.60307
1.39142
1.22591
1.11114
1.04087
1.00359
0.988831
0.991744
1.01301
1.05589
1.12091
1.20423
1.29676
1.38743
1.46517
1.52075
1.54751
1.54248
1.50954
1.45097
1.37247
1.27904
3.75012
3.55215
3.35202
3.14591
2.9286
2.69367
2.44099
2.17471
1.90507
1.64883
1.42514
1.24845
1.12295
1.04308
0.998591
0.981408
0.987783
1.01768
1.07088
1.14416
1.2297
1.31712
1.39553
1.45554
1.49027
1.49568
1.47396
1.42748
1.36069
1.27841
4.09621
3.89416
3.69273
3.49254
3.27718
3.04342
2.78995
2.51824
2.23406
1.94919
1.68101
1.44817
1.26386
1.13134
1.04512
0.997331
0.981257
0.993366
1.03156
1.09233
1.16866
1.2508
1.32809
1.39095
1.43222
1.44711
1.43591
1.40094
1.34544
1.274
4.43886
4.23441
4.0371
3.83883
3.62572
3.39381
3.14112
2.8677
2.57658
2.2753
1.97723
1.70015
1.46199
1.27355
1.137
1.04836
1.00081
0.988483
1.00693
1.05159
1.11568
1.18996
1.26386
1.32766
1.37379
1.39693
1.39543
1.37113
1.32665
1.26583
4.77456
4.57628
4.38463
4.18508
3.97217
3.74152
3.49044
3.21785
2.92486
2.61584
2.30004
1.99204
1.7103
1.46966
1.27974
1.14273
1.05492
1.01007
1.00264
1.02629
1.07419
1.13714
1.20476
1.26707
1.31603
1.34569
1.35304
1.33854
1.30479
1.25423
5.10932
4.91473
4.72064
4.5205
4.30894
4.08178
3.83553
3.56783
3.27795
2.96779
2.64319
2.31561
2.00188
1.71744
1.47669
1.28802
1.15285
1.06737
1.02628
1.02302
1.04924
1.09645
1.15404
1.21171
1.26084
1.29484
1.30968
1.30409
1.28022
1.23983
5.41605
5.22508
5.03403
4.83778
4.63279
4.41823
4.18649
3.93166
3.65039
3.3429
3.01267
2.67278
2.33709
2.01879
1.73361
1.49406
1.30701
1.17326
1.08995
1.05139
1.04975
1.07487
1.11709
1.16574
1.21154
1.24703
1.26721
1.26925
1.25427
1.22379
5.70554
5.52064
5.33525
5.14663
4.95774
4.76022
4.54543
4.30704
4.04036
3.74347
3.41808
3.07756
2.73141
2.39036
2.0693
1.78254
1.54109
1.3515
1.21588
1.13136
1.09121
1.08614
1.10524
1.1381
1.17489
1.20754
1.22974
1.23734
1.22975
1.2083
5.99298
5.81946
5.64509
5.46868
5.28977
5.10524
4.9099
4.69756
4.46185
4.19748
3.90145
3.57813
3.23554
2.88463
2.53769
2.20873
1.91089
1.65639
1.45492
1.3086
1.2139
1.16316
1.14617
1.1521
1.17036
1.19176
1.2093
1.21766
1.21431
1.19958
6.3369
6.1883
6.03794
5.88665
5.73462
5.58082
5.42182
5.2521
5.06381
4.8485
4.59862
4.31116
3.98896
3.6416
3.28097
2.91544
2.55683
2.22451
1.93637
1.70238
1.52525
1.40135
1.32246
1.27839
1.2583
1.25198
1.25097
1.2486
1.24056
1.22653
6.94156
6.84005
6.73412
6.6311
6.53591
6.44935
6.36774
6.28333
6.18359
6.05504
5.88494
5.66398
5.38926
5.06699
4.71044
4.31685
3.8887
3.45826
3.04971
2.68412
2.37384
2.12295
1.92872
1.78463
1.68079
1.60559
1.54945
1.50462
1.4651
1.43234
8.70924
8.67703
8.64911
8.65891
8.7159
8.80584
8.91083
9.01142
9.08858
9.11687
9.08226
8.97587
8.79149
8.53805
8.22171
7.82741
7.3306
6.78702
6.22992
5.68889
5.18528
4.73126
4.33499
4.00001
3.71883
3.47048
3.25441
3.06927
2.91236
2.79141
17.2164
17.1211
17.2028
17.4986
17.8638
18.1566
18.3928
18.5743
18.7057
18.7174
18.6634
18.5586
18.4081
18.2391
18.0271
17.7662
17.3307
16.8946
16.4698
16.0874
15.7433
15.4458
15.1944
14.9992
14.8169
14.501
14.1749
13.8697
13.6401
13.4222
4.65989
5.8419
6.55017
6.99942
7.2215
7.24846
7.11678
6.86927
6.53985
6.1611
5.76266
5.37042
4.99449
4.65177
4.34608
4.08901
3.88864
3.77604
3.78495
3.91622
4.08481
4.15988
4.03926
3.68411
3.12364
2.42262
1.69516
1.00705
0.135151
0.51801
3.02045
3.41835
3.64221
3.76938
3.79836
3.73832
3.60565
3.42351
3.21178
2.98588
2.76052
2.5481
2.35545
2.18867
2.05345
1.95656
1.90818
1.92906
2.04557
2.25713
2.5011
2.68124
2.72139
2.59668
2.32632
1.94126
1.49953
1.03401
0.640139
0.389037
2.70619
2.97155
3.09424
3.14243
3.12527
3.05102
2.92907
2.77293
2.59616
2.41098
2.22825
2.05687
1.90261
1.77126
1.66822
1.60268
1.5851
1.63565
1.77652
2.00598
2.26845
2.47912
2.56835
2.51184
2.31615
2.01041
1.63905
1.22658
0.864048
0.555583
2.51492
2.70285
2.78682
2.81272
2.78904
2.72215
2.61848
2.48701
2.33789
2.18128
2.02621
1.88016
1.74848
1.63723
1.5522
1.50433
1.50477
1.57303
1.72511
1.95634
2.21828
2.4373
2.54936
2.52633
2.37505
2.11464
1.78523
1.40296
1.05177
0.729749
2.32681
2.44113
2.5021
2.52535
2.5116
2.46238
2.38207
2.27691
2.15489
2.02458
1.89403
1.77026
1.65847
1.565
1.49632
1.46446
1.4818
1.56567
1.72945
1.96121
2.21608
2.43165
2.55082
2.54778
2.42538
2.19932
1.90308
1.5487
1.21217
0.891332
2.1106
2.15743
2.19982
2.2284
2.23347
2.20923
2.15644
2.07925
1.98468
1.88021
1.7735
1.67145
1.5792
1.50342
1.45102
1.43535
1.46926
1.56857
1.74018
1.97022
2.21693
2.42416
2.54333
2.54868
2.44868
2.252
1.986
1.66155
1.34334
1.03341
1.85356
1.84065
1.87382
1.91399
1.94117
1.94584
1.92393
1.87704
1.81046
1.73188
1.64896
1.56846
1.49579
1.43782
1.40194
1.40256
1.45272
1.56766
1.74558
1.97276
2.2087
2.40442
2.51901
2.53077
2.44391
2.27266
2.03518
1.7417
1.44617
1.15406
1.62617
1.54099
1.55436
1.59939
1.64574
1.67828
1.68643
1.66917
1.62999
1.57577
1.51648
1.45774
1.4046
1.36422
1.34482
1.36133
1.4269
1.55405
1.73934
1.96217
2.18601
2.36825
2.47776
2.49351
2.41863
2.26619
2.05495
1.7923
1.52129
1.24981
1.48572
1.34538
1.31666
1.34635
1.3956
1.44001
1.46519
1.46739
1.45009
1.41923
1.38122
1.34192
1.30661
1.28281
1.27913
1.31055
1.39016
1.52747
1.71593
1.93378
2.14509
2.31676
2.4206
2.43935
2.37633
2.24097
2.05059
1.81764
1.57172
1.32175
1.45515
1.25705
1.17101
1.16276
1.19522
1.23911
1.2741
1.29097
1.28921
1.27166
1.24866
1.22464
1.20468
1.19579
1.20598
1.25068
1.34211
1.48744
1.67682
1.88793
2.08876
2.25046
2.34913
2.37074
2.31836
2.19958
2.02997
1.82129
1.60041
1.37197
1.49008
1.27214
1.12806
1.06077
1.05693
1.08233
1.11465
1.13863
1.14836
1.14321
1.12864
1.11261
1.10348
1.10628
1.12767
1.18321
1.28362
1.43409
1.62246
1.82645
2.01776
2.17045
2.26506
2.28998
2.24786
2.14583
1.99577
1.80989
1.611
1.40341
1.58021
1.34925
1.17149
1.05749
0.999508
0.986842
0.997875
1.01633
1.02975
1.03272
1.02614
1.01473
1.00908
1.0185
1.0474
1.11041
1.21635
1.36846
1.5536
1.75038
1.9329
2.07812
2.17005
2.1991
2.16711
2.08102
1.95007
1.78643
1.60705
1.41924
1.72245
1.48247
1.28712
1.13969
1.0362
0.973238
0.945336
0.939761
0.943173
0.94545
0.942266
0.934369
0.929059
0.938061
0.969382
1.03536
1.14265
1.29265
1.47209
1.66112
1.83532
1.97464
2.06544
2.09976
2.07818
2.00752
1.8955
1.75308
1.593
1.42268
1.91156
1.67253
1.47456
1.30639
1.16796
1.05691
0.979158
0.932061
0.907425
0.893666
0.884279
0.874614
0.867665
0.871543
0.898912
0.962234
1.06586
1.20958
1.38066
1.56078
1.72701
1.86166
1.95271
1.9934
1.98271
1.92745
1.8343
1.71208
1.57206
1.41979
2.14906
1.9228
1.73012
1.55047
1.38356
1.23213
1.10547
1.00867
0.941016
0.895991
0.865683
0.844011
0.829378
0.825753
0.842618
0.89649
0.990536
1.12333
1.28292
1.45241
1.61055
1.74127
1.83358
1.88155
1.88241
1.84278
1.76838
1.66714
1.54675
1.41202
2.43555
2.22659
2.04
1.85063
1.66341
1.48252
1.31595
1.17176
1.05517
0.966403
0.901716
0.854902
0.82307
0.805764
0.808443
0.845132
0.922826
1.03931
1.18361
1.34024
1.4895
1.61636
1.71051
1.76619
1.77975
1.75667
1.70183
1.62008
1.5177
1.3997
2.75945
2.56294
2.37703
2.1842
1.98667
1.78711
1.59175
1.40905
1.24712
1.11126
1.00309
0.92034
0.859652
0.81986
0.802518
0.816589
0.870729
0.964909
1.08934
1.23016
1.36905
1.49156
1.58774
1.65211
1.67991
1.67264
1.63523
1.5711
1.48555
1.3834
3.10011
2.91038
2.72976
2.53839
2.33715
2.12742
1.91343
1.70266
1.50402
1.3255
1.17278
1.04785
0.950051
0.877764
0.832857
0.8196
0.84482
0.910446
1.00989
1.13159
1.25867
1.37634
1.47393
1.5448
1.58438
1.5914
1.56941
1.52117
1.45149
1.3641
3.43422
3.2586
3.08861
2.90395
2.70445
2.49097
2.26663
2.03767
1.81252
1.59994
1.40787
1.24108
1.10191
0.990505
0.909188
0.862742
0.854685
0.887877
0.958228
1.0559
1.16681
1.27582
1.37149
1.44618
1.49471
1.51439
1.50582
1.472
1.41683
1.34312
3.76298
3.6057
3.45077
3.2778
3.0852
2.87345
2.64575
2.40764
2.16666
1.93079
1.70824
1.50507
1.32563
1.17296
1.0473
0.960822
0.912307
0.907931
0.943319
1.01075
1.09958
1.19508
1.28504
1.35999
1.41419
1.4438
1.44673
1.42547
1.38317
1.3221
4.09133
3.95711
3.82185
3.66526
3.48497
3.28124
3.05792
2.8206
2.5759
2.32988
2.08901
1.85877
1.64416
1.44918
1.27854
1.1401
1.04218
0.989791
0.982149
1.01275
1.07045
1.14438
1.22267
1.29308
1.34846
1.38389
1.39595
1.38477
1.35327
1.30348
4.43488
4.32948
4.21913
4.08473
3.92395
3.73768
3.53072
3.30914
3.07835
2.84123
2.60036
2.35782
2.11718
1.8793
1.66096
1.46285
1.29973
1.18125
1.11148
1.0888
1.10482
1.1484
1.20299
1.25939
1.30846
1.34337
1.36026
1.35598
1.33263
1.29151
4.82844
4.75778
4.67985
4.57779
4.45005
4.29916
4.13149
3.95383
3.7693
3.57557
3.36797
3.14073
2.89305
2.62446
2.35425
2.08427
1.82326
1.60101
1.43027
1.31842
1.26206
1.25023
1.26462
1.29114
1.32008
1.34371
1.35508
1.35135
1.32919
1.29324
5.33991
5.31694
5.28762
5.2395
5.17372
5.09632
5.01669
4.94233
4.87177
4.79347
4.69017
4.53944
4.33038
4.05885
3.74196
3.37752
2.96527
2.56066
2.20228
1.91742
1.71408
1.58421
1.50824
1.46572
1.44355
1.43086
1.41826
1.39966
1.36968
1.33289
6.12813
6.18387
6.24223
6.2987
6.36133
6.44476
6.56369
6.72602
6.92022
7.1158
7.27333
7.33769
7.27921
7.08259
6.7632
6.2965
5.63881
4.90021
4.16942
3.51534
2.97506
2.5571
2.2459
2.01946
1.85754
1.74129
1.65386
1.58247
1.51653
1.46189
7.60156
7.80883
8.05174
8.33995
8.69637
9.14607
9.71169
10.3979
11.1678
11.9533
12.6812
13.2411
13.5709
13.6268
13.4255
12.8949
11.9304
10.6648
9.25242
7.84276
6.5384
5.40361
4.46758
3.72641
3.15812
2.73181
2.4138
2.17439
1.98769
1.86128
10.9359
11.4869
12.1463
12.953
13.9476
15.1699
16.6451
18.3583
20.2016
22.0517
23.761
25.164
26.1715
26.7325
26.8236
26.3298
25.0542
23.1413
20.7972
18.2362
15.6297
13.1291
10.8609
8.90297
7.28665
5.99846
4.99952
4.23669
3.6549
3.27461
19.5396
20.7655
22.1315
23.8399
25.898
28.3576
31.2045
34.3382
37.4719
40.4742
43.15
45.3282
46.9219
47.9128
48.2512
47.7681
46.3397
44.0743
41.1027
37.6074
33.7692
29.7795
25.8225
22.0942
18.7462
15.8471
13.4162
11.4159
9.79548
8.69723
37.0129
38.1228
40.0196
42.5001
45.4375
48.9115
52.626
56.185
59.3673
62.1468
64.427
66.0187
66.9971
67.413
67.1257
65.9368
64.2584
62.1153
59.4592
56.3784
52.9815
49.4178
45.8148
42.2544
38.8444
35.583
32.4913
29.591
26.9357
25.0571
47.381
46.8607
47.9446
50.0822
52.5958
55.0613
57.2089
58.9654
60.311
61.2538
61.8496
62.1749
62.1559
61.805
60.705
58.571
56.5713
54.4223
52.3496
50.326
48.4611
46.8769
45.701
44.9954
44.6065
44.3392
44.1361
43.8772
43.4614
42.7732
7.72633
9.48594
10.2499
10.6996
10.8817
10.7977
10.491
10.0273
9.4606
8.84467
8.21676
7.61175
7.04391
6.54334
6.11752
5.79497
5.60067
5.63329
6.02348
6.75017
7.496
7.89051
7.74718
7.07399
5.99778
4.6709
3.2967
2.00488
1.07279
0.598112
4.59396
5.08507
5.28017
5.38089
5.38483
5.2776
5.07123
4.79338
4.47337
4.1367
3.8044
3.49046
3.20681
2.96224
2.77107
2.64681
2.61964
2.7524
3.13296
3.74293
4.37185
4.77638
4.83807
4.57809
4.07633
3.42235
2.67838
1.88471
1.21488
0.724477
4.18839
4.44504
4.53607
4.5544
4.49782
4.37202
4.18279
3.94461
3.67591
3.39587
3.12029
2.86032
2.6256
2.42492
2.27062
2.18014
2.17929
2.32423
2.68543
3.2445
3.8313
4.24283
4.37089
4.22601
3.88034
3.37409
2.7702
2.09869
1.49218
0.968297
4.02294
4.14725
4.18369
4.17078
4.10259
3.98394
3.81704
3.61033
3.37702
3.13279
2.89099
2.66161
2.45381
2.27706
2.14466
2.07577
2.09609
2.25552
2.60322
3.11319
3.65693
4.05729
4.21048
4.12003
3.84412
3.42107
2.90027
2.30153
1.73502
1.20616
3.87656
3.88373
3.87321
3.84508
3.78323
3.6837
3.54488
3.37096
3.17157
2.96012
2.74865
2.54655
2.36308
2.20916
2.09869
2.0533
2.09897
2.27822
2.62569
3.10052
3.5879
3.95889
4.11534
4.05305
3.81832
3.45305
2.99514
2.45791
1.93153
1.41878
3.69841
3.59078
3.53896
3.50348
3.45662
3.38345
3.27664
3.13746
2.97297
2.79492
2.61431
2.44019
2.28238
2.15256
2.06628
2.04761
2.1215
2.32374
2.66881
3.11329
3.5533
3.8844
4.02995
3.98076
3.7742
3.44758
3.04355
2.56315
2.08086
1.59634
3.48684
3.27359
3.1762
3.13338
3.10408
3.06014
2.98821
2.88613
2.75866
2.61507
2.46625
2.32145
2.19114
2.08745
2.02776
2.03862
2.14322
2.3693
2.71187
3.12624
3.52288
3.8122
3.93866
3.89371
3.70746
3.41367
3.04725
2.62162
2.18445
1.73532
3.24899
2.93391
2.78748
2.73748
2.72766
2.71306
2.67638
2.61277
2.52338
2.41546
2.2996
2.18536
2.08371
2.00795
1.97687
2.01903
2.15502
2.40383
2.74445
3.13114
3.48452
3.73299
3.83655
3.79063
3.62152
3.35461
3.02247
2.64095
2.24802
1.83705
2.98747
2.58194
2.39622
2.33674
2.33852
2.34938
2.3462
2.32269
2.27142
2.19909
2.11635
2.03292
1.96044
1.91348
1.91206
1.98618
2.15617
2.42359
2.76135
3.12147
3.43039
3.64183
3.72228
3.67294
3.5168
3.27403
2.97431
2.63017
2.27794
1.9053
2.75637
2.31139
2.08269
1.99455
1.98975
2.01181
2.03079
2.03351
2.01264
1.97356
1.92221
1.86849
1.8245
1.80634
1.83343
1.93912
2.1387
2.42769
2.76176
3.09055
3.35985
3.53661
3.5959
3.5428
3.39754
3.17754
2.90747
2.59898
2.27941
1.94492
2.6121
2.14138
1.86857
1.73712
1.70479
1.71971
1.74639
1.76548
1.76798
1.75298
1.72553
1.69869
1.68102
1.68928
1.74292
1.87807
2.10359
2.40583
2.73171
3.03265
3.27033
3.4168
3.45811
3.40237
3.26746
3.06931
2.82629
2.55178
2.26443
1.96378
2.54978
2.08673
1.76886
1.58486
1.50946
1.4962
1.5122
1.53394
1.5486
1.55098
1.54273
1.53225
1.53637
1.56652
1.6435
1.80405
2.04994
2.35786
2.6727
2.9505
3.16047
3.28225
3.30977
3.25377
3.13006
2.95254
2.73551
2.49348
2.2401
1.96986
2.56838
2.12302
1.79166
1.56328
1.42631
1.36459
1.35058
1.35753
1.37024
1.37912
1.3823
1.38398
1.39837
1.44428
1.53929
1.7189
1.97789
2.28575
2.58699
2.84393
3.03012
3.13329
3.15195
3.09887
2.98805
2.83113
2.64062
2.4317
2.20878
1.96525
2.65396
2.23081
1.89457
1.6371
1.45751
1.34446
1.28387
1.25671
1.25126
1.25269
1.2562
1.26213
1.28023
1.33083
1.43594
1.62611
1.88931
2.19008
2.47569
2.71366
2.88075
2.97113
2.98614
2.9396
2.84379
2.70866
2.54809
2.36807
2.17071
1.95091
2.81385
2.41201
2.07829
1.80481
1.59059
1.43142
1.32143
1.25156
1.21113
1.18866
1.1789
1.17847
1.19256
1.23604
1.34124
1.53144
1.7883
2.07485
2.34272
2.56263
2.71522
2.79821
2.8148
2.77875
2.70072
2.59225
2.45841
2.30209
2.12729
1.92933
3.04885
2.66998
2.34594
2.06275
1.82177
1.62263
1.46492
1.34603
1.26098
1.20278
1.16619
1.14684
1.14689
1.17656
1.26587
1.44392
1.68294
1.94774
2.19464
2.39711
2.53882
2.61937
2.64285
2.62296
2.56801
2.48228
2.37055
2.23593
2.08152
1.90325
3.36096
3.00415
2.68904
2.39955
2.13809
1.90603
1.70601
1.53964
1.40673
1.30476
1.23085
1.1814
1.15691
1.16435
1.22608
1.37717
1.58718
1.82163
2.04282
2.22757
2.36101
2.44521
2.48273
2.47897
2.44277
2.37747
2.2863
2.17187
2.03572
1.87512
3.7402
3.40246
3.09593
2.80253
2.52546
2.26714
2.0319
1.82383
1.64596
1.49918
1.38328
1.29638
1.23907
1.21585
1.24422
1.35224
1.52004
1.71645
1.90599
2.07282
2.20167
2.28847
2.33574
2.34679
2.32738
2.28046
2.20788
2.11194
1.99195
1.84716
4.169
3.85106
3.55452
3.2603
2.97254
2.69474
2.43242
2.19131
1.97643
1.79044
1.63502
1.50954
1.4154
1.35661
1.34542
1.40417
1.52059
1.66793
1.82095
1.96233
2.07785
2.16073
2.21241
2.23424
2.22789
2.19592
2.13895
2.05888
1.95269
1.82168
4.63706
4.34125
4.05786
3.76768
3.47579
3.18688
2.90788
2.64579
2.40679
2.19403
2.00957
1.85263
1.72498
1.62989
1.57778
1.58468
1.64235
1.732
1.83451
1.93336
2.01938
2.0861
2.13194
2.15604
2.15578
2.13259
2.08642
2.01784
1.92157
1.80176
5.14597
4.87629
4.61117
4.33263
4.04663
3.75924
3.47896
3.21418
2.97169
2.75411
2.5621
2.39265
2.24641
2.1243
2.03613
1.9898
1.97937
1.99288
2.01957
2.05191
2.08457
2.11254
2.13274
2.14077
2.13373
2.10771
2.062
1.99537
1.90362
1.79118
5.71885
5.48115
5.24247
4.98786
4.72434
4.45963
4.20396
3.96742
3.75715
3.57419
3.41578
3.27387
3.14513
3.02502
2.92122
2.82987
2.73611
2.63815
2.54117
2.45537
2.38618
2.33134
2.28628
2.24552
2.20316
2.15347
2.09168
2.01147
1.91208
1.80061
6.4185
6.22073
6.02325
5.81437
5.6028
5.39868
5.2143
5.06249
4.95089
4.8777
4.83324
4.80012
4.76721
4.71888
4.65564
4.54878
4.35693
4.08638
3.77188
3.46046
3.1831
2.94727
2.75203
2.59103
2.45547
2.33613
2.22375
2.11012
1.98789
1.86433
7.37692
7.2394
7.11335
6.99255
6.8887
6.81681
6.79189
6.83276
6.94796
7.12918
7.35376
7.58619
7.80161
7.96532
8.06526
8.01472
7.72198
7.19479
6.50739
5.76867
5.06528
4.43724
3.90187
3.45957
3.10123
2.81184
2.57359
2.37036
2.18618
2.03005
8.8922
8.86155
8.87026
8.92221
9.03626
9.23695
9.54711
9.98797
10.5631
11.2508
12.0036
12.753
13.4549
14.0495
14.5095
14.6316
14.2553
13.3901
12.1424
10.6984
9.2271
7.83003
6.58018
5.51728
4.65179
3.96796
3.43466
3.01714
2.68174
2.44022
11.6543
11.8517
12.1365
12.5294
13.0718
13.7997
14.7398
15.9104
17.2934
18.8343
20.4348
21.9785
23.4068
24.6403
25.631
25.9901
25.5344
24.2856
22.3673
20.0184
17.4661
14.8606
12.3885
10.1704
8.29195
6.77584
5.59544
4.69072
3.99838
3.54337
17.3014
17.9978
18.7999
19.7668
21.0432
22.6399
24.5627
26.8025
29.2845
31.8948
34.4732
36.8607
39.0013
40.8138
42.1891
42.5546
41.858
40.2021
37.7171
34.6166
31.0755
27.2173
23.3609
19.6461
16.275
13.388
11.053
9.19822
7.74995
6.80707
28.881
30.0674
31.5634
33.4476
35.6469
38.2297
41.1614
44.3505
47.6328
50.8553
53.8439
56.4471
58.5621
59.9227
60.5433
59.7006
58.0972
55.8707
53.2473
50.2582
46.9439
43.3777
39.3122
35.0843
30.91
26.9553
23.4959
20.4931
17.9588
16.1926
46.348
46.9378
48.5572
50.9731
53.8913
57.0733
60.2793
63.289
65.9817
68.31
70.2183
71.6147
72.3806
72.382
71.429
68.8124
66.0479
63.1144
60.3179
57.5995
54.9929
52.5339
50.319
48.3742
46.6504
44.8952
42.706
40.3817
38.0287
36.0327
52.6489
52.6974
54.1009
56.4637
59.23
61.9618
64.3687
66.3074
67.7377
68.6765
69.1517
69.1903
68.6251
67.29
64.7695
60.87
57.3501
53.9988
51.1886
48.8613
47.0924
45.8746
45.3118
45.4002
46.0258
46.9164
47.9237
48.7788
49.2662
49.226
11.2697
13.6501
14.4484
14.7488
14.8166
14.5853
14.0801
13.3787
12.5566
11.6808
10.7912
9.93675
9.135
8.43467
7.84719
7.42986
7.25339
7.61735
8.9215
10.9685
12.7947
13.6241
13.3052
12.059
10.2179
8.0547
5.84193
3.75949
2.22143
1.21945
6.3795
6.95572
7.12803
7.15101
7.10117
6.93657
6.65431
6.27806
5.84759
5.39416
4.94266
4.51067
4.11761
3.77548
3.51124
3.34145
3.33777
3.6731
4.57904
5.92218
7.12279
7.73266
7.68792
7.16072
6.34046
5.35805
4.29804
3.16352
2.15344
1.38154
5.81637
6.04563
6.08832
6.04868
5.94123
5.762
5.50911
5.19329
4.83757
4.46423
4.09141
3.7332
3.40539
3.12079
2.90216
2.77502
2.79388
3.10363
3.88495
5.01825
6.05714
6.64165
6.70001
6.36357
5.7832
5.06413
4.23069
3.29813
2.43244
1.67623
5.65524
5.68571
5.65856
5.58896
5.47271
5.30444
5.0802
4.80534
4.49529
4.16726
3.83672
3.51631
3.22142
2.96709
2.77633
2.67788
2.72614
3.04855
3.77383
4.75785
5.68468
6.23322
6.32866
6.07687
5.60722
4.99367
4.28067
3.46942
2.68436
1.95772
5.53016
5.39635
5.30707
5.22166
5.11485
4.97148
4.78234
4.54825
4.27991
3.99159
3.69756
3.40924
3.14465
2.91886
2.7573
2.6931
2.78058
3.13692
3.83893
4.72869
5.52078
6.01379
6.10981
5.89808
5.48592
4.94049
4.309
3.59191
2.87599
2.18545
5.36181
5.0855
4.9342
4.8353
4.74543
4.63489
4.48687
4.2968
4.07203
3.82462
3.56836
3.31446
3.08211
2.88801
2.76093
2.73863
2.87579
3.27566
3.95695
4.76501
5.44686
5.86313
5.93635
5.74014
5.3622
4.86631
4.29225
3.65453
3.00414
2.35697
5.14018
4.742
4.52509
4.40902
4.33648
4.26201
4.1593
4.01614
3.83707
3.6328
3.41731
3.2018
3.00565
2.84787
2.76156
2.78902
2.98484
3.43249
4.09707
4.82028
5.40523
5.73831
5.77424
5.57903
5.22378
4.76566
4.24006
3.65904
3.07393
2.47543
4.88884
4.37656
4.08968
3.95009
3.8904
3.85057
3.79333
3.69804
3.56637
3.40788
3.236
3.06183
2.90662
2.78977
2.75026
2.83476
3.09594
3.59053
4.23611
4.87447
5.36662
5.61772
5.61031
5.40816
5.07023
4.64144
4.15797
3.62851
3.09457
2.54757
4.62192
4.00015
3.64426
3.47535
3.42223
3.41264
3.39829
3.34839
3.2633
3.15159
3.02496
2.89442
2.78318
2.71215
2.72452
2.8718
3.20193
3.73775
4.357
4.91539
5.3154
5.48843
5.43929
5.22726
4.9018
4.49889
4.0534
3.57208
3.08316
2.58307
4.34622
3.63353
3.23335
3.03833
2.97979
2.98333
2.99431
2.98148
2.93847
2.87274
2.7907
2.70426
2.63845
2.61648
2.68373
2.89795
3.29671
3.86365
4.44804
4.9339
5.24305
5.34463
5.25869
5.03831
4.72428
4.34564
3.93539
3.49967
3.05782
2.59884
4.08092
3.34229
2.90283
2.67152
2.59112
2.59155
2.61426
2.62647
2.61656
2.58547
2.54365
2.499
2.47831
2.50495
2.62935
2.91128
3.37336
3.95741
4.50176
4.91952
5.14575
5.18356
5.06817
4.84393
4.54295
4.18967
3.81378
3.42372
3.02191
2.59457
3.88962
3.15679
2.67051
2.39968
2.28289
2.26079
2.27932
2.30224
2.31401
2.31036
2.29772
2.28897
2.30953
2.38236
2.56341
2.91234
3.4241
4.0084
4.51681
4.85616
5.01528
5.00359
4.86835
4.64639
4.36224
4.03723
3.69975
3.34704
2.97525
2.57572
3.78242
3.07768
2.5706
2.24275
2.07994
2.01572
2.0123
2.02956
2.04922
2.06228
2.07213
2.0876
2.1411
2.25572
2.48911
2.89607
3.44501
4.02174
4.47454
4.7498
4.85139
4.80591
4.6613
4.44894
4.18742
3.89792
3.59495
3.26868
2.92207
2.547
3.77801
3.10636
2.59751
2.23576
2.0019
1.87813
1.83588
1.8298
1.84181
1.8587
1.88062
1.91284
1.98428
2.13423
2.41151
2.86448
3.43453
3.97729
4.3782
4.60011
4.65833
4.59423
4.45169
4.25749
4.02932
3.77529
3.49609
3.19167
2.86639
2.5125
3.84804
3.21416
2.71007
2.32296
2.04723
1.87198
1.7712
1.72236
1.71139
1.71774
1.73929
1.77811
1.85953
2.03019
2.33853
2.82086
3.38352
3.88508
4.237
4.41465
4.44557
4.37827
4.24934
4.08828
3.89286
3.66326
3.4041
3.11825
2.81074
2.47535
4.00854
3.40926
2.91055
2.50572
2.19452
1.96969
1.81795
1.72538
1.67577
1.65684
1.66503
1.69899
1.78241
1.9568
2.28268
2.77504
3.30991
3.76146
4.06655
4.2112
4.23232
4.17954
4.08134
3.94426
3.77
3.56227
3.32029
3.05003
2.75705
2.43784
4.26509
3.69242
3.20624
2.79208
2.45111
2.18183
1.9797
1.83697
1.74398
1.69107
1.67476
1.6929
1.77084
1.939
2.26453
2.74766
3.23844
3.63552
3.89675
4.02214
4.05741
4.02351
3.94172
3.82163
3.66509
3.47459
3.24638
2.98864
2.70722
2.40216
4.61377
4.07259
3.59721
3.17486
2.80893
2.50142
2.25342
2.06262
1.92484
1.83387
1.78839
1.7848
1.85
2.01024
2.31764
2.77615
3.21285
3.55655
3.78251
3.91034
3.94764
3.91727
3.84247
3.73158
3.58644
3.40436
3.18501
2.9362
2.66339
2.37068
5.06376
4.54381
4.07571
3.64626
3.26063
2.92278
2.63726
2.40594
2.22911
2.10376
2.03108
2.00795
2.06099
2.21428
2.50627
2.92603
3.30726
3.61107
3.81678
3.92151
3.93901
3.89052
3.81033
3.69143
3.54229
3.35778
3.14022
2.89573
2.62825
2.34616
5.60335
5.09911
4.63708
4.20405
3.80646
3.44944
3.13979
2.88239
2.68105
2.53545
2.44907
2.4195
2.47492
2.63361
2.93311
3.32347
3.66818
3.93246
4.09054
4.13735
4.0916
4.00063
3.89074
3.73865
3.55025
3.34347
3.11788
2.87189
2.60545
2.33158
6.23309
5.74325
5.29001
4.86156
4.4649
4.10606
3.79358
3.53483
3.33643
3.20027
3.13185
3.12892
3.22411
3.42482
3.77161
4.17607
4.49837
4.70624
4.76379
4.69176
4.53982
4.37258
4.16748
3.93314
3.68233
3.41928
3.14711
2.8756
2.60011
2.33001
6.97869
6.50752
6.07233
5.66387
5.2901
4.95803
4.67786
4.45983
4.31293
4.24198
4.25352
4.34926
4.55896
4.87707
5.34718
5.8258
6.14945
6.26389
6.14808
5.87993
5.55732
5.19964
4.79162
4.38348
3.99726
3.63581
3.29155
2.96302
2.65062
2.37046
7.91575
7.47463
7.07698
6.71698
6.40427
6.14792
5.95971
5.85527
5.84427
5.94108
6.15224
6.47183
6.93016
7.49653
8.22175
8.85335
9.21263
9.20781
8.83071
8.26681
7.61016
6.83319
6.03926
5.29858
4.64891
4.09242
3.61174
3.18977
2.81581
2.50515
9.21621
8.82896
8.50553
8.2459
8.0616
7.96642
7.97122
8.1071
8.38798
8.82396
9.42032
10.1589
11.0653
12.0642
13.2232
14.0728
14.5085
14.4183
13.7437
12.6821
11.343
9.86544
8.40373
7.07455
5.943
5.02042
4.27694
3.67408
3.17872
2.80527
11.2356
10.9612
10.7801
10.7126
10.7724
10.9867
11.3696
11.9474
12.7425
13.7563
14.9778
16.3643
17.9355
19.5489
21.3032
22.3266
22.8354
22.5684
21.4649
19.7431
17.5478
15.1194
12.6758
10.4154
8.48472
6.91804
5.69026
4.73774
4.0007
3.5009
14.708
14.6686
14.7577
15.0479
15.5469
16.2845
17.2755
18.5412
20.0941
21.9112
23.9371
26.1092
28.439
30.6938
32.9571
33.6617
33.6554
32.7387
31.1625
29.0182
26.3866
23.2397
19.7761
16.3729
13.361
10.8204
8.78858
7.20429
6.00041
5.23743
21.0137
21.3907
22.0108
22.8457
23.9537
25.4059
27.172
29.2533
31.6273
34.231
36.9505
39.7286
42.5446
44.8532
46.6681
45.8558
44.6243
42.7682
40.6797
38.2791
35.5786
32.5743
29.2985
25.7405
21.9613
18.4481
15.4521
12.9506
10.9861
9.73746
31.9003
32.5854
33.7165
35.2699
37.1525
39.2719
41.6476
44.2552
47.0204
49.8557
52.5528
54.9819
57.282
58.5291
58.9359
55.8868
52.9936
50.0496
47.5148
45.1304
42.8376
40.5962
38.3064
35.9734
33.559
30.8065
27.7394
24.7307
22.1331
20.309
45.3077
45.7721
47.131
49.1336
51.5133
54.0528
56.5833
58.9939
61.2146
63.2152
64.9161
66.2462
67.0115
66.5453
64.7515
59.2441
54.8521
50.9963
48.082
45.8137
44.1209
42.9486
42.2595
41.9628
41.9269
41.8794
41.5013
40.7312
39.3369
37.8844
48.2887
49.0533
50.7421
53.1142
55.7667
58.3589
60.675
62.5923
64.0727
65.1218
65.7162
65.8382
65.156
63.0357
59.175
52.2169
47.1471
42.9685
39.9716
37.7901
36.4977
36.0239
36.3537
37.4398
39.0995
41.0535
43.0475
44.7817
46.0405
46.6304
15.4252
18.486
19.2446
19.3822
19.2201
18.7818
18.0365
17.0603
15.941
14.7554
13.5461
12.3746
11.2566
10.2654
9.42285
8.84318
8.69976
9.7725
13.0336
17.5835
21.0117
22.1639
21.2687
19.0185
16.0713
12.8389
9.61036
6.544
4.16975
2.45208
8.40641
9.06836
9.19052
9.12941
8.9702
8.72537
8.35769
7.87912
7.33369
6.75405
6.17152
5.60278
5.07672
4.60091
4.22607
3.97641
3.99378
4.67597
6.57836
9.12797
11.0306
11.7061
11.3492
10.3796
9.13218
7.78147
6.39377
4.93357
3.60249
2.48406
7.64395
7.83788
7.79808
7.67638
7.48681
7.23604
6.91158
6.51737
6.07537
5.60559
5.13014
4.66361
4.22954
3.84128
3.53779
3.35182
3.39358
4.00646
5.57474
7.64118
9.21711
9.84849
9.66404
8.99234
8.08938
7.10498
6.0631
4.89048
3.79554
2.82405
7.47281
7.39815
7.27005
7.12259
6.93472
6.70065