/*--------------------------------*- C++ -*----------------------------------*\
  =========                 |
  \\      /  F ield         | OpenFOAM: The Open Source CFD Toolbox
   \\    /   O peration     | Website:  https://openfoam.org
    \\  /    A nd           | Version:  12
     \\/     M anipulation  |
\*---------------------------------------------------------------------------*/
FoamFile
{
    format      ascii;
    class       volScalarField;
    location    "1450/air";
    object      k;
}
// * * * * * * * * * * * * * * * * * * * * * * * * * * * * * * * * * * * * * //

dimensions      [0 2 -2 0 0 0 0];

internalField   nonuniform List<scalar> 
243000
(
0.0580032
0.0648523
0.0689377
0.0714805
0.0725655
0.0723875
0.0712025
0.06926
0.0667691
0.0639081
0.0608214
0.057698
0.054649
0.0517515
0.0490062
0.0464351
0.0440636
0.0420399
0.0405356
0.0396608
0.0392768
0.0389798
0.0382358
0.036549
0.033681
0.0295821
0.0252624
0.0232094
0.020814
0.0171713
0.0876725
0.0963529
0.0995582
0.0995315
0.0976594
0.0946098
0.0908063
0.0865587
0.0820804
0.0775353
0.0730521
0.0687674
0.0647371
0.0610443
0.0577214
0.0548286
0.0524417
0.0507982
0.0501042
0.0504739
0.0516603
0.053087
0.0539748
0.0536005
0.0514616
0.0473396
0.0416952
0.034739
0.0280461
0.0208403
0.0958714
0.108967
0.113932
0.114789
0.113136
0.109899
0.105671
0.100872
0.0957864
0.0906264
0.085541
0.0806795
0.0761006
0.0719196
0.0682027
0.0650533
0.0626072
0.0611735
0.0609583
0.0620013
0.0639599
0.0661652
0.0677454
0.0679109
0.0660271
0.061758
0.0554341
0.0470983
0.0384637
0.0287485
0.0920484
0.108533
0.116872
0.119922
0.119612
0.117216
0.113474
0.108913
0.103914
0.0987255
0.0935333
0.0885165
0.0837696
0.0794419
0.0756352
0.0724977
0.0702162
0.0691375
0.0694252
0.0710285
0.0735181
0.0761858
0.0781636
0.078681
0.0770706
0.0729236
0.0664767
0.0577176
0.0481944
0.0373719
0.0824465
0.101013
0.112289
0.11799
0.119822
0.119007
0.116428
0.112703
0.108357
0.103604
0.0987026
0.0938694
0.0892439
0.0850175
0.0813291
0.0783828
0.0764098
0.0757777
0.0765787
0.0786714
0.0815513
0.0845005
0.0866916
0.0874111
0.0860193
0.0820787
0.0757337
0.0669972
0.0571418
0.0459074
0.0717228
0.0886693
0.102158
0.110605
0.11499
0.116319
0.115468
0.113125
0.109734
0.105722
0.101456
0.0970877
0.0928206
0.088895
0.0854831
0.0828646
0.0812995
0.0811626
0.0824658
0.0849863
0.0881632
0.0912843
0.0935789
0.0944079
0.0931877
0.0894891
0.0833842
0.0749216
0.0651037
0.0538728
0.0671011
0.0776737
0.0899482
0.0997438
0.106483
0.110088
0.111226
0.110546
0.108529
0.105665
0.102189
0.0984645
0.0947495
0.0912785
0.088274
0.0860825
0.0849928
0.0853619
0.0871435
0.0900396
0.0934501
0.0966791
0.0990174
0.0999008
0.0988193
0.0953707
0.0895857
0.0815381
0.0720138
0.0610422
0.0682495
0.0716759
0.080313
0.0895168
0.0969718
0.101883
0.104699
0.105701
0.105194
0.103591
0.101182
0.098323
0.0952688
0.0923594
0.0898616
0.0881636
0.0875859
0.088453
0.0906778
0.0939047
0.0975071
0.100812
0.103167
0.10408
0.103116
0.0999157
0.0944916
0.0869351
0.0778915
0.0673299
0.0738027
0.0708821
0.0742555
0.0810334
0.0881473
0.0938026
0.0976259
0.0996955
0.100394
0.100035
0.0987541
0.0968469
0.0945822
0.0923342
0.0903969
0.0892279
0.0891691
0.0905086
0.0931386
0.0966579
0.100426
0.103794
0.106164
0.107104
0.106251
0.103295
0.0982535
0.0912451
0.0827618
0.072718
0.082634
0.0756821
0.0731716
0.0756337
0.0807854
0.0862061
0.0906001
0.0935533
0.0951561
0.0956324
0.0953169
0.0943402
0.0929042
0.0913527
0.0900176
0.0893913
0.0898288
0.0916014
0.0945936
0.098371
0.10229
0.105723
0.108126
0.109108
0.108373
0.105665
0.101037
0.0945517
0.0866543
0.0772175
0.0925386
0.0842515
0.0776441
0.0749476
0.0763599
0.0800232
0.0840912
0.0874709
0.0897959
0.0910552
0.091433
0.0911557
0.0904691
0.0896032
0.0888663
0.0887651
0.0896635
0.0918351
0.09513
0.0991083
0.10316
0.106679
0.10915
0.11021
0.109614
0.107172
0.102908
0.0969351
0.0896382
0.0809073
0.103009
0.0952412
0.0865911
0.0798456
0.0765868
0.0768097
0.0791251
0.082031
0.0845982
0.0864208
0.0874314
0.0877302
0.0875653
0.0872833
0.0870959
0.0874717
0.0887764
0.0912771
0.0948539
0.099071
0.103266
0.106868
0.109403
0.110532
0.110064
0.107868
0.103975
0.0985015
0.0917939
0.0837706
0.113854
0.106361
0.0975652
0.0890097
0.0821266
0.0781819
0.0772524
0.0783326
0.0802284
0.0820895
0.0834804
0.0842651
0.0845435
0.0846335
0.0848777
0.0856481
0.0872826
0.0900349
0.0938031
0.0981722
0.102506
0.106232
0.108886
0.110146
0.109815
0.107835
0.104311
0.0993402
0.0932008
0.0858684
0.124994
0.11775
0.109728
0.100704
0.0919454
0.0846532
0.0799014
0.0778526
0.0778027
0.078778
0.0799886
0.0809679
0.0815725
0.0819374
0.0824159
0.0834525
0.0853135
0.0882262
0.0921071
0.0965731
0.101015
0.104869
0.107675
0.109115
0.108981
0.107255
0.10406
0.099534
0.0939491
0.0872864
0.136373
0.129364
0.121835
0.113148
0.104004
0.0950138
0.0872612
0.0817114
0.0786302
0.0775535
0.077678
0.0782723
0.0788832
0.0793903
0.0799621
0.0810734
0.0830225
0.085985
0.0898871
0.0943832
0.0988951
0.102867
0.105841
0.107497
0.107614
0.106193
0.103341
0.099228
0.0941368
0.0881116
0.147929
0.141119
0.133884
0.125724
0.116853
0.107438
0.0981049
0.0898338
0.0835177
0.07951
0.077517
0.0768693
0.0769088
0.0772306
0.0777516
0.0787394
0.0805948
0.0834682
0.0872832
0.0917245
0.0962496
0.100314
0.10346
0.105355
0.105766
0.104682
0.102215
0.0985342
0.0939482
0.0885531
0.159556
0.152893
0.145883
0.138284
0.129796
0.120544
0.110741
0.100989
0.0921823
0.0851756
0.0803713
0.0775902
0.0762813
0.0758672
0.076019
0.0767412
0.0782787
0.0808751
0.0844637
0.0887416
0.0932022
0.0973163
0.100619
0.102764
0.103506
0.102796
0.100848
0.0977217
0.0936738
0.0888559
0.171125
0.164562
0.157724
0.150412
0.142405
0.133566
0.123903
0.113669
0.103465
0.0941552
0.0865608
0.0811103
0.0776957
0.0758638
0.0751414
0.0753008
0.0763736
0.0785013
0.0816663
0.0856306
0.0899242
0.0940319
0.0974828
0.0999109
0.101064
0.100837
0.0993925
0.0968041
0.0932816
0.089001
0.182494
0.176001
0.169314
0.162294
0.154711
0.146301
0.13698
0.126805
0.116076
0.105412
0.0956589
0.0876083
0.0816746
0.0777969
0.075604
0.0747578
0.0750913
0.0765946
0.0792228
0.0827675
0.0868077
0.0908387
0.0943789
0.0970414
0.0985624
0.0987899
0.0978257
0.0957562
0.0927455
0.0889694
0.193543
0.187115
0.180595
0.173996
0.166753
0.158709
0.149749
0.139839
0.129087
0.117848
0.106769
0.0966788
0.0883212
0.0820746
0.077892
0.075534
0.074742
0.0753622
0.0772725
0.0802552
0.0839204
0.0877741
0.091323
0.0941572
0.0959919
0.0966431
0.0961366
0.0945656
0.09205
0.088763
0.204176
0.19785
0.191651
0.185312
0.178375
0.17067
0.162071
0.152503
0.141975
0.130658
0.118965
0.107571
0.0972886
0.0887687
0.0823453
0.0780488
0.0757032
0.0750985
0.0760315
0.0782495
0.0813721
0.084914
0.0883644
0.0912876
0.0933697
0.0944
0.0943232
0.0932195
0.0911901
0.0883809
0.214329
0.208351
0.202484
0.196284
0.189558
0.182135
0.173877
0.164683
0.154506
0.143399
0.13159
0.11955
0.107993
0.0976266
0.0890552
0.0826199
0.0783701
0.0761617
0.0758011
0.076986
0.0793457
0.0823904
0.0855968
0.0884974
0.0907406
0.0920825
0.0924057
0.0917373
0.0901847
0.0878375
0.224218
0.218483
0.212687
0.206626
0.200118
0.193009
0.185151
0.176415
0.166704
0.155993
0.144376
0.132168
0.119934
0.108289
0.0979366
0.0894391
0.0831061
0.078981
0.0769648
0.0768098
0.0781097
0.0804173
0.0831847
0.0859087
0.0881931
0.0897537
0.0904241
0.0901576
0.0890483
0.0871618
0.233083
0.227569
0.221984
0.216171
0.210006
0.203445
0.196248
0.188182
0.179076
0.16885
0.157516
0.145425
0.132968
0.120599
0.108965
0.0987035
0.0903167
0.0840819
0.0800844
0.0782031
0.0781258
0.0793578
0.0814043
0.0837287
0.0858861
0.0875362
0.0884627
0.0885464
0.0878408
0.0864066
0.241297
0.236055
0.230739
0.225257
0.219689
0.213795
0.207295
0.199963
0.1916
0.182071
0.171348
0.159758
0.147531
0.134972
0.122599
0.111006
0.100765
0.0923544
0.0861017
0.0820905
0.0801506
0.0799029
0.0808266
0.082404
0.0841509
0.0856842
0.086715
0.0870586
0.0866926
0.0856746
0.249313
0.244479
0.239572
0.234551
0.229398
0.224019
0.218253
0.211897
0.204729
0.196536
0.187162
0.176656
0.165177
0.152995
0.140462
0.128048
0.116276
0.105733
0.0970065
0.0904179
0.0860236
0.0836197
0.0828022
0.0830776
0.0839381
0.084941
0.0857561
0.0861365
0.0859669
0.0852611
0.258737
0.254682
0.250545
0.246345
0.242083
0.23773
0.233184
0.228279
0.222774
0.216394
0.208872
0.200054
0.189941
0.178734
0.16672
0.154092
0.141188
0.128688
0.117344
0.107717
0.100134
0.094652
0.091073
0.0890361
0.0880916
0.0877825
0.0877196
0.087594
0.0872045
0.0865346
0.274927
0.272252
0.269444
0.266698
0.264145
0.26181
0.259594
0.257288
0.254548
0.250994
0.246254
0.240034
0.232193
0.222829
0.212239
0.200239
0.18677
0.172728
0.158856
0.145913
0.134461
0.124831
0.117109
0.111205
0.106845
0.103624
0.101181
0.0992047
0.097445
0.0959731
0.319857
0.319087
0.318418
0.318673
0.320081
0.322287
0.324848
0.327289
0.329151
0.329826
0.328982
0.326398
0.321904
0.315681
0.307829
0.297902
0.285157
0.270883
0.255858
0.240836
0.22642
0.213019
0.200965
0.190481
0.181449
0.173273
0.165994
0.159624
0.15412
0.149808
0.50408
0.502226
0.503824
0.509587
0.51666
0.522293
0.526815
0.530277
0.532774
0.53299
0.53196
0.529965
0.527095
0.523864
0.519795
0.514763
0.506312
0.497784
0.489409
0.481811
0.474926
0.468933
0.463837
0.459861
0.456139
0.449633
0.442862
0.436475
0.431632
0.427023
0.0907599
0.102878
0.108319
0.110534
0.110294
0.108179
0.104699
0.100344
0.0954609
0.0903624
0.0853129
0.0805383
0.0761156
0.0721963
0.0688047
0.0660588
0.0640511
0.0631404
0.0637391
0.0658836
0.0686304
0.0705181
0.0703376
0.0674111
0.0616356
0.0531777
0.0428904
0.0310559
0.0235851
0.0198964
0.148303
0.166717
0.16958
0.165646
0.158111
0.148782
0.138736
0.128643
0.11888
0.109749
0.10139
0.0939222
0.0873605
0.0818329
0.0773485
0.0740823
0.0722337
0.0724181
0.0750702
0.0801345
0.0863823
0.0919962
0.0952455
0.0949912
0.0905342
0.0818935
0.0701212
0.0556624
0.0431585
0.0327895
0.174269
0.19481
0.199561
0.196431
0.18899
0.179115
0.168021
0.156559
0.145272
0.134595
0.124756
0.115938
0.108204
0.101766
0.0966998
0.0933064
0.0919262
0.0931935
0.0973466
0.104081
0.11195
0.119028
0.123483
0.124068
0.119834
0.110542
0.0972464
0.080263
0.0643234
0.0500499
0.184493
0.204451
0.210499
0.20902
0.203168
0.194454
0.184095
0.173013
0.161846
0.151054
0.140974
0.131887
0.123923
0.117378
0.112426
0.109511
0.109104
0.11172
0.117315
0.125294
0.134077
0.141779
0.146688
0.147659
0.143634
0.134208
0.120343
0.102141
0.0841619
0.0674444
0.184287
0.201227
0.208655
0.209597
0.205794
0.198954
0.190165
0.180442
0.170401
0.160345
0.150784
0.142134
0.134568
0.128468
0.124108
0.122102
0.122964
0.127059
0.134017
0.142969
0.152293
0.160228
0.165257
0.166418
0.162678
0.153516
0.139715
0.12126
0.102332
0.0843186
0.178904
0.191249
0.198164
0.200781
0.199638
0.195448
0.18926
0.181437
0.172679
0.163799
0.155256
0.147591
0.140864
0.135596
0.132164
0.131359
0.133658
0.13927
0.147498
0.157227
0.166851
0.174794
0.179762
0.18101
0.177588
0.168938
0.155603
0.13759
0.118522
0.10004
0.167948
0.174258
0.180505
0.184808
0.186304
0.185172
0.181757
0.176449
0.169855
0.162775
0.155696
0.149106
0.143488
0.139327
0.137066
0.137655
0.141482
0.148583
0.157967
0.168327
0.178112
0.18595
0.19077
0.192029
0.188933
0.180918
0.168322
0.151213
0.132586
0.114177
0.155506
0.154892
0.158881
0.163799
0.167685
0.169834
0.16955
0.167014
0.162835
0.157698
0.152373
0.147348
0.143065
0.140183
0.139238
0.1413
0.146692
0.155223
0.165636
0.176527
0.186409
0.194106
0.198754
0.199997
0.19721
0.189894
0.178216
0.162303
0.144533
0.126528
0.147789
0.141081
0.141066
0.144543
0.149004
0.152737
0.154658
0.154567
0.152784
0.149834
0.146377
0.142985
0.140161
0.138653
0.139079
0.142609
0.149492
0.159325
0.17069
0.182055
0.192018
0.199593
0.204109
0.205351
0.202869
0.196281
0.185641
0.171123
0.154504
0.137055
0.147929
0.134889
0.129223
0.129254
0.132337
0.136292
0.139503
0.141224
0.1414
0.140241
0.138479
0.136641
0.135285
0.13518
0.13694
0.141871
0.150114
0.161028
0.173213
0.185026
0.19513
0.202679
0.207167
0.208458
0.206294
0.200487
0.190945
0.177788
0.16242
0.145787
0.152552
0.136641
0.125332
0.120001
0.11988
0.122305
0.125475
0.128122
0.129699
0.1301
0.129681
0.129074
0.129029
0.130185
0.133182
0.139376
0.148796
0.160889
0.173815
0.185972
0.196192
0.203745
0.208254
0.209636
0.207833
0.202708
0.194165
0.182412
0.168409
0.152915
0.16175
0.143636
0.128862
0.119031
0.114018
0.113091
0.114444
0.116714
0.118806
0.120196
0.120879
0.121215
0.122039
0.124181
0.128209
0.135436
0.145797
0.15861
0.172135
0.184846
0.195385
0.203081
0.207692
0.209168
0.207539
0.202965
0.195543
0.185215
0.17263
0.158428
0.175102
0.155861
0.139002
0.125797
0.116509
0.111051
0.108898
0.109059
0.110288
0.111712
0.112891
0.113855
0.115152
0.117793
0.122501
0.130423
0.141395
0.154673
0.168592
0.181615
0.19246
0.200476
0.205408
0.207235
0.206028
0.201994
0.19539
0.186477
0.175315
0.162472
0.192769
0.173357
0.155848
0.140441
0.127735
0.117845
0.111225
0.107634
0.106305
0.106307
0.10695
0.107861
0.109243
0.111778
0.116655
0.124808
0.13597
0.149377
0.163452
0.176698
0.187862
0.196245
0.201619
0.203976
0.203347
0.200071
0.194339
0.186519
0.176915
0.16561
0.214418
0.19609
0.178901
0.16232
0.14694
0.133314
0.122263
0.11418
0.108952
0.106033
0.104716
0.104485
0.10521
0.107204
0.111436
0.119201
0.130015
0.143128
0.157053
0.170374
0.181784
0.190574
0.196491
0.199532
0.19965
0.197265
0.19259
0.186049
0.177855
0.167967
0.239951
0.223291
0.206813
0.189584
0.172487
0.156187
0.141498
0.129119
0.119448
0.112494
0.107929
0.105264
0.104254
0.104957
0.107918
0.1144
0.124182
0.136461
0.149841
0.162987
0.174525
0.183709
0.190241
0.194085
0.195161
0.19388
0.190489
0.185131
0.178084
0.169501
0.26832
0.253215
0.23739
0.220264
0.202488
0.184605
0.167329
0.15145
0.137651
0.126364
0.117722
0.111588
0.107713
0.106103
0.107049
0.111376
0.11931
0.130103
0.142441
0.155052
0.166535
0.176051
0.183236
0.188043
0.190319
0.190188
0.187909
0.183629
0.17761
0.170188
0.298028
0.284169
0.269434
0.25297
0.235243
0.216681
0.197837
0.179453
0.162315
0.147106
0.134303
0.124135
0.116599
0.111699
0.109762
0.111305
0.116526
0.125043
0.135756
0.147407
0.158624
0.168387
0.176169
0.181781
0.185079
0.186038
0.184825
0.181638
0.176635
0.170188
0.327374
0.315147
0.301855
0.286499
0.269369
0.250807
0.231247
0.211326
0.191811
0.173472
0.156991
0.142849
0.131299
0.122515
0.116879
0.114972
0.116876
0.122481
0.130919
0.140989
0.151391
0.160995
0.169089
0.175333
0.179522
0.181555
0.181375
0.179252
0.175281
0.169803
0.355988
0.345541
0.333903
0.319974
0.303857
0.2858
0.266196
0.245588
0.224661
0.204147
0.184779
0.167182
0.151797
0.139062
0.129154
0.123225
0.121218
0.123279
0.12874
0.136549
0.145447
0.154407
0.162464
0.169068
0.173951
0.176914
0.17777
0.176634
0.173699
0.169198
0.383711
0.375106
0.365215
0.352881
0.338074
0.320945
0.301873
0.281341
0.259934
0.238258
0.21697
0.196717
0.178051
0.161549
0.14759
0.137031
0.130541
0.128433
0.130235
0.135011
0.141666
0.149404
0.156912
0.163507
0.168789
0.172461
0.17426
0.174053
0.172104
0.168576
0.410733
0.403932
0.395776
0.385127
0.371873
0.356106
0.33818
0.318538
0.29765
0.275939
0.253884
0.232017
0.210897
0.191004
0.173326
0.158249
0.146828
0.139665
0.136847
0.137835
0.141701
0.147233
0.153396
0.159406
0.164668
0.168721
0.171203
0.171851
0.170787
0.168195
0.437561
0.432407
0.425961
0.417167
0.40585
0.392069
0.376158
0.358524
0.339475
0.319201
0.297906
0.275848
0.253492
0.231348
0.210539
0.191284
0.174173
0.160873
0.152
0.14764
0.147316
0.149773
0.153868
0.15836
0.162762
0.166564
0.169273
0.170545
0.170218
0.168567
0.465109
0.461684
0.457191
0.450759
0.44219
0.431526
0.419132
0.405342
0.390237
0.373686
0.355515
0.335462
0.313784
0.290941
0.268157
0.24506
0.221652
0.200621
0.183493
0.171265
0.16409
0.161159
0.161253
0.162847
0.165233
0.167784
0.169915
0.171172
0.171283
0.170531
0.496245
0.49514
0.49352
0.490801
0.486791
0.481714
0.475831
0.469259
0.461702
0.452544
0.441088
0.426457
0.408531
0.387584
0.364931
0.339313
0.309011
0.2782
0.249566
0.225265
0.206488
0.193327
0.184895
0.179936
0.177476
0.176627
0.176552
0.176573
0.176167
0.175846
0.538708
0.541813
0.545642
0.549912
0.554638
0.559855
0.565621
0.571709
0.577149
0.58057
0.58071
0.576033
0.565866
0.550399
0.530953
0.50518
0.469901
0.429168
0.38641
0.345111
0.307759
0.275946
0.250369
0.2308
0.216541
0.206614
0.199876
0.195276
0.191862
0.190467
0.615254
0.627019
0.641445
0.658534
0.67809
0.699819
0.72336
0.747921
0.771314
0.791581
0.80666
0.814422
0.813949
0.806227
0.792313
0.769084
0.731974
0.684618
0.630426
0.573089
0.515516
0.460275
0.409714
0.365499
0.328496
0.298714
0.275559
0.257978
0.244733
0.237713
0.784778
0.810321
0.838876
0.871911
0.908115
0.947159
0.987952
1.02868
1.065
1.09588
1.11929
1.13359
1.13826
1.1348
1.12435
1.10354
1.0694
1.0244
0.970178
0.909368
0.844293
0.776937
0.709466
0.644682
0.584812
0.531251
0.48492
0.44572
0.413323
0.393579
1.06396
1.08382
1.11671
1.15701
1.20009
1.24614
1.29042
1.32818
1.35774
1.37998
1.39457
1.3996
1.39656
1.38769
1.37206
1.34657
1.31563
1.27942
1.23812
1.19295
1.14551
1.09652
1.04738
0.999245
0.952399
0.906638
0.86252
0.820499
0.781559
0.756978
1.20422
1.20258
1.22181
1.25367
1.28686
1.3165
1.33964
1.35592
1.36565
1.3694
1.36835
1.36337
1.35367
1.34087
1.31984
1.28815
1.25867
1.22785
1.19892
1.17194
1.14817
1.12974
1.11756
1.11146
1.10967
1.10913
1.1096
1.10974
1.10761
1.10039
0.127141
0.142125
0.145996
0.146673
0.144957
0.141093
0.135604
0.129113
0.122093
0.114982
0.108067
0.101612
0.0957147
0.0906268
0.0864079
0.0833354
0.0816747
0.0824224
0.0868656
0.0946985
0.102861
0.108053
0.108581
0.104144
0.0952221
0.0823818
0.0668239
0.049127
0.0331938
0.0230565
0.208268
0.231921
0.235605
0.230846
0.220832
0.208119
0.194228
0.180166
0.166465
0.153583
0.141708
0.131047
0.121607
0.113636
0.107168
0.102594
0.100498
0.102686
0.110758
0.124189
0.139027
0.150793
0.156604
0.155458
0.147214
0.132473
0.112916
0.0894294
0.0679392
0.0492246
0.249773
0.27573
0.28205
0.278014
0.268012
0.25454
0.239199
0.223178
0.207212
0.191977
0.177795
0.16497
0.153617
0.144127
0.136683
0.131908
0.130592
0.134461
0.144814
0.160801
0.178179
0.192266
0.199945
0.200061
0.191962
0.176114
0.154106
0.126696
0.100157
0.0759107
0.274824
0.297253
0.3039
0.30105
0.292346
0.279884
0.265178
0.249331
0.233111
0.217355
0.202531
0.189023
0.177091
0.167258
0.15991
0.155905
0.156118
0.16184
0.17379
0.190855
0.208917
0.223549
0.23183
0.23267
0.225168
0.209462
0.186905
0.158115
0.128936
0.101369
0.287744
0.304878
0.310348
0.308517
0.301443
0.290695
0.277707
0.263229
0.247839
0.232681
0.21828
0.205045
0.193419
0.184064
0.17756
0.175027
0.177182
0.184816
0.197911
0.215157
0.232893
0.24713
0.255299
0.256493
0.249712
0.234812
0.212888
0.18429
0.154258
0.124987
0.292762
0.301871
0.305591
0.304669
0.299837
0.291737
0.280571
0.267647
0.253645
0.239966
0.226813
0.214521
0.203866
0.195617
0.190531
0.189997
0.194371
0.203885
0.217834
0.234735
0.251495
0.264759
0.272358
0.273602
0.267502
0.253736
0.233098
0.205735
0.176091
0.146278
0.291682
0.292592
0.292797
0.291725
0.288668
0.283081
0.274837
0.264663
0.253446
0.241325
0.229428
0.218475
0.20934
0.202703
0.199498
0.201355
0.208143
0.219476
0.234059
0.250323
0.265754
0.277694
0.284418
0.285454
0.279905
0.267376
0.248412
0.222963
0.194566
0.16498
0.287063
0.277648
0.273218
0.271585
0.270367
0.26743
0.262235
0.255094
0.246487
0.236847
0.227085
0.218147
0.210661
0.205942
0.204983
0.209468
0.218811
0.231878
0.246929
0.262414
0.276383
0.286832
0.292501
0.293133
0.287987
0.276704
0.259633
0.236525
0.209937
0.181024
0.277637
0.258354
0.249563
0.246869
0.246772
0.246313
0.244185
0.240463
0.234842
0.227926
0.220604
0.213817
0.208464
0.205935
0.207438
0.214655
0.226525
0.241281
0.256674
0.271365
0.283885
0.292823
0.297376
0.297475
0.292628
0.282594
0.267218
0.246386
0.221847
0.194377
0.267634
0.242513
0.229001
0.223577
0.22304
0.223814
0.223963
0.222714
0.219764
0.215663
0.210891
0.20645
0.203391
0.203212
0.20724
0.21719
0.231455
0.247732
0.263458
0.277427
0.288604
0.296137
0.299636
0.29911
0.294243
0.285081
0.271374
0.252896
0.230731
0.205416
0.262766
0.233424
0.214626
0.205084
0.202197
0.202565
0.203684
0.204193
0.203466
0.201573
0.198965
0.196883
0.196147
0.19824
0.204767
0.217357
0.233723
0.251348
0.267353
0.280708
0.290735
0.29721
0.299798
0.29852
0.293488
0.28484
0.272705
0.256601
0.236929
0.214085
0.263949
0.233568
0.209847
0.194442
0.187586
0.185441
0.185894
0.186923
0.187522
0.187349
0.186585
0.18612
0.18744
0.19161
0.200437
0.215374
0.23384
0.252478
0.268708
0.281728
0.291028
0.296405
0.298123
0.296393
0.291416
0.283305
0.272249
0.258263
0.241352
0.22105
0.269911
0.239463
0.21389
0.19483
0.182221
0.175418
0.173421
0.173358
0.173975
0.174569
0.175001
0.175773
0.178204
0.184043
0.194761
0.211586
0.231455
0.251033
0.267648
0.280308
0.288913
0.293662
0.29484
0.292929
0.288233
0.280812
0.270954
0.259005
0.244454
0.226467
0.281346
0.251471
0.224789
0.202841
0.186461
0.175614
0.169284
0.166145
0.165147
0.165199
0.165777
0.167039
0.169938
0.176456
0.188388
0.206437
0.227145
0.247191
0.263933
0.276497
0.284796
0.289189
0.290159
0.288363
0.284173
0.277705
0.269369
0.258996
0.2463
0.230239
0.298554
0.269915
0.243594
0.220166
0.200656
0.185532
0.174691
0.167569
0.163415
0.161369
0.160726
0.161403
0.163955
0.169956
0.182148
0.200538
0.22138
0.241427
0.258106
0.270651
0.278829
0.283177
0.284303
0.282957
0.279559
0.274482
0.267539
0.258406
0.247115
0.232739
0.322251
0.29544
0.269967
0.245874
0.224152
0.205484
0.190305
0.178677
0.170358
0.164853
0.161643
0.160437
0.161602
0.166317
0.177078
0.194724
0.214801
0.234269
0.250616
0.263079
0.271312
0.275929
0.277607
0.277179
0.275033
0.271116
0.265333
0.25739
0.247255
0.234335
0.351933
0.327002
0.302636
0.278454
0.255331
0.233993
0.215124
0.19919
0.186395
0.176667
0.169796
0.165579
0.164178
0.166603
0.174656
0.190107
0.208447
0.22657
0.242147
0.254376
0.262779
0.268056
0.270788
0.271402
0.270297
0.267494
0.262877
0.256096
0.247016
0.235335
0.386041
0.363046
0.339948
0.316065
0.292175
0.268979
0.247254
0.227675
0.210743
0.196717
0.185694
0.177673
0.172874
0.171993
0.176628
0.188209
0.203594
0.219563
0.233792
0.245602
0.254319
0.260195
0.263781
0.26548
0.265443
0.263758
0.260306
0.254644
0.24657
0.235978
0.422992
0.401907
0.380154
0.35685
0.332693
0.308353
0.284626
0.262284
0.241987
0.224176
0.209174
0.197156
0.188474
0.183794
0.184281
0.191251
0.202454
0.215303
0.227637
0.23838
0.246814
0.252951
0.257169
0.259768
0.260781
0.260118
0.257725
0.253155
0.246036
0.236443
0.461307
0.442066
0.421703
0.399226
0.375264
0.350452
0.325592
0.301486
0.278859
0.25822
0.239989
0.224434
0.212014
0.203398
0.199592
0.20166
0.208063
0.216798
0.226035
0.234626
0.241747
0.247543
0.251893
0.254974
0.256749
0.256922
0.255429
0.251819
0.245562
0.236917
0.499931
0.482452
0.463526
0.442162
0.418917
0.39439
0.369373
0.344668
0.321002
0.298868
0.278686
0.260701
0.245412
0.2334
0.225683
0.222752
0.223821
0.227382
0.232133
0.237187
0.241986
0.246032
0.249483
0.252261
0.254163
0.254776
0.253899
0.250929
0.245329
0.237638
0.538454
0.522675
0.505315
0.485491
0.463685
0.440448
0.416541
0.392746
0.369738
0.34795
0.327722
0.309176
0.292741
0.278781
0.268283
0.260985
0.256134
0.253107
0.251383
0.250778
0.251037
0.251723
0.252698
0.253774
0.254607
0.254783
0.253719
0.250867
0.245805
0.239059
0.577475
0.56342
0.548019
0.530497
0.511259
0.490807
0.469843
0.449104
0.429187
0.410422
0.392983
0.37677
0.362028
0.348742
0.337687
0.327563
0.316819
0.305565
0.294501
0.284749
0.276917
0.27085
0.266404
0.263297
0.26106
0.259148
0.25686
0.253556
0.248468
0.242317
0.619125
0.607357
0.594865
0.58106
0.566264
0.550943
0.535735
0.521288
0.508073
0.496255
0.485735
0.476003
0.466964
0.458109
0.449835
0.439451
0.423736
0.403237
0.379806
0.356264
0.334806
0.316263
0.301006
0.288976
0.279747
0.272633
0.266724
0.26117
0.25497
0.248856
0.669385
0.661286
0.653614
0.646039
0.63883
0.632379
0.627159
0.623675
0.622148
0.622345
0.623736
0.62506
0.625887
0.625221
0.623028
0.615084
0.595991
0.566801
0.529822
0.489221
0.448798
0.410752
0.376788
0.347998
0.324733
0.306537
0.292356
0.280971
0.271043
0.263654
0.74219
0.740713
0.741313
0.744088
0.749183
0.756702
0.766722
0.779401
0.794395
0.810839
0.827231
0.841695
0.85382
0.862436
0.867093
0.861624
0.840155
0.804404
0.756575
0.700985
0.641738
0.58133
0.523194
0.469998
0.423985
0.386092
0.355962
0.332268
0.313427
0.301687
0.866212
0.87691
0.891054
0.908573
0.930364
0.955509
0.983322
1.01337
1.0445
1.0752
1.10332
1.12678
1.14552
1.15853
1.1649
1.15666
1.1309
1.09087
1.03859
0.977146
0.908967
0.835315
0.76021
0.686063
0.616596
0.55495
0.503163
0.460411
0.425881
0.405139
1.08431
1.10508
1.13301
1.16707
1.20361
1.24202
1.28102
1.31933
1.35525
1.38753
1.41447
1.43438
1.44696
1.44914
1.4421
1.41567
1.37832
1.33355
1.28456
1.23191
1.1762
1.11788
1.05243
0.984336
0.915819
0.849021
0.788103
0.733209
0.685568
0.655435
1.35531
1.36804
1.39741
1.43699
1.47971
1.52084
1.55708
1.5864
1.60857
1.6243
1.63341
1.63468
1.62798
1.61275
1.58481
1.53631
1.48655
1.43601
1.38915
1.3457
1.30641
1.27112
1.24135
1.21787
1.19836
1.17872
1.15242
1.12382
1.09416
1.07192
1.41563
1.4244
1.45109
1.48816
1.52655
1.56039
1.58633
1.60326
1.61158
1.61266
1.60661
1.59373
1.57297
1.54255
1.49695
1.43413
1.37667
1.32314
1.27849
1.24284
1.21762
1.20281
1.19932
1.20776
1.22495
1.24665
1.27056
1.29281
1.30889
1.31668
0.163517
0.181145
0.183538
0.18166
0.178069
0.172401
0.164982
0.15647
0.147444
0.138397
0.12959
0.121362
0.113817
0.107333
0.102001
0.0983417
0.0970291
0.100773
0.112854
0.130879
0.14691
0.155521
0.155726
0.148624
0.135835
0.118475
0.0978637
0.0747147
0.0539263
0.0370804
0.270288
0.297761
0.298755
0.291751
0.27913
0.26334
0.246025
0.22847
0.211327
0.1951
0.179975
0.166228
0.153822
0.143166
0.134347
0.128141
0.1262
0.133562
0.153952
0.1836
0.211748
0.230324
0.236815
0.232041
0.217791
0.195677
0.167607
0.134469
0.103429
0.0771015
0.32794
0.356323
0.359922
0.354054
0.341406
0.324671
0.305578
0.285584
0.265631
0.246409
0.228244
0.211564
0.196503
0.183661
0.173412
0.166967
0.166234
0.176126
0.20016
0.233775
0.265708
0.287522
0.29645
0.293127
0.278904
0.25524
0.224006
0.185749
0.147883
0.113906
0.365038
0.387967
0.392289
0.387393
0.375953
0.360219
0.341645
0.321617
0.301198
0.281148
0.261948
0.244165
0.228159
0.214699
0.204505
0.199085
0.200361
0.21242
0.237885
0.271964
0.304114
0.326407
0.336223
0.334123
0.320941
0.297887
0.266376
0.22669
0.185583
0.147275
0.388915
0.403605
0.406725
0.402209
0.392323
0.3785
0.361547
0.342782
0.323273
0.303722
0.284747
0.267069
0.251283
0.238328
0.229248
0.225821
0.229526
0.243629
0.269293
0.301864
0.332284
0.353458
0.363118
0.361793
0.349927
0.328388
0.298201
0.259318
0.217427
0.176605
0.402803
0.407979
0.408071
0.40389
0.395536
0.38368
0.368815
0.35221
0.334686
0.316598
0.298756
0.282138
0.267504
0.255966
0.248879
0.248231
0.254709
0.270613
0.295809
0.325829
0.35327
0.372293
0.381025
0.379971
0.369336
0.34966
0.321665
0.284958
0.244025
0.202007
0.408838
0.404119
0.399389
0.394117
0.387402
0.378413
0.367341
0.353508
0.337823
0.321313
0.305285
0.290575
0.27786
0.26853
0.26421
0.266986
0.276499
0.293992
0.318251
0.345153
0.368947
0.385157
0.39239
0.391119
0.381509
0.363765
0.338456
0.304805
0.265915
0.22366
0.409717
0.394098
0.383187
0.375996
0.370451
0.364271
0.356352
0.345819
0.333239
0.319793
0.306218
0.293425
0.283138
0.276691
0.275833
0.282502
0.295235
0.314086
0.337063
0.360546
0.380485
0.393538
0.398885
0.396951
0.388198
0.37239
0.349392
0.318727
0.282354
0.241813
0.406701
0.379373
0.361645
0.351848
0.346972
0.343381
0.338821
0.331675
0.32242
0.312052
0.301426
0.291464
0.284136
0.28101
0.284254
0.295066
0.311083
0.33103
0.352442
0.372587
0.388659
0.398462
0.40172
0.398829
0.389987
0.375456
0.354835
0.32741
0.294265
0.256215
0.398932
0.361531
0.338726
0.326365
0.321189
0.319
0.316829
0.31276
0.3068
0.299795
0.292358
0.285592
0.281618
0.282178
0.289812
0.30492
0.324045
0.344874
0.364618
0.381582
0.393977
0.400642
0.401814
0.397761
0.388789
0.374937
0.356393
0.332233
0.302947
0.267941
0.389033
0.346731
0.319058
0.303243
0.296366
0.29426
0.293511
0.291815
0.288658
0.28446
0.280188
0.276702
0.276299
0.280724
0.292889
0.312238
0.334147
0.355525
0.373705
0.387701
0.396769
0.400832
0.400053
0.395185
0.386179
0.37308
0.356028
0.335072
0.309102
0.276926
0.382747
0.338112
0.305341
0.285785
0.275714
0.272085
0.271366
0.270973
0.269894
0.268082
0.26631
0.265904
0.268863
0.277257
0.293864
0.317164
0.341383
0.36296
0.379681
0.391097
0.397493
0.399135
0.396887
0.391452
0.382696
0.370586
0.355334
0.336685
0.312915
0.283208
0.382683
0.338228
0.30253
0.276926
0.262251
0.255548
0.253184
0.252668
0.252568
0.252402
0.252686
0.254441
0.260283
0.272484
0.293159
0.319877
0.34578
0.367215
0.382622
0.392061
0.396189
0.395956
0.392714
0.387054
0.378926
0.368196
0.354502
0.337079
0.315058
0.287473
0.387158
0.343864
0.307394
0.279102
0.259431
0.247502
0.241807
0.23953
0.238986
0.239375
0.240847
0.244145
0.251697
0.267234
0.291288
0.320661
0.347474
0.368618
0.383139
0.390709
0.393096
0.391678
0.387947
0.382522
0.375575
0.366161
0.353364
0.336825
0.316155
0.290327
0.397505
0.355999
0.319331
0.288825
0.265593
0.249608
0.239543
0.234018
0.231407
0.231027
0.232545
0.236442
0.245039
0.262533
0.28892
0.320005
0.347442
0.367852
0.381041
0.387413
0.388659
0.386784
0.383174
0.378757
0.372875
0.36415
0.352062
0.336294
0.316622
0.292241
0.414434
0.374863
0.33881
0.307292
0.281311
0.261301
0.246934
0.23744
0.231816
0.22921
0.229456
0.23282
0.24167
0.259422
0.286936
0.318615
0.345456
0.364944
0.377215
0.382779
0.383684
0.38221
0.379578
0.375751
0.37033
0.362175
0.350706
0.335609
0.3167
0.293549
0.438037
0.401024
0.366336
0.334385
0.30628
0.282779
0.264215
0.250417
0.240925
0.235167
0.233039
0.234707
0.242712
0.259156
0.286465
0.317675
0.343141
0.361452
0.372803
0.378042
0.37963
0.378765
0.376507
0.373052
0.368008
0.360308
0.349372
0.334863
0.316592
0.294514
0.469026
0.434156
0.400696
0.368622
0.338987
0.312682
0.29042
0.272498
0.258934
0.249501
0.244329
0.24348
0.249578
0.264419
0.289409
0.319004
0.342688
0.35935
0.369906
0.375487
0.377147
0.376271
0.374143
0.37091
0.366023
0.35863
0.348123
0.33413
0.316438
0.295357
0.505521
0.472481
0.440137
0.408186
0.377595