/*--------------------------------*- C++ -*----------------------------------*\
  =========                 |
  \\      /  F ield         | OpenFOAM: The Open Source CFD Toolbox
   \\    /   O peration     | Website:  https://openfoam.org
    \\  /    A nd           | Version:  12
     \\/     M anipulation  |
\*---------------------------------------------------------------------------*/
FoamFile
{
    format      ascii;
    class       volScalarField;
    location    "1450/air";
    object      nut;
}
// * * * * * * * * * * * * * * * * * * * * * * * * * * * * * * * * * * * * * //

dimensions      [0 2 -1 0 0 0 0];

internalField   nonuniform List<scalar> 
243000
(
0.00012717
0.000129448
0.000128603
0.000126332
0.000122974
0.000118867
0.000114329
0.00010961
0.000104894
0.000100324
9.59933e-05
9.20236e-05
8.84795e-05
8.54007e-05
8.27596e-05
8.05545e-05
7.87869e-05
7.75737e-05
7.70822e-05
7.74403e-05
7.85456e-05
8.00178e-05
8.12945e-05
8.17549e-05
8.09222e-05
7.83591e-05
7.38381e-05
0.00031527
0.000300726
0.000267051
0.000469784
0.000474143
0.000464419
0.000447978
0.000428716
0.000408392
0.000388023
0.000368275
0.00034956
0.000332147
0.000316225
0.000301994
0.000289494
0.000278826
0.000270007
0.000263131
0.000258359
0.000256298
0.00025754
0.000262504
0.000270651
0.000280554
0.00029017
0.00029743
0.000300494
0.000297787
0.000289457
0.000275694
0.000255348
0.000228711
0.000580065
0.00061842
0.000632325
0.000634683
0.000630089
0.000621008
0.000608946
0.000594963
0.000579779
0.000563953
0.000547906
0.00053211
0.000516786
0.000502375
0.000489194
0.000477715
0.00046856
0.000463029
0.000462028
0.000465756
0.000472857
0.000480787
0.000486399
0.000486947
0.000480133
0.000464361
0.000440025
0.000405708
0.000366543
0.000316921
0.000568544
0.000617306
0.00064055
0.000648833
0.000647978
0.000641436
0.000631108
0.000618296
0.000603939
0.000588671
0.000572984
0.000557404
0.000542245
0.000528034
0.000515193
0.000504331
0.000496227
0.00049224
0.000493056
0.000498486
0.000506935
0.000515887
0.00052244
0.000524118
0.000518717
0.000504584
0.000481798
0.000448964
0.000410271
0.000361302
0.000538294
0.000595724
0.00062802
0.000643713
0.000648652
0.000646418
0.000639367
0.000629053
0.000616796
0.000603109
0.000588669
0.00057407
0.000559734
0.000546295
0.000534271
0.00052443
0.000517665
0.000515337
0.000517827
0.000524609
0.000533901
0.000543298
0.00055019
0.000552417
0.00054799
0.000535308
0.000514231
0.000483691
0.000446726
0.00040043
0.000502273
0.000558368
0.000599207
0.000623408
0.000635586
0.000639209
0.000636841
0.000630321
0.000620794
0.000609321
0.000596902
0.000583897
0.000570903
0.000558669
0.000547792
0.00053925
0.000533993
0.000533341
0.000537362
0.000545253
0.000555118
0.000564681
0.000571621
0.000574092
0.000570356
0.000558939
0.000539566
0.000511486
0.000476827
0.000433775
0.000485707
0.000522614
0.000562322
0.000592162
0.000611782
0.000621996
0.000625168
0.000623222
0.000617489
0.00060927
0.000599146
0.000588098
0.000576876
0.000566173
0.000556717
0.000549664
0.000546016
0.000546982
0.000552399
0.000561233
0.000571522
0.000581128
0.000587994
0.00059055
0.000587328
0.000577003
0.000559259
0.000533584
0.000501486
0.000461732
0.000489656
0.000501978
0.000531397
0.00056103
0.000583889
0.000598446
0.000606671
0.000609539
0.00060805
0.000603376
0.000596293
0.000587781
0.000578542
0.000569585
0.000561765
0.000556322
0.000554321
0.000556824
0.000563506
0.000573163
0.000583804
0.000593423
0.000600189
0.000602771
0.000599952
0.000590581
0.000574357
0.00055095
0.000521541
0.000484924
0.000509016
0.00049905
0.000510928
0.000533812
0.000556753
0.000574307
0.000585889
0.000592044
0.000594128
0.000593043
0.000589205
0.000583454
0.000576548
0.000569603
0.000563513
0.000559733
0.000559359
0.000563294
0.000571127
0.000581523
0.000592491
0.000602144
0.000608848
0.000611464
0.000608997
0.000600475
0.000585666
0.00056443
0.000537589
0.000503947
0.000538388
0.000515389
0.000507002
0.000515635
0.000533008
0.000550622
0.000564483
0.000573594
0.000578485
0.000579914
0.000578958
0.000575957
0.000571511
0.000566659
0.000562414
0.000560318
0.000561486
0.000566737
0.000575609
0.000586682
0.000597985
0.00060773
0.000614455
0.00061716
0.000615043
0.000607313
0.00059389
0.000574553
0.000550075
0.000519295
0.000569666
0.00054356
0.00052194
0.000513049
0.00051807
0.000530486
0.000543861
0.000554696
0.000562022
0.000565935
0.0005671
0.000566241
0.000564069
0.000561303
0.000558897
0.000558435
0.000561043
0.000567513
0.000577284
0.000588912
0.000600552
0.000610492
0.000617371
0.00062027
0.000618549
0.000611619
0.000599351
0.000581736
0.000559453
0.000531546
0.000600945
0.000577707
0.000550884
0.000529146
0.000518488
0.000519515
0.000527469
0.000537163
0.000545547
0.0005514
0.00055461
0.000555552
0.000555024
0.000554081
0.000553395
0.000554443
0.000558344
0.000565861
0.000576507
0.000588847
0.00060089
0.00061105
0.000618097
0.000621181
0.000619815
0.000613592
0.000602437
0.000586402
0.000566125
0.000540857
0.000631714
0.00061047
0.00058459
0.000558354
0.000536459
0.000523691
0.000520875
0.000524743
0.000531203
0.000537402
0.000541963
0.000544511
0.000545405
0.000545678
0.000546391
0.000548726
0.00055372
0.000562085
0.00057338
0.000586231
0.000598721
0.00060926
0.000616652
0.000620101
0.000619114
0.000613492
0.000603397
0.000588877
0.000570431
0.000547572
0.000661823
0.00064224
0.000619764
0.000593656
0.000567244
0.000544422
0.000529209
0.000522723
0.000522851
0.000526318
0.000530459
0.00053375
0.000535758
0.000536948
0.000538478
0.000541736
0.000547536
0.000556509
0.000568264
0.000581514
0.000594411
0.000605381
0.000613239
0.000617204
0.000616763
0.000611836
0.000602661
0.000589434
0.000572698
0.000552057
0.000691215
0.000673096
0.00065307
0.000629202
0.000603113
0.000576421
0.000552525
0.000534951
0.000525138
0.000521873
0.000522552
0.000524695
0.000526819
0.000528538
0.000530425
0.000534026
0.000540228
0.000549501
0.000561479
0.000574978
0.000588218
0.000599632
0.000608033
0.000612635
0.000612889
0.000608799
0.000600565
0.000588514
0.000573251
0.000554641
0.000719827
0.000702943
0.000684556
0.000663174
0.000639194
0.00061278
0.000585519
0.000560405
0.000540627
0.000527882
0.000521599
0.000519717
0.000520047
0.000521238
0.000523028
0.000526303
0.000532345
0.000541503
0.000553402
0.000566932
0.000580391
0.000592218
0.000601205
0.00060653
0.00060762
0.000604454
0.000597281
0.000586441
0.000572662
0.000556012
0.000747499
0.000731619
0.000714532
0.000695497
0.000673683
0.000649068
0.000621977
0.000593902
0.000567514
0.000545794
0.000530572
0.000521718
0.000517631
0.000516444
0.000517084
0.00051956
0.000524664
0.000533111
0.000544505
0.000557758
0.000571239
0.000583392
0.00059296
0.00059907
0.000601118
0.000598994
0.000593276
0.000584013
0.000571811
0.000556943
0.000774049
0.000758964
0.000742928
0.000725393
0.000705681
0.000683268
0.000657911
0.000630008
0.000601002
0.000573419
0.000550079
0.000532877
0.000521962
0.000516126
0.000513901
0.000514568
0.00051822
0.000525264
0.000535495
0.000548011
0.000561222
0.000573566
0.00058373
0.00059076
0.000594028
0.000593285
0.000588987
0.000581261
0.0005706
0.000557376
0.000799268
0.000784841
0.000769702
0.000753528
0.000735573
0.000715144
0.000691815
0.000665446
0.000636523
0.000606521
0.000577878
0.0005533
0.000534635
0.000522215
0.000515163
0.000512514
0.000513759
0.000518835
0.000527476
0.00053886
0.000551516
0.000563846
0.00057445
0.000582283
0.000586678
0.000587259
0.000584337
0.000578104
0.000568945
0.000557257
0.000823026
0.000809177
0.000794887
0.000780151
0.000763644
0.000744875
0.000723396
0.000698876
0.000671294
0.000641263
0.000610328
0.000580881
0.000555486
0.000535881
0.000522473
0.000514858
0.000512376
0.000514564
0.00052095
0.000530684
0.000542362
0.000554355
0.000565166
0.000573639
0.000579031
0.000580876
0.000579285
0.000574498
0.000566796
0.000556589
0.000845244
0.000831998
0.000818835
0.000805098
0.000789796
0.000772445
0.000752608
0.000729901
0.000704085
0.000675265
0.000644211
0.000612555
0.00058267
0.00055686
0.000536732
0.000522955
0.000515369
0.000513494
0.000516691
0.000524034
0.000534138
0.000545343
0.000556028
0.000564909
0.000571128
0.000574134
0.000573815
0.000570398
0.000564132
0.00055537
0.000865907
0.00085373
0.000841573
0.00082853
0.000814142
0.000797956
0.000779551
0.000758532
0.000734565
0.000707494
0.000677571
0.000645717
0.000613712
0.000583661
0.000557749
0.000537612
0.000523992
0.000516851
0.000515763
0.000519751
0.000527481
0.000537256
0.00054734
0.000556291
0.000563095
0.00056709
0.000567976
0.000565852
0.000561005
0.00055364
0.000885563
0.000874136
0.000862429
0.00085001
0.000836459
0.000821386
0.000804394
0.000785071
0.000763018
0.000737933
0.000709751
0.000678941
0.000646675
0.000614515
0.00058458
0.000558953
0.00053918
0.000525984
0.000519471
0.000519029
0.000523331
0.000530825
0.000539647
0.000548173
0.000555204
0.000559925
0.000561884
0.00056097
0.000557454
0.000551485
0.000902778
0.000892023
0.000880992
0.000869345
0.000856767
0.000843119
0.000827947
0.000810632
0.000790639
0.000767572
0.000741205
0.000712127
0.000680864
0.000648396
0.000616404
0.000586867
0.000561693
0.000542315
0.000529578
0.00052351
0.000523292
0.000527307
0.000533884
0.000541241
0.000547962
0.000553021
0.000555795
0.000555951
0.000553661
0.000549072
0.000918435
0.000908403
0.000898108
0.000887314
0.000876146
0.000864192
0.000850837
0.000835532
0.000817736
0.000796982
0.000773065
0.000746387
0.000717174
0.000685908
0.000653717
0.000622148
0.000592976
0.000567991
0.000548749
0.000536075
0.000529846
0.000529033
0.000531981
0.000536981
0.000542456
0.000547196
0.000550321
0.000551284
0.000550035
0.000546728
0.000933443
0.000924363
0.000915047
0.000905388
0.000895336
0.000884704
0.000873153
0.000860241
0.000845442
0.00082821
0.000808074
0.000784951
0.000758917
0.000730311
0.000699716
0.000668108
0.00063678
0.000607441
0.00058211
0.00056227
0.000548648
0.00054103
0.000538367
0.000539164
0.0005418
0.000544865
0.000547315
0.000548391
0.00054774
0.0005454
0.000950788
0.00094334
0.000935674
0.000927812
0.000919745
0.000911406
0.000902596
0.000892978
0.00088205
0.00086921
0.000853837
0.000835496
0.000813993
0.000789519
0.000762456
0.00073299
0.000701671
0.000670015
0.000639997
0.000613413
0.000591646
0.000575382
0.000564468
0.0005581
0.000555042
0.000553936
0.000553593
0.000553055
0.000551699
0.000549469
0.000979985
0.000975269
0.000970286
0.000965376
0.000960775
0.000956527
0.000952456
0.000948182
0.000943064
0.000936379
0.000927401
0.000915515
0.000900349
0.000881931
0.00086066
0.000835939
0.000807334
0.000776442
0.000744718
0.000713886
0.000685467
0.000660614
0.000639957
0.000623655
0.000611277
0.000601909
0.000594651
0.000588682
0.000583304
0.000578757
0.00105724
0.00105606
0.00105503
0.00105553
0.00105791
0.00106159
0.00106582
0.00106982
0.00107284
0.00107391
0.00107249
0.00106822
0.0010608
0.00105046
0.00103729
0.0010204
0.000998324
0.000973031
0.000945709
0.000917606
0.000889818
0.000863183
0.000838485
0.000816367
0.000796791
0.000778602
0.000762003
0.00074714
0.000734034
0.000723586
0.00132831
0.00132589
0.00132801
0.0013356
0.00134486
0.00135219
0.00135804
0.0013625
0.0013657
0.00136595
0.00136462
0.00136205
0.00135835
0.00135418
0.0013489
0.00134234
0.00133126
0.00132001
0.00130887
0.00129871
0.00128943
0.00128131
0.00127436
0.0012689
0.0012638
0.00125476
0.00124526
0.00123621
0.00122928
0.0012227
0.000159094
0.000163054
0.000161212
0.0001571
0.000151606
0.000145305
0.000138627
0.00013192
0.000125408
0.000119278
0.000113671
0.000108703
0.0001044
0.000100845
9.80349e-05
9.60475e-05
9.49507e-05
9.50212e-05
9.66037e-05
9.97541e-05
0.000103778
0.000107588
0.000110234
0.000111013
0.000109458
0.000105055
9.76679e-05
8.61949e-05
0.000370422
6.87787e-05
0.000655345
0.000731785
0.000710603
0.00065514
0.000592343
0.000532922
0.000480437
0.000435058
0.00039602
0.000363054
0.000335153
0.000311575
0.000291608
0.000275371
0.000262217
0.000252451
0.000246095
0.000244676
0.00024795
0.00025605
0.00026851
0.000284084
0.000300013
0.000312745
0.000317102
0.000310927
0.000295112
0.000269674
0.00026188
0.000248725
0.00101001
0.00114942
0.00115836
0.00110509
0.00102857
0.000946371
0.000867443
0.000795532
0.000731602
0.000676254
0.000628637
0.000588148
0.00055384
0.000526222
0.000504475
0.000488899
0.000479805
0.000477885
0.00048008
0.000486029
0.000497232
0.000514328
0.000534318
0.000551531
0.000557998
0.000547035
0.000519274
0.000472691
0.000430966
0.000405789
0.00121808
0.00139187
0.00143097
0.00139795
0.00133199
0.00125016
0.00116487
0.00108324
0.00100837
0.000941451
0.000882741
0.000832624
0.000790475
0.000757369
0.000732869
0.000717491
0.000711961
0.000714113
0.000718009
0.000722203
0.000729345
0.000742259
0.00075963
0.000776738
0.000781778
0.000766591
0.000730113
0.000669259
0.00060611
0.000560997
0.00131363
0.00149288
0.00156601
0.00156563
0.0015176
0.00144674
0.00136631
0.00128698
0.00121272
0.00114293
0.00108035
0.00102707
0.000982692
0.000949112
0.000926442
0.000916238
0.000918342
0.000928014
0.000934657
0.000938006
0.000941928
0.000950204
0.00096357
0.00097832
0.000982022
0.00096441
0.000923144
0.000854498
0.000777509
0.000717878
0.00136483
0.00152583
0.00160658
0.00162815
0.00160602
0.0015562
0.00149494
0.00142491
0.00135217
0.00128428
0.00122323
0.00117292
0.00113085
0.00110066
0.00108341
0.00108195
0.0010943
0.00111289
0.00112517
0.00112923
0.00113017
0.00113431
0.00114351
0.001157
0.00115915
0.00114058
0.00109723
0.00102542
0.000941139
0.000871593
0.00136957
0.00148476
0.00156492
0.001606
0.00160925
0.00158594
0.00154538
0.00149281
0.0014342
0.00137688
0.00132309
0.00127573
0.00123881
0.00121509
0.00120607
0.00121592
0.00124013
0.00126745
0.00128657
0.00129263
0.00129268
0.00129426
0.00130027
0.00131137
0.00131454
0.0012962
0.00125292
0.00118153
0.001094
0.00101665
0.00133836
0.00140121
0.00146163
0.00150977
0.0015377
0.00154678
0.00153416
0.00150401
0.00146405
0.00142038
0.00137792
0.00134044
0.00131146
0.00129643
0.00129747
0.00131996
0.00135725
0.00139537
0.0014196
0.00142931
0.00143063
0.00143183
0.00143488
0.00144371
0.0014472
0.00143208
0.00139102
0.00132276
0.00123585
0.00115284
0.0013231
0.00133148
0.00136024
0.00139662
0.00143179
0.00145802
0.00146924
0.00146532
0.00144879
0.00142367
0.00139613
0.00137118
0.00135318
0.00134878
0.00136097
0.00139663
0.00144681
0.00149568
0.00152812
0.00154256
0.00154697
0.00154758
0.00154897
0.00155582
0.00155872
0.00154726
0.00151256
0.00144994
0.00136693
0.00127903
0.00135345
0.0013027
0.00128341
0.00129313
0.00131872
0.00134919
0.0013747
0.00139041
0.00139579
0.00139195
0.00138218
0.00137212
0.00136732
0.00137534
0.00139947
0.00144838
0.00151113
0.00156894
0.00161034
0.001632
0.00164059
0.00164281
0.00164428
0.00164966
0.00165208
0.00164465
0.00161649
0.00156196
0.00148351
0.00139424
0.00140562
0.00132089
0.00125323
0.00122177
0.00122374
0.00124386
0.00127122
0.0012975
0.00131837
0.0013325
0.00134102
0.00134765
0.00135786
0.0013788
0.00141564
0.00147759
0.00155235
0.0016245
0.00167588
0.00170424
0.00171685
0.00172134
0.00172326
0.0017272
0.00172944
0.00172341
0.00170009
0.0016546
0.00158444
0.00149954
0.0014901
0.00137618
0.00127571
0.00120583
0.00117058
0.0011664
0.00118129
0.00120628
0.00123364
0.00125903
0.00128156
0.00130318
0.00132836
0.00136268
0.00141243
0.00148672
0.00157281
0.00165452
0.0017165
0.00175683
0.00177752
0.00178612
0.001789
0.00179056
0.0017888
0.00178159
0.00176472
0.00172826
0.00166896
0.00159166
0.00160206
0.00147479
0.00135103
0.00124968
0.00117901
0.00114042
0.001129
0.00113907
0.00116068
0.00118796
0.00121728
0.00124862
0.00128453
0.00133122
0.00139323
0.00147864
0.0015747
0.00166568
0.00173773
0.00178709
0.0018164
0.00183181
0.0018385
0.00184077
0.00183828
0.0018292
0.00181269
0.00178522
0.00173647
0.00166992
0.00174957
0.00161716
0.00148246
0.00135881
0.00125729
0.00118258
0.00113709
0.00111867
0.00112083
0.00113812
0.00116417
0.00119716
0.00123787
0.00129023
0.00136248
0.00145695
0.0015611
0.00166025
0.00174156
0.00180038
0.00183918
0.00186183
0.00187356
0.00187848
0.00187697
0.00186908
0.00185307
0.00182879
0.00179186
0.00173856
0.00192537
0.00179977
0.00166492
0.00152941
0.00140451
0.00129818
0.00121698
0.00116326
0.00113531
0.00112932
0.00114002
0.00116412
0.00120117
0.00125262
0.00132637
0.00142645
0.00153589
0.00164128
0.00173036
0.0017987
0.00184662
0.00187716
0.00189508
0.00190437
0.00190575
0.0019005
0.00188771
0.00186863
0.00184058
0.00179824
0.0021276
0.00201534
0.00188698
0.00174794
0.00160974
0.00148092
0.00136931
0.0012805
0.00121696
0.00117853
0.00116266
0.00116651
0.00118848
0.00123044
0.00129653
0.0013937
0.00150397
0.00161255
0.00170724
0.00178389
0.00184042
0.00187917
0.00190425
0.0019195
0.00192605
0.00192583
0.00191896
0.00190399
0.00188065
0.00184737
0.00234816
0.00225155
0.00213369
0.00199911
0.00185744
0.00171625
0.00158311
0.00146507
0.0013674
0.00129322
0.00124343
0.00121766
0.00121466
0.00123582
0.00128515
0.00136716
0.00147134
0.00157881
0.00167628
0.00175888
0.0018232
0.00187017
0.0019032
0.00192626
0.00194053
0.00194628
0.00194339
0.00193162
0.00191113
0.00188432
0.00257857
0.00249715
0.00239344
0.00226893
0.00213102
0.00198623
0.00184096
0.00170222
0.00157655
0.00146934
0.00138419
0.00132353
0.00128791
0.00127927
0.0013019
0.00136041
0.00144652
0.00154563
0.00164241
0.00172817
0.00179916
0.00185409
0.00189508
0.00192517
0.00194579
0.00195734
0.00195897
0.001952
0.00193457
0.00191097
0.00280869
0.00274307
0.00265506
0.00254391
0.00241468
0.00227277
0.00212331
0.00197249
0.00182687
0.00169277
0.00157555
0.00147978
0.00140805
0.00136385
0.00135227
0.00137894
0.00143841
0.00152064
0.00160982
0.0016943
0.00176783
0.00182842
0.0018762
0.00191315
0.00194052
0.00195894
0.00196618
0.00196454
0.00195163
0.00193205
0.00303096
0.00298026
0.00290783
0.0028112
0.00269338
0.00255837
0.00241044
0.00225457
0.00209656
0.00194264
0.00179888
0.00167135
0.0015644
0.00148381
0.00143347
0.00142231
0.00144956
0.0015065
0.00158128
0.00166026
0.00173151
0.00179548
0.00184858
0.00189161
0.0019257
0.00195103
0.00196594
0.00196986
0.00196317
0.00194881
0.00323882
0.00320016
0.00314098
0.0030577
0.00295166
0.00282531
0.00268204
0.00252561
0.00236069
0.00219283
0.00202816
0.00187371
0.00173535
0.0016208
0.00153336
0.0014823
0.00147162
0.00149986
0.00155425
0.00161985
0.00168735
0.00175548
0.00181236
0.00186075
0.00190149
0.00193429
0.00195782
0.00196893
0.00196987
0.00196213
0.00342357
0.00339175
0.00334132
0.00326804
0.00317182
0.00305351
0.00291524
0.00275963
0.00259022
0.00241191
0.0022309
0.00205482
0.00189071
0.00174715
0.00162783
0.00154072
0.00149281
0.00148619
0.0015164
0.00157041
0.00163567
0.00169885
0.00176038
0.00181588
0.00186509
0.00190715
0.0019393
0.00196016
0.0019699
0.00197137
0.00356872
0.0035369
0.00348939
0.00342143
0.00333127
0.00321799
0.00308232
0.00292591
0.00275169
0.00256464
0.00237156
0.00218047
0.00199901
0.00183541
0.00169455
0.00157996
0.00149747
0.00145484
0.00145383
0.00148798
0.00154763
0.00161479
0.00168492
0.00174808
0.00180612
0.00185823
0.00190307
0.00193709
0.00196186
0.00197748
0.003646
0.00360804
0.00355777
0.00349012
0.0034014
0.00328851
0.00315156
0.00299195
0.00281328
0.00262184
0.00242532
0.00223114
0.00204634
0.00187693
0.0017295
0.00160026
0.00149114
0.00141464
0.00137597
0.00137677
0.00141376
0.0014755
0.00155163
0.00162838
0.00170218
0.0017707
0.00183209
0.00188402
0.00192775
0.00196362
0.00361666
0.00356811
0.00351167
0.00344194
0.00335258
0.00324052
0.00310455
0.00294653
0.00277234
0.00259024
0.00240746
0.00223066
0.00206352
0.0019089
0.0017722
0.00164567
0.00152406
0.00142148
0.00134442
0.00129916
0.00128984
0.00131546
0.00136995
0.00144292
0.00152611
0.00161245
0.00169625
0.0017732
0.00184181
0.00190368
0.00343595
0.00338342
0.00332789
0.00326336
0.00318363
0.00308431
0.00296482
0.00282908
0.00268441
0.00253785
0.00239331
0.00225535
0.00212354
0.0020008
0.00188984
0.00178121
0.00166572
0.00155433
0.00145239
0.00136676
0.00130375
0.00126825
0.00126279
0.00128654
0.00133627
0.0014064
0.00148957
0.00157834
0.00166676
0.00175417
0.00311528
0.00308035
0.00304872
0.0030132
0.00296699
0.00290558
0.00282921
0.00274234
0.00265046
0.00255736
0.00246467
0.00237226
0.00227829
0.00218836
0.0021063
0.00202182
0.00192465
0.00182285
0.00171991
0.00162088
0.0015303
0.00145225
0.00139104
0.00135046
0.00133283
0.0013388
0.00136692
0.00141377
0.00147487
0.00155307
0.00283674
0.00284587
0.00286172
0.00287001
0.00286589
0.00284721
0.00281512
0.00277349
0.0027242
0.00267047
0.00261305
0.00255144
0.00248514
0.00241895
0.00235798
0.00229445
0.00222113
0.00214287
0.00206099
0.00197901
0.0018998
0.00182431
0.00175431
0.00169299
0.00164196
0.00160285
0.00157744
0.00156623
0.00156963
0.00160297
0.00275258
0.00277316
0.00280447
0.00283482
0.00285271
0.00285738
0.00284778
0.00282578
0.00279466
0.00275786
0.00271677
0.00267043
0.00262004
0.00257089
0.00252406
0.00247499
0.00242426
0.00237175
0.00232031
0.00227183
0.00222901
0.00218975
0.00215499
0.00212674
0.00210161
0.00207906
0.0020607
0.00204757
0.00204097
0.00205816
0.00275455
0.00277757
0.00280226
0.00282442
0.00283368
0.00283294
0.00282329
0.00280615
0.00278306
0.00275529
0.00272458
0.00269065
0.00265329
0.00261813
0.00258261
0.00254971
0.00252039
0.00249319
0.00247122
0.00245617
0.00244828
0.00245042
0.00245959
0.00247095
0.00248447
0.002497
0.00251063
0.00252609
0.00254046
0.00254778
0.000188295
0.000191647
0.000187156
0.000180958
0.000173791
0.00016593
0.000157749
0.000149625
0.000141809
0.000134532
0.000127917
0.000122081
0.000117054
0.000112968
0.000109843
0.000107857
0.000107196
0.000108535
0.000112743
0.000119568
0.000127033
0.000133173
0.000136964
0.000137989
0.000136059
0.000130769
0.000121906
0.000108341
9.24358e-05
7.9992e-05
0.000849769
0.000951974
0.000946154
0.000891318
0.000815066
0.000738638
0.000669507
0.000609463
0.000557513
0.000513184
0.000475058
0.000442804
0.000415039
0.000392334
0.000373017
0.000357903
0.000346986
0.000344791
0.000352399
0.000370849
0.000397901
0.000428455
0.000456225
0.000475101
0.000478487
0.000461503
0.00042843
0.000381908
0.00034194
0.000301011
0.00134056
0.00153934
0.00157839
0.00152737
0.0014373
0.00133375
0.00123111
0.00113642
0.00105125
0.000976759
0.00091177
0.00085632
0.000808899
0.000770965
0.000740505
0.000718285
0.000704299
0.000700093
0.000702831
0.00071725
0.000745774
0.000784138
0.000823179
0.000852386
0.000854679
0.00082732
0.000771563
0.000688368
0.000605047
0.000535599
0.00168969
0.0019175
0.00198676
0.0019557
0.0018749
0.00176964
0.00165803
0.00154971
0.00144822
0.00135722
0.00127696
0.00120817
0.00115026
0.00110571
0.00107309
0.00105387
0.00104649
0.00104512
0.00104419
0.00105304
0.00107417
0.00110854
0.00114881
0.00118256
0.00118702
0.00115423
0.00108404
0.000977627
0.00086236
0.000766738
0.00192225
0.00215399
0.00223805
0.0022279
0.00216167
0.0020646
0.00195801
0.00184993
0.00174305
0.00164609
0.0015601
0.00148589
0.00142483
0.00138023
0.00135202
0.00134276
0.00134609
0.00134936
0.00134258
0.00134375
0.00136055
0.00138842
0.00142539
0.00146087
0.00146977
0.00143708
0.00136185
0.0012436
0.00110875
0.000990966
0.00208573
0.00228401
0.00237491
0.00238452
0.00234079
0.00226395
0.00216221
0.0020549
0.00194763
0.00185426
0.001771
0.00169731
0.00163887
0.00159992
0.0015812
0.00158667
0.00160273
0.00161
0.0016002
0.00159287
0.00160202
0.00162413
0.00165662
0.00169245
0.00170636
0.0016807
0.00160671
0.00148624
0.00134114
0.00120635
0.00219599
0.00235365
0.00242923
0.00244442
0.00241605
0.0023568
0.002275
0.00218431
0.00209563
0.00200431
0.00192087
0.00185049
0.00180002
0.00177152
0.00176647
0.00178992
0.00181928
0.00182977
0.00181813
0.00180394
0.00180428
0.00182054
0.00184845
0.00188344
0.0019019
0.0018848
0.00182255
0.00170662
0.00155968
0.00141164
0.00228269
0.00236476
0.00241018
0.00242494
0.0024119
0.00237248
0.00231246
0.00224151
0.00216695
0.00209017
0.0020182
0.00195983
0.00191679
0.00190098
0.00191293
0.00195584
0.00199953
0.00201307
0.00199954
0.00197931
0.00197298
0.00198353
0.00200704
0.00204014
0.00206109
0.00205414
0.00200724
0.0019065
0.00176449
0.00160543
0.00232217
0.00232663
0.00233926
0.00234728
0.00234365
0.00232416
0.00228726
0.00224051
0.00218522
0.00212613
0.00206958
0.00202398
0.00199503
0.00199471
0.00202543
0.00208788
0.00214188
0.00216186
0.00214726
0.0021232
0.00211438
0.00211901
0.00213819
0.00216835
0.00219142
0.00219526
0.00216066
0.00207726
0.0019445
0.00178472
0.00233877
0.00229003
0.00226616
0.00225556
0.00225014
0.00224094
0.00222295
0.00219529
0.00215967
0.00212102
0.00208237
0.00205297
0.00204062
0.0020575
0.00210827
0.00218937
0.00225437
0.00227516
0.00226194
0.00224132
0.00223115
0.00223173
0.00224711
0.00227279
0.00229345
0.00230191
0.00227962
0.00221474
0.00210201
0.00195258
0.00237899
0.00229002
0.0022187
0.00217911
0.00215833
0.0021474
0.00213805
0.0021255
0.0021074
0.00208607
0.00206478
0.00205373
0.00205983
0.00209374
0.00216513
0.00226401
0.00233714
0.00236334
0.00235493
0.00233847
0.00232619
0.00232675
0.00233917
0.00235726
0.00237254
0.00237904
0.00236818
0.00232228
0.00223109
0.0021005
0.00245911
0.0023529
0.00224055
0.00214701
0.00209808
0.00206854
0.00205667
0.00205003
0.00204366
0.00203675
0.00203098
0.00203469
0.00205813
0.00210931
0.00220005
0.00231408
0.0024007
0.00243316
0.00243137
0.00242106
0.00241191
0.00240902
0.00241678
0.00242992
0.00244184
0.00244656
0.00243859
0.00240747
0.00234032
0.00223248
0.00255285
0.00243088
0.00229809
0.00218534
0.0020952
0.0020295
0.00200412
0.00199243
0.00198801
0.00198872
0.00199398
0.00200917
0.00204389
0.00211072
0.00221782
0.00234405
0.00243765
0.00248128
0.00249216
0.00248653
0.00247923
0.00247706
0.0024822
0.00249208
0.00250232
0.00250677
0.00250224
0.00248284
0.00243493
0.00234874
0.0026843
0.00255128
0.0024004
0.00226193
0.00214687
0.00206449
0.00200888
0.00197689
0.00196171
0.00196073
0.00196895
0.00198964
0.0020302
0.00210569
0.00222438
0.00235866
0.00245779
0.00251101
0.00253241
0.00253551
0.00253399
0.00253328
0.00253749
0.00254584
0.0025557
0.00256245
0.00256285
0.00254937
0.00251518
0.00244547
0.00285094
0.00271843
0.00256962
0.0024172
0.00227818
0.00216427
0.00207846
0.0020192
0.00198444
0.00197162
0.00197213
0.00198951
0.00202869
0.0021032
0.00222631
0.00236339
0.00246648
0.0025283
0.00255928
0.00257262
0.00257699
0.00257916
0.00258439
0.00259319
0.00260442
0.00261573
0.00262038
0.00261052
0.00258354
0.00252681
0.00306546
0.0029422
0.00279605
0.00263768
0.00248218
0.00234196
0.002225
0.00213465
0.00207137
0.00203351
0.00201643
0.00201999
0.00204933
0.00211593
0.00222936
0.0023634
0.00246743
0.00253595
0.00257571
0.00259852
0.00260945
0.00261602
0.0026244
0.00263616
0.00265105
0.00266502
0.00267287
0.00266667
0.00264333
0.0025967
0.00331664
0.00320347
0.0030654
0.00290816
0.00274425
0.00258534
0.0024414
0.00231931
0.00222281
0.0021529
0.0021081
0.0020886
0.00209687
0.00214548
0.00223918
0.00236184
0.00246381
0.00253622
0.00258328
0.00261435
0.00263225
0.0026447
0.00265809
0.00267422
0.0026918
0.00270868
0.00272029
0.00271778
0.00269758
0.0026582
0.00358603
0.00348637
0.00335952
0.00320808
0.0030422
0.00287211
0.00270787
0.00255795
0.00242845
0.00232313
0.00224351
0.00219156
0.00217074
0.00218971
0.00225665
0.00235759
0.00245424
0.00252773
0.00258096
0.00261907
0.00264391
0.00266253
0.00268104
0.0027029
0.0027247
0.00274557
0.00276208
0.0027633
0.00274692
0.00271319
0.00386256
0.00377497
0.00365915
0.00351525
0.0033512
0.00317558
0.00299746
0.0028254
0.00266651
0.00252618
0.00240843
0.0023175
0.00225873
0.00224105
0.00227166
0.0023444
0.00242595
0.00250129
0.00256113
0.0026062
0.00263857
0.00266511
0.00269038
0.0027182
0.00274726
0.00277311
0.00279482
0.00280145
0.00279
0.00276199
0.00413028
0.00405137
0.0039442
0.00380721
0.00364638
0.00346844
0.00328106
0.00309187
0.00290788
0.00273515
0.00257943
0.00244698
0.00234523
0.00228441
0.00227239
0.00230962
0.00237229
0.00244233
0.00250654
0.0025626
0.00260463
0.00264367
0.00267855
0.0027138
0.00275206
0.00278572
0.00281438
0.00282834
0.00282427
0.00280374
0.00437115
0.00429597
0.00419353
0.0040612
0.00390306
0.00372387
0.00352957
0.00332641
0.00312072
0.0029189
0.0027282
0.00255651
0.00241293
0.00230797
0.0022513
0.00224428
0.00227781
0.00233493
0.00240135
0.00246756
0.00252817
0.0025788
0.00262657
0.0026753
0.00272477
0.00277172
0.00281369
0.00284001
0.00284551
0.00283751
0.0045628
0.00448575
0.00438359
0.00425295
0.00409588
0.00391502
0.0037145
0.0034991
0.00327471
0.00304858
0.00282985
0.0026278
0.00245228
0.00231228
0.00221751
0.00216624
0.00215795
0.00218549
0.00223811
0.00230518
0.00237693
0.00244615
0.00251372
0.00258119
0.00264811
0.00271296
0.00276983
0.00281588
0.00284393
0.00285649
0.00467601
0.00459268
0.00448748
0.00435617
0.00419874
0.00401584
0.00381024
0.00358568
0.00334851
0.00310806
0.00287576
0.00266161
0.00247436
0.0023196
0.00220441
0.00212294
0.0020734
0.00205641
0.00206946
0.00210879
0.00216816
0.00224017
0.00232098
0.00240803
0.00249798
0.00258727
0.00267022
0.00274211
0.00279507
0.00283457
0.00467653
0.00458594
0.00447719
0.00434559
0.00418932
0.00400751
0.00380322
0.00357933
0.00334378
0.00310894
0.00288756
0.00268806
0.0025155
0.00237125
0.00225803
0.00216858
0.00209269
0.00203397
0.00199507
0.00198021
0.00199171
0.00202873
0.00208987
0.00217242
0.00227111
0.00237907
0.00248787
0.00258984
0.00267631
0.00274556
0.00453509
0.00444131
0.0043346
0.00421005
0.00406466
0.00389645
0.00370789
0.00350495
0.0032979
0.00309829
0.00291698
0.00275723
0.00262033
0.00250408
0.00240771
0.00232712
0.00224257
0.00215933
0.00208065
0.00201342
0.00196462
0.00193927
0.00194178
0.00197548
0.00204021
0.00213128
0.00223966
0.00235489
0.00246549
0.00256379
0.00425388
0.00416641
0.00407525
0.00397705
0.0038644
0.00373442
0.00358943
0.00343624
0.00328424
0.00314169
0.00301388
0.00290104
0.00280306
0.00271676
0.00264003
0.00257081
0.00248792
0.00239797
0.0023032
0.00220918
0.00212207
0.00204669
0.00198861
0.00195478
0.00195114
0.00197998
0.00203805
0.00211827
0.00221121
0.00231174
0.00390309
0.00384533
0.00380097
0.00375859
0.00370199
0.00362942
0.00354289
0.0034483
0.00335293
0.00326211
0.00317809
0.00309995
0.00302808
0.00295973
0.00289479
0.00282949
0.00274989