/*--------------------------------*- C++ -*----------------------------------*\
  =========                 |
  \\      /  F ield         | OpenFOAM: The Open Source CFD Toolbox
   \\    /   O peration     | Website:  https://openfoam.org
    \\  /    A nd           | Version:  12
     \\/     M anipulation  |
\*---------------------------------------------------------------------------*/
FoamFile
{
    format      ascii;
    class       volScalarField;
    location    "1450/air";
    object      T;
}
// * * * * * * * * * * * * * * * * * * * * * * * * * * * * * * * * * * * * * //

dimensions      [0 0 0 1 0 0 0];

internalField   nonuniform List<scalar> 
243000
(
300.597
300.577
300.563
300.552
300.542
300.532
300.524
300.516
300.508
300.501
300.494
300.486
300.479
300.472
300.464
300.456
300.448
300.439
300.428
300.416
300.4
300.381
300.361
300.34
300.32
300.302
300.287
300.273
300.262
300.247
300.63
300.596
300.574
300.558
300.545
300.534
300.524
300.515
300.506
300.498
300.49
300.483
300.475
300.468
300.46
300.452
300.443
300.434
300.423
300.411
300.395
300.378
300.358
300.338
300.319
300.301
300.285
300.272
300.26
300.249
300.694
300.628
300.592
300.569
300.551
300.538
300.526
300.516
300.506
300.497
300.489
300.48
300.472
300.465
300.456
300.448
300.439
300.43
300.419
300.407
300.392
300.375
300.357
300.338
300.319
300.301
300.285
300.271
300.259
300.249
300.798
300.681
300.622
300.587
300.563
300.545
300.53
300.518
300.507
300.498
300.488
300.48
300.471
300.463
300.454
300.446
300.436
300.427
300.416
300.403
300.389
300.373
300.356
300.337
300.319
300.302
300.286
300.271
300.259
300.248
300.944
300.765
300.67
300.616
300.581
300.557
300.538
300.524
300.511
300.5
300.49
300.48
300.471
300.462
300.453
300.444
300.434
300.424
300.413
300.401
300.387
300.371
300.355
300.337
300.32
300.303
300.287
300.272
300.259
300.249
301.119
300.888
300.745
300.662
300.61
300.575
300.551
300.532
300.517
300.504
300.492
300.482
300.472
300.462
300.452
300.443
300.433
300.422
300.411
300.399
300.385
300.37
300.354
300.337
300.32
300.304
300.288
300.274
300.261
300.249
301.282
301.042
300.853
300.731
300.654
300.603
300.569
300.545
300.525
300.51
300.497
300.485
300.474
300.463
300.453
300.443
300.432
300.421
300.41
300.397
300.384
300.369
300.354
300.338
300.321
300.305
300.29
300.276
300.262
300.251
301.415
301.206
300.991
300.828
300.718
300.645
300.597
300.563
300.538
300.519
300.503
300.489
300.477
300.465
300.454
300.443
300.432
300.421
300.409
300.396
300.383
300.369
300.354
300.338
300.323
300.307
300.292
300.278
300.264
300.252
301.509
301.359
301.152
300.959
300.811
300.708
300.638
300.59
300.556
300.531
300.512
300.496
300.482
300.469
300.457
300.445
300.433
300.421
300.409
300.396
300.382
300.368
300.354
300.339
300.324
300.309
300.294
300.28
300.267
300.255
301.572
301.48
301.316
301.118
300.939
300.8
300.701
300.633
300.584
300.55
300.524
300.504
300.488
300.474
300.46
300.448
300.435
300.422
300.409
300.396
300.382
300.369
300.354
300.34
300.325
300.311
300.297
300.283
300.269
300.257
301.609
301.56
301.454
301.289
301.099
300.929
300.795
300.697
300.628
300.579
300.543
300.517
300.497
300.48
300.465
300.451
300.438
300.424
300.411
300.397
300.383
300.369
300.355
300.341
300.327
300.313
300.299
300.285
300.272
300.26
301.636
301.61
301.551
301.438
301.273
301.09
300.924
300.792
300.694
300.624
300.573
300.537
300.51
300.489
300.472
300.456
300.442
300.427
300.413
300.399
300.384
300.37
300.356
300.343
300.329
300.315
300.301
300.288
300.275
300.263
301.661
301.641
301.609
301.544
301.427
301.265
301.087
300.924
300.791
300.692
300.619
300.567
300.53
300.502
300.481
300.463
300.447
300.431
300.416
300.401
300.386
300.372
300.358
300.344
300.331
300.317
300.304
300.291
300.278
300.266
301.684
301.667
301.647
301.61
301.539
301.42
301.259
301.085
300.923
300.79
300.688
300.614
300.561
300.523
300.494
300.473
300.454
300.437
300.42
300.405
300.389
300.375
300.36
300.347
300.333
300.32
300.307
300.294
300.282
300.27
301.706
301.69
301.673
301.649
301.608
301.532
301.412
301.253
301.081
300.92
300.786
300.683
300.607
300.553
300.515
300.486
300.463
300.444
300.426
300.409
300.393
300.378
300.363
300.349
300.336
300.323
300.31
300.298
300.285
300.274
301.727
301.711
301.695
301.676
301.649
301.603
301.523
301.401
301.243
301.072
300.912
300.778
300.675
300.599
300.545
300.506
300.476
300.453
300.433
300.414
300.398
300.382
300.367
300.353
300.339
300.326
300.314
300.301
300.289
300.277
301.746
301.73
301.714
301.697
301.676
301.646
301.594
301.51
301.384
301.226
301.057
300.898
300.766
300.664
300.589
300.535
300.496
300.466
300.442
300.422
300.403
300.387
300.371
300.356
300.343
300.33
300.317
300.305
300.293
300.281
301.763
301.747
301.731
301.714
301.695
301.672
301.637
301.58
301.49
301.361
301.202
301.035
300.88
300.751
300.651
300.577
300.524
300.485
300.455
300.431
300.411
300.392
300.376
300.361
300.347
300.334
300.321
300.309
300.297
300.285
301.777
301.76
301.744
301.727
301.709
301.689
301.662
301.623
301.56
301.463
301.33
301.171
301.007
300.857
300.732
300.636
300.565
300.513
300.474
300.444
300.42
300.4
300.382
300.366
300.352
300.338
300.325
300.313
300.301
300.29
301.787
301.77
301.754
301.737
301.72
301.7
301.678
301.648
301.603
301.533
301.429
301.292
301.134
300.975
300.83
300.711
300.619
300.551
300.501
300.463
300.434
300.41
300.39
300.373
300.357
300.343
300.33
300.318
300.306
300.294
301.792
301.776
301.76
301.743
301.726
301.707
301.686
301.662
301.628
301.577
301.5
301.389
301.25
301.094
300.94
300.802
300.69
300.603
300.538
300.489
300.452
300.424
300.401
300.381
300.365
300.349
300.336
300.323
300.31
300.299
301.792
301.777
301.762
301.745
301.728
301.71
301.691
301.669
301.641
301.603
301.546
301.46
301.345
301.204
301.051
300.904
300.775
300.67
300.587
300.525
300.478
300.443
300.415
300.393
300.374
300.357
300.342
300.329
300.316
300.304
301.785
301.77
301.756
301.741
301.725
301.709
301.691
301.671
301.647
301.617
301.574
301.509
301.417
301.297
301.156
301.009
300.87
300.749
300.651
300.573
300.514
300.469
300.435
300.408
300.386
300.367
300.351
300.336
300.323
300.311
301.77
301.757
301.744
301.731
301.717
301.702
301.685
301.668
301.648
301.623
301.589
301.54
301.468
301.37
301.247
301.109
300.969
300.839
300.726
300.634
300.561
300.505
300.462
300.429
300.402
300.38
300.361
300.345
300.331
300.318
301.747
301.736
301.726
301.715
301.703
301.69
301.676
301.66
301.643
301.622
301.596
301.558
301.502
301.424
301.322
301.199
301.066
300.934
300.812
300.707
300.621
300.552
300.499
300.457
300.424
300.397
300.376
300.357
300.341
300.326
301.713
301.706
301.699
301.692
301.683
301.674
301.662
301.649
301.635
301.617
301.595
301.565
301.522
301.461
301.377
301.273
301.153
301.027
300.903
300.79
300.692
300.611
300.546
300.495
300.454
300.421
300.394
300.372
300.354
300.337
301.667
301.665
301.663
301.66
301.655
301.649
301.64
301.63
301.617
301.601
301.582
301.557
301.523
301.475
301.409
301.324
301.222
301.108
300.99
300.876
300.772
300.681
300.605
300.543
300.492
300.452
300.419
300.392
300.37
300.35
301.597
301.6
301.602
301.603
301.602
301.597
301.59
301.58
301.566
301.55
301.531
301.507
301.478
301.44
301.388
301.322
301.24
301.146
301.043
300.939
300.838
300.745
300.663
300.593
300.535
300.487
300.447
300.415
300.388
300.365
301.434
301.436
301.438
301.438
301.434
301.424
301.411
301.393
301.371
301.348
301.323
301.296
301.268
301.237
301.197
301.15
301.095
301.029
300.955
300.877
300.798
300.721
300.65
300.587
300.532
300.485
300.445
300.412
300.384
300.361
300.713
300.71
300.718
300.724
300.721
300.712
300.699
300.684
300.667
300.649
300.631
300.615
300.599
300.582
300.562
300.54
300.517
300.49
300.46
300.427
300.394
300.361
300.331
300.304
300.28
300.259
300.241
300.226
300.213
300.202
300.587
300.565
300.551
300.54
300.53
300.521
300.513
300.505
300.497
300.49
300.482
300.474
300.467
300.459
300.45
300.442
300.432
300.421
300.406
300.387
300.363
300.337
300.312
300.288
300.267
300.25
300.235
300.224
300.213
300.2
300.612
300.579
300.559
300.544
300.531
300.52
300.511
300.502
300.493
300.485
300.477
300.469
300.461
300.453
300.444
300.435
300.425
300.414
300.399
300.381
300.36
300.336
300.312
300.289
300.269
300.252
300.237
300.225
300.214
300.202
300.639
300.599
300.573
300.554
300.538
300.525
300.513
300.503
300.493
300.484
300.475
300.466
300.457
300.449
300.44
300.43
300.419
300.407
300.393
300.376
300.356
300.334
300.312
300.29
300.271
300.254
300.239
300.226
300.215
300.204
300.67
300.626
300.595
300.57
300.551
300.534
300.52
300.508
300.496
300.486
300.476
300.466
300.456
300.447
300.437
300.426
300.415
300.402
300.388
300.372
300.353
300.333
300.312
300.292
300.273
300.256
300.241
300.228
300.216
300.205
300.709
300.663
300.626
300.596
300.571
300.551
300.533
300.517
300.503
300.491
300.479
300.468
300.457
300.447
300.436
300.424
300.412
300.399
300.384
300.368
300.35
300.331
300.312
300.293
300.275
300.258
300.243
300.23
300.218
300.207
300.76
300.716
300.673
300.635
300.603
300.576
300.553
300.533
300.516
300.5
300.486
300.473
300.461
300.449
300.436
300.424
300.411
300.396
300.382
300.366
300.348
300.33
300.312
300.294
300.276
300.26
300.246
300.232
300.22
300.209
300.836
300.792
300.74
300.691
300.648
300.612
300.582
300.556
300.534
300.515
300.497
300.482
300.467
300.453
300.439
300.425
300.411
300.395
300.38
300.364
300.347
300.33
300.312
300.295
300.278
300.263
300.248
300.235
300.223
300.212
300.92
300.888
300.829
300.766
300.709
300.661
300.621
300.588
300.559
300.535
300.513
300.494
300.477
300.461
300.445
300.429
300.412
300.396
300.379
300.363
300.346
300.329
300.312
300.296
300.28
300.265
300.251
300.238
300.225
300.214
300.995
300.982
300.927
300.855
300.785
300.723
300.672
300.629
300.593
300.562
300.535
300.511
300.49
300.471
300.453
300.435
300.416
300.398
300.38
300.363
300.346
300.33
300.313
300.297
300.282
300.268
300.254
300.241
300.229
300.217
301.054
301.064
301.025
300.955
300.875
300.8
300.735
300.681
300.635
300.596
300.563
300.534
300.509
300.486
300.464
300.443
300.423
300.402
300.383
300.365
300.347
300.331
300.315
300.299
300.285
300.27
300.257
300.244
300.232
300.221
301.1
301.128
301.112
301.057
300.978
300.893
300.814
300.746
300.688
300.64
300.599
300.563
300.532
300.505
300.479
300.455
300.431
300.409
300.388
300.368
300.35
300.333
300.317
300.302
300.287
300.273
300.26
300.248
300.235
300.224
301.141
301.176
301.181
301.149
301.084
300.998
300.909
300.827
300.756
300.695
300.644
300.6
300.562
300.529
300.499
300.47
300.443
300.418
300.395
300.373
300.354
300.336
300.32
300.305
300.29
300.277
300.264
300.251
300.239
300.228
301.18
301.215
301.233
301.223
301.179
301.107
301.017
300.925
300.84
300.765
300.701
300.646
300.6
300.56
300.524
300.49
300.459
300.43
300.404
300.38
300.36
300.341
300.324
300.308
300.294
300.281
300.268
300.255
300.243
300.232
301.221
301.25
301.272
301.276
301.255
301.203
301.126
301.034
300.939
300.851
300.772
300.705
300.648
300.599
300.555
300.515
300.479
300.446
300.417
300.39
300.367
300.347
300.33
300.313
300.299
300.285
300.272
300.26
300.248
300.237
301.263
301.286
301.306
301.316
301.309
301.278
301.221
301.141
301.047
300.95
300.859
300.777
300.707
300.647
300.594
300.547
300.505
300.467
300.433
300.403
300.378
300.356
300.337
300.32
300.304
300.29
300.277
300.265
300.252
300.241
301.308
301.323
301.337
301.347
301.347
301.331
301.294
301.232
301.149
301.054
300.955
300.863
300.779
300.706
300.643
300.587
300.537
300.492
300.453
300.42
300.391
300.367
300.346
300.327
300.311
300.296
300.283
300.27
300.258
300.246
301.354
301.361
301.369
301.375
301.376
301.367
301.343
301.3
301.234
301.15
301.054
300.955
300.862
300.777
300.702
300.635
300.576
300.524
300.479
300.441
300.408
300.38
300.357
300.337
300.319
300.304
300.289
300.276
300.263
300.252
301.399
301.4
301.401
301.402
301.4
301.392
301.376
301.346
301.297
301.228
301.142
301.046
300.949
300.855
300.77
300.692
300.624
300.564
300.511
300.466
300.429
300.397
300.371
300.349
300.329
300.312
300.297
300.283
300.27
300.258
301.442
301.437
301.432
301.427
301.421
301.412
301.397
301.374
301.338
301.284
301.213
301.127
301.033
300.937
300.844
300.757
300.679
300.61
300.55
300.498
300.455
300.419
300.389
300.363
300.342
300.323
300.307
300.292
300.278
300.265
301.48
301.471
301.461
301.45
301.439
301.427
301.412
301.391
301.362
301.321
301.264
301.191
301.106
301.013
300.919
300.827
300.742
300.664
300.596
300.536
300.487
300.445
300.41
300.382
300.357
300.336
300.318
300.302
300.287
300.274
301.512
301.498
301.484
301.469
301.454
301.438
301.421
301.401
301.375
301.342
301.296
301.237
301.164
301.08
300.99
300.898
300.808
300.724
300.648
300.582
300.525
300.477
300.437
300.404
300.376
300.353
300.332
300.314
300.298
300.283
301.534
301.518
301.501
301.483
301.464
301.445
301.426
301.405
301.381
301.351
301.314
301.266
301.206
301.133
301.052
300.965
300.875
300.789
300.707
300.634
300.57
300.516
300.47
300.432
300.4
300.373
300.349
300.329
300.31
300.295
301.545
301.527
301.508
301.489
301.469
301.448
301.427
301.406
301.382
301.355
301.322
301.283
301.233
301.173
301.102
301.023
300.939
300.854
300.77
300.692
300.622
300.561
300.51
300.466
300.429
300.397
300.37
300.347
300.326
300.308
301.544
301.527
301.508
301.489
301.468
301.446
301.424
301.401
301.378
301.352
301.323
301.289
301.248
301.198
301.139
301.071
300.996
300.916
300.834
300.755
300.681
300.614
300.556
300.506
300.463
300.427
300.396
300.369
300.345
300.325
301.527
301.51
301.493
301.474
301.454
301.433
301.411
301.389
301.366
301.341
301.315
301.285
301.251
301.21
301.161
301.105
301.04
300.969
300.894
300.817
300.742
300.672
300.609
300.553
300.504
300.462
300.426
300.395
300.368
300.344
301.491
301.476
301.461
301.444
301.426
301.406
301.385
301.364
301.341
301.318
301.293
301.266
301.236
301.202
301.163
301.116
301.062
301.002
300.936
300.866
300.795
300.726
300.661
300.601
300.548
300.501
300.46
300.425
300.393
300.367
301.428
301.415
301.402
301.387
301.371
301.354
301.335
301.315
301.293
301.269
301.245
301.22
301.193
301.163
301.129
301.089
301.045
300.994
300.938
300.878
300.815
300.752
300.69
300.632
300.579
300.531
300.488
300.45
300.416
300.387
301.313
301.299
301.288
301.276
301.264
301.251
301.233
301.213
301.19
301.166
301.141
301.116
301.09
301.062
301.031
300.996
300.959
300.918
300.871
300.82
300.766
300.712
300.658
300.608
300.561
300.518
300.48
300.445
300.414
300.386
301.075
301.054
301.044
301.04
301.035
301.026
301.01
300.99
300.966
300.941
300.917
300.893
300.87
300.845
300.817
300.786
300.755
300.719
300.682
300.642
300.601
300.56
300.52
300.484
300.451
300.421
300.395
300.371
300.349
300.33
300.599
300.595
300.6
300.606
300.61
300.61
300.605
300.595
300.584
300.57
300.556
300.542
300.527
300.51
300.491
300.469
300.447
300.422
300.396
300.369
300.341
300.314
300.289
300.266
300.245
300.227
300.212
300.198
300.186
300.176
300.569
300.553
300.542
300.532
300.523
300.514
300.506
300.498
300.49
300.483
300.475
300.467
300.459
300.45
300.441
300.432
300.42
300.406
300.386
300.36
300.33
300.3
300.273
300.251
300.234
300.221
300.21
300.201
300.192
300.177
300.57
300.552
300.538
300.527
300.516
300.507
300.498
300.49
300.482
300.474
300.466
300.458
300.45
300.441
300.432
300.422
300.41
300.396
300.377
300.354
300.326
300.299
300.275
300.254
300.236
300.222
300.211
300.201
300.192
300.18
300.576
300.557
300.542
300.529
300.517
300.507
300.497
300.488
300.479
300.47
300.462
300.453
300.444
300.435
300.425
300.414
300.402
300.388
300.37
300.348
300.323
300.298
300.275
300.255
300.238
300.224
300.212
300.202
300.193
300.182
300.584
300.566
300.55
300.536
300.523
300.511
300.5
300.49
300.48
300.471
300.461
300.452
300.442
300.432
300.421
300.409
300.396
300.381
300.363
300.343
300.32
300.298
300.276
300.257
300.24
300.226
300.214
300.203
300.194
300.183
300.596
300.579
300.563
300.548
300.534
300.521
300.508
300.497
300.485
300.474
300.464
300.453
300.442
300.431
300.419
300.406
300.391
300.376
300.358
300.339
300.318
300.297
300.277
300.259
300.243
300.229
300.216
300.205
300.195
300.185
300.614
300.599
300.583
300.567
300.552
300.537
300.522
300.508
300.495
300.482
300.47
300.458
300.445
300.433
300.419
300.404
300.389
300.372
300.355
300.336
300.316
300.297
300.278
300.261
300.245
300.231
300.218
300.207
300.197
300.187
300.637
300.626
300.612
300.595
300.578
300.56
300.543
300.526
300.51
300.495
300.481
300.466
300.452
300.437
300.422
300.405
300.388
300.37
300.352
300.334
300.315
300.297
300.279
300.263
300.247
300.234
300.221
300.21
300.199
300.189
300.668
300.664
300.652
300.635
300.615
300.594
300.572
300.552
300.532
300.514
300.496
300.479
300.462
300.446
300.428
300.409
300.389
300.37
300.351
300.333
300.315
300.297
300.28
300.265
300.25
300.237
300.224
300.212
300.201
300.191
300.708
300.716
300.708
300.69
300.666
300.639
300.612
300.586
300.562
300.539
300.517
300.497
300.477
300.457
300.437
300.415
300.393
300.372
300.352
300.333
300.315
300.298
300.282
300.267
300.253
300.24
300.227
300.216
300.204
300.194
300.756
300.773
300.772
300.755
300.728
300.696
300.662
300.63
300.6
300.572
300.545
300.521
300.497
300.474
300.45
300.425
300.4
300.376
300.355
300.335
300.317
300.3
300.285
300.27
300.256
300.243
300.231
300.219
300.208
300.197
300.805
300.83
300.837
300.826
300.799
300.763
300.723
300.684
300.647
300.612
300.581
300.551
300.522
300.495
300.467
300.438
300.41
300.384
300.36
300.339
300.32
300.303
300.288
300.274
300.26
300.247
300.235
300.223
300.212
300.201
300.856
300.884
300.9
300.896
300.874
300.838
300.794
300.748
300.704
300.662
300.624
300.588
300.554
300.521
300.489
300.455
300.423
300.394
300.368
300.345
300.326
300.308
300.292
300.278
300.264
300.252
300.239
300.227
300.216
300.205
300.908
300.937
300.958
300.962
300.948
300.916
300.872
300.822
300.771
300.721
300.675
300.632
300.592
300.554
300.516
300.478
300.441
300.408
300.379
300.354
300.333
300.315
300.298
300.283
300.27
300.257
300.244
300.232
300.22
300.209
300.962
300.989
301.01
301.021
301.015
300.991
300.951
300.901
300.845
300.789
300.735
300.685
300.638
300.593
300.549
300.505
300.464
300.426
300.394
300.366
300.343
300.323
300.306
300.29
300.276
300.263
300.25
300.237
300.225
300.214
301.018
301.04
301.06
301.073
301.072
301.057
301.025
300.979
300.923
300.863
300.803
300.745
300.691
300.639
300.588
300.538
300.491
300.449
300.413
300.382
300.356
300.334
300.315
300.298
300.283
300.269
300.256
300.243
300.231
300.219
301.076
301.093
301.108
301.12
301.122
301.112
301.088
301.049
300.998
300.938
300.875
300.811
300.749
300.691
300.634
300.577
300.525
300.478
300.437
300.402
300.373
300.348
300.327
300.309
300.292
300.277
300.263
300.25
300.237
300.225
301.135
301.146
301.156
301.163
301.164
301.158
301.139
301.108
301.063
301.008
300.945
300.879
300.812
300.748
300.684
300.622
300.564
300.512
300.466
300.427
300.394
300.366
300.342
300.322
300.304
300.287
300.272
300.258
300.245
300.232
301.193
301.198
301.202
301.204
301.202
301.195
301.18
301.155
301.117
301.068
301.009
300.943
300.875
300.806
300.738
300.671
300.608
300.551
300.5
300.456
300.419
300.387
300.36
300.337
300.317
300.299
300.283
300.268
300.253
300.24
301.249
301.248
301.246
301.242
301.237
301.227
301.213
301.19
301.158
301.115
301.062
301.001
300.934
300.864
300.794
300.724
300.657
300.595
300.54
300.491
300.449
300.413
300.383
300.356
300.334
300.314
300.296
300.279
300.263
300.249
301.3
301.294
301.287
301.278
301.268
301.255
301.239
301.217
301.189
301.151
301.104
301.049
300.986
300.919
300.848
300.777
300.709
300.644
300.584
300.53
300.484
300.444
300.409
300.38
300.354
300.331
300.311
300.292
300.275
300.26
301.343
301.334
301.322
301.309
301.294
301.278
301.26
301.238
301.211
301.177
301.136
301.087
301.03
300.967
300.9
300.831
300.762
300.695
300.633
300.575
300.524
300.48
300.441
300.407
300.378
300.352
300.329
300.308
300.289
300.272
301.377
301.364
301.35
301.333
301.316
301.296
301.276
301.253
301.226
301.195
301.159
301.115
301.065
301.008
300.946
300.881
300.815
300.749
300.685
300.625
300.57
300.521
300.478
300.44
300.407
300.377
300.351
300.327
300.306
300.287
301.397
301.383
301.367
301.349
301.329
301.308
301.285
301.261
301.235
301.206
301.173
301.134
301.09
301.04
300.985
300.926
300.865
300.803
300.74
300.679
300.621
300.569
300.521
300.479
300.441
300.407
300.377
300.35
300.325
300.303
301.403
301.389
301.373
301.355
301.334
301.312
301.289
301.264
301.238
301.209
301.178
301.143
301.103
301.06
301.012
300.961
300.907
300.85
300.792
300.733
300.675
300.62
300.569
300.522
300.479
300.441
300.406
300.375
300.347
300.323
301.391
301.378
301.362
301.344
301.324
301.302
301.279
301.254
301.228
301.2
301.169
301.137
301.102
301.063
301.021
300.977
300.93
300.882
300.831
300.777
300.723
300.669
300.617
300.567
300.521
300.478
300.439
300.404
300.372
300.344
301.354
301.342
301.328
301.311
301.292
301.272
301.249
301.224
301.198
301.17
301.14
301.109
301.076
301.04
301.003
300.963
300.923
300.881
300.839
300.794
300.747
300.699
300.65
300.602
300.555
300.51
300.469
300.431
300.396
300.366
301.281
301.268
301.254
301.24
301.224
301.206
301.185
301.161
301.135
301.106
301.077
301.046
301.014
300.979
300.943
300.904
300.868
300.832
300.796
300.76
300.722
300.683
300.642
300.6
300.558
300.519
300.48
300.444
300.41
300.379
301.147
301.131
301.117
301.106
301.095
301.082
301.065
301.043
301.017
300.989
300.959
300.928
300.897
300.865
300.829
300.792
300.758
300.725
300.693
300.661
300.628
300.596
300.565
300.535
300.505
300.477
300.447
300.418
300.391
300.365
300.909
300.896
300.888
300.884
300.881
300.874
300.863
300.845
300.824
300.8
300.774
300.748
300.721
300.692
300.66
300.625
300.594
300.564
300.535
300.507
300.479
300.452
300.427
300.403
300.382
300.362
300.344
300.328
300.311
300.296
300.54
300.541
300.548
300.557
300.565
300.57
300.57
300.564
300.554
300.541
300.526
300.509
300.491
300.469
300.444
300.415
300.39
300.364
300.341
300.318
300.296
300.276
300.257
300.24
300.225
300.211
300.198
300.187
300.177
300.168
300.568
300.551
300.539
300.529
300.52
300.511
300.503
300.495
300.486
300.478
300.47
300.462
300.453
300.444
300.435
300.424
300.411
300.393
300.366
300.332
300.297
300.268
300.244
300.227
300.214
300.204
300.196
300.189
300.182
300.174
300.56
300.542
300.528
300.517
300.508
300.499
300.491
300.482
300.474
300.466
300.458
300.45
300.441
300.432
300.422
300.411
300.398
300.38
300.356
300.326
300.295
300.268
300.246
300.229
300.216
300.205
300.197
300.189
300.182
300.173
300.558
300.541
300.527
300.515
300.504
300.494
300.485
300.477
300.468
300.46
300.451
300.443
300.433
300.424
300.413
300.401
300.388
300.37
300.347
300.32
300.293
300.268
300.248
300.231
300.218
300.207
300.197
300.189
300.182
300.173
300.561
300.544
300.53
300.518
300.506
300.496
300.486
300.476
300.467
300.458
300.448
300.439
300.429
300.418
300.407
300.394
300.379
300.362
300.34
300.316
300.291
300.268
300.249
300.233
300.22
300.208
300.198
300.19
300.182
300.173
300.567
300.552
300.538
300.525
300.512
300.501
300.49
300.479
300.469
300.459
300.449
300.438
300.427
300.415
300.403
300.388
300.373
300.355
300.334
300.312
300.29
300.269
300.251
300.235
300.222
300.21
300.2
300.191
300.182
300.173
300.577
300.564
300.55
300.537
300.524
300.511
300.499
300.487
300.475
300.464
300.452
300.441
300.428
300.415
300.401
300.385
300.368
300.349
300.329
300.309
300.289
300.269
300.253
300.238
300.225
300.213
300.202
300.192
300.183
300.174
300.593
300.58
300.568
300.554
300.54
300.527
300.513
300.499
300.486
300.473
300.46
300.447
300.433
300.418
300.402
300.383
300.365
300.346
300.326
300.307
300.288
300.27
300.255
300.241
300.228
300.216
300.204
300.194
300.184
300.175
300.613
300.603
300.591
300.578
300.564
300.549
300.533
300.517
300.502
300.487
300.472
300.457
300.441
300.424
300.405
300.384
300.364
300.344
300.324
300.306
300.288
300.272
300.257
300.244
300.231
300.219
300.207
300.196
300.186
300.177
300.639
300.632
300.623
300.611
300.595
300.578
300.56
300.542
300.524
300.507
300.489
300.471
300.453
300.433
300.411
300.388
300.365
300.343
300.324
300.306
300.289
300.274
300.26
300.247
300.235
300.223
300.211
300.199
300.189
300.179
300.67
300.669
300.662
300.652
300.636
300.617
300.596
300.575
300.553
300.532
300.512
300.491
300.469
300.446
300.421
300.394
300.368
300.345
300.325
300.307
300.291
300.277
300.264
300.251
300.239
300.227
300.215
300.203
300.192
300.181
300.709
300.711
300.709
300.7
300.685
300.664
300.64
300.615
300.59
300.565
300.541
300.516
300.49
300.463
300.434
300.403
300.375
300.35
300.329
300.311
300.295
300.281
300.268
300.256
300.244
300.231
300.219
300.207
300.195
300.184
300.752
300.758
300.759
300.753
300.74
300.718
300.692
300.664
300.634
300.605
300.576
300.547
300.517
300.485
300.451
300.417
300.385
300.358
300.336
300.317
300.301
300.287
300.273
300.261
300.249
300.236
300.224
300.211
300.199
300.188
300.799
300.808
300.812
300.809
300.798
300.778
300.751
300.719
300.686
300.652
300.618
300.584
300.549
300.512
300.473
300.434
300.399
300.369
300.345
300.325
300.308
300.293
300.28
300.267
300.255
300.242
300.229
300.216
300.203
300.192
300.851
300.86
300.866
300.865
300.857
300.839
300.812
300.78
300.743
300.705
300.666
300.627
300.587
300.545
300.5
300.456
300.417
300.385
300.358
300.337
300.318
300.302
300.288
300.275
300.262
300.249
300.235
300.222
300.209
300.197
300.906
300.914
300.919
300.92
300.914
300.898
300.874
300.842
300.804
300.762
300.719
300.675
300.63
300.582
300.531
300.482
300.44
300.404
300.375
300.351
300.331
300.314
300.298
300.284
300.27
300.256
300.243
300.229
300.215
300.203
300.963
300.969
300.973
300.973
300.968
300.954
300.932
300.902
300.864
300.821
300.775
300.726
300.676
300.623
300.568
300.514
300.468
300.429
300.397
300.37
300.348
300.328
300.311
300.295
300.28
300.266
300.251
300.236
300.222
300.209
301.023
301.026
301.026
301.024
301.018
301.006
300.986
300.957
300.921
300.878
300.83
300.778
300.724
300.668
300.608
300.551
300.501
300.459
300.423
300.393
300.368
300.346
300.327
300.309
300.293
300.277
300.261
300.245
300.23
300.216
301.081
301.081
301.078
301.073
301.065
301.052
301.033
301.006
300.972
300.93
300.882
300.829
300.773
300.714
300.652
300.592
300.539
300.494
300.455
300.422
300.393
300.368
300.347
300.327
300.308
300.291
300.273
300.256
300.24
300.225
301.137
301.133
301.127
301.119
301.108
301.093
301.074
301.048
301.016
300.976
300.93
300.878
300.821
300.761
300.698
300.636
300.582
300.534
300.492
300.455
300.423
300.396
300.371
300.348
300.327
300.307
300.287
300.269
300.251
300.235
301.188
301.181
301.172
301.16
301.146
301.129
301.109
301.084
301.053
301.015
300.971
300.921
300.866
300.806
300.744
300.683
300.628
300.578
300.533
300.494
300.459
300.428
300.4
300.374
300.349
300.326
300.304
300.283
300.263
300.246
301.231
301.222
301.21
301.196
301.179
301.16
301.138
301.113
301.083
301.048
301.007
300.96
300.907
300.85
300.79
300.731
300.676
300.626
300.58
300.538
300.5
300.465
300.433
300.403
300.376
300.349
300.324
300.301
300.278
300.259
301.264
301.254
301.241
301.225
301.206
301.185
301.162
301.136
301.107
301.073
301.035
300.991
300.943
300.889
300.833
300.778
300.725
300.676
300.63
300.586
300.546
300.508
300.472
300.438
300.406
300.376
300.347
300.321
300.296
300.274
301.284
301.274
301.261
301.244
301.225
301.203
301.179
301.152
301.123
301.091
301.055
301.015
300.97
300.921
300.87
300.819
300.77
300.724
300.679
300.635
300.594
300.553
300.514
300.476
300.44
300.406
300.374
300.343
300.315
300.291
301.29
301.281
301.268
301.252
301.232
301.21
301.186
301.159
301.13
301.099
301.064
301.027
300.985
300.94
300.895
300.847
300.802
300.76
300.719
300.678
300.638
300.598
300.557
300.516
300.476
300.438
300.402
300.368
300.337
300.31
301.277
301.269
301.257
301.242
301.223
301.202
301.177
301.151
301.122
301.091
301.058
301.021
300.982
300.941
300.898
300.853
300.81
300.771
300.735
300.7
300.665
300.629
300.59
300.55
300.509
300.469
300.43
300.394
300.36
300.33
301.237
301.23
301.22
301.207
301.19
301.169
301.146
301.12
301.092
301.061
301.027
300.991
300.953
300.912
300.87
300.824
300.782
300.745
300.713
300.684
300.656
300.626
300.595
300.562
300.526
300.489
300.451
300.415
300.38
300.349
301.16
301.152
301.142
301.131
301.117
301.1
301.08
301.055
301.028
300.997
300.963
300.927
300.89
300.848
300.806
300.758
300.716
300.681
300.652
300.626
300.603
300.58
300.556
300.532
300.507
300.479
300.448
300.416
300.385
300.356
301.022
301.013
301.005
300.998
300.989
300.979
300.963
300.943
300.917
300.888
300.856
300.822
300.787
300.747
300.704
300.655
300.615
300.58
300.553
300.53
300.509
300.49
300.472
300.455
300.438
300.42
300.402
300.381
300.359
300.336
300.797
300.796
300.796
300.797
300.797
300.794
300.786
300.773
300.754
300.73
300.704
300.675
300.644
300.608
300.568
300.52
300.482
300.45
300.425
300.403
300.385
300.369
300.354
300.341
300.329
300.317
300.305
300.293
300.28
300.267
300.497
300.506
300.517
300.53
300.542
300.551
300.554
300.552
300.543
300.531
300.514
300.494
300.471
300.442
300.407
300.366
300.334
300.306
300.284
300.265
300.249
300.236
300.224
300.213
300.204
300.195
300.187
300.178
300.17
300.162
300.571
300.552
300.54
300.529
300.519
300.51
300.501
300.492
300.484
300.475
300.467
300.458
300.449
300.44
300.429
300.417
300.402
300.379
300.344
300.303
300.269
300.243
300.224
300.211
300.202
300.194
300.188
300.183
300.177
300.17
300.556
300.536
300.523
300.512
300.502
300.493
300.485
300.477
300.468
300.46
300.452
300.444
300.435
300.425
300.415
300.403
300.387
300.365
300.333
300.298
300.268
300.244
300.226
300.213
300.203
300.195
300.188
300.182
300.176
300.169
300.548
300.529
300.515
300.504
300.494
300.485
300.477
300.468
300.46
300.451
300.443
300.434
300.425
300.414
300.403
300.391
300.375
300.353
300.324
300.294
300.266
300.244
300.228
300.215
300.205
300.196
300.189
300.182
300.175
300.168
300.546
300.53
300.516
300.505
300.494
300.484
300.474
300.465
300.455
300.446
300.437
300.428
300.418
300.407
300.395
300.381
300.364
300.343
300.317
300.29
300.265
300.245
300.23
300.217
300.207
300.198
300.189
300.182
300.175
300.167