/*--------------------------------*- C++ -*----------------------------------*\
  =========                 |
  \\      /  F ield         | OpenFOAM: The Open Source CFD Toolbox
   \\    /   O peration     | Website:  https://openfoam.org
    \\  /    A nd           | Version:  12
     \\/     M anipulation  |
\*---------------------------------------------------------------------------*/
FoamFile
{
    format      ascii;
    class       volScalarField;
    location    "150/air";
    object      alphat;
}
// * * * * * * * * * * * * * * * * * * * * * * * * * * * * * * * * * * * * * //

dimensions      [1 -1 -1 0 0 0 0];

internalField   nonuniform List<scalar> 
243000
(
0.000136418
0.000137243
0.00013563
0.000132093
0.000126895
0.000120653
0.000114098
0.000108371
0.000104177
0.000103938
0.000109256
0.000116201
0.000122748
0.000129017
0.000134419
0.000139166
0.000142047
0.000143979
0.000141155
0.000138471
0.000135548
0.000132539
0.000129496
0.000126574
0.000124109
0.000122516
0.000122296
0.000123308
0.000126574
0.000131124
0.000559316
0.000551041
0.000538349
0.000519046
0.000495326
0.000469405
0.000444567
0.000425495
0.000414885
0.000420662
0.0004383
0.000460044
0.000480886
0.000502885
0.000522454
0.000540331
0.000552641
0.00056155
0.000552246
0.000542285
0.000530451
0.000518952
0.000507648
0.000497842
0.000490229
0.000486323
0.000487257
0.00049276
0.000505906
0.000526393
0.000743121
0.000762708
0.000773301
0.0007728
0.000763791
0.000749136
0.000733784
0.000725642
0.00073076
0.000762124
0.000805376
0.00085337
0.000898474
0.000943456
0.000981627
0.00101252
0.00102978
0.00103676
0.00100969
0.000977268
0.000939086
0.000899467
0.000859047
0.000820417
0.000784875
0.000754541
0.000730795
0.00071346
0.000704994
0.000705581
0.000799658
0.000821613
0.000832132
0.000831159
0.000821559
0.000806612
0.000791674
0.000785133
0.000794762
0.00082967
0.000873271
0.000920643
0.000965487
0.00101018
0.0010486
0.00107921
0.00109594
0.00110222
0.00107604
0.00104336
0.00100474
0.000964207
0.000922835
0.000883225
0.000846736
0.000815478
0.000790917
0.000773348
0.000764529
0.000765051
0.000847385
0.000870531
0.00088027
0.000878608
0.000868386
0.000853262
0.000838912
0.000834075
0.000848043
0.000884684
0.000927923
0.0009741
0.00101809
0.00106199
0.00110021
0.00113041
0.00114654
0.00115226
0.00112753
0.00109535
0.00105693
0.00101615
0.000974391
0.000934332
0.000897388
0.00086569
0.000840809
0.00082332
0.000814536
0.000814961
0.000892992
0.000916466
0.000924684
0.000921811
0.000910673
0.000895249
0.000881501
0.000878419
0.000896247
0.000933464
0.000975869
0.00102065
0.00106355
0.00110656
0.00114447
0.00117445
0.00119024
0.00119579
0.00117281
0.0011416
0.00110369
0.00106294
0.00102105
0.000980772
0.00094364
0.000911819
0.000886913
0.000869722
0.000861211
0.000861557
0.000940221
0.000963361
0.000969464
0.000964744
0.000952219
0.000936203
0.000922917
0.000921744
0.000942446
0.000979577
0.0010208
0.00106409
0.0011058
0.00114796
0.00118565
0.00121569
0.00123151
0.00123738
0.00121646
0.00118658
0.00114944
0.00110895
0.0010671
0.00102675
0.000989548
0.000957772
0.000933068
0.000916355
0.00090829
0.000908628
0.000991343
0.00101364
0.00101709
0.00100989
0.000995435
0.000978454
0.000965401
0.000966135
0.000988656
0.00102517
0.00106493
0.00110662
0.00114708
0.00118844
0.00122604
0.00125647
0.00127273
0.00127939
0.00126091
0.00123276
0.00119667
0.00115675
0.00111513
0.00107485
0.0010377
0.00100611
0.00098181
0.000965747
0.000958272
0.000958617
0.00104766
0.0010687
0.00106908
0.00105879
0.00104178
0.00102348
0.0010104
0.00101277
0.00103614
0.0010715
0.00110951
0.00114949
0.00118857
0.00122914
0.00126674
0.00129783
0.0013149
0.00132279
0.00130717
0.00128126
0.00124665
0.00120767
0.0011666
0.00112665
0.00108974
0.00105852
0.0010348
0.00101958
0.00101283
0.00101321
0.00110974
0.00112902
0.00112611
0.00111215
0.00109204
0.00107203
0.00105868
0.0010622
0.00108549
0.00111917
0.0011551
0.00119316
0.00123069
0.00127038
0.00130798
0.00133991
0.00135813
0.0013676
0.00135524
0.00133214
0.00129955
0.00126207
0.00122203
0.00118283
0.00114648
0.00111587
0.00109297
0.0010788
0.00107297
0.00107355
0.00117739
0.00119428
0.00118787
0.0011699
0.00114628
0.00112424
0.00111034
0.00111434
0.00113669
0.00116817
0.00120165
0.00123751
0.00127322
0.00131186
0.00134934
0.00138221
0.00140181
0.00141318
0.00140438
0.00138462
0.00135472
0.00131939
0.00128104
0.00124315
0.00120785
0.00117822
0.00115644
0.00114357
0.00113885
0.00113985
0.00124943
0.00126329
0.00125327
0.00123116
0.00120388
0.00117954
0.00116483
0.00116857
0.00118915
0.00121791
0.00124853
0.00128186
0.00131542
0.00135275
0.00138989
0.00142373
0.00144486
0.00145845
0.00145333
0.00143734
0.00141079
0.00137834
0.00134243
0.00130658
0.00127293
0.00124479
0.00122449
0.00121316
0.00120971
0.00121135
0.00132392
0.00133417
0.00132055
0.00129439
0.00126351
0.00123677
0.00122099
0.0012237
0.00124177
0.0012673
0.00129467
0.0013251
0.00135616
0.00139189
0.00142842
0.00146314
0.00148589
0.00150201
0.00150062
0.00148864
0.00146595
0.00143707
0.00140438
0.00137133
0.00134005
0.00131397
0.00129556
0.00128599
0.00128394
0.00128633
0.00139834
0.00140454
0.00138747
0.0013576
0.00132335
0.00129425
0.00127713
0.00127807
0.001293
0.00131486
0.0013386
0.00136579
0.00139403
0.00142789
0.0014635
0.00149896
0.00152336
0.00154212
0.00154452
0.00153666
0.00151811
0.00149335
0.0014646
0.00143514
0.00140699
0.00138356
0.00136744
0.00135976
0.00135921
0.0013624
0.00146996
0.00147197
0.00145182
0.00141869
0.00138142
0.00134999
0.00133122
0.00132966
0.00134097
0.00135877
0.00137856
0.00140221
0.00142745
0.00145924
0.00149366
0.00152969
0.00155572
0.00157692
0.00158292
0.00157942
0.00156517
0.0015449
0.0015206
0.0014954
0.00147112
0.00145096
0.00143749
0.0014318
0.0014327
0.00143668
0.0015363
0.00153438
0.00151137
0.00147528
0.00143535
0.00140172
0.00138096
0.00137635
0.0013835
0.00139688
0.00141254
0.00143256
0.00145484
0.00148443
0.00151751
0.00155394
0.00158152
0.00160498
0.0016143
0.00161499
0.00160514
0.00158952
0.00156998
0.00154949
0.00152967
0.0015134
0.00150302
0.00149958
0.0015018
0.00150654
0.00159521
0.00158952
0.0015637
0.00152501
0.00148283
0.00144711
0.00142402
0.00141586
0.0014184
0.00142717
0.00143866
0.00145514
0.00147465
0.00150208
0.00153376
0.00157044
0.00159938
0.00162506
0.00163732
0.0016418
0.00163628
0.00162525
0.00161062
0.00159507
0.00158003
0.00156812
0.00156132
0.00156054
0.00156419
0.00156957
0.00164435
0.00163499
0.00160658
0.00156572
0.00152166
0.00148393
0.00145815
0.00144599
0.00144375
0.00144788
0.00145536
0.0014686
0.00148557
0.00151106
0.00154131
0.00157811
0.00160811
0.00163589
0.00165081
0.00165856
0.00165707
0.00165041
0.00164061
0.00163002
0.00161992
0.00161262
0.00160978
0.00161192
0.00161731
0.00162334
0.00168121
0.00166861
0.00163801
0.00159534
0.0015497
0.00151013
0.00148133
0.00146506
0.00145834
0.00145814
0.00146209
0.00147257
0.00148729
0.00151081
0.00153979
0.00157625
0.00160722
0.00163658
0.00165377
0.00166436
0.00166628
0.0016636
0.00165832
0.00165256
0.00164741
0.00164483
0.00164604
0.00165104
0.00165828
0.00166502
0.00170389
0.00168851
0.00165587
0.00161186
0.00156495
0.00152394
0.00149265
0.00147509
0.001466
0.00146324
0.00146511
0.00147336
0.00148639
0.00150759
0.00153415
0.00156738
0.00159647
0.00162685
0.00164568
0.00165836
0.00166305
0.00166369
0.00166247
0.00166129
0.001661
0.00166291
0.0016681
0.00167599
0.00168502
0.00169241
0.00171101
0.00169378
0.00166023
0.00161556
0.00156969
0.00153105
0.00150046
0.00148081
0.00146966
0.00146488
0.00146517
0.00147182
0.00148348
0.00150279
0.00152739
0.00155792
0.0015854
0.00161291
0.00163044
0.00164219
0.00164769
0.00165077
0.00165271
0.00165519
0.00165902
0.00166506
0.00167417
0.00168501
0.00169579
0.00170369
0.00170058
0.00168193
0.00165032
0.00161195
0.00157034
0.00153362
0.00150353
0.0014824
0.00146932
0.00146283
0.00146209
0.00146763
0.00147826
0.00149612
0.00151913
0.00154741
0.00157324
0.00159828
0.00161461
0.00162554
0.00163129
0.0016344
0.00163667
0.00163986
0.00164466
0.00165147
0.00166301
0.00167646
0.00168887
0.00169707
0.00167555
0.00166155
0.00163546
0.00160278
0.00156551
0.00153088
0.00150139
0.00147916
0.00146464
0.00145715
0.00145588
0.00146077
0.00147068
0.00148743
0.00150913
0.00153547
0.00155965
0.00158253
0.00159765
0.00160777
0.00161326
0.00161612
0.00161834
0.00162164
0.00162688
0.00163425
0.00164569
0.00165786
0.00166829
0.00167423
0.0016459
0.00163598
0.0016152
0.00158744
0.00155427
0.00152194
0.00149352
0.00147119
0.00145599
0.00144808
0.00144673
0.00145131
0.00146071
0.00147658
0.00149711
0.00152174
0.0015443
0.00156525
0.00157914
0.00158835
0.00159321
0.00159557
0.00159739
0.00160031
0.0016053
0.00161271
0.00162341
0.00163406
0.00164245
0.00164633
0.00161058
0.00160448
0.00158908
0.00156614
0.00153716
0.00150747
0.00148061
0.00145888
0.00144376
0.00143598
0.00143482
0.00143924
0.00144826
0.00146336
0.00148283
0.00150585
0.00152685
0.00154605
0.00155865
0.00156679
0.00157077
0.00157245
0.00157367
0.00157593
0.00158018
0.00158679
0.00159593
0.00160456
0.0016105
0.00161234
0.00156934
0.00156688
0.00155684
0.00153899
0.00151435
0.00148775
0.00146301
0.00144264
0.00142827
0.00142095
0.00142008
0.00142444
0.00143324
0.00144768
0.0014661
0.00148756
0.00150706
0.00152456
0.00153578
0.00154263
0.00154553
0.00154637
0.00154685
0.00154828
0.00155151
0.00155681
0.00156377
0.00156969
0.00157256
0.00157206
0.0015232
0.00152395
0.0015191
0.00150626
0.0014863
0.00146318
0.00144104
0.00142262
0.00140953
0.00140308
0.00140277
0.00140734
0.00141613
0.00143006
0.00144756
0.00146758
0.00148565
0.00150139
0.00151105
0.00151622
0.0015176
0.00151724
0.00151665
0.00151692
0.00151886
0.00152252
0.0015271
0.00153009
0.0015296
0.00152666
0.00147128
0.00147504
0.00147527
0.00146759
0.00145282
0.00143407
0.00141553
0.00140026
0.00138971
0.00138528
0.00138633
0.00139181
0.00140115
0.001415
0.00143206
0.00145115
0.00146809
0.00148193
0.0014897
0.00149242
0.00149131
0.00148856
0.00148557
0.00148352
0.001483
0.00148397
0.00148545
0.00148495
0.00148093
0.00147524
0.00142982
0.00143636
0.0014403
0.00143763
0.00142931
0.00141735
0.00140532
0.00139607
0.00139064
0.00138969
0.00139294
0.00139959
0.0014093
0.00142278
0.00143896
0.00145694
0.00147281
0.00148514
0.00149145
0.00149207
0.00148857
0.00148261
0.00147586
0.00146942
0.00146416
0.00146014
0.00145658
0.00145149
0.0014432
0.00143381
0.00152097
0.00152167
0.00152113
0.001518
0.00151259
0.00150536
0.00149808
0.00149162
0.0014865
0.00148315
0.00148163
0.00148225
0.00148531
0.00149157
0.00150088
0.00151349
0.00152592
0.00153655
0.0015447
0.00154943
0.00155083
0.0015503
0.00154863
0.00154636
0.00154385
0.00154131
0.00153878
0.00153544
0.00153039
0.00152392
0.000192063
0.000192393
0.000188806
0.000182383
0.000173992
0.000164976
0.000156724
0.000151307
0.000149773
0.000152353
0.00015652
0.000162379
0.000168621
0.00017559
0.000182014
0.000187828
0.00019178
0.000194438
0.000191512
0.000188453
0.000184637
0.000180806
0.000177072
0.00017379
0.000171351
0.000170115
0.0001705
0.000172666
0.000177369
0.000184333
0.00131143
0.00135897
0.00132091
0.00123129
0.001125
0.00102174
0.000945848
0.000911423
0.000916294
0.000945749
0.000982684
0.00103168
0.00108319
0.00115197
0.00121829
0.00127466
0.00131565
0.00134345
0.00131037
0.00127075
0.00121434
0.00115921
0.00110902
0.00107054
0.00104162
0.00102689
0.00102657
0.00104123
0.00107206
0.00112404
0.00244071
0.00257167
0.00251891
0.00237923
0.00220319
0.00203045
0.00190415
0.00185683
0.0018852
0.00195527
0.00203752
0.00214233
0.00225147
0.00238991
0.00252571
0.00262941
0.00269938
0.00275029
0.00268838
0.00260554
0.00249009
0.00237254
0.00226187
0.00217128
0.00210208
0.00205942
0.00204392
0.00206083
0.00210934
0.00219674
0.00342526
0.00358032
0.00350499
0.00334517
0.00315305
0.0029619
0.00282453
0.00278725
0.00284406
0.0029485
0.00307036
0.00322233
0.00337679
0.00356373
0.00374917
0.00388229
0.00396604
0.00402801
0.00394979
0.00383507
0.00367511
0.0035071
0.00334797
0.00321237
0.00310513
0.00303373
0.00300042
0.00301443
0.00306609
0.00315559
0.00419115
0.00433758
0.00426499
0.00413102
0.00395428
0.00378107
0.00366465
0.00365125
0.00373562
0.00387182
0.00402198
0.00419106
0.00436791
0.00457691
0.0047852
0.00493194
0.00502053
0.00507821
0.00499737
0.00487392
0.00470342
0.00451517
0.00432339
0.00415162
0.00400594
0.00390082
0.00384476
0.00384046
0.00388374
0.00396055
0.00482322
0.00494982
0.00488562
0.00477684
0.00462956
0.00449097
0.00440718
0.00442085
0.0045228
0.00467035
0.00483314
0.00501385
0.00519812
0.00540785
0.00561682
0.00576526
0.00585291
0.00590138
0.00582673
0.00569743
0.00551809
0.00531715
0.00511335
0.00492724
0.0047661
0.00464404
0.0045698
0.00454758
0.0045758
0.00463505
0.00537382
0.0054779
0.00542131
0.00533161
0.00521374
0.00511055
0.00505832
0.00509434
0.00520579
0.00535595
0.00551949
0.00569843
0.00587808
0.00607759
0.0062747
0.00641734
0.00649988
0.00654173
0.00647718
0.00635241
0.0061764
0.00597604
0.00577144
0.00558101
0.0054134
0.00528218
0.00519675
0.00516163
0.00517579
0.0052193
0.00588299
0.0059646
0.00591315
0.00583551
0.00574025
0.00566513
0.00563688
0.00568722
0.00580086
0.00594673
0.00610346
0.0062724
0.00644023
0.00662304
0.00680433
0.00693721
0.00701435
0.00705399
0.00700346
0.00689111
0.00672627
0.00653441
0.00633603
0.0061484
0.00598095
0.00584735
0.00575755
0.00571574
0.00572058
0.00575248
0.00637475
0.00643366
0.00638673
0.00631437
0.00623392
0.00617768
0.00616467
0.00622071
0.00633012
0.00646642
0.00661135
0.0067657
0.00691742
0.00708061
0.00724439
0.00736668
0.0074402
0.00748163
0.00744883
0.00735505
0.00720712
0.00702923
0.00684224
0.00666263
0.00650046
0.00636965
0.00628078
0.00623758
0.00623781
0.00626218
0.00685917
0.00689658
0.00685066
0.0067803
0.00670863
0.0066633
0.00665835
0.00671172
0.0068117
0.00693392
0.00706333
0.00720001
0.00733291
0.00747468
0.0076201
0.00773235
0.0078043
0.00785062
0.00783817
0.00776797
0.00764164
0.00748252
0.00731153
0.00714458
0.00699214
0.00686831
0.00678415
0.00674319
0.00674216
0.00676192
0.00733554
0.00735268
0.00730431
0.0072348
0.00716788
0.00712774
0.00712573
0.00716842
0.00725509
0.00735943
0.00746997
0.0075866
0.00769837
0.00781738
0.00794363
0.00804681
0.00811899
0.00817287
0.00818149
0.00813825
0.00803764
0.00790148
0.00775095
0.00760122
0.0074628
0.00734962
0.00727295
0.00723648
0.00723622
0.00725296
0.0077957
0.00779297
0.00774127
0.00767168
0.00760694
0.00756802
0.00756387
0.0075925
0.00766108
0.00774448
0.00783336
0.00792777
0.00801654
0.00811152
0.00821787
0.00831304
0.00838691
0.00845114
0.00847941
0.00846451
0.00839277
0.00828305
0.00815695
0.00802872
0.00790833
0.00780919
0.00774239
0.00771189
0.00771361
0.00772806
0.00822712
0.00820498
0.00814976
0.00807952
0.00801536
0.00797491
0.00796399
0.00797826
0.00802379
0.00808414
0.00814913
0.00821975
0.00828398
0.00835424
0.00844024
0.0085284
0.00860528
0.0086828
0.00872998
0.00874115
0.00869931
0.00861832
0.00851953
0.00841636
0.00831762
0.0082356
0.00818082
0.00815749
0.00816223
0.0081747
0.00861432
0.00857341
0.0085147
0.0084437
0.00837921
0.00833529
0.00831463
0.0083137
0.00833336
0.00836924
0.00840878
0.00845474
0.00849383
0.00853941
0.00860525
0.00868726
0.0087685
0.0088602
0.00892722
0.00896094
0.00894722
0.00889562
0.00882552
0.00874992
0.00867564
0.00861345
0.00857263
0.00855722
0.00856616
0.00857718
0.00894021
0.00888268
0.00882166
0.00875037
0.00868458
0.00863489
0.00860169
0.00858271
0.0085791
0.00858788
0.00860125
0.00862262
0.00863747
0.00865975
0.00870628
0.00878259
0.00887012
0.00897306
0.00905817
0.00911443
0.00912568
0.00910256
0.00906118
0.00901418
0.00896586
0.00892571
0.00890047
0.00889356
0.00890741
0.00891782
0.00919001
0.00911932
0.00905547
0.00898223
0.00891439
0.00885783
0.00881045
0.00877125
0.00874317
0.00872539
0.0087148
0.00871278
0.00870654
0.00870841
0.00873695
0.00880823
0.00890323
0.00901715
0.00911759
0.00919235
0.0092253
0.00922716
0.00921361
0.00919474
0.00917225
0.00915544
0.00914795
0.00915204
0.00917061
0.00918285
0.00934835
0.00926755
0.00919892
0.00912409
0.00905448
0.00899028
0.00892722
0.00886627
0.00881456
0.00877244
0.00874016
0.00871907
0.00869577
0.00868036
0.00869369
0.00876109
0.00886075
0.00898746
0.0090993
0.00918815
0.00923865
0.00926156
0.00927154
0.00927771
0.00928086
0.00928721
0.00929906
0.00931643
0.00934293
0.00935734
0.00939435
0.00931474
0.00923905
0.0091642
0.00909411
0.00902185
0.00894233
0.0088586
0.00878666
0.00872436
0.00867421
0.00863924
0.00860568
0.00857552
0.00857788
0.00864222
0.00874404
0.00887776
0.00900026
0.00909741
0.00915906
0.00919847
0.00922764
0.00925541
0.0092805
0.00931015
0.00933972
0.00936912
0.00940644
0.00942499
0.00932163
0.00924428
0.00916717
0.00909611
0.00902859
0.0089486
0.00885371
0.00874504
0.00865653
0.00857274
0.00850449
0.00846169
0.00842589
0.00838629
0.00839085
0.00846074
0.00856301
0.00869596
0.00882511
0.00892585
0.00899045
0.00903567
0.00907857
0.00912318
0.00916473
0.00921756
0.00926332
0.00930101
0.00934206
0.00936583
0.0091325
0.00905421
0.00898337
0.00892141
0.0088632
0.00879005
0.0086905
0.00855735
0.00840767
0.00828209
0.00819688
0.00815341
0.0081174
0.00807816
0.00809871
0.00819556
0.00832033
0.00846485
0.00858849
0.0086811
0.00873911
0.00878136
0.00882536
0.00889236
0.00896244
0.00901606
0.009072
0.00911654
0.00915239
0.0091794
0.00882692
0.00874904
0.00869904
0.00865295
0.00858462
0.00846725
0.00831775
0.00814754
0.00798404
0.00785223
0.00776557
0.00772976
0.00769533
0.00766643
0.00771017
0.00782744
0.00796919
0.00813692
0.00827255
0.00836802
0.00841879
0.00845228
0.00849318
0.00855485
0.00863186
0.0086992
0.00876022
0.00881195
0.00884532
0.008871
0.00841191
0.00833891
0.00828761
0.00820986
0.00810897
0.00796206
0.00778517
0.00760419
0.00744668
0.00732156
0.0072481
0.00722744
0.0072035
0.00720573
0.00727642
0.00741331
0.00756561
0.00773882
0.00786965
0.00794852
0.00798472
0.00800464
0.0080294
0.00808265
0.00816417
0.00825453
0.00833077
0.00839264
0.00843426
0.00845513
0.007846
0.00775189
0.00768213
0.00759916
0.00748471
0.00732855
0.00714893
0.00698172
0.00684221
0.00674236
0.00669526
0.00669732
0.00670694
0.00674618
0.00684695
0.00700433
0.00716458
0.00733608
0.0074508
0.00750475
0.00751328
0.00750033
0.00748212
0.00748549
0.00753955
0.00761848
0.00770839
0.0077942
0.00786653
0.00789969
0.00707413
0.00699935
0.00694269
0.00687611
0.00677204
0.00663042
0.00647599
0.00634056
0.0062374
0.00617815
0.00617901
0.0062152
0.00625872
0.00633413
0.00646374
0.00664233
0.00681089
0.00697943
0.00707612
0.00710466
0.00708203
0.00702813
0.00695553
0.00689034
0.00686644
0.00690269
0.00696996
0.00703469
0.00710049
0.00713303
0.00622008
0.00618122
0.0061549
0.00611726
0.00604959
0.00595064
0.00584428
0.00575949
0.00571936
0.00572668
0.00576992
0.00582909
0.00590075
0.00600478
0.00615985
0.00635826
0.00653536
0.00670353
0.00678731
0.00679563
0.00674682
0.00666036
0.00654675
0.00642519
0.00632144
0.00625109
0.00622453
0.00623368
0.00626003
0.00627574
0.00544113
0.00542954
0.00543419
0.00543518
0.00541945
0.00538393
0.00535847
0.0053603
0.00538705
0.00543472
0.00549834
0.00557123
0.00566237
0.00578674
0.00595864
0.00617289
0.00635759
0.00652885
0.0066081
0.00660555
0.00654273
0.00643573
0.00629452
0.00613546
0.00597441
0.00582403
0.00569583
0.0055998
0.00553566
0.0054962
0.00501313
0.00500774
0.00502581
0.00504822
0.00508374
0.00511087
0.00514383
0.00518817
0.00524189
0.00530347
0.00537471
0.00545497
0.00555589
0.00569248
0.00587223
0.00609805
0.00629153
0.00646768
0.00655145
0.00654996
0.00648506
0.006371
0.00621733
0.00603849
0.00584674
0.00565339
0.00546914
0.0053076
0.00517854
0.0050791
0.00492085
0.0049234
0.00494894
0.00497918
0.00503037
0.00507765
0.00512861
0.00518419
0.00524284
0.00530592
0.00537734
0.00546101
0.00556942
0.0057191
0.0059113
0.00615473
0.00636377
0.00654905
0.00664546
0.00665315
0.00659343
0.0064785
0.00631913
0.00613015
0.00592253
0.00570755
0.0054963
0.00530066
0.00513162
0.0049954
0.00512098
0.00512609
0.00514919
0.00517562
0.00521909
0.00526358
0.00531305
0.00536604
0.00542257
0.0054854
0.00555798
0.0056504
0.00577539
0.00595235
0.0061821
0.00646285
0.0067012
0.0069057
0.00702308
0.00704523
0.00699051
0.00686896
0.00669766
0.00649401
0.00626824
0.00603281
0.00579997
0.00557849
0.00537637
0.00520576
0.00604882
0.00604436
0.00604611
0.00604868
0.00606114
0.00608241
0.0061131
0.00614928
0.00619429
0.00625056
0.00632395
0.00643091
0.00658404
0.00681027
0.007107
0.00745649
0.00775589
0.0080096
0.00816569
0.00821924
0.00817484
0.00804883
0.00786651
0.00764501
0.00739644
0.00713471
0.00687306
0.00661881
0.00637427
0.00614945
0.000233605
0.000232636
0.000226533
0.000217838
0.000207444
0.000197428
0.000188615
0.000183183
0.000181705
0.000183536
0.000186803
0.000192174
0.000198403
0.000205926
0.000212809
0.000219039
0.000223264
0.000226024
0.000222979
0.000219913
0.000215863
0.000212051
0.000208381
0.000205405
0.000203827
0.000203542
0.00020491
0.000208234
0.000213863
0.000222152
0.00187213
0.00194102
0.00190363
0.00182096
0.00172229
0.00160369
0.00151705
0.00148527
0.0015009
0.00154552
0.00159203
0.001638
0.00168268
0.00174596
0.00181193
0.0018586
0.00188776
0.00190463
0.00187449
0.00183276
0.00177736
0.00172584
0.00168117
0.00164969
0.0016127
0.0015975
0.00160082
0.00162674
0.0016685
0.00173489
0.00355428
0.00369251
0.00363499
0.00349676
0.00334327
0.00317889
0.00306383
0.0030357
0.0030854
0.00318117
0.0032699
0.00336345
0.00346312
0.00359698
0.00373526
0.00382327
0.00387514
0.00391633
0.00385709
0.00377024
0.00365102
0.00353195
0.00342163
0.00333273
0.00325751
0.00320713
0.00318996
0.00321765
0.00327395
0.00336749
0.00496976
0.00509943
0.00500059
0.00485926
0.00470915
0.00455945
0.0044612
0.0044559
0.00453615
0.00466888
0.00479059
0.00493011
0.00507856
0.00526756
0.0054635
0.00558211
0.00564999
0.00571238
0.00563393
0.0055125
0.00534236
0.00516529
0.00499497
0.00484643
0.00472741
0.00464623
0.00459246
0.00460272
0.00465475
0.00473947
0.00602703
0.00613691
0.00605586
0.00594763
0.00582465
0.00571417
0.00565506
0.00568544
0.00581137
0.0059484
0.00609438
0.00626998
0.00645449
0.00667708
0.00690691
0.00704556
0.0071227
0.00719468
0.00710704
0.00696264
0.00675662
0.00653706
0.00632997
0.00615694
0.00599548
0.00585755
0.00577492
0.00575078
0.00577634
0.00583644
0.00686509
0.00695473
0.00689612
0.00681927
0.00673238
0.0066683
0.00664939
0.00670951
0.00684772
0.00700872
0.00718288
0.00738071
0.00758432
0.00782324
0.00805639
0.00820291
0.0082848
0.00835379
0.00828214
0.00811602
0.00789316
0.00764815
0.00740851
0.00719479
0.00700167
0.00684246
0.00673504
0.00668265
0.00668222
0.00671732
0.00757122
0.00764226
0.0076005
0.00754666
0.00749069
0.00746244
0.00747812
0.00755444
0.00770642
0.00788533
0.008077
0.0082854
0.00849528
0.00872778
0.00894881
0.00909219
0.00917413
0.00923871
0.00917562
0.00901519
0.00878875
0.00853327
0.00827767
0.00804139
0.00782918
0.00765466
0.00753051
0.00745826
0.00743833
0.00745436
0.00820844
0.00826173
0.00822914
0.00818909
0.00815415
0.00814952
0.00818818
0.00827453
0.00843491
0.00862257
0.00882094
0.00902877
0.00923168
0.0094448
0.00964215
0.00977188
0.00984933
0.00991414
0.00986909
0.00972509
0.00950844
0.00925614
0.00899861
0.00875496
0.00853524
0.00835412
0.00822268
0.00814007
0.00811037
0.00811351
0.0088133
0.0088484
0.0088197
0.00878591
0.00876326
0.00877252
0.00882452
0.00891799
0.00907615
0.0092633
0.00945848
0.00965654
0.0098415
0.010026
0.0101916
0.0103017
0.0103728
0.0104425
0.0104237
0.010307
0.0101118
0.00987428
0.00962652
0.00938729
0.00916963
0.0089894
0.00885782
0.00877285
0.00873864
0.0087346
0.00940129
0.00941802
0.00938948
0.00935688
0.00934038
0.00935663
0.00941489
0.00951377
0.00966027
0.00983819
0.010022
0.0102041
0.0103637
0.0105135
0.0106429
0.0107309
0.0107951
0.0108729
0.0108848
0.0108043
0.0106395
0.010426
0.0101973
0.00997151
0.0097632
0.00958943
0.00946214
0.00937953
0.00934273
0.00933554
0.00997367
0.00997281
0.00994095
0.00990724
0.00989302
0.00991239
0.00997239
0.0100722
0.0102061
0.0103658
0.0105309
0.0106933
0.0108237
0.0109363
0.0110282
0.0110937
0.0111512
0.0112392
0.0112814
0.0112419
0.0111126
0.0109292
0.0107268
0.0105212
0.0103277
0.0101642
0.0100436
0.00996531
0.00992707
0.00991916
0.010522
0.0105041
0.0104676
0.0104316
0.0104176
0.0104382
0.0104973
0.0105925
0.0107161
0.0108547
0.0109952
0.0111352
0.0112354
0.0113113
0.0113673
0.011412
0.0114628
0.0115609
0.0116309
0.0116319
0.0115382
0.0113881
0.0112165
0.0110352
0.01086
0.0107095
0.0105968
0.0105232
0.0104856
0.010478
0.0110314
0.010997
0.0109558
0.0109173
0.0109031
0.0109242
0.0109811
0.0110696
0.0111809
0.011302
0.0114172
0.0115324
0.0116038
0.0116469
0.0116714
0.0116986
0.0117427
0.0118493
0.0119436
0.0119787
0.0119181
0.0118001
0.011658
0.0115018
0.0113475
0.0112121
0.0111077
0.0110391
0.0110043
0.0109975
0.0114825
0.0114328
0.0113871
0.0113467
0.0113332
0.0113552
0.0114098
0.0114913
0.0115907
0.0116955
0.011791
0.0118824
0.0119284
0.0119451
0.0119455
0.0119598
0.0119978
0.012111
0.0122246
0.0122856
0.0122515
0.01216
0.012041
0.0119063
0.0117718
0.0116514
0.011557
0.0114945
0.0114644
0.0114589
0.0118528
0.0117894
0.0117398
0.0116991
0.0116887
0.0117129
0.0117663
0.0118424
0.0119324
0.0120243
0.0121055
0.0121783
0.012205
0.0122039
0.0121908
0.0121981
0.0122316
0.0123508
0.0124773
0.0125539
0.0125365
0.0124597
0.0123567
0.0122372
0.0121159
0.0120069
0.011922
0.0118675
0.0118438
0.0118397
0.0121173
0.0120438
0.0119912
0.0119531
0.0119493
0.0119778
0.0120323
0.012106
0.0121906
0.0122749
0.0123498
0.0124103
0.0124271
0.012419
0.0124043
0.0124134
0.0124459
0.0125707
0.0127046
0.0127835
0.0127722
0.0126951
0.0125965
0.0124826
0.0123669
0.0122634
0.0121831
0.0121345
0.0121178
0.012116
0.0122505
0.0121743
0.0121195
0.0120895
0.0120949
0.0121309
0.0121891
0.0122646
0.0123497
0.0124331
0.0125119
0.0125686
0.0125866
0.0125835
0.0125803
0.0126021
0.0126403
0.0127724
0.0129069
0.0129775
0.012959
0.0128683
0.0127575
0.0126362
0.0125144
0.0124073
0.0123248
0.0122762
0.0122626
0.0122644
0.0122367
0.0121592
0.0121086
0.0120906
0.0121077
0.0121545
0.012219
0.0123015
0.012394
0.0124868
0.0125777
0.0126425
0.0126736
0.0126883
0.0127094
0.0127565
0.0128099
0.0129548
0.0130854
0.0131397
0.0130997
0.0129877
0.0128426
0.012699
0.012556
0.0124333
0.0123372
0.0122794
0.0122614
0.0122659
0.0120762
0.0119955
0.0119502
0.0119415
0.0119726
0.0120328
0.0121052
0.0122012
0.0123102
0.0124331
0.0125433
0.0126309
0.0126871
0.0127298
0.0127828
0.0128651
0.0129446
0.013109
0.0132366
0.0132705
0.0131985
0.0130502
0.0128641
0.0126735
0.0124917
0.012342
0.0122219
0.0121436
0.012108
0.0121134
0.0117541
0.0116652
0.0116284
0.0116357
0.0116821
0.01176
0.0118594
0.011975
0.0121209
0.0122812
0.0124234
0.0125461
0.0126376
0.0127178
0.0128113
0.0129345
0.0130428
0.0132226
0.0133496
0.0133607
0.0132491
0.0130509
0.012817
0.0125662
0.0123208
0.0121358
0.0119827
0.0118722
0.0118102
0.0117964
0.0112789
0.0111815
0.0111474
0.0111633
0.0112426
0.0113582
0.0114967
0.0116577
0.0118397
0.0120479
0.0122353
0.0124023
0.0125357
0.0126618
0.0128059
0.0129766
0.013121
0.0133157
0.0134386
0.0134191
0.0132584
0.0129972
0.0127014
0.0123578
0.0120525
0.0118071
0.0115996
0.0114624
0.0113749
0.0113297
0.0106603
0.010568
0.0105504
0.0105883
0.0106956
0.0108606
0.0110605
0.011273
0.0115067
0.0117468
0.0119968
0.0122185
0.0123998
0.0125793
0.0127807
0.0130049
0.013196
0.0134072
0.0135267
0.0134743
0.0132656
0.0129448
0.0125649
0.0121235
0.0117296
0.0113968
0.0111256
0.0109305
0.0108114
0.0107334
0.00997965
0.00990872
0.00991503
0.00998831
0.0101348
0.0103467
0.0105931
0.0108633
0.0111534
0.0114519
0.0117425
0.0120039
0.0122484
0.0124895
0.0127547
0.0130402
0.0132844
0.0135204
0.0136382
0.0135608
0.0133115
0.0129341
0.0124419
0.0119211
0.0114151
0.0109871
0.0106349
0.0103679
0.0101944
0.0100772
0.00934136
0.0092912
0.0093268
0.00943652
0.00962033
0.00987479
0.0101679
0.0104859
0.0108331
0.0111938
0.0115341
0.0118385
0.0121207
0.0124189
0.0127537
0.0131089
0.013408
0.0136826
0.0138023
0.0137167
0.0134497
0.0130143
0.0124303
0.0118063
0.0111946
0.0106557
0.0102139
0.00986547
0.00962348
0.0094587
0.00884397
0.00881282
0.00887471
0.00901384
0.00922991
0.0095194
0.00985186
0.0102142
0.0106062
0.0110052
0.0113797
0.0117171
0.0120424
0.0124014
0.0128116
0.0132436
0.0135999
0.0139236
0.0140592
0.0139732
0.0136684
0.0131741
0.0125392
0.0118443
0.0111536
0.0105076
0.00995764
0.00952161
0.00920024
0.00897982
0.00859702
0.00857854
0.00865701
0.00881458
0.00905382
0.0093692
0.00973218
0.010128
0.0105462
0.0109608
0.0113492
0.0117048
0.0120629
0.0124801
0.0129711
0.0134867
0.0139056
0.014281
0.0144494
0.0143607
0.014041
0.0135311
0.0128648
0.0121194
0.0113643
0.0106404
0.00999081
0.0094517
0.00904031
0.00875312
0.00874822
0.00873353
0.00881546
0.00897666
0.00922418
0.0095495
0.00992055
0.0103208
0.0107328
0.0111334
0.0115113
0.0118685
0.0122467
0.0127173
0.01329
0.0138947
0.0143835
0.0148111
0.0150365
0.0149844
0.0146695
0.014164
0.0134903
0.0127206
0.0119243
0.0111476
0.0104266
0.00979854
0.00929214
0.00892488
0.00947933
0.0094615
0.00953441
0.00968144
0.00991186
0.010214
0.0105548
0.0109165
0.0112796
0.0116309
0.01197
0.0123073
0.0126882
0.0132048
0.0138513
0.014544
0.0151079
0.0155883
0.015893
0.0159004
0.0156361
0.0151663
0.0145185
0.0137624
0.0129645
0.0121689
0.0114138
0.0107293
0.0101364
0.00968006
0.0111004
0.0110682
0.0111114
0.0112129
0.0113836
0.0116069
0.0118582
0.0121165
0.0123722
0.0126236
0.0128808
0.0131636
0.0135243
0.0140681
0.0147642
0.0155308
0.0161704
0.0167069
0.0171067
0.0172055
0.0170399
0.0166499
0.0160785
0.0154244
0.0147028
0.0139463
0.0131952
0.0124847
0.0118533
0.0113293
0.0141982
0.014113
0.0140562
0.0140284
0.014052
0.0141034
0.0141637
0.0142225
0.0142849
0.0143601
0.0144705
0.0146439
0.0149434
0.0154662
0.0161592
0.0169617
0.0176681
0.0182719
0.0187748
0.0190054
0.0189871
0.0187433
0.0183966
0.0179339
0.0173825
0.0167826
0.0161662
0.0155579
0.0149807
0.0144605
0.000261485
0.00025848
0.000250877
0.000241102
0.000230058
0.000219064
0.000209351
0.000202685
0.000198967
0.000198401
0.000199413
0.000202974
0.000207545
0.000214232
0.000220675
0.000226906
0.000231297
0.000234898
0.000232691