/*--------------------------------*- C++ -*----------------------------------*\
  =========                 |
  \\      /  F ield         | OpenFOAM: The Open Source CFD Toolbox
   \\    /   O peration     | Website:  https://openfoam.org
    \\  /    A nd           | Version:  12
     \\/     M anipulation  |
\*---------------------------------------------------------------------------*/
FoamFile
{
    format      ascii;
    class       volScalarField;
    location    "150/air";
    object      epsilon;
}
// * * * * * * * * * * * * * * * * * * * * * * * * * * * * * * * * * * * * * //

dimensions      [0 2 -3 0 0 0 0];

internalField   nonuniform List<scalar> 
243000
(
1.83895
2.18548
2.45164
2.61488
2.6558
2.59713
2.48148
2.38723
2.36794
2.62022
3.30173
4.2099
5.18194
6.18957
7.09084
7.84251
8.17802
8.21802
7.37012
6.53114
5.67401
4.84913
4.08436
3.40732
2.84111
2.39669
2.07631
1.84364
1.71896
1.64097
1.55829
1.74032
1.88555
1.94975
1.94004
1.87766
1.80201
1.77458
1.83725
2.12287
2.59547
3.18687
3.80841
4.48602
5.09997
5.62714
5.90708
5.97949
5.41074
4.80679
4.1648
3.56338
3.01193
2.53757
2.14361
1.83575
1.6086
1.44156
1.34566
1.3026
1.88056
2.0393
2.12787
2.12242
2.04431
1.92468
1.80793
1.75448
1.80919
2.0695
2.44332
2.89936
3.37565
3.89818
4.37985
4.7953
5.03277
5.11932
4.72282
4.27992
3.79805
3.33779
2.90847
2.53395
2.21878
1.9709
1.7904
1.66638
1.60835
1.61242
2.34233
2.54593
2.64655
2.63585
2.54049
2.39984
2.26883
2.22226
2.32911
2.6651
3.10852
3.63469
4.18324
4.78011
5.33389
5.80202
6.06251
6.14857
5.71432
5.20653
4.64963
4.10949
3.60347
3.15944
2.78378
2.48614
2.26787
2.12055
2.04943
2.05324
2.78696
3.02514
3.12819
3.10872
2.99658
2.83869
2.69919
2.66623
2.83121
3.22725
3.72406
4.30033
4.90019
5.5497
6.15676
6.66373
6.93872
7.02333
6.57344
6.02372
5.41158
4.80855
4.24013
3.73857
3.31231
2.97301
2.72366
2.55787
2.47738
2.48032
3.2625
3.52761
3.6223
3.58619
3.45334
3.278
3.13269
3.11944
3.34301
3.78831
4.32753
4.9429
5.58286
6.27517
6.92749
7.47111
7.76125
7.85058
7.39856
6.8205
6.16276
5.50403
4.87862
4.32374
3.85081
3.47383
3.19679
3.01548
2.92818
2.93008
3.81089
4.09774
4.17297
4.10879
3.94707
3.75021
3.59885
3.61148
3.88858
4.37649
4.95083
5.59913
6.2732
7.00514
7.702
8.28647
8.59821
8.70259
8.25948
7.66276
6.96458
6.25288
5.57077
4.96201
4.44172
4.02716
3.72389
3.52899
3.4369
3.43803
4.47284
4.77768
4.82088
4.71391
4.51102
4.28553
4.12575
4.1676
4.49216
5.0168
5.62085
6.29803
7.00314
7.77434
8.51894
9.15212
9.49538
9.62774
9.20585
8.60042
7.86613
7.10299
6.36221
5.69659
5.12558
4.67154
4.34214
4.13492
4.0398
4.04008
5.28838
5.60771
5.60558
5.43759
5.17629
4.91243
4.74023
4.81124
5.17597
5.73108
6.35948
7.06197
7.79494
8.6058
9.40237
10.0936
10.4805
10.6547
10.2699
9.66834
8.90535
8.09396
7.29387
6.56854
5.94291
5.44646
5.09032
4.8722
4.77629
4.7761
6.29865
6.62453
6.56306
6.31236
5.9723
5.65719
5.46716
5.56308
5.95897
6.53644
7.18241
7.90491
8.66129
9.5107
10.3623
11.1208
11.5638
11.7947
11.4648
10.8846
10.1056
9.25459
8.39887
7.6142
6.93212
6.39148
6.00857
5.78208
5.6891
5.69138
7.54133
7.85929
7.72046
7.36373
6.92332
6.54166
6.32649
6.43857
6.85356
7.4429
8.09653
8.83107
9.60311
10.4872
11.3933
12.227
12.7379
13.04
12.7843
12.2474
11.472
10.597
9.69681
8.85939
8.12419
7.54105
7.13362
6.90314
6.81856
6.82935
9.03723
9.32666
9.09099
8.60509
8.04285
7.57824
7.32868
7.44387
7.86209
8.44915
9.0972
9.83172
10.6082
11.5188
12.4744
13.3882
13.9765
14.3648
14.2008
13.7326
12.9868
12.1117
11.1873
10.3123
9.53453
8.91653
8.49116
8.26342
8.1942
8.22076
10.7829
11.018
10.6665
10.0309
9.32779
8.76487
8.46952
8.57089
8.97235
9.53933
10.1647
10.8835
11.6488
12.5737
13.5687
14.5635
15.2364
15.7262
15.6701
15.2937
14.6068
13.7624
12.8435
11.9561
11.1558
10.5179
10.0863
9.87108
9.82571
9.87464
12.7432
12.8946
12.4113
11.6113
10.7535
10.0797
9.72575
9.79209
10.1544
10.6801
11.2618
11.9458
12.6819
13.6058
14.6258
15.6973
16.4585
17.0615
17.1281
16.8641
16.2635
15.4842
14.6074
13.7428
12.9502
12.3156
11.8951
11.7046
11.693
11.7702
14.8469
14.8871
14.2636
13.293
12.2734
11.4787
11.0518
11.0586
11.3577
11.8169
12.3318
12.9597
13.6496
14.5566
15.5851
16.7239
17.5733
18.2882
18.4844
18.3566
17.8676
17.1869
16.3907
15.5899
14.845
14.2459
13.8592
13.7068
13.737
13.8481
16.9931
16.9087
16.1388
14.9945
13.8131
12.8933
12.3787
12.2998
12.506
12.8712
13.2972
13.8508
14.4834
15.3593
16.3812
17.5739
18.5064
19.3282
19.6526
19.671
19.3165
18.7636
18.0841
17.3869
16.7318
16.2088
15.8856
15.7903
15.8674
16.0162
19.0668
18.845
17.9225
16.6116
15.2774
14.2334
13.615
13.424
13.5078
13.7554
14.0762
14.5442
15.1134
15.947
16.95
18.1805
19.184
20.1064
20.5498
20.7101
20.5044
20.0988
19.5673
19.0092
18.4815
18.0737
17.85
17.8378
17.9718
18.1589
20.9268
20.5552
19.4854
18.0259
16.5566
15.393
14.6553
14.3292
14.2707
14.3858
14.5942
14.9745
15.4772
16.2628
17.2356
18.4848
19.5411
20.5518
21.1011
21.3893
21.3325
21.0818
20.7166
20.324
19.9558
19.6957
19.6051
19.6987
19.9081
20.1356
22.4058
21.8903
20.6925
19.1123
17.5339
16.2617
15.3951
14.9227
14.7221
14.7069
14.8109
15.1111
15.5483
16.2781
17.2097
18.4497
19.5395
20.6097
21.2476
21.6456
21.7197
21.6179
21.4212
21.2072
21.0191
20.9309
20.9924
21.2016
21.4963
21.7688
23.3537
22.7117
21.4079
19.7453
18.0874
16.739
15.7673
15.2124
14.9315
14.8397
14.8845
15.1216
15.5105
16.1675
17.0182
18.137
19.1739
20.2683
20.9604
21.4349
21.6153
21.6399
21.5979
21.5604
21.5619
21.6494
21.8695
22.2009
22.5803
22.892
23.6601
22.9392
21.5937
19.9
18.2442
16.9562
15.9909
15.3708
15.0228
14.8696
14.8705
15.0632
15.412
16.0095
16.7935
17.8116
18.7688
19.7408
20.3719
20.8071
21.0339
21.1494
21.2232
21.3252
21.4867
21.7384
22.1161
22.5708
23.0298
23.3683
23.2242
22.4575
21.1825
19.742
18.2544
17.0221
16.0647
15.401
14.9898
14.7889
14.7636
14.9266
15.2453
15.7961
16.524
17.456
18.3346
19.2018
19.777
20.1762
20.3943
20.5057
20.5877
20.7086
20.8995
21.1826
21.6667
22.2202
22.7431
23.0932
22.1562
21.6024
20.5861
19.3768
18.0634
16.9028
15.964
15.2742
14.8275
14.6021
14.566
14.7125
15.0098
15.5233
16.2025
17.0574
17.86
18.6358
19.1565
19.5165
19.7108
19.808
19.8835
20.0017
20.1996
20.4977
20.9534
21.4401
21.8679
22.1172
20.9488
20.5733
19.7978
18.7952
17.6507
16.5799
15.6845
15.0044
14.5486
14.3196
14.2858
14.4245
14.7063
15.1884
15.8225
16.6061
17.3365
18.0306
18.4964
18.8118
18.9728
19.047
19.1042
19.2038
19.3843
19.6695
20.0755
20.4856
20.817
20.978
19.5841
19.3654
18.8191
18.0197
17.0474
16.0851
15.2548
14.6094
14.1709
13.9544
13.93
14.0648
14.3348
14.7881
15.3787
16.0939
16.7563
17.3759
17.7854
18.0508
18.1726
18.2183
18.2511
18.3231
18.471
18.7138
19.0434
19.3591
19.5831
19.6596
18.088
18.0049
17.6697
17.0738
16.2782
15.4416
14.6969
14.1098
13.7073
13.5127
13.5005
13.635
13.8965
14.3227
14.8702
15.5196
16.1179
16.6663
17.0173
17.2269
17.3046
17.3174
17.3217
17.3615
17.4689
17.6543
17.8946
18.1011
18.2051
18.1923
16.5209
16.5467
16.3974
15.9902
15.3732
14.6735
14.0288
13.5163
13.1651
13.0045
13.0116
13.1526
13.411
13.8158
14.3262
14.9178
15.4579
15.9352
16.2237
16.3673
16.3883
16.3565
16.3218
16.3202
16.3786
16.4992
16.6493
16.7489
16.7357
16.6423
14.8778
14.9942
15.0072
14.7794
14.3467
13.8058
13.29
12.8842
12.6179
12.5216
12.569
12.7371
13.0109
13.4113
13.9078
14.4691
14.9697
15.3801
15.6014
15.6603
15.5944
15.4776
15.3605
15.2796
15.2531
15.2777
15.3198
15.3034
15.1795
15.0049
13.6869
13.8747
13.9907
13.9161
13.683
13.3527
13.0317
12.7994
12.6751
12.6765
12.788
12.994
13.2865
13.6909
14.1824
14.7398
15.2354
15.6126
15.8002
15.7949
15.6368
15.4054
15.1595
14.9333
14.7521
14.6141
14.4944
14.3347
14.0866
13.8072
16.661
16.6626
16.6214
16.4999
16.3126
16.0799
15.8551
15.6647
15.5198
15.4313
15.3999
15.4388
15.5574
15.783
16.1119
16.5392
16.9535
17.3176
17.5993
17.7674
17.8201
17.7864
17.7035
17.5997
17.4907
17.3834
17.2799
17.1572
16.9851
16.7684
5.17129
6.0703
6.6627
6.92599
6.88377
6.67721
6.4749
6.55564
7.09229
8.19735
9.61152
11.4229
13.3972
15.5895
17.6085
19.3023
20.1616
20.2667
18.4324
16.4752
14.3452
12.3098
10.44
8.81675
7.47528
6.41722
5.63068
5.07005
4.74436
4.58128
2.98002
3.33455
3.63725
3.82598
3.90294
3.92017
3.93647
4.06016
4.37735
4.90821
5.55421
6.31425
7.12745
7.97602
8.75903
9.38776
9.69979
9.66389
8.96107
8.15853
7.30533
6.46927
5.68611
4.97804
4.36756
3.85983
3.46708
3.17579
3.00903
2.9184
2.66125
2.9202
3.14411
3.26708
3.31772
3.33749
3.37248
3.4932
3.7426
4.1134
4.55193
5.04928
5.57534
6.11526
6.6124
7.01134
7.21387
7.16013
6.71913
6.19042
5.62677
5.06986
4.54571
4.06625
3.64293
3.283
3.00089
2.78676
2.66253
2.60106
2.67972
2.95158
3.15003
3.2313
3.23075
3.21347
3.22853
3.33475
3.55035
3.85825
4.21278
4.60288
5.01742
5.446
5.84497
6.16349
6.32875
6.28292
5.951
5.53379
5.07979
4.62644
4.19512
3.79997
3.44876
3.1484
2.91171
2.73242
2.63451
2.60757
2.95373
3.26779
3.43459
3.45378
3.396
3.32889
3.31106
3.40196
3.59938
3.87271
4.19193
4.55157
4.92622
5.3196
5.69404
5.98786
6.14287
6.1199
5.8429
5.46965
5.04025
4.60921
4.20641
3.84367
3.5262
3.25846
3.04669
2.89491
2.81872
2.82205
3.42197
3.78487
3.91771
3.88089
3.76116
3.63907
3.58792
3.66546
3.85878
4.12738
4.43618
4.78337
5.15031
5.54609
5.93326
6.23181
6.39415
6.39966
6.15784
5.81194
5.39246
4.96023
4.54843
4.17638
3.85253
3.58536
3.38237
3.24794
3.19215
3.22258
4.08417
4.49493
4.59251
4.50307
4.31987
4.14159
4.05831
4.12345
4.31757
4.58896
4.90064
5.25238
5.62883
6.04464
6.46416
6.7853
6.96997
7.00748
6.80014
6.47249
6.04866
5.59774
5.15853
4.75892
4.41153
4.13023
3.92448
3.79928
3.76027
3.81396
4.94586
5.39841
5.46153
5.32273
5.07801
4.84515
4.73101
4.78195
4.97634
5.25073
5.5688
5.93075
6.32374
6.76706
7.22609
7.58078
7.79745
7.87154
7.70635
7.40036
6.97264
6.50022
6.02751
5.59155
5.21038
4.90476
4.68729
4.56377
4.53577
4.60723
6.01067
6.49472
6.52537
6.34136
6.03998
5.75698
5.61273
5.64477
5.83293
6.10398
6.424
6.79299
7.20077
7.66955
8.16734
8.56008
8.81435
8.92505
8.812
8.54582
8.12728
7.64312
7.14298
6.67184
6.25448
5.91916
5.6832
5.55405
5.52988
5.61313
7.27562
7.77615
7.77726
7.55318
7.20283
6.87563
6.70104
6.707
6.87679
7.13224
7.4432
7.80876
8.22219
8.70624
9.23483
9.66539
9.9586
10.1036
10.054
9.85147
9.46475
8.98999
8.48
7.98542
7.53813
7.1739
6.9157
6.77391
6.74573
6.83461
8.72563
9.22527
9.20131
8.94273
8.55262
8.18774
7.97988
7.95195
8.08552
8.30917
8.5944
8.94093
9.34378
9.82745
10.3732
10.838
11.1704
11.3569
11.3746
11.2499
10.9268
10.49
9.9977
9.50162
9.03978
8.65422
8.3741
8.21395
8.17289
8.25987
10.3326
10.8153
10.7684
10.4823
10.0621
9.66573
9.41975
9.34755
9.42469
9.59722
9.83647
10.1445
10.5165
10.9806
11.5273
12.0203
12.3908
12.6379
12.7175
12.6753
12.4465
12.0799
11.6396
11.1727
10.72
10.328
10.0314
9.84931
9.78639
9.8628
12.0572
12.506
12.4366
12.1292
11.6883
11.2672
10.9769
10.8465
10.8487
10.9486
11.1188
11.3673
11.6865
12.1133
12.6447
13.1581
13.5644
13.9037
14.05
14.0786
13.9527
13.6869
13.3351
12.9344
12.5225
12.1462
11.8436
11.6382
11.5462
11.6038
13.841
14.2374
14.147
13.8309
13.3799
12.9355
12.5943
12.3871
12.3012
12.3042
12.3815
12.5492
12.7981
13.1753
13.68
14.2047
14.6409
15.0649
15.3081
15.4101
15.3758
15.2344
15.0037
14.7075
14.3744
14.0434
13.7492
13.5154
13.3906
13.4246
15.6207
15.9621
15.8678
15.5553
15.0938
14.6161
14.2038
13.8995
13.7033
13.5896
13.5545
13.6235
13.7963
14.1245
14.5977
15.125
15.583
16.0284
16.3499
16.5778
16.6505
16.6494
16.5645
16.4055
16.1883
15.9391
15.6757
15.4146
15.2485
15.2521
17.3714
17.6615
17.5495
17.215
16.7384
16.2212
15.7253
15.2967
14.9566
14.7036
14.5519
14.5278
14.6385
14.9335
15.378
15.9017
16.3754
16.8383
17.2194
17.5257
17.7283
17.8685
17.9435
17.9468
17.8743
17.7412
17.5524
17.3069
17.0944
17.0548
19.0695
19.2536
19.0905
18.7343
18.2423
17.6745
17.0723
16.4952
15.9968
15.605
15.3478
15.2502
15.3164
15.5997
16.026
16.5427
17.0207
17.4875
17.9064
18.2736
18.5808
18.8521
19.0864
19.2584
19.3483
19.356
19.286
19.119
18.9043
18.8158
20.5949
20.6231
20.4218
20.0522
19.5405
18.9033
18.174
17.4406
16.7939
16.2872
15.9544
15.8125
15.8616
16.1549
16.5791
17.0868
17.551
18.0035
18.433
18.831
19.2067
19.5814
19.954
20.2896
20.5495
20.7058
20.7551
20.7158
20.5596
20.4447
21.7638
21.7225
21.4999
21.1251
20.5811
19.8556
18.9923
18.1193
17.3601
16.7846
16.4199
16.2691
16.3359
16.6599
17.1024
17.5977
18.03
18.4479
18.8577
19.248
19.6462
20.0759
20.5446
21.0161
21.4334
21.7417
21.9122
21.9436
21.829
21.707
22.617
22.5356
22.3073
21.927
21.3323
20.5144
19.54
18.5707
17.7486
17.1591
16.8076
16.6823
16.7987
17.1703
17.6453
18.1283
18.525
18.8961
19.2595
19.6057
19.9786
20.4037
20.9055
21.4595
21.9958
22.441
22.7341
22.8449
22.7829
22.6521
23.1607
23.064
22.8384
22.4547
21.8206
20.9148
19.8752
18.8718
18.0454
17.4888
17.1863
17.1122
17.2973
17.7185
18.216
18.6887
19.0571
19.3856
19.6956
19.9791
20.2919
20.6629
21.1223
21.6769
22.2686
22.8151
23.2175
23.4118
23.4034
23.2718
23.4071
23.3219
23.1465
22.7793
22.1187
21.1919
20.1406
19.1388
18.3451
17.8507
17.614
17.6021
17.8509
18.2864
18.7863
19.2436
19.5918
19.8885
20.1526
20.3802
20.6311
20.9378
21.3305
21.831
22.4059
22.966
23.4097
23.6515
23.6779
23.567
23.4627
23.4292
23.3267
23.0021
22.3568
21.4393
20.4095
19.4429
18.7201
18.2964
18.1247
18.16
18.4133
18.8148
19.2817
19.7098
20.045
20.321
20.5496
20.7395
20.9449
21.2013
21.5466
21.9854
22.4995
23.0203
23.4563
23.6959
23.7129
23.6255
23.39
23.4509
23.4508
23.1904
22.5837
21.7085
20.733
19.854
19.2162
18.8444
18.6836
18.6952
18.8916
19.2058
19.5862
19.9715
20.3057
20.5664
20.7631
20.928
21.1052
21.3367
21.6686
22.0997
22.5782
23.0316
23.3941
23.601
23.5857
23.5121
23.2041
23.374
23.4925
23.3378
22.8066
22.0203
21.1565
20.3761
19.7742
19.3638
19.1266
19.0652
19.1381
19.3097
19.5923
19.9234
20.2448
20.4982
20.6629
20.8109
20.9722
21.1889
21.5138
21.9465
22.4399
22.8956
23.2449
23.3974
23.3357
23.2579
22.7503
23.0589
23.3249
23.3492
22.9548
22.2772
21.4782
20.7016
20.0537
19.574
19.2108
19.0237
19.0191
19.097
19.2421
19.4719
19.7574
19.973
20.1097
20.2444
20.3953
20.6048
20.9274
21.3642
21.8758
22.3698
22.7494
22.8925
22.8052
22.728
21.7251
22.142
22.529
22.679
22.4052
21.7798
20.9997
20.2354
19.5799
19.0679
18.7013
18.4977
18.3941
18.3546
18.361
18.4465
18.6567
18.8245
18.9487
19.0702
19.2078
19.4034
19.7037
20.1146
20.6064
21.1073
21.5232
21.7226
21.6898
21.6531
19.2495
19.6714
20.0727
20.2589
20.0756
19.5571
18.8978
18.2528
17.6977
17.2735
16.9719
16.7779
16.6487
16.5578
16.4948
16.5423
16.742
16.9052
17.025
17.1192
17.2122
17.3423
17.5433
17.8304
18.1898
18.5784
18.9303
19.1372
19.1612
19.1704
15.1999
15.446
15.6897
15.7971
15.6806
15.3555
14.951
14.5667
14.2457
14.0089
13.8522
13.7601
13.7208
13.7298
13.7718
13.9359
14.1966
14.4091
14.5347
14.5885
14.5943
14.5873
14.5944
14.6436
14.7425
14.8804
15.029
15.1318
15.1498
15.173
11.2616
11.2702
11.279
11.2385
11.1309
10.9639
10.7838
10.6246
10.501
10.4213
10.3882
10.404
10.4779
10.6295
10.8417
11.1774
11.5351
11.8302
12.0083
12.0742
12.0477
11.956
11.8293
11.6974
11.5807
11.4882
11.4216
11.3702
11.3216
11.2936
9.36423
10.7735
11.5436
11.8366
11.6962
11.483
11.3321
11.671
12.6582
14.2981
16.2893
18.9113
21.7959
25.1077
28.0992
30.5711
31.7751
31.8066
29.0792
26.1717
22.9221
19.8635
17.0342
14.5807
12.6026
11.0202
9.80612
8.92876
8.35245
8.05608
4.54652
5.08624
5.47106
5.67038
5.7107
5.71622
5.72643
5.87018
6.21737
6.78713
7.50218
8.39871
9.40598
10.5024
11.5173
12.3175
12.706
12.61
11.7168
10.7074
9.61841
8.57801
7.62355
6.77621
6.0789
5.48838
5.01813
4.66076
4.43935
4.34441
3.85471
4.24598
4.52555
4.65858
4.6659
4.63206
4.6206
4.70778
4.93822
5.3072
5.77517
6.34179
6.96241
7.61893
8.22579
8.69604
8.91844
8.80253
8.27422
7.64261
6.972
6.32897
5.74512
5.22787
4.78721
4.4156
4.11913
3.88919
3.74681
3.70487
3.78605
4.16107
4.41189
4.48281
4.43813
4.35882
4.31842
4.37512
4.56099
4.84578
5.2079
5.62926
6.08337
6.55853
6.99526
7.33078
7.4854
7.38185
7.01154
6.5457
6.04915
5.56835
5.13349
4.75332
4.42362
4.14285
3.93048
3.7637
3.66129
3.65246
4.08543
4.46036
4.65241
4.66098
4.57088
4.45282
4.3845
4.41375
4.55526
4.80192
5.1043
5.44413
5.8044
6.18426
6.53478
6.80239
6.92548
6.84747
6.57051
6.20299
5.80413
5.41085
5.04586
4.71698
4.44744
4.24004
4.0753
3.95477
3.88836
3.90479
4.62146
4.99842
5.13611
5.09445
4.96036
4.80709
4.71357
4.72066
4.83943
5.04521
5.29371
5.57422
5.87431
6.19522
6.504
6.73738
6.84689
6.80205
6.57959
6.29103
5.95644
5.62048
5.3066
5.0246
4.79007
4.61037
4.47913
4.39269
4.35631
4.39261
5.36405
5.74115
5.8309
5.74932
5.57676
5.39221
5.27519
5.25748
5.34393
5.50721
5.7083
5.94258
6.19644
6.48211
6.76721
6.9852
7.09312
7.08016
6.91509
6.68269
6.40206
6.11373
5.83977
5.59234
5.38351
5.22452
5.11619
5.05374
5.03957
5.09087
6.29147
6.66533
6.71641
6.60373
6.39852
6.18493
6.04152
5.99612
6.04326
6.16008
6.31396
6.50552
6.72056
6.98117
7.25248
7.46724
7.5809
7.59666
7.48374
7.30537
7.07728
6.83778
6.60445
6.38914
6.20285
6.06097
5.96893
5.92259
5.92141
5.98226
7.37838
7.74518
7.76932
7.63546
7.40561
7.166
6.99317
6.91375
6.91438
6.97815
7.08146
7.22966
7.40881
7.65029
7.91621
8.13393
8.25454
8.29237
8.22706
8.10183
7.92957
7.74601
7.56187
7.38479
7.22486
7.09997
7.01947
6.98101
6.98312
7.04612
8.59252
8.94806
8.9565
8.81141
8.56629
8.30492
8.10002
7.97809
7.92702
7.93102
7.97988
8.08248
8.22817
8.45686
8.72373
8.94711
9.07278
9.12264
9.09487
9.01979
8.90672
8.78812
8.66548
8.53806
8.41352
8.30941
8.23751
8.19865
8.19519
8.25207
9.89943
10.2387
10.2393
10.0905
9.83799
9.55951
9.3204
9.14897
9.0391
8.98219
8.9751
9.03118
9.149
9.37153
9.64503
9.87474
10.0016
10.0534
10.0483
10.0114
9.95733
9.90977
9.86017
9.79566
9.71908
9.64232
9.579
9.53499
9.51942
9.56464
11.2642
11.5817
11.5775
11.4284
11.1722
10.8779
10.6031
10.3773
10.2053
10.0876
10.0296
10.0428
10.1436
10.3681
10.6547
10.8904
11.0136
11.0567
11.0567
11.0401
11.0345
11.0571
11.0863
11.0958
11.0802
11.0408
10.9917
10.9442
10.9148
10.9465
12.6498
12.9386
12.9285
12.7784
12.5173
12.2047
11.8912
11.6098
11.3775
11.2049
11.1048
11.0888
11.1872
11.4244
11.7317
11.9727
12.0879
12.1108
12.0978
12.0789
12.0988
12.1811
12.287
12.3754
12.4302
12.4413
12.4189
12.3771
12.339
12.3586
14.0141
14.2642
14.2441
14.0884
13.8173
13.4816
13.1274
12.7936
12.5097
12.2953
12.1686
12.144
12.2596
12.5224
12.8589
13.1039
13.2081
13.2004
13.1564
13.1092
13.1264
13.243
13.4114
13.5746
13.7047
13.7801
13.7993
13.779
13.7445
13.7571
15.3048
15.5039
15.4671
15.2989
15.0119
14.65
14.2583
13.882
13.5623
13.3261
13.1951
13.1889
13.3444
13.6473
14.0205
14.2682
14.3601
14.3121
14.2221
14.1225
14.1035
14.218
14.4222
14.643
14.843
14.9911
15.0687
15.0866
15.0736
15.0884
16.4581
16.5922
16.5306
16.3439
16.04
15.6575
15.2406
14.8382
14.5045
14.2733
14.1655
14.2107
14.4273
14.7834
15.2001
15.4488
15.5279
15.4356
15.2891
15.1164
15.0276
15.0963
15.2993
15.548
15.7988
16.0117
16.1579
16.2313
16.2566
16.2871
17.398
17.4557
17.3662
17.1649
16.8583
16.4717
16.0461
15.6395
15.3195
15.1235
15.0715
15.1976
15.4933
15.9107
16.3738
16.6236
16.691
16.5557
16.3487
16.0895
15.9042
15.8831
16.0395
16.2767
16.5471
16.8015
17.0057
17.1407
17.2175
17.2768
18.0491
18.0369
17.9326
17.7432
17.4566
17.0819
16.6665
16.2807
16.0031
15.8721
15.9109
16.1367
16.5221
17.001
17.5067
17.7593
17.8193
17.6483
17.3843
17.0348
16.7379
16.5893
16.6519
16.8346
17.0856
17.3498
17.5855
17.7635
17.8876
17.9813
18.3839
18.3378
18.2508
18.1015
17.8516
17.5017
17.1153
16.774
16.5621
16.5207
16.6777
17.0097
17.4859
18.0187
18.5552
18.8128
18.8714
18.6786
18.369
17.9358
17.5227
17.2319
17.1552
17.2466
17.4391
17.6741
17.9057
18.0992
18.2494
18.3665
18.4552
18.4138
18.3785
18.29
18.0878
17.7684
17.418
17.1358
17.0027
17.0735
17.3552
17.7911
18.3493
18.9208
19.4747
19.7375
19.8003
19.6041
19.2675
18.7689
18.2475
17.8169
17.5765
17.5464
17.6526
17.8277
18.0256
18.2033
18.3498
18.4798
18.3565
18.3598
18.3996
18.3771
18.2067
17.9085
17.597
17.3828
17.3344
17.5232
17.9199
18.446
19.0678
19.6551
20.214
20.4826
20.5584
20.3769
20.0313
19.4915
18.8834
18.3313
17.9423
17.77
17.7763
17.8807
18.0412
18.1682
18.2788
18.4079
18.1984
18.2589
18.3567
18.385
18.2457
17.965
17.677
17.5255
17.5618
17.8493
18.3369
18.9285
19.5841
20.1646
20.7172
20.9937
21.0943
20.9434
20.6058
20.0474
19.3806
18.7309
18.2163
17.9142
17.8137
17.8577
17.966
18.0648
18.1378
18.2488
17.991
18.099
18.242
18.2979
18.1762
17.915
17.6674
17.5598
17.6628
18.0123
18.5549
19.1779
19.837
20.3912
20.9262
21.2151
21.3578
21.2495
20.9341
20.3815
19.6833
18.9664
18.3542
17.9341
17.7557
17.7334
17.7992
17.8756
17.9277
18.0331
17.6849
17.8341
18.0122
18.0868
17.9794
17.7311
17.5086
17.4445
17.5833
17.9483
18.4994
19.1203
19.7618
20.2763
20.7869
21.0991
21.3015
21.2488
20.9682
20.4351
19.7088
18.9416
18.2805
17.8092
17.5616
17.4815
17.5058
17.5607
17.6049
17.7138
17.1918
17.37
17.5666
17.653
17.556
17.3253
17.1278
17.0874
17.2435
17.6085
18.1335
18.7135
19.2997
19.7668
20.2552
20.6102
20.8908
20.9068
20.6674
20.169
19.4618
18.692
18.002
17.4791
17.1672
17.0361
17.0244
17.0567
17.0965
17.2056
16.3716
16.5559
16.7504
16.8427
16.762
16.5621
16.3972
16.3751
16.5331
16.8743
17.3484
17.8696
18.3924
18.8233
19.3021
19.7277
20.0972
20.2051
20.0094
19.5454
18.8731
18.1182
17.4222
16.8663
16.497
16.3099
16.2539
16.2552
16.2785
16.3746
15.1019
15.2585
15.4239
15.5069
15.4498
15.2953
15.1769
15.1817
15.3439
15.6536
16.0728
16.5315
16.9964
17.4152
17.9173
18.451
18.9193
19.1335
18.9883
18.5645
17.9356
17.2028
16.5056
15.9198
15.4915
15.2265
15.0978
15.0472
15.0396
15.1065
13.2878
13.3811
13.4932
13.5557
13.5288
13.4412
13.3913
13.4404
13.6129
13.8967
14.2673
14.6742
15.1055
15.5515
16.127
16.8159
17.3939
17.7184
17.6285
17.2485
16.6583
15.9572
15.2585
14.6361
14.1358
13.7705
13.5304
13.3851
13.3114
13.3162
11.0881
11.0879
11.1286
11.1604
11.1601
11.1453
11.1665
11.2612
11.4451
11.7072
12.0389
12.414
12.846
13.3608
14.0572
14.9319
15.6219
16.0472
16.0143
15.6816
15.1288
14.4579
13.7614
13.107
12.5364
12.0678
11.704
11.4353
11.2558
11.1695
8.98327
8.89445
8.86479
8.85706
8.85925
8.87798
8.93287
9.03955
9.20456
9.42811
9.71497
10.0664
10.5144
11.112
11.9352
12.9786
13.7612
14.2604
14.2874
14.0038
13.4943
12.8596
12.1865
11.5307
10.9281
10.3983
9.95108
9.58728
9.3089
9.12204
13.0523
14.6585
15.5465
15.9234
15.8739
15.6293
15.4418
15.7264
16.499
17.9082
19.6381
22.0279
24.6742
27.985
31.0457
33.7087
35.0638
35.466
32.8299
30.0226
26.8732
23.9174
21.1592
18.7146
16.5766
14.7962
13.411
12.3888
11.6271
11.1368
5.97425
6.60323
7.04262
7.2792
7.32599
7.26093
7.19138
7.25667
7.49083
7.95316
8.56235
9.34915
10.2587
11.3258
12.3599
13.2161
13.6602
13.6263
12.7535
11.8
10.7831
9.82133
8.94022
8.14621
7.44295
6.83787
6.34734
5.96784
5.71066
5.6057
4.92197
5.35199
5.66701
5.8225
5.82777
5.7332
5.63575
5.63749
5.75742
6.01538
6.37042
6.81779
7.35173
7.96765
8.57703
9.0789
9.33062
9.21946
8.69254
8.10665
7.51328
6.96355
6.47331
6.03994
5.66189
5.34023
5.07827
4.87268
4.73299
4.70468
4.72438
5.08695
5.32596
5.41261
5.36438
5.23074
5.10169
5.06124
5.1227
5.28028
5.50954
5.80047
6.16078
6.58303
7.01063
7.36715
7.53112
7.4026
7.02495
6.60816
6.20546
5.84313
5.52952
5.26276
5.03921
4.85777
4.71718
4.60372
4.5277
4.53033
4.84564
5.18821
5.38058
5.40267
5.30109
5.13046
4.97033
4.88869
4.90521
4.99367
5.13967
5.33497
5.59141
5.90912
6.24683
6.53351
6.65119
6.51991
6.22175
5.90508
5.61609
5.36845
5.16169
4.99699
4.87114
4.78017
4.71247
4.67351
4.64665
4.67238
5.22963
5.55727
5.68815
5.65015
5.49697
5.28498
5.09286
4.9761
4.94923
4.98162
5.06419
5.19272
5.38017
5.63805
5.93538
6.19132
6.28517
6.1501
5.89238
5.63753
5.42499
5.25942
5.12713
5.0349
4.98165
4.9597
4.95891
4.97109
4.98684
5.03491
5.80566
6.11898
6.19403
6.10675
5.90403
5.65037
5.42289
5.27262
5.2063
5.18904
5.21504
5.29169
5.43325
5.66153
5.95145
6.20179
6.28325
6.13633
5.88506
5.66255
5.51116
5.40874
5.34487
5.31663
5.32047
5.35232
5.40403
5.46113
5.51373
5.58475
6.54446
6.84299
6.87211
6.74409
6.49734
6.20508
5.94172
5.76056
5.65535
5.59045
5.56759
5.60079
5.71221
5.93268
6.24191
6.50237
6.57664
6.40421
6.14085
5.93629
5.82485
5.77905
5.77637
5.80541
5.85792
5.93362
6.02898
6.12408
6.20774
6.29951
7.4152
7.69758
7.69362
7.53347
7.25203
6.92678
6.63286
6.42498
6.2824
6.17172
6.10514
6.10248
6.19811
6.43186
6.78138
7.06599
7.13205
6.91724
6.61926
6.4149
6.33478
6.33925
6.39198
6.47461
6.57091
6.68129
6.81089
6.93621
7.04398
7.15238
8.3808
8.64586
8.62066
8.43788
8.13398
7.78543
7.47199
7.24517
7.07016
6.9178
6.81365
6.78527
6.88056
7.14837
7.55837
7.87543
7.92771
7.6519
7.29778
7.07445
7.01406
7.05894
7.16262
7.29435
7.42838
7.56402
7.71644
7.86338
7.98785
8.10781
9.39868
9.64609
9.6077
9.41318
9.10067
8.74412
8.42662
8.19293
7.99487
7.80977
7.67814
7.63768
7.75082
8.07335
8.56172
8.9129
8.94226
8.5867
8.15647
7.89288
7.83543
7.90792
8.0537
8.22631
8.38941
8.53931
8.70267
8.8613
8.99592
9.12302
10.4224
10.6517
10.6066
10.4115
10.1054
9.76074
9.45912
9.23403
9.0274
8.82392
8.68026
8.64436
8.79758
9.19361
9.77326
10.1529
10.1472
9.69704
9.17397
8.84789
8.77169
8.85403
9.02634
9.22558
9.40489
9.55652
9.7185
9.87887
10.0192
10.1506
11.4036
11.614
11.5689
11.3858
11.1028
10.7925
10.5294
10.3307
10.1344
9.93247
9.79726
9.78494
10.0033
10.4875
11.163
11.5579
11.5043
10.9516
10.3259
9.91629
9.79632
9.86519
10.041
10.2452
10.423
10.5625
10.7102
10.8637
11.0063
11.141
12.294
12.4854
12.4477
12.2915
12.0519
11.7991
11.5981
11.4444
11.2806
11.1047
11.0025
11.0363
11.3425
11.9209
12.6869
13.0764
12.9652
12.3128
11.5823
11.0735
10.8841
10.9117
11.0617
11.2421
11.3958
11.5083
11.6272
11.7658
11.9074
12.0452
13.0498
13.2227
13.2044
13.0912
12.9182
12.7453
12.6276
12.5384
12.4308
12.3079
12.2624
12.3689
12.779
13.4478
14.2873
14.6468
14.4725
13.7331
12.9074
12.292
12.0117
11.967
12.0592
12.1828
12.2853
12.353
12.4285
12.543
12.678
12.8191
13.6369
13.7931
13.8124
13.7608
13.6773
13.6033
13.5854
13.5791
13.5512
13.5092
13.5413
13.7445
14.2659
15.0118
15.8974
16.2012
15.9638
15.1587
14.2588
13.5393
13.1561
13.0078
13.0115
13.0457
13.0712
13.074
13.0884
13.1667
13.2882
13.4284
14.0401
14.1874
14.2594
14.2946
14.3149
14.3534
14.446
14.5384
14.6104
14.6669
14.8034
15.116
15.7469
16.549
17.4486
17.6743
17.3783
16.5343
15.5892
14.7777
14.2886
14.0175
13.9038
13.8197
13.7468
13.6665
13.6034
13.6277
13.7261
13.8571
14.2724
14.4223
14.5618
14.6976
14.8298
14.9864
15.1877
15.3887
15.5793
15.7462
16.0038
16.4297
17.1583
17.991
18.8754
19.0092
18.6647
17.8104
16.8501
15.9659
15.3762
14.9761
14.7264
14.5068
14.3165
14.1404
13.9955
13.9431
14.0031
14.1168
14.3749
14.5442
14.7544
14.9864
15.2273
15.4951
15.7958
16.1086
16.4215
16.7085
17.0922
17.6256
18.4325
19.2692
20.1184
20.1588
19.7838
18.9469
17.9963
17.0615
16.3822
15.8567
15.4649
15.1055
14.7905
14.5158
14.2946
14.16
14.1618
14.2446
14.4
14.5839
14.8647
15.1812
15.5156
15.8749
16.2579
16.6733
17.1018
17.5102
18.0141
18.6416
19.5013
20.3174
21.1256
21.0861
20.7063
19.9123
18.9883
18.0226
17.2659
16.6257
16.0981
15.6068
15.1717
14.8042
14.5147
14.316
14.256
14.3076
14.3813
14.5741
14.9004
15.2909
15.6989
16.1145
16.5593
17.0556
17.5841
18.1062
18.714
19.4165
20.2995
21.0778
21.8552
21.7663
21.4137
20.6794
19.7926
18.8114
17.9882
17.2482
16.601
15.996
15.457
15.0126
14.6683
14.424
14.3112
14.3333
14.3402
14.5398
14.8852
15.294
15.7246
16.1702
16.6699
17.2322
17.8355
18.4528
19.1384
19.8885
20.769
21.5101
22.2786
22.1885
21.8955
21.2311
20.382
19.3927
18.5148
17.69
16.9438
16.2536
15.6369
15.1219
14.7318
14.4606
14.3246
14.3253
14.251
14.4568
14.8044
15.2098
15.6287
16.0669
16.5715
17.151
17.7928
18.4829
19.2352
20.0091
20.8729
21.5879
22.3802
22.3519
22.1492
21.5627
20.7467
19.7449
18.8209
17.9245
17.091
16.3177
15.632
15.0908
14.6906
14.4162
14.2726
14.2564
14.0517
14.2562
14.585
14.9568
15.3382
15.7569
16.2531
16.8356
17.4991
18.2121
18.9752
19.7494
20.5886
21.2991
22.1572
22.2635
22.1775
21.6759
20.8863
19.864
18.8571
17.8817
17.0014
16.2031
15.4999
14.9419
14.5305
14.2487
14.0915
14.0674
13.6691
13.8519
14.1383
14.4551
14.7957
15.1847
15.6574
16.2242
16.8782
17.585
18.3376
19.0982
19.9113
20.6474
21.6192
21.9369
21.9898
21.581
20.7974
19.7516
18.6899
17.6716
16.7463
15.9146
15.1895
14.6067
14.1799
13.8876
13.7231
13.6881
13.0451
13.1872
13.4104
13.6728
13.9735
14.3284
14.7664
15.2996
15.9201
16.5964
17.3213
18.0637
18.8584
19.6561
20.7891
21.3901
21.6054
21.3019
20.5351
19.4583
18.3248
17.2464
16.2777
15.414
14.6683
14.0617
13.6063
13.2947
13.1161
13.0635
12.1449
12.2311
12.3923
12.6098
12.8712
13.1888
13.5869
14.0744
14.6447
15.2733
15.9581
16.6776
17.4718
18.3699
19.7053
20.6544
21.05
20.8574
20.1019
18.9765
17.7746
16.6344
15.6214
14.7259
13.9558
13.3166
12.8211
12.4726
12.2623
12.1766
11.0132
11.0374
11.145
11.3158
11.5381
11.8184
12.1728
12.6064
13.115
13.685
14.322
15.0182
15.8276
16.8628
18.4245
19.7669
20.3569
20.2735
19.5306
18.3499
17.0833
15.8825
14.8222
13.8916
13.0897
12.4155
11.872
11.472
11.2134
11.0821
9.75796
9.72034
9.78513
9.91413
10.0975
10.3373
10.6409
11.012
11.4492
11.9529
12.5362
13.2086
14.0464
15.2379
17.0211
18.7737
19.5581
19.5875
18.8619
17.6368
16.3073
15.0477
13.9398
12.9744
12.1424
11.4334
10.845
10.3857
10.0645
9.87452
8.54742
8.46213
8.48471
8.56897
8.70774
8.89876
9.14472
9.4488
9.81443
10.2445
10.7631
11.4073
12.282
13.62
15.5959
17.7297
18.6895
18.8408
18.1404
16.8868
15.5041
14.1927
13.0421
12.0476
11.1941
10.4645
9.84969
9.3442
8.96222
8.70589
15.013
16.5097
17.2299
17.5486
17.4947
17.2186
16.824
16.6837
16.8826
17.6575
18.8116
20.809
23.1309
26.5142
29.7504
33.0949
34.9904
36.3173
33.9168
31.1927
28.0593
25.1985
22.6167
20.3642
18.3818
16.6951
15.3462
14.2619
13.4205
12.7405
6.75856
7.33074
7.7067
7.91243
7.93648
7.83098
7.66068
7.54735
7.55882
7.75802
8.12753
8.72684
9.51603
10.5855
11.7255
12.8578
13.5832
13.7535
12.8066
11.8287
10.8516
9.99218
9.24937
8.59527
8.01069
7.49197
7.05565
6.69358
6.43937
6.32451
5.41043
5.76817
6.02382
6.14869
6.11509
5.97082
5.78698
5.64869
5.5988
5.66442
5.84026
6.14655
6.60203
7.24144
7.99318
8.78656
9.29332
9.22714
8.52743
7.84988
7.26591
6.79547
6.42223
6.11376
5.85223
5.62878
5.44092
5.28674
5.17732
5.16747
5.00284
5.28207
5.46724
5.52641
5.42711
5.23574
5.026
4.86383
4.77603
4.77815
4.86319
5.04328
5.35179
5.82403
6.43631
7.12932
7.54477
7.36846
6.72635
6.15257
5.72436
5.41969
5.20978
5.06317
4.96141