/*--------------------------------*- C++ -*----------------------------------*\
  =========                 |
  \\      /  F ield         | OpenFOAM: The Open Source CFD Toolbox
   \\    /   O peration     | Website:  https://openfoam.org
    \\  /    A nd           | Version:  12
     \\/     M anipulation  |
\*---------------------------------------------------------------------------*/
FoamFile
{
    format      ascii;
    class       volScalarField;
    location    "150/air";
    object      k;
}
// * * * * * * * * * * * * * * * * * * * * * * * * * * * * * * * * * * * * * //

dimensions      [0 2 -2 0 0 0 0];

internalField   nonuniform List<scalar> 
243000
(
0.0490567
0.0536355
0.0564682
0.0575522
0.056853
0.0548251
0.0521142
0.0498075
0.0486181
0.0510383
0.0587227
0.0684051
0.0780238
0.0874448
0.0955537
0.102268
0.105527
0.106517
0.0998852
0.0931302
0.0858786
0.0785015
0.071211
0.0643017
0.0581413
0.0530571
0.0493392
0.0466844
0.0456725
0.0454221
0.0914348
0.0958967
0.0986528
0.0985052
0.0959973
0.0919443
0.0876569
0.0850847
0.085455
0.0924317
0.104323
0.118455
0.132416
0.146988
0.159768
0.170693
0.176893
0.17943
0.169281
0.158114
0.14556
0.133171
0.12109
0.110066
0.100384
0.0925253
0.0866952
0.0825326
0.0807971
0.0810902
0.115783
0.122134
0.125614
0.125415
0.122378
0.117607
0.112809
0.11049
0.112546
0.122861
0.137233
0.153906
0.170422
0.187692
0.202961
0.215712
0.222893
0.225596
0.213857
0.200294
0.184959
0.169691
0.1548
0.141203
0.129235
0.119426
0.112021
0.106782
0.104282
0.104461
0.134046
0.141644
0.145334
0.144959
0.1415
0.136278
0.13127
0.129352
0.133167
0.145492
0.161204
0.179002
0.196679
0.215081
0.231507
0.244979
0.252382
0.254934
0.242849
0.228268
0.211686
0.194955
0.178597
0.163602
0.150362
0.13945
0.131167
0.125418
0.122592
0.122753
0.150517
0.158938
0.162525
0.16187
0.158006
0.152448
0.147393
0.146033
0.151659
0.165339
0.181898
0.200292
0.218603
0.23763
0.254782
0.268707
0.276177
0.278588
0.266627
0.251576
0.234233
0.216496
0.199077
0.183048
0.168856
0.157124
0.148214
0.142129
0.139128
0.139253
0.167175
0.176105
0.179257
0.17809
0.17371
0.167806
0.162767
0.162095
0.169411
0.184017
0.201098
0.219817
0.238496
0.257941
0.275649
0.290016
0.297606
0.30005
0.288491
0.273289
0.255432
0.236898
0.218595
0.201689
0.186701
0.174312
0.164916
0.15861
0.155531
0.15562
0.185389
0.194597
0.197007
0.195019
0.189904
0.183543
0.178503
0.178642
0.18736
0.202619
0.219997
0.238888
0.257789
0.277586
0.295835
0.31075
0.318626
0.321354
0.310428
0.295318
0.277105
0.257904
0.238795
0.221068
0.205333
0.192351
0.182563
0.176119
0.17304
0.17311
0.206219
0.215527
0.216884
0.213716
0.20757
0.200576
0.195459
0.196448
0.206247
0.221927
0.239427
0.258375
0.277412
0.297539
0.316381
0.332005
0.340386
0.343679
0.333651
0.318882
0.300473
0.280728
0.260865
0.242345
0.22587
0.212326
0.202212
0.195701
0.192688
0.192742
0.230494
0.239741
0.239757
0.235015
0.227455
0.219613
0.214315
0.216081
0.226632
0.242497
0.259946
0.278841
0.297915
0.318353
0.337844
0.354344
0.36347
0.367601
0.358788
0.344666
0.326292
0.306177
0.28567
0.266415
0.249225
0.235142
0.224758
0.218259
0.215385
0.215438
0.258867
0.267797
0.266233
0.259496
0.250121
0.241173
0.235565
0.237923
0.248878
0.264664
0.281862
0.300554
0.319539
0.340227
0.360381
0.377902
0.387995
0.393234
0.385961
0.372862
0.354854
0.334658
0.313718
0.293877
0.276064
0.261515
0.250938
0.244553
0.241923
0.242055
0.291724
0.299965
0.296534
0.287426
0.275875
0.265545
0.259471
0.262133
0.273107
0.288518
0.305214
0.323505
0.342209
0.363032
0.383789
0.402431
0.413682
0.42027
0.41485
0.403191
0.385988
0.366112
0.345094
0.324946
0.306721
0.291858
0.28122
0.275085
0.272829
0.273184
0.328928
0.336033
0.330476
0.318699
0.304681
0.292711
0.28599
0.288592
0.299158
0.313854
0.329751
0.347377
0.365558
0.386323
0.407544
0.42735
0.439895
0.44807
0.444739
0.434944
0.419049
0.400005
0.3794
0.359367
0.34107
0.326162
0.315671
0.309952
0.30821
0.308936
0.369797
0.375286
0.367397
0.352762
0.33609
0.322287
0.314712
0.316847
0.326543
0.34015
0.35491
0.371565
0.388919
0.40939
0.43086
0.451799
0.465725
0.475727
0.474675
0.467069
0.452969
0.435328
0.415737
0.39637
0.378481
0.363902
0.353841
0.348735
0.347651
0.348856
0.413091
0.416497
0.406166
0.388632
0.369248
0.353494
0.34485
0.346061
0.354441
0.366564
0.379817
0.395166
0.411385
0.431291
0.452748
0.474716
0.49006
0.502036
0.503422
0.49826
0.486343
0.470659
0.452717
0.434674
0.41779
0.404012
0.39472
0.390425
0.390147
0.391906
0.457103
0.458077
0.445342
0.425013
0.402978
0.385201
0.375247
0.37506
0.381695
0.391918
0.403293
0.417
0.431833
0.450935
0.472108
0.494942
0.511683
0.525549
0.529382
0.526971
0.51755
0.504291
0.488581
0.472525
0.457333
0.44492
0.436781
0.43349
0.434093
0.436462
0.499887
0.498373
0.483269
0.460246
0.435708
0.415928
0.404421
0.402381
0.40678
0.41468
0.423869
0.435697
0.449032
0.467137
0.487819
0.511319
0.529376
0.54502
0.551187
0.551569
0.544901
0.534418
0.521412
0.507907
0.49504
0.48463
0.478104
0.476099
0.477604
0.480601
0.53952
0.535453
0.517958
0.492463
0.465672
0.443961
0.430635
0.42631
0.428014
0.433271
0.440085
0.449939
0.46177
0.478772
0.498822
0.522776
0.541965
0.559301
0.567583
0.57058
0.566779
0.55924
0.549298
0.538778
0.528724
0.520867
0.516488
0.516156
0.518687
0.52228
0.57382
0.567114
0.547368
0.519742
0.491018
0.467466
0.452054
0.445071
0.443816
0.446262
0.450676
0.458625
0.468989
0.484899
0.504206
0.528375
0.548429
0.567295
0.577468
0.582771
0.581734
0.577134
0.570398
0.563129
0.556259
0.551355
0.549576
0.551226
0.555061
0.559264
0.600331
0.591187
0.569515
0.540161
0.509877
0.484645
0.466951
0.457155
0.453036
0.452797
0.455047
0.461319
0.470321
0.48506
0.50355
0.527533
0.548219
0.568183
0.579952
0.587247
0.588592
0.586729
0.583113
0.579171
0.575679
0.573998
0.575024
0.578732
0.583999
0.588876
0.616993
0.60573
0.582394
0.551833
0.520372
0.493914
0.474387
0.463192
0.457491
0.455679
0.45669
0.461642
0.469634
0.482917
0.499839
0.521585
0.541221
0.561753
0.574588
0.583308
0.586585
0.587032
0.586234
0.585502
0.585449
0.586951
0.590819
0.596652
0.603326
0.608795
0.622317
0.609698
0.585674
0.55461
0.52344
0.498299
0.478995
0.466543
0.459505
0.456437
0.456518
0.460537
0.467705
0.479802
0.495442
0.515334
0.533637
0.552039
0.563862
0.571925
0.575956
0.57808
0.579424
0.581238
0.584087
0.58854
0.59522
0.60322
0.611239
0.617132
0.614694
0.601162
0.578394
0.551833
0.523721
0.499721
0.480627
0.46729
0.458995
0.454919
0.45443
0.457817
0.464369
0.475547
0.490128
0.508445
0.525419
0.541996
0.552887
0.560343
0.564338
0.566422
0.567953
0.570166
0.573609
0.578656
0.5872
0.597016
0.606198
0.612309
0.59605
0.586104
0.567674
0.545198
0.520206
0.497567
0.478833
0.4649
0.455819
0.451196
0.450449
0.453478
0.459598
0.47006
0.483739
0.500665
0.516341
0.531323
0.541293
0.548098
0.551756
0.553614
0.555057
0.557276
0.560921
0.566301
0.57451
0.58326
0.590873
0.595274
0.574517
0.567633
0.553294
0.534428
0.512427
0.491406
0.473431
0.459579
0.450217
0.445449
0.444716
0.447578
0.453394
0.463267
0.476128
0.491784
0.506217
0.519776
0.528806
0.534864
0.537978
0.539441
0.540571
0.542482
0.545873
0.55112
0.558592
0.566097
0.5721
0.574977
0.549573
0.54546
0.535119
0.519815
0.500857
0.481758
0.46493
0.451633
0.442496
0.437916
0.43735
0.440134
0.445727
0.455071
0.467158
0.481606
0.494862
0.507119
0.515175
0.520376
0.522811
0.523766
0.524455
0.525876
0.528704
0.533264
0.539474
0.545386
0.549538
0.550916
0.521417
0.51981
0.513283
0.501627
0.485821
0.468964
0.453672
0.441401
0.432885
0.428691
0.428356
0.431132
0.436581
0.445445
0.456766
0.470053
0.482187
0.493193
0.50022
0.504436
0.506074
0.506421
0.506578
0.507405
0.509505
0.513064
0.517691
0.521651
0.523623
0.523357
0.490971
0.491477
0.488459
0.480289
0.467758
0.453391
0.439932
0.429039
0.421469
0.417914
0.417966
0.420889
0.426312
0.434811
0.445474
0.457728
0.468827
0.478554
0.484449
0.487454
0.488025
0.487519
0.486929
0.486963
0.488152
0.490528
0.493493
0.495448
0.495175
0.493321
0.457928
0.460305
0.460526
0.455799
0.446773
0.435405
0.424404
0.415598
0.409711
0.407467
0.40837
0.411875
0.41765
0.426097
0.436511
0.448193
0.458549
0.467001
0.471615
0.472983
0.47186
0.469693
0.467482
0.465951
0.465479
0.466011
0.466889
0.466562
0.464045
0.460489
0.432931
0.436891
0.439306
0.437707
0.432735
0.425659
0.4187
0.413559
0.410718
0.410564
0.412817
0.417086
0.423179
0.431589
0.441728
0.453113
0.463153
0.470784
0.47463
0.47475
0.471864
0.467482
0.462725
0.458301
0.454729
0.452001
0.449617
0.446365
0.44123
0.435425
0.492249
0.492424
0.491767
0.489487
0.485842
0.481206
0.476662
0.47275
0.469728
0.467833
0.467092
0.467749
0.46999
0.474334
0.480678
0.488987
0.497077
0.504138
0.509559
0.512741
0.513767
0.51324
0.51181
0.509974
0.508019
0.506078
0.504184
0.501864
0.498527
0.494294
0.0975728
0.105792
0.10979
0.110023
0.107147
0.102762
0.0986236
0.0974789
0.10084
0.109324
0.119988
0.133241
0.147062
0.161907
0.175216
0.186381
0.192504
0.194372
0.183977
0.172547
0.159366
0.146084
0.133133
0.121205
0.110815
0.102301
0.095932
0.0916038
0.0898079
0.0899627
0.193305
0.208037
0.214198
0.21218
0.204945
0.195786
0.188764
0.188112
0.195769
0.210544
0.228282
0.249392
0.271459
0.296114
0.319115
0.337961
0.34905
0.352156
0.335003
0.314841
0.29126
0.267831
0.245641
0.225834
0.208649
0.194754
0.184544
0.177855
0.175622
0.177058
0.249253
0.267913
0.275147
0.272673
0.2645
0.254696
0.247914
0.249046
0.259654
0.277148
0.297579
0.321344
0.34612
0.373458
0.399247
0.419525
0.43122
0.433757
0.415537
0.39273
0.366057
0.339194
0.313635
0.290661
0.270697
0.254369
0.242277
0.234418
0.231775
0.233744
0.296433
0.318067
0.325139
0.321683
0.312328
0.301888
0.295442
0.298132
0.310638
0.329648
0.351494
0.376362
0.402212
0.430493
0.457491
0.478125
0.489753
0.491896
0.474156
0.450631
0.422673
0.39405
0.366604
0.341801
0.320148
0.302387
0.289193
0.280781
0.278036
0.280624
0.344374
0.368515
0.374639
0.369703
0.358679
0.347204
0.34082
0.344692
0.358558
0.378601
0.401379
0.42692
0.453439
0.48237
0.510357
0.531394
0.543109
0.545319
0.528661
0.505151
0.476392
0.446397
0.417347
0.390954
0.367838
0.348912
0.334949
0.326314
0.323798
0.327187
0.397742
0.423789
0.428342
0.421525
0.408496
0.39568
0.389112
0.393773
0.408595
0.42938
0.452801
0.47888
0.505979
0.535588
0.564648
0.586344
0.598509
0.601349
0.58622
0.5632
0.533914
0.502687
0.472068
0.444045
0.419453
0.399431
0.384849
0.37621
0.374134
0.378354
0.458734
0.485929
0.488602
0.479772
0.464636
0.450337
0.443406
0.448425
0.463797
0.48497
0.50874
0.535145
0.562674
0.592942
0.623109
0.645684
0.658689
0.662685
0.649666
0.627729
0.598385
0.566252
0.534203
0.504558
0.478444
0.457297
0.442146
0.433567
0.431947
0.436866
0.528232
0.555731
0.556511
0.545741
0.528612
0.512868
0.505436
0.510315
0.525712
0.546733
0.570405
0.596741
0.624399
0.655057
0.686175
0.709713
0.723858
0.729442
0.719246
0.699191
0.670541
0.638142
0.605105
0.574117
0.546605
0.524378
0.508671
0.500099
0.498794
0.504131
0.606192
0.633079
0.632197
0.619642
0.600797
0.583808
0.575758
0.579931
0.594637
0.614784
0.637707
0.663376
0.690622
0.721141
0.752789
0.777224
0.792692
0.799965
0.793224
0.776276
0.749402
0.717733
0.68457
0.65287
0.624381
0.601271
0.585038
0.576356
0.575128
0.580597
0.6918
0.717178
0.7148
0.700747
0.680593
0.662612
0.653828
0.656659
0.669814
0.688207
0.709559
0.733769
0.759863
0.789464
0.820999
0.846155
0.862961
0.871879
0.869128
0.856542
0.832739
0.803117
0.771055
0.739648
0.710928
0.68737
0.670733
0.661806
0.66039
0.665723
0.783438
0.806515
0.802777
0.787579
0.766553
0.747831
0.738107
0.738952
0.749585
0.765297
0.784118
0.805981
0.829983
0.857778
0.888412
0.91405
0.932191
0.943135
0.944435
0.936836
0.91761
0.891464
0.861987
0.832184
0.804286
0.780954
0.764184
0.754929
0.753033
0.757924
0.878812
0.898952
0.893983
0.877984
0.856482
0.837208
0.826197
0.824529
0.831615
0.843713
0.859019
0.877595
0.898527
0.923594
0.952537
0.978385
0.997832
1.01167
1.01661
1.0141
1.00069
0.979417
0.954085
0.927394
0.901578
0.87937
0.862924
0.853353
0.85072
0.854849
0.975162
0.991803
0.985665
0.969128
0.947478
0.927833
0.915118
0.910435
0.913081
0.920679
0.931488
0.945897
0.962828
0.984431
1.01102
1.03678
1.05748
1.07553
1.08418
1.08602
1.07862
1.06336
1.04361
1.02158
0.999278
0.979277
0.963764
0.953984
0.950478
0.953584
1.06902
1.08162
1.07444
1.05786
1.03641
1.01631
1.00152
0.993138
0.990817
0.993017
0.998438
1.00791
1.02021
1.03795
1.06178
1.08717
1.10897
1.13087
1.14434
1.15036
1.14824
1.13969
1.12661
1.11067
1.09335
1.07681
1.06291
1.05285
1.04851
1.05052
1.15686
1.16565
1.15816
1.14198
1.1206
1.0995
1.08173
1.06884
1.06099
1.05706
1.05647
1.06047
1.06811
1.08219
1.10319
1.12792
1.15066
1.17381
1.19121
1.20326
1.20668
1.20515
1.19939
1.19055
1.17947
1.16773
1.15637
1.14621
1.14089
1.14169
1.23683
1.24228
1.23394
1.2171
1.19552
1.17309
1.15186
1.13346
1.11893
1.10825
1.10181
1.10076
1.10458
1.11583
1.13424
1.15816
1.18168
1.20599
1.22641
1.24239
1.25182
1.25694
1.25871
1.25755
1.2535
1.24767
1.24048
1.23202
1.22564
1.22503
1.30695
1.30751
1.29707
1.2796
1.25779
1.23359
1.20806
1.18334
1.16186
1.14476
1.13315
1.12818
1.12913
1.13857
1.15498
1.17806
1.20179
1.22694
1.24931
1.26827
1.28244
1.29342
1.30219
1.30851
1.31181
1.31252
1.31097
1.30646
1.30092
1.29885
1.36151
1.35663
1.34443
1.32673
1.30459
1.27796
1.24748
1.21623
1.18855
1.16629
1.15095
1.14351
1.14307
1.15161
1.16685
1.18904
1.21222
1.23719
1.26053
1.28101
1.29819
1.31367
1.32827
1.34145
1.35187
1.35918
1.36292
1.36376
1.36128
1.35877
1.39419
1.38705
1.3741
1.35669
1.33404
1.30443
1.26893
1.2317
1.1994
1.17361
1.15611
1.14788
1.14781
1.15642
1.17204
1.19383
1.2158
1.2394
1.26246
1.28282
1.30082
1.31832
1.33686
1.35546
1.37203
1.38586
1.39469
1.39847
1.39789
1.3957
1.40683
1.39826
1.38564
1.36888
1.34563
1.314
1.27503
1.23335
1.19517
1.16624
1.14822
1.14088
1.14233
1.15205
1.16929
1.19227
1.21453
1.23732
1.25843
1.27668
1.29321
1.31018
1.32962
1.3523
1.37447
1.39252
1.40595
1.41272
1.41361
1.41158
1.3998
1.3907
1.37985
1.3645
1.33943
1.30224
1.25814
1.21326
1.17438
1.14641
1.13008
1.125
1.12852
1.13987
1.15891
1.18276
1.20523
1.2284
1.24864
1.26503
1.279
1.2934
1.31105
1.33307
1.35729
1.37928
1.39637
1.40627
1.40856
1.40668
1.37395
1.36546
1.35595
1.33865
1.31085
1.27131
1.22547
1.18058
1.14359
1.1184
1.10523
1.10322
1.10898
1.1223
1.143
1.16767
1.19031
1.21305
1.23157
1.24489
1.25557
1.26663
1.28081
1.30027
1.32412
1.34815
1.36753
1.37965
1.38367
1.3822
1.3286
1.31968
1.31077
1.29444
1.2664
1.22702
1.18233
1.14027
1.10735
1.08649
1.07743
1.07836
1.08639
1.10114
1.12292
1.1483
1.17128
1.19346
1.20973
1.21989
1.22677
1.23336
1.2421
1.25556
1.27507
1.29679
1.31679
1.33085
1.33742
1.33769
1.25981
1.25477
1.24971
1.2366
1.21091
1.17457
1.13429
1.09797
1.07103
1.0552
1.0503
1.05354
1.06261
1.07764
1.09925
1.12524
1.14903
1.17073
1.18465
1.19192
1.19519
1.1973
1.20056
1.20707
1.2185
1.2344
1.25032
1.2619
1.26743
1.26829
1.17664
1.17722
1.17766
1.17012
1.15005
1.12046
1.08812
1.05961
1.03959
1.02902
1.02636
1.02992
1.03812
1.05172
1.07289
1.09923
1.12351
1.14513
1.15707
1.16208
1.16247
1.16106
1.16001
1.16081
1.16453
1.17015
1.17729
1.18258
1.18372
1.18322
1.08883
1.09512
1.10188
1.10241
1.09118
1.07105
1.04858
1.02921
1.01522
1.00732
1.00373
1.00538
1.01335
1.02642
1.04546
1.07048
1.09444
1.11526
1.12601
1.1297
1.12856
1.1251
1.12139
1.11863
1.11703
1.11538
1.11262
1.10702
1.09897
1.09364
1.01945
1.02867
1.03948
1.04517
1.04228
1.03017
1.01464
1.00021
0.988945
0.981653
0.978696
0.980626
0.986868
0.997831
1.01361
1.03541
1.05779
1.07742
1.08808
1.09157
1.09011
1.08599
1.08105
1.07636
1.07191
1.06672
1.05947
1.0486
1.03509
1.02437
0.949824
0.960389
0.972594
0.980002
0.980444
0.97218
0.960424
0.949032
0.93983
0.934146
0.93223
0.934136
0.939751
0.949723
0.963697
0.984819
1.00754
1.02716
1.03848
1.04207
1.04022
1.03498
1.02801
1.02065
1.01315
1.00505
0.99549
0.982893
0.967708
0.955028
0.860502
0.867793
0.876498
0.881659
0.881991
0.876484
0.868932
0.862007
0.857001
0.854827
0.855718
0.859995
0.868263
0.881793
0.900032
0.925822
0.951637
0.973355
0.985969
0.989443
0.985796
0.976921
0.964838
0.951546
0.937896
0.924302
0.910713
0.89615
0.880278
0.866853
0.804591
0.804463
0.804766
0.803366
0.800235
0.79556
0.790986
0.787478
0.785784
0.786412
0.78983
0.797147
0.809517
0.829286
0.85562
0.889957
0.922177
0.949124
0.965659
0.971554
0.967956
0.956868
0.94094
0.92235
0.902605
0.882853
0.863914
0.845812
0.828225
0.812459
0.144754
0.154941
0.158264
0.157161
0.152483
0.147392
0.143102
0.143087
0.148391
0.158495
0.170667
0.18651
0.203471
0.222519
0.239337
0.253301
0.26075
0.262533
0.249338
0.234916
0.217811
0.200953
0.184462
0.169456
0.156915
0.146619
0.138763
0.133469
0.130815
0.130931
0.285253
0.307239
0.315586
0.314244
0.306565
0.295929
0.288048
0.288487
0.298431
0.31642
0.33761
0.362679
0.389017
0.418742
0.446748
0.467951
0.479012
0.479416
0.45851
0.433432
0.404545
0.376453
0.350242
0.326987
0.306118
0.289449
0.27703
0.269086
0.26592
0.268193
0.362041
0.387337
0.396772
0.394828
0.386263
0.375182
0.367803
0.369458
0.381459
0.401531
0.424858
0.451632
0.480178
0.511936
0.542097
0.563931
0.57497
0.57436
0.552708
0.525211
0.493646
0.46259
0.43377
0.408326
0.386139
0.367957
0.354417
0.345839
0.34238
0.345283
0.424403
0.450782
0.459665
0.45671
0.44727
0.435992
0.429175
0.431641
0.444652
0.465077
0.488457
0.515206
0.543584
0.574822
0.604614
0.625642
0.636048
0.635233
0.614925
0.58775
0.556245
0.524765
0.495461
0.469595
0.447339
0.429111
0.415546
0.407062
0.403767
0.406964
0.485702
0.512172
0.51959
0.515333
0.504928
0.49344
0.486997
0.48985
0.50313
0.522716
0.545496
0.57143
0.59864
0.628479
0.657059
0.677078
0.686921
0.686607
0.66859
0.643041
0.612784
0.581983
0.553038
0.527346
0.505302
0.487628
0.474642
0.466591
0.463727
0.467158
0.551474
0.5773
0.582667
0.576982
0.565589
0.553956
0.547639
0.550468
0.563085
0.581668
0.603164
0.627391
0.652855
0.680887
0.707957
0.727061
0.736623
0.737371
0.722227
0.699184
0.670979
0.641617
0.613615
0.588419
0.566774
0.54969
0.537554
0.530298
0.528122
0.531764
0.624032
0.648641
0.651825
0.64487
0.63264
0.620771
0.614523
0.616561
0.627802
0.644654
0.664218
0.686374
0.709663
0.735654
0.761074
0.779388
0.788948
0.791107
0.779319
0.759493
0.734047
0.70687
0.680455
0.656336
0.635441
0.619002
0.607599
0.601022
0.599433
0.603191
0.703748
0.726712
0.72796
0.719976
0.707061
0.69483
0.688237
0.689186
0.698516
0.71299
0.730053
0.749689
0.770441
0.794186
0.81782
0.835383
0.845083
0.84885
0.840786
0.824757
0.802772
0.778596
0.754519
0.732043
0.712226
0.696569
0.685846
0.679797
0.678536
0.682227
0.789723
0.810724
0.810566
0.801906
0.788587
0.776001
0.768738
0.768307
0.775083
0.786569
0.800612
0.817329
0.835216
0.856556
0.878404
0.895177
0.904935
0.910168
0.905961
0.89415
0.87628
0.855925
0.835072
0.814972
0.796752
0.782089
0.771982
0.766224
0.764891
0.768249
0.8802
0.899008
0.89797
0.888998
0.875621
0.862777
0.8546
0.852484
0.856212
0.864213
0.874847
0.888353
0.903219
0.922189
0.942288
0.958193
0.967827
0.974102
0.973359
0.965923
0.952614
0.936805
0.920063
0.903172
0.887208
0.873877
0.864349
0.858602
0.856784
0.859524
0.973082
0.989542
0.9879
0.978892
0.965709
0.952742
0.943478
0.939328
0.939778
0.944043
0.95107
0.961288
0.973303
0.990078
1.00855
1.02351
1.03278
1.03966
1.04155
1.03801
1.02937
1.01851
1.0066
0.993708
0.980737
0.969151
0.960269
0.95439
0.951848
0.953826
1.06609
1.08004
1.07788
1.06893
1.05601
1.04289
1.03243
1.02591
1.0232
1.02375
1.0273
1.03441
1.04412
1.05906
1.07619
1.09018
1.09882
1.10579
1.10933
1.10875
1.10415
1.0982
1.09142
1.0831
1.07378
1.06447
1.05655
1.05067
1.04747
1.04871
1.15671
1.16795
1.16521
1.15624
1.14345
1.13002
1.11821
1.10924
1.1035
1.10092
1.10147
1.10611
1.1143
1.12804
1.14427
1.15735
1.16516
1.17165
1.17586
1.17686
1.175
1.17329
1.17135
1.16774
1.16252
1.15612
1.14974
1.14434
1.14087
1.14152
1.24203
1.25027
1.24679
1.2376
1.22473
1.21079
1.19754
1.18633
1.17806
1.17309
1.17169
1.17491
1.18264
1.196
1.21196
1.22426
1.23115
1.23668
1.24057
1.2416
1.24084
1.24183
1.24365
1.24426
1.24321
1.24028
1.23616
1.23198
1.22893
1.22928
1.31861
1.32351
1.31905
1.30943
1.29633
1.2818
1.26731
1.25441
1.24448
1.23824
1.23618
1.23948
1.24801
1.26198
1.27845
1.29019
1.2962
1.30042
1.3031
1.30266
1.30101
1.30244
1.30639
1.31005
1.31248
1.31314
1.31194
1.30979
1.308
1.3085
1.38243
1.38373
1.37803
1.36788
1.35472
1.33993
1.32485
1.31113
1.30072
1.29466
1.29358
1.29869
1.30933
1.32492
1.34273
1.3543
1.35966
1.3625
1.36335
1.35995
1.35546
1.35461
1.35845
1.3633
1.36792
1.3714
1.37321
1.37367
1.37388
1.37515
1.429
1.42681
1.41981
1.40964
1.39716
1.38296
1.36812
1.35473
1.34532
1.34108
1.34288
1.35143
1.36541
1.38351
1.40341
1.41547
1.42063
1.42235
1.42097
1.41361
1.40454
1.39881
1.3997
1.40333
1.40815
1.41292
1.41683
1.41973
1.42221
1.42482
1.45453
1.44931
1.44196
1.43312
1.42236
1.40958
1.39587
1.38414
1.37728
1.37664
1.38321
1.39647
1.41473
1.43594
1.45847
1.47188
1.47762
1.47894
1.47533
1.46353
1.4486
1.43606
1.43083
1.43061
1.43313
1.43716
1.44137
1.44536
1.44942
1.45354
1.45815
1.45134
1.44503
1.43844
1.43018
1.41947
1.40777
1.39902
1.39616
1.40123
1.41398
1.43287
1.45599
1.48054
1.50568
1.52118
1.52845
1.5304
1.52518
1.50908
1.48764
1.46702
1.45341
1.44642
1.44404
1.44509
1.44751
1.45073
1.45467
1.45971
1.44126
1.43406
1.43028
1.42714
1.42186
1.41372
1.40541
1.40062
1.40336
1.41543
1.43522
1.46021
1.48834
1.51617
1.54401
1.56208
1.57134
1.57442
1.56849
1.54877
1.52081
1.49159
1.4683
1.45248
1.4428
1.43904
1.43793
1.43844
1.44053
1.44483
1.40791
1.40181
1.40106
1.40108
1.39921
1.39458
1.39058
1.39155
1.40027
1.41983
1.44697
1.47794
1.51073
1.54157
1.57239
1.59355
1.60563
1.61049
1.60432
1.58148
1.54736
1.50963
1.47664
1.44928
1.43177
1.42133
1.41521
1.41185
1.41087
1.41308
1.36267
1.35887
1.36122
1.36447
1.36592
1.36554
1.36671
1.37358
1.38901
1.41468
1.44869
1.48551
1.52238
1.55592
1.58986
1.61465
1.63068
1.63794
1.63213
1.60681
1.5677
1.52264
1.47924
1.44097
1.4136
1.39526
1.38286
1.37457
1.36995
1.36924
1.31061
1.30973
1.31514
1.32172
1.32666
1.33043
1.33657
1.34918
1.37085
1.40255
1.44145
1.48168
1.52212
1.55856
1.59576
1.62487
1.64584
1.65639
1.65139
1.62491
1.58221
1.53102
1.47701
1.42935
1.39174
1.36476
1.34534
1.33135
1.32224
1.31855
1.25668
1.25845
1.26695
1.27669
1.28489
1.29243
1.30297
1.32049
1.34723
1.38343
1.42571
1.46852
1.51079
1.54924
1.58988
1.6242
1.65079
1.66581
1.6622
1.63602
1.59111
1.53413
1.47278
1.41681
1.37002
1.33385
1.30697
1.28668
1.27257
1.2656
1.20486
1.20883
1.2197
1.23192
1.24282
1.25353
1.26771
1.289
1.31926
1.35793
1.40139
1.44477
1.48765
1.52805
1.57248
1.61302
1.64596
1.66634
1.66505
1.6398
1.59302
1.53262
1.46745
1.40531
1.3514
1.30675
1.27187
1.24505
1.22545
1.21459
1.15823
1.16337
1.17532
1.18892
1.20172
1.21489
1.23185
1.25558
1.28734
1.32594
1.36827
1.41052
1.45299
1.49537
1.54413
1.59212
1.63206
1.65863
1.66053
1.63624
1.58973
1.52893
1.46183
1.39593
1.33673
1.2859
1.24393
1.21004
1.18438
1.16886
1.12114
1.12583
1.137
1.15015
1.16348
1.17771
1.19566
1.21964
1.25044
1.28656
1.3259
1.36568
1.40693
1.45158
1.50556
1.56258
1.61024
1.64345
1.64988
1.62866
1.58387
1.52407
1.45678
1.3891
1.3265
1.27133
1.22409
1.1846
1.15325
1.13271
1.09412
1.09671
1.1053
1.11611
1.12796
1.14123
1.15795
1.17981
1.20711
1.23872
1.27358
1.31
1.34984
1.39759
1.45808
1.5261
1.58228
1.62238
1.63427
1.61705
1.57591
1.5189
1.45305
1.38536
1.32119
1.26312
1.21234
1.16873
1.13265
1.10701
1.08162
1.07977
1.08363
1.08989
1.09793
1.10787
1.12087
1.1379
1.15937
1.18463
1.21371
1.24619
1.28524
1.3372
1.40556
1.48617
1.55147
1.59853
1.61612
1.604
1.56797
1.51504
1.45232
1.38802
1.32506
1.26589
1.21235
1.1655
1.12654
1.09691
1.10187
1.09286
1.08861
1.08688
1.08773
1.0908
1.09647
1.10535
1.11792
1.13449
1.15617
1.1841
1.2227
1.27906
1.35529
1.44828
1.52234
1.57617
1.59944
1.59333
1.56346
1.51645
1.46249
1.40447
1.34596
1.28991
1.23828
1.19215
1.15253
1.12074
0.180855
0.190577
0.193358
0.191844
0.187107
0.181162
0.176019
0.174756
0.177343
0.184503
0.193706
0.206997
0.22155
0.239739
0.256298
0.270827
0.2789
0.282707
0.270725
0.257784
0.242509
0.227746
0.21343
0.20032
0.188482
0.178507
0.171013
0.166081
0.163114
0.162516
0.35963
0.381292
0.389416
0.388252
0.381076
0.371759
0.363993
0.361265
0.364187
0.374065
0.387492
0.406182
0.428157
0.456176
0.484194
0.506699
0.518951
0.521621
0.501801
0.478395
0.452385
0.428123
0.406178
0.387138
0.370899
0.357863
0.348393
0.342564
0.340341
0.343938
0.449974
0.474339
0.483701
0.482204
0.474041
0.463358
0.454528
0.45133
0.454379
0.464619
0.478743
0.497863
0.520908
0.550258
0.580227
0.603364
0.615525
0.617269
0.597203
0.571996
0.544467
0.518744
0.495814
0.47619
0.459824
0.446997
0.43776
0.432183
0.429999
0.433983
0.517174
0.541608
0.550479
0.54815
0.539055
0.527354
0.517755
0.51401
0.516625
0.526004
0.539216
0.556984
0.578862
0.606902
0.636106
0.658203
0.669308
0.670531
0.652312
0.628214
0.602119
0.57761
0.555924
0.537605
0.522654
0.51133
0.503424
0.498771
0.497023
0.500756
0.578261
0.601692
0.609028
0.605468
0.595218
0.582448
0.572016
0.567393
0.569212
0.577047
0.588544
0.604255
0.624054
0.649906
0.677579
0.698433
0.708443
0.709502
0.693814
0.672017
0.648544
0.626387
0.606865
0.59058
0.577623
0.568278
0.562172
0.558838
0.557888
0.56142
0.640087
0.662163
0.667387
0.662274
0.650555
0.636523
0.625016
0.619284
0.620012
0.62593
0.635236
0.648597
0.665953
0.689293
0.715224
0.735059
0.744201
0.745267
0.732181
0.713167
0.692884
0.673712
0.65686
0.64301
0.632341
0.625142
0.620995
0.619214
0.619268
0.622882
0.706328
0.726801
0.729624
0.722768
0.709324
0.693788
0.680953
0.674089
0.673506
0.677178
0.684003
0.694825
0.709635
0.730543
0.754878
0.773856
0.782302
0.783332
0.772595
0.756511
0.739713
0.724006
0.710319
0.699247
0.690987
0.685935
0.683798
0.683622
0.68475
0.688734
0.778281
0.796942
0.797477
0.788872
0.773662
0.756608
0.742348
0.734407
0.732317
0.733483
0.737636
0.745738
0.758103
0.776865
0.799944
0.818186
0.825895
0.826641
0.817771
0.804561
0.791439
0.779664
0.769584
0.761601
0.755764
0.752674
0.75245
0.753729
0.755963
0.76043
0.855636
0.872293
0.871043
0.860825
0.844098
0.825678
0.810234
0.801362
0.797595
0.796287
0.797658
0.802985
0.813139
0.830201
0.852442
0.870024
0.876725
0.876673
0.869051
0.858489
0.8491
0.841502
0.835349
0.830668
0.827243
0.825818
0.827106
0.829691
0.832876
0.837802
0.936888
0.95151
0.948916
0.937464
0.919715
0.900351
0.884289
0.874825
0.869482
0.865794
0.864628
0.867375
0.875715
0.891631
0.913491
0.930355
0.935589
0.933991
0.926874
0.91851
0.912625
0.909138
0.906993
0.90565
0.904486
0.904323
0.906651
0.910244
0.914135
0.919392
1.01974
1.03238
1.02882
1.01665
0.998558
0.979039
0.963169
0.953692
0.947185
0.9415
0.938277
0.939067
0.946126
0.961571
0.983469
0.999376
1.00254
0.998532
0.99111
0.98422
0.981267
0.98139
0.982943
0.984637
0.985404
0.986047
0.988899
0.993062
0.997415
1.00287
1.10141
1.11218
1.108
1.09571
1.07807
1.05949
1.04489
1.03618
1.02925
1.0223
1.01777
1.0175
1.02412
1.03978
1.06203
1.07655
1.07694
1.06979
1.06124
1.05487
1.05388
1.0566
1.06108
1.06514
1.06725
1.06813
1.07091
1.07515
1.07981
1.08541
1.17885
1.18789
1.18349
1.1718
1.15557
1.13922
1.12715
1.12014
1.11379
1.10665
1.1019
1.10153
1.10885
1.12534
1.14804
1.16063
1.15751
1.14682
1.13652
1.12955
1.12919
1.13313
1.13924
1.14447
1.14702
1.14744
1.14943
1.15331
1.15813
1.16386
1.2489
1.25643
1.25226
1.24207
1.22847
1.21571
1.20754
1.20327
1.19874
1.19279
1.18918
1.18979
1.19897
1.2166
1.23959
1.24951
1.24248
1.22823
1.21587
1.20723
1.20607
1.20956
1.2155
1.22021
1.2219
1.22101
1.22131
1.22434
1.22916
1.23506
1.30855
1.31483
1.31158
1.30393
1.2944
1.28662
1.28371
1.28337
1.28202
1.27879
1.27765
1.28053
1.2925
1.31125
1.33408
1.34054
1.32959
1.31223
1.29795
1.28688
1.28351
1.28471
1.28842
1.29052
1.2897
1.28632
1.28381
1.28539
1.28987
1.29597
1.35521
1.3606
1.35927
1.35538
1.3514
1.34992
1.35354
1.35838
1.36162
1.36271
1.36521
1.37162
1.38697
1.40646
1.42849
1.43072
1.41623
1.39668
1.38109
1.36726
1.36054
1.35763
1.35706
1.35431
1.34909
1.34179
1.33528
1.33431
1.33801
1.34405
1.38731
1.39228
1.39399
1.39532
1.39819
1.40444
1.41524
1.42635
1.43561
1.44225
1.44971
1.46049
1.47945
1.4991
1.51969
1.51712
1.49977
1.47924
1.46328
1.44684
1.43612
1.42757
1.42079
1.41102
1.39956
1.38686
1.37538
1.37024
1.3723
1.37775
1.40489
1.40989
1.4158
1.42377
1.43455
1.44912
1.46743
1.48568
1.50225
1.51521
1.5287
1.54432
1.56678
1.58597
1.60469
1.59722
1.57797
1.55772
1.54237
1.5238
1.50881
1.49368
1.47909
1.46085
1.44146
1.422
1.40481
1.39418
1.39281
1.39713
1.40967
1.41533
1.42635
1.44154
1.46054
1.4835
1.50927
1.53522
1.55955
1.57955
1.59957
1.6201
1.64569
1.66399
1.68083
1.66894
1.64916
1.63046
1.61647
1.59631
1.57707
1.55496
1.53168
1.50412
1.47569
1.44854
1.4251
1.40835
1.40168
1.40381
1.40488
1.41111
1.4262
1.45
1.47687
1.50757
1.54034
1.57387
1.60581
1.6332
1.65978
1.68495
1.7131
1.73035
1.74587
1.73076
1.71216
1.69625
1.68415
1.66284
1.63955
1.61048
1.57833
1.54127
1.5034
1.46817
1.4383
1.41537
1.4023
1.40135
1.39351
1.40143
1.42032
1.44846
1.48352
1.52182
1.56055
1.60079
1.63963
1.67425
1.70694
1.73623
1.76628
1.78283
1.79813
1.78174
1.76636
1.75432
1.74427
1.72208
1.69495
1.65925
1.61863
1.57251
1.52566
1.48313
1.44572
1.41524
1.3974
1.3927
1.37875
1.38822
1.41074
1.44269
1.48103
1.52343
1.5694
1.61608
1.66022
1.70108
1.73907
1.77181
1.80311
1.81986
1.83657
1.82168
1.8116
1.80429
1.79626
1.77298
1.74228
1.70045
1.6521
1.59827
1.54409
1.49347
1.44884
1.41262
1.38951
1.38084
1.36296
1.37354
1.39876
1.43307
1.47326
1.51758
1.56577
1.61612
1.66689
1.71304
1.75489
1.79018
1.82224
1.84049
1.86087
1.85102
1.84817
1.84621
1.84006
1.81544
1.78108
1.73363
1.67901
1.6193
1.5581
1.50012
1.44936
1.4084
1.3804
1.36765
1.34749
1.35854
1.38485
1.41986
1.4603
1.5056
1.55513
1.6072
1.65948
1.70795
1.75216
1.78975
1.82343
1.8446
1.87147
1.87073
1.87662
1.88046
1.87611
1.85008
1.81141
1.75966
1.70002
1.6354
1.56773
1.50406
1.44843
1.4034
1.371
1.35406
1.33322
1.34395
1.36939
1.40292
1.44263
1.48763
1.53693
1.58874
1.64081
1.68973
1.73443
1.77256
1.80712
1.83293
1.86925
1.88179
1.89782
1.90782
1.90515
1.87771
1.83484
1.77929
1.71588
1.64598
1.57422
1.50643
1.44701
1.39842
1.36215
1.34101
1.32126
1.33044
1.35279
1.38349
1.42092
1.46366