/*--------------------------------*- C++ -*----------------------------------*\
  =========                 |
  \\      /  F ield         | OpenFOAM: The Open Source CFD Toolbox
   \\    /   O peration     | Website:  https://openfoam.org
    \\  /    A nd           | Version:  12
     \\/     M anipulation  |
\*---------------------------------------------------------------------------*/
FoamFile
{
    format      ascii;
    class       volScalarField;
    location    "150/air";
    object      nut;
}
// * * * * * * * * * * * * * * * * * * * * * * * * * * * * * * * * * * * * * //

dimensions      [0 2 -1 0 0 0 0];

internalField   nonuniform List<scalar> 
243000
(
0.000117779
0.000118468
0.000117056
0.000114003
0.000109535
0.000104161
9.85015e-05
9.35271e-05
8.98396e-05
8.9474e-05
9.39967e-05
0.000100034
0.000105732
0.000111186
0.000115888
0.000120024
0.000122551
0.000124254
0.000121834
0.000119519
0.000116983
0.000114376
0.000111741
0.000109213
0.000107084
0.000105711
0.00010552
0.000106392
0.000109216
0.000113156
0.000482857
0.000475577
0.000464541
0.0004479
0.000427513
0.000405205
0.000383758
0.000367155
0.000357725
0.000362209
0.000377384
0.000396266
0.000414362
0.000433459
0.000450456
0.000465998
0.000476749
0.000484582
0.000476653
0.000468088
0.000457858
0.000447916
0.000438142
0.000429664
0.000423083
0.000419711
0.000420518
0.000425265
0.000436615
0.000454325
0.000641567
0.000658313
0.000667382
0.000666982
0.000659327
0.000646771
0.000633503
0.000626239
0.000630112
0.000656453
0.000693716
0.000735279
0.000774348
0.000813342
0.000846468
0.000873323
0.000888443
0.000894731
0.000871539
0.000843613
0.000810645
0.00077643
0.000741521
0.000708159
0.00067747
0.000651293
0.000630801
0.000615834
0.00060853
0.000609082
0.000690406
0.000709243
0.00071829
0.000717482
0.000709307
0.000696486
0.000683553
0.000677627
0.000685249
0.000714834
0.00075239
0.000793402
0.000832238
0.000870981
0.000904327
0.000930942
0.000945599
0.000951312
0.000928858
0.000900711
0.000867374
0.000832382
0.00079665
0.000762445
0.00073094
0.000703966
0.000682768
0.000667595
0.000659987
0.000660493
0.000731617
0.000751541
0.00075996
0.000758564
0.000749834
0.000736835
0.000724373
0.00071986
0.000731148
0.000762361
0.00079962
0.000839591
0.000877688
0.000915747
0.000948919
0.000975177
0.000989321
0.000994547
0.000973328
0.000945616
0.000912462
0.00087726
0.000841208
0.000806617
0.000774719
0.00074736
0.000725883
0.000710772
0.000703196
0.000703626
0.000770967
0.000791235
0.000798384
0.000795958
0.000786416
0.000773124
0.000761132
0.000758068
0.000772656
0.000804476
0.000841039
0.000879802
0.000916956
0.00095424
0.000987144
0.00101321
0.00102705
0.00103212
0.00101242
0.000985533
0.000952834
0.000917668
0.000881505
0.000846734
0.000814674
0.000787202
0.000765696
0.000750835
0.000743496
0.000743866
0.000811674
0.000831709
0.000837071
0.000833069
0.000822311
0.00080847
0.000796836
0.000795287
0.000812465
0.000844258
0.000879826
0.000917298
0.000953417
0.000989966
0.00102268
0.00104881
0.00106266
0.00106798
0.00105005
0.00102432
0.000992286
0.000957366
0.00092125
0.000886415
0.000854296
0.000826856
0.000805514
0.000791053
0.000784099
0.000784474
0.000855689
0.000875038
0.000878152
0.000872034
0.000859596
0.000844878
0.000833397
0.000833396
0.000852246
0.000883557
0.000917878
0.000953976
0.00098901
0.00102486
0.0010575
0.00108395
0.00109818
0.00110414
0.00108834
0.0010641
0.00103298
0.000998556
0.000962647
0.000927889
0.000895816
0.000868536
0.000847524
0.000833611
0.000827167
0.000827572
0.000904146
0.000922444
0.000922925
0.000914169
0.000899528
0.000883615
0.000872061
0.00087341
0.000893087
0.000923462
0.000956282
0.000990899
0.00102474
0.00105991
0.00109254
0.00111956
0.00113448
0.00114145
0.00112812
0.00110583
0.00107598
0.00104238
0.00100696
0.000972501
0.000940643
0.000913672
0.000893158
0.000879958
0.00087414
0.000874605
0.000957523
0.000974312
0.000971984
0.000960088
0.000942757
0.000925336
0.000913486
0.000915796
0.000935504
0.000964471
0.000995511
0.00102847
0.00106098
0.00109539
0.00112801
0.00115575
0.00117164
0.00117993
0.0011694
0.00114955
0.00112145
0.00108915
0.00105463
0.00102082
0.000989455
0.000963015
0.000943201
0.000930905
0.000925878
0.000926516
0.00101564
0.00103039
0.00102506
0.00100971
0.000989359
0.000970135
0.000957765
0.000960497
0.000979471
0.00100657
0.0010355
0.00106657
0.00109752
0.00113102
0.00116353
0.00119208
0.00120915
0.00121905
0.00121157
0.00119459
0.00116883
0.00113838
0.00110532
0.00107265
0.0010422
0.00101661
0.000997756
0.000986575
0.000982496
0.000983495
0.00107748
0.00108963
0.00108121
0.0010623
0.00103878
0.00101754
0.00100443
0.00100696
0.00102448
0.00104926
0.00107574
0.00110462
0.00113373
0.00116611
0.00119832
0.00122769
0.00124607
0.00125787
0.00125355
0.00123981
0.00121694
0.00118897
0.00115802
0.0011271
0.00109807
0.00107377
0.0010562
0.00104634
0.00104335
0.00104488
0.00114139
0.00115044
0.00113892
0.00111652
0.00108987
0.00106655
0.00105247
0.00105418
0.00106959
0.0010916
0.00111529
0.00114168
0.00116864
0.00119965
0.00123133
0.00126144
0.00128121
0.00129519
0.00129409
0.00128378
0.00126423
0.00123932
0.00121115
0.00118265
0.00115567
0.00113314
0.00111719
0.00110884
0.00110705
0.00110921
0.00120519
0.00121076
0.00119628
0.00117068
0.00114112
0.00111573
0.00110047
0.00110071
0.00111346
0.00113232
0.00115288
0.00117648
0.00120103
0.00123044
0.00126135
0.00129207
0.00131326
0.00132952
0.00133167
0.00132492
0.00130892
0.00128756
0.00126277
0.00123735
0.00121306
0.00119282
0.00117884
0.00117209
0.00117158
0.00117441
0.00126659
0.00126855
0.00125142
0.00122299
0.0011908
0.00116339
0.00114669
0.00114483
0.00115447
0.00116984
0.00118702
0.00120759
0.00122957
0.00125722
0.00128711
0.0013183
0.00134088
0.00135925
0.00136451
0.00136152
0.00134921
0.0013317
0.00131074
0.00128899
0.00126802
0.0012506
0.00123889
0.00123385
0.00123458
0.00123807
0.00132347
0.00132204
0.00130241
0.00127142
0.00123692
0.00120757
0.00118914
0.00118473
0.00119081
0.0012024
0.00121603
0.00123349
0.00125293
0.00127868
0.00130742
0.00133893
0.00136285
0.00138317
0.0013913
0.00139192
0.0013834
0.0013699
0.00135303
0.00133533
0.00131819
0.0013041
0.00129504
0.00129196
0.00129381
0.00129793
0.00137398
0.00136927
0.0013472
0.00131395
0.00127747
0.0012463
0.00122587
0.00121846
0.0012206
0.00122826
0.00123832
0.00125274
0.00126979
0.00129366
0.00132119
0.00135291
0.00137799
0.00140023
0.00141089
0.00141479
0.00141001
0.00140046
0.0013878
0.00137436
0.00136133
0.00135098
0.00134501
0.0013442
0.00134729
0.00135195
0.00141609
0.00140819
0.00138386
0.00134872
0.00131059
0.00127767
0.00125495
0.00124417
0.00124223
0.00124591
0.00125254
0.00126418
0.00127902
0.00130122
0.00132749
0.00135929
0.00138527
0.00140932
0.00142231
0.00142904
0.00142774
0.00142196
0.00141345
0.00140427
0.00139549
0.0013891
0.00138653
0.00138824
0.00139282
0.00139801
0.00144765
0.00143694
0.00141072
0.00137397
0.00133443
0.00129994
0.00127468
0.00126044
0.00125469
0.00125467
0.00125827
0.0012675
0.00128041
0.00130086
0.00132604
0.00135754
0.00138432
0.00140976
0.00142468
0.00143389
0.00143555
0.00143319
0.00142858
0.00142355
0.00141902
0.00141669
0.0014176
0.00142177
0.00142792
0.00143369
0.00146706
0.00145396
0.00142594
0.00138802
0.0013474
0.00131164
0.00128455
0.00126931
0.00126154
0.00125931
0.0012611
0.0012684
0.00127978
0.00129821
0.00132126
0.00134998
0.00137493
0.00140125
0.00141761
0.00142862
0.00143266
0.00143321
0.0014321
0.00143101
0.00143065
0.00143219
0.00143652
0.00144316
0.00145083
0.00145714
0.00147316
0.00145846
0.00142964
0.00139112
0.00135161
0.00131794
0.00129132
0.00127447
0.00126495
0.00126097
0.00126134
0.00126723
0.00127741
0.00129416
0.00131549
0.00134189
0.00136552
0.00138937
0.00140462
0.00141485
0.00141939
0.00142207
0.00142372
0.00142579
0.00142898
0.00143406
0.00144175
0.00145093
0.00146007
0.0014668
0.00146427
0.00144832
0.00142139
0.00138824
0.0013523
0.00132033
0.00129415
0.00127605
0.00126492
0.00125943
0.00125889
0.00126376
0.00127301
0.00128848
0.00130842
0.00133286
0.00135513
0.00137687
0.00139108
0.00140059
0.00140544
0.00140815
0.00141013
0.00141285
0.0014169
0.00142267
0.00143226
0.00144367
0.0014542
0.00146117
0.00144315
0.00143117
0.00140886
0.0013806
0.00134833
0.00131822
0.00129262
0.00127352
0.00126113
0.00125475
0.0012537
0.00125797
0.00126656
0.00128104
0.00129982
0.00132259
0.00134349
0.00136337
0.00137655
0.00138534
0.00139005
0.00139257
0.00139452
0.00139738
0.00140186
0.00140809
0.00141769
0.00142804
0.0014369
0.00144194
0.00141804
0.00140953
0.00139167
0.00136765
0.00133889
0.00131081
0.00128613
0.00126691
0.0012539
0.00124712
0.00124595
0.00124991
0.00125803
0.00127173
0.00128948
0.00131076
0.00133032
0.00134854
0.00136065
0.00136867
0.0013729
0.00137501
0.00137663
0.00137919
0.00138348
0.00138977
0.00139883
0.00140791
0.00141504
0.00141834
0.001388
0.00138274
0.00136945
0.00134956
0.00132438
0.0012986
0.0012753
0.00125655
0.00124355
0.00123684
0.0012358
0.00123959
0.00124736
0.00126035
0.00127717
0.00129708
0.00131532
0.00133203
0.00134304
0.00135015
0.00135368
0.00135522
0.00135634
0.00135834
0.00136201
0.00136762
0.00137543
0.00138282
0.0013879
0.00138944
0.00135277
0.00135064
0.00134192
0.0013264
0.00130493
0.00128183
0.00126038
0.00124276
0.00123037
0.00122403
0.00122321
0.00122689
0.00123443
0.00124682
0.00126274
0.00128131
0.00129827
0.00131352
0.00132335
0.00132938
0.00133201
0.00133286
0.00133335
0.00133464
0.00133744
0.00134194
0.00134792
0.001353
0.00135546
0.00135503
0.00131317
0.00131383
0.00130956
0.00129835
0.00128091
0.00126083
0.00124163
0.00122569
0.00121436
0.00120871
0.00120835
0.00121218
0.00121965
0.00123159
0.00124668
0.00126401
0.00127973
0.00129344
0.00130194
0.00130657
0.00130795
0.00130779
0.00130739
0.00130771
0.00130941
0.00131253
0.00131646
0.00131902
0.00131861
0.00131609
0.00126852
0.00127178
0.0012719
0.00126512
0.00125217
0.00123586
0.00121977
0.00120651
0.00119733
0.00119335
0.00119412
0.00119868
0.00120659
0.0012184
0.00123304
0.00124949
0.00126416
0.0012762
0.00128309
0.00128569
0.00128499
0.00128283
0.00128046
0.00127883
0.00127845
0.00127931
0.00128061
0.00128019
0.00127675
0.00127188
0.00123246
0.00123812
0.00124147
0.00123906
0.0012317
0.00122123
0.00121073
0.00120262
0.00119778
0.00119675
0.00119937
0.0012049
0.00121305
0.00122448
0.00123823
0.00125362
0.00126717
0.00127764
0.00128319
0.00128427
0.00128153
0.00127673
0.00127117
0.00126587
0.00126152
0.0012582
0.00125524
0.00125093
0.00124385
0.00123584
0.00130891
0.00130972
0.00130946
0.00130691
0.0013023
0.00129605
0.00128972
0.00128406
0.00127952
0.00127651
0.00127506
0.00127543
0.00127786
0.00128299
0.00129064
0.00130113
0.00131169
0.00132085
0.00132781
0.00133173
0.00133311
0.0013329
0.00133168
0.00132994
0.00132799
0.001326
0.00132397
0.0013212
0.0013169
0.00131136
0.000165692
0.000165936
0.000162824
0.000157299
0.0001501
0.000142334
0.000135198
0.000130452
0.000129039
0.00013122
0.000134812
0.000139876
0.000145288
0.000151336
0.000156916
0.000161972
0.000165423
0.000167775
0.000165268
0.000162641
0.00015934
0.000156026
0.000152795
0.000149961
0.000147848
0.000146775
0.000147099
0.000148955
0.000153001
0.000158994
0.00112852
0.00116812
0.00113527
0.00105903
0.000968556
0.000880034
0.000814654
0.000784386
0.000787991
0.000812838
0.000844428
0.000886515
0.000930502
0.000989403
0.00104636
0.001095
0.00113046
0.00115494
0.00112714
0.00109348
0.00104511
0.000997948
0.000955057
0.000922066
0.000897088
0.000884397
0.000884053
0.00089644
0.000922512
0.000966779
0.00210106
0.00221216
0.00216708
0.00204817
0.00189782
0.00174931
0.0016402
0.001598
0.00162128
0.0016806
0.00175086
0.00184058
0.00193386
0.00205263
0.00216954
0.00225921
0.00231991
0.0023649
0.00231286
0.00224239
0.00214329
0.0020424
0.00194755
0.00186991
0.00181034
0.00177378
0.00176043
0.00177471
0.00181586
0.00189049
0.00295124
0.00308479
0.00302041
0.00288218
0.00271745
0.00255247
0.00243323
0.00239881
0.00244613
0.00253485
0.00263943
0.00276964
0.00290183
0.00306264
0.00322274
0.00333809
0.00341098
0.00346599
0.00340012
0.00330264
0.00316523
0.00302063
0.00288332
0.00276699
0.00267473
0.00261383
0.00258505
0.00259676
0.00264086
0.00271805
0.00361355
0.00374024
0.00367785
0.00356167
0.00340946
0.00325921
0.00315738
0.00314322
0.00321466
0.00333112
0.00345889
0.00360391
0.00375635
0.00393663
0.0041169
0.00424427
0.0043216
0.0043732
0.00430495
0.0041988
0.00405246
0.00389099
0.00372672
0.00357888
0.00345341
0.0033625
0.00331414
0.00331038
0.00334764
0.00341405
0.00416072
0.00427062
0.00421495
0.00412058
0.00399298
0.00387204
0.00379794
0.00380721
0.00389384
0.00402023
0.00415957
0.00431482
0.00447378
0.00465497
0.0048362
0.00496516
0.00504198
0.00508556
0.00502269
0.00491186
0.00475771
0.00458497
0.00440951
0.0042491
0.0041102
0.00400492
0.00394097
0.00392189
0.0039465
0.00399795
0.00463725
0.00472788
0.00467847
0.00460047
0.00449776
0.00440707
0.00436014
0.00438897
0.00448393
0.00461272
0.00475315
0.00490715
0.00506219
0.00523477
0.00540577
0.00552985
0.00560238
0.00564021
0.00558605
0.00547918
0.00532777
0.00515524
0.00497884
0.00481456
0.00466998
0.00455684
0.00448323
0.00445302
0.00446565
0.00450363
0.00507751
0.0051488
0.00510359
0.00503594
0.00495249
0.00488593
0.00485984
0.00490133
0.00499838
0.00512358
0.00525832
0.00540387
0.00554873
0.00570691
0.00586421
0.0059799
0.00604779
0.00608365
0.00604155
0.0059454
0.00580357
0.00563831
0.00546722
0.00530532
0.00516084
0.0050456
0.00496815
0.00493208
0.00493667
0.00496467
0.00550224
0.0055539
0.00551242
0.00544931
0.00537852
0.00532828
0.00531556
0.00536227
0.00545582
0.00557283
0.00569744
0.00583043
0.00596134
0.00610256
0.00624465
0.00635122
0.00641596
0.00645319
0.00642629
0.00634631
0.0062191
0.00606593
0.00590472
0.00574977
0.00560984
0.00549696
0.00542022
0.00538287
0.00538338
0.00540489
0.00592016
0.00595294
0.00591268
0.00585106
0.00578781
0.0057471
0.00574153
0.00578621
0.00587173
0.00597661
0.0060878
0.00620553
0.00632012
0.00644283
0.00656899
0.00666689
0.00673018
0.0067714
0.00676194
0.00670253
0.00659404
0.00645715
0.00630983
0.00616587
0.00603434
0.00592746
0.00585472
0.00581922
0.00581855
0.00583601
0.00633074
0.00634582
0.00630352
0.00624254
0.00618341
0.00614732
0.00614447
0.00618018
0.00625427
0.00634373
0.00643857
0.00653897
0.00663527
0.00673832
0.00684789
0.00693796
0.00700139
0.00704901
0.00705752
0.00702137
0.00693529
0.0068183
0.00668874
0.0065597
0.0064403
0.00634258
0.00627625
0.00624457
0.00624446
0.00625922
0.00672703
0.00672477
0.00667957
0.00661848
0.00656129
0.00652641
0.00652184
0.00654571
0.00660419
0.00667555
0.00675163
0.00683283
0.00690928
0.00699162
0.00708404
0.00716716
0.00723202
0.00728859
0.00731391
0.00730203
0.00724096
0.00714687
0.00703849
0.00692807
0.00682424
0.00673861
0.00668076
0.00665418
0.00665569
0.00666839
0.00709824
0.00707903
0.00703073
0.00696904
0.00691243
0.00687648
0.00686623
0.00687782
0.00691648
0.00696787
0.00702328
0.00708393
0.00713927
0.00720033
0.00727528
0.00735233
0.00741977
0.00748788
0.00752953
0.00753987
0.00750452
0.00743527
0.00735053
0.0072618
0.00717667
0.00710582
0.00705829
0.00703782
0.00704184
0.00705275
0.00743094
0.00739538
0.00734415
0.00728198
0.00722524
0.00718632
0.00716779
0.00716628
0.00718259
0.00721278
0.00724623
0.00728561
0.00731941
0.0073593
0.00741697
0.00748867
0.00755989
0.0076401
0.0076989
0.00772868
0.0077174
0.00767352
0.00761363
0.00754871
0.00748473
0.00743099
0.00739537
0.00738155
0.0073891
0.00739868
0.00771092
0.007661
0.00760785
0.0075454
0.00748761
0.00744387
0.00741444
0.00739727
0.00739328
0.00740006
0.00741098
0.00742931
0.00744242
0.00746236
0.00750346
0.00757015
0.00764687
0.0077366
0.00781096
0.00786021
0.00787041
0.00785103
0.00781602
0.00777578
0.00773424
0.00769954
0.00767732
0.00767084
0.00768247
0.00769143
0.00792555
0.00786421
0.00780851
0.00774442
0.00768493
0.00763526
0.00759357
0.0075589
0.0075339
0.00751789
0.0075082
0.0075064
0.00750131
0.00750373
0.00752929
0.00759167
0.00767458
0.00777381
0.00786131
0.00792649
0.0079554
0.00795764
0.00794672
0.00793064
0.00791151
0.00789697
0.00789017
0.00789327
0.00790887
0.00791931
0.00806155
0.00799131
0.00793145
0.00786604
0.00780507
0.00774881
0.00769363
0.00764017
0.00759486
0.00755799
0.00752964
0.00751146
0.00749161
0.0074791
0.00749148
0.00755041
0.00763697
0.00774743
0.00784463
0.00792211
0.00796618
0.00798662
0.00799595
0.00800165
0.00800462
0.0080101
0.00802015
0.00803473
0.00805722
0.00806938
0.00810071
0.00803171
0.0079657
0.00790029
0.00783891
0.00777573
0.00770648
0.00763329
0.00757055
0.0075164
0.00747267
0.00744255
0.00741379
0.00738838
0.00739116
0.00744691
0.0075354
0.00765178
0.00775808
0.00784287
0.00789704
0.00793177
0.0079577
0.00798207
0.00800412
0.00802979
0.00805482
0.00808008
0.00811185
0.00812748
0.00803805
0.00797107
0.00790397
0.00784167
0.00778233
0.00771261
0.00763035
0.00753547
0.0074579
0.00738543
0.00732601
0.007289
0.00725841
0.00722432
0.0072288
0.00728905
0.00737853
0.00749403
0.00760656
0.00769468
0.00775178
0.00779125
0.00782915
0.00786797
0.00790457
0.00795036
0.0079894
0.00802121
0.00805666
0.00807654
0.00787571
0.00780822
0.00774629
0.00769125
0.0076393
0.00757489
0.00748784
0.00737195
0.00724329
0.00713384
0.00705971
0.00702203
0.00699114
0.00695677
0.00697366
0.00705723
0.00716641
0.00729181
0.0074004
0.00748208
0.00753381
0.00757178
0.00761093
0.0076696
0.00772988
0.00777686
0.00782534
0.00786255
0.00789388
0.00791667
0.00761419
0.007547
0.00750305
0.00746245
0.00739976
0.00729742
0.00716784
0.00702006
0.00687847
0.00676329
0.00668772
0.00665641
0.00662648
0.00659967
0.00663572
0.00673685
0.00686002
0.00700552
0.00712435
0.00720887
0.00725538
0.00728645
0.00732379
0.00737825
0.00744553
0.00750454
0.00755842
0.00760225
0.0076298
0.00765255
0.00725833
0.00719505
0.00714896
0.00708001
0.00699177
0.00686398
0.00671081
0.00655422
0.00641603
0.00630634
0.00624153
0.00622308
0.0062006
0.00619918
0.00625886
0.00637672
0.00650865
0.00665884
0.00677373
0.00684382
0.00687707
0.00689617
0.0069216
0.00697001
0.00704265
0.0071225
0.00718989
0.00724308
0.00727724
0.0072959
0.00677098
0.00668991
0.00662892
0.00655595
0.00645617
0.00632029
0.00616442
0.00601862
0.00589523
0.0058067
0.00576437
0.00576309
0.00576872
0.00580004
0.00588564
0.00602102
0.00615967
0.00630834
0.00640936
0.00645777
0.00646681
0.00645746
0.00644431
0.00645332
0.00650338
0.00657464
0.00665298
0.00672713
0.00678881
0.00681668
0.00610693
0.0060424
0.00599381
0.00593465
0.0058435
0.00571965
0.00558504
0.00546478
0.00537254
0.00531777
0.00531387
0.00534337
0.00537921
0.005442
0.00555247
0.00570589
0.00585177
0.00599785
0.00608319
0.00610952
0.00609148
0.00604673
0.00598664
0.00593364
0.00591842
0.00595434
0.00601418
0.00607241
0.00612975
0.00615728
0.00536985
0.00533609
0.00531315
0.00528011
0.00521933
0.00513111
0.00503677
0.00495921
0.00491889
0.00492148
0.00495682
0.00500735
0.00506799
0.00515542
0.00528774
0.00545833
0.00561158
0.00575748
0.0058314
0.00584018
0.00579915
0.00572589
0.00562922
0.0055259
0.0054391
0.00538235
0.0053664
0.00537943
0.00540406
0.00541758
0.00469006
0.00468087
0.00468483
0.00468446
0.00466837
0.00463446
0.00460729
0.00460514
0.00462562
0.00466552
0.00471992
0.00478197
0.0048593
0.00496511
0.00511215
0.00529651
0.00545626
0.0056047
0.00567446
0.00567371
0.00562036
0.0055291
0.00540802
0.0052714
0.00513339
0.00500527
0.00489742
0.00481791
0.00476632
0.00473622
0.00430536
0.00430106
0.00431648
0.00433505
0.00436381
0.00438536
0.00441214
0.00444951
0.00449548
0.00454837
0.00460964
0.00467878
0.0047652
0.00488216
0.00503604
0.00523059
0.00539766
0.00554993
0.00562327
0.00562332
0.00556808
0.00547039
0.00533805
0.00518375
0.00501834
0.00485185
0.00469365
0.00455563
0.0044457
0.0043615
0.00421802
0.00421989
0.00424131
0.00426659
0.00430942
0.00434941
0.00439296
0.00444093
0.00449185
0.00454664
0.0046085
0.00468086
0.00477407
0.00490267
0.0050673
0.00527668
0.00545705
0.00561694
0.00570097
0.00570887
0.00565793
0.00555908
0.00542154
0.00525822
0.00507887
0.00489343
0.0047115
0.00454334
0.00439854
0.00428198
0.00438435
0.00438791
0.00440686
0.00442859
0.00446485
0.00450262
0.00454512
0.00459095
0.00464002
0.00469456
0.00475758
0.00483741
0.00494499
0.00509695
0.0052938
0.00553556
0.00574115
0.00591761
0.00601953
0.00603968
0.00599285
0.00588824
0.00574069
0.00556487
0.00537008
0.00516719
0.00496679
0.00477654
0.00460337
0.00445721
0.00517359
0.00516799
0.00516786
0.00516843
0.00517781
0.00519545
0.00522166
0.00525297
0.00529197
0.00534099
0.00540467
0.00549689
0.00562886
0.00582287
0.00607727
0.00637737
0.00663516
0.00685328
0.00698891
0.00703585
0.00699921
0.00689225
0.00673608
0.00654554
0.00633145
0.00610612
0.00588106
0.00566267
0.00545294
0.00526032
0.000201387
0.000200549
0.000195284
0.000187804
0.000178913
0.000170268
0.00016264
0.000157883
0.000156562
0.000158124
0.00016093
0.000165548
0.000170951
0.000177488
0.000183472
0.000188888
0.000192577
0.000195026
0.000192414
0.000189774
0.000186272
0.000182968
0.000179778
0.000177247
0.000175838
0.000175563
0.000176723
0.000179561
0.000184392
0.000191515
0.00161073
0.00167032
0.00163834
0.00156734
0.00148115
0.00137882
0.00130403
0.00127598
0.00128921
0.00132765
0.00136737
0.00140953
0.00144802
0.00150261
0.00155962
0.0016
0.00162527
0.00164041
0.00161485
0.00157907
0.00153135
0.00148688
0.00144817
0.00142009
0.00138738
0.00137386
0.00137643
0.00139819
0.00143359
0.00149007
0.00306031
0.00318011
0.00313078
0.00301165
0.00287788
0.00273497
0.00263497
0.0026095
0.00265196
0.00273411
0.00281297
0.00289468
0.00298049
0.00309585
0.00321528
0.00329134
0.00333614
0.0033729
0.00332282
0.00324838
0.0031457
0.003043
0.00294756
0.00287033
0.00280316
0.00275961
0.00274452
0.00276777
0.00281578
0.00289615
0.00428166
0.00439512
0.00431023
0.00418768
0.00405678
0.00392492
0.00383872
0.00383264
0.00390143
0.00401724
0.00412318
0.00424378
0.00437151
0.00453422
0.00470322
0.00480556
0.00486415
0.00491975
0.00485371
0.00474976
0.00460341
0.00445087
0.00430376
0.00417534
0.00407134
0.0040002
0.00395399
0.00396231
0.00400747
0.00408103
0.00519689
0.00529302
0.00522259
0.00512792
0.00501998
0.00492124
0.00486826
0.00489284
0.00500138
0.00512106
0.00524674
0.00539809
0.0055567
0.00574826
0.00594594
0.00606539
0.00613206
0.00619625
0.00612298
0.00599955
0.00582264
0.00563374
0.00545529
0.00530603
0.00516694
0.00504719
0.00497525
0.00495444
0.00497737
0.00503004
0.00592262
0.00600086
0.00594906
0.00588125
0.00580404
0.00574528
0.0057264
0.00577702
0.00589653
0.0060355
0.00618518
0.00635528
0.00653009
0.00673498
0.00693546
0.00706145
0.00713247
0.00719407
0.00713496
0.00699364
0.00680259
0.00659205
0.00638584
0.00620175
0.0060356
0.00589851
0.00580622
0.00576171
0.00576225
0.00579372
0.00653377
0.00659556
0.00655796
0.00650983
0.00645913
0.0064319
0.0064429
0.00650753
0.00663785
0.00679147
0.00695596
0.00713493
0.00731484
0.00751404
0.00770347
0.00782656
0.00789772
0.00795555
0.00790452
0.00776854
0.00757479
0.00735556
0.00713585
0.0069327
0.00675037
0.00660054
0.00649425
0.00643296
0.00641698
0.0064322
0.00708475
0.00713092
0.00710102
0.00706464
0.00703198
0.0070253
0.00705624
0.00712926
0.00726648
0.00742717
0.00759713
0.0077754
0.00794905
0.00813128
0.00829988
0.00841113
0.00847853
0.00853654
0.00850148
0.00838016
0.00819523
0.00797906
0.00775795
0.00754873
0.00736015
0.00720491
0.0070925
0.00702246
0.00699782
0.0070022
0.00760732
0.0076376
0.00761089
0.00757975
0.00755754
0.00756292
0.00760546
0.00768419
0.00781961
0.00797951
0.00814637
0.00831607
0.00847407
0.00863131
0.00877231
0.00886667
0.00892863
0.00899098
0.00897877
0.00888138
0.00871521
0.00851208
0.00829968
0.0080945
0.00790787
0.0077535
0.00764104
0.00756894
0.00754037
0.0075387
0.00811492
0.00812907
0.00810267
0.00807233
0.00805531
0.00806686
0.00811487
0.00819816
0.00832329
0.00847529
0.00863197
0.00878756
0.0089233
0.00905052
0.00916027
0.00923561
0.00929176
0.00936118
0.00937545
0.00930961
0.00916977
0.00898762
0.00879194
0.00859854
0.00842007
0.00827129
0.00816253
0.00809252
0.0080617
0.00805742
0.00860858
0.00860725
0.0085782
0.00854675
0.00853156
0.00854589
0.00859551
0.0086797
0.00879363
0.00892984
0.00907043
0.00920883
0.00931891
0.00941394
0.00949147
0.00954775
0.00959814
0.00967631
0.00971638
0.0096862
0.0095772
0.00942129
0.00924843
0.00907248
0.00890682
0.00876686
0.00866379
0.00859753
0.00856578
0.00856075
0.00908099
0.00906468
0.00903173
0.00899828
0.0089833
0.00899859
0.00904757
0.00912795
0.00923284
0.00935068
0.00947002
0.00958899
0.00967277
0.0097362
0.00978313
0.00982187
0.00986654
0.00995318
0.010017
0.0100216
0.00994356
0.00981656
0.00967025
0.00951531
0.00936541
0.00923655
0.00914024
0.00907807
0.00904715
0.00904224
0.00951932
0.00948861
0.00945154
0.00941594
0.00940085
0.00941654
0.00946373
0.00953832
0.00963263
0.00973526
0.00983282
0.00993013
0.00998918
0.0100244
0.0100447
0.0100688
0.0101079
0.0102016
0.0102861
0.0103196
0.0102702
0.0101711
0.0100502
0.00991684
0.00978515
0.00966908
0.00957983
0.00952212
0.00949375
0.00948942
0.00990699
0.0098628
0.00982183
0.0097846
0.00977016
0.00978676
0.009832
0.0099006
0.00998462
0.0100732
0.0101537
0.0102303
0.0102677
0.0102805
0.0102806
0.0102941
0.0103282
0.0104273
0.010528
0.0105835
0.0105567
0.0104804
0.0103792
0.0102646
0.0101499
0.0100469
0.0099663
0.00991363
0.00988939
0.00988603
0.0102246
0.0101685
0.0101241
0.0100866
0.0100748
0.0100935
0.0101377
0.0102016
0.0102774
0.0103549
0.0104231
0.0104837
0.0105046
0.0105027
0.0104916
0.0104997
0.01053
0.0106342
0.0107457
0.0108141
0.0108013
0.0107378
0.0106502
0.0105483
0.0104449
0.0103521
0.0102801
0.0102342
0.0102151
0.010213
0.0104508
0.0103858
0.0103388
0.0103035
0.0102976
0.0103201
0.0103651
0.0104269
0.010498
0.0105689
0.0106316
0.0106817
0.0106944
0.0106869
0.0106751
0.0106852
0.010715
0.0108241
0.0109415
0.0110113
0.0110033
0.0109396
0.0108557
0.0107585
0.0106596
0.0105715
0.0105035
0.010463
0.0104499
0.0104495
0.0105635
0.0104963
0.0104471
0.0104188
0.0104212
0.0104502
0.0104983
0.0105614
0.0106328
0.0107028
0.0107687
0.0108157
0.0108299
0.0108272
0.0108259
0.0108472
0.0108823
0.0109979
0.0111155
0.0111778
0.0111634
0.0110872
0.0109931
0.0108893
0.010785
0.0106937
0.0106238
0.0105834
0.0105731
0.0105755
0.0105494
0.010481
0.0104353
0.0104178
0.0104305
0.0104685
0.0105218
0.0105908
0.0106681
0.010746
0.0108225
0.0108765
0.0109025
0.0109155
0.0109354
0.010979
0.0110274
0.0111543
0.0112685
0.0113164
0.0112834
0.0111882
0.0110652
0.0109416
0.010819
0.0107142
0.0106326
0.0105843
0.0105701
0.0105748
0.0104091
0.010338
0.0102971
0.0102875
0.0103121
0.0103612
0.0104213
0.0105015
0.0105925
0.0106962
0.0107893
0.0108633
0.0109112
0.0109486
0.0109961
0.0110701
0.0111414
0.0112851
0.0113971
0.0114274
0.0113667
0.0112404
0.0110822
0.0109176
0.0107617
0.0106339
0.0105317
0.0104654
0.0104358
0.0104412
0.01013
0.0100515
0.0100179
0.0100222
0.0100594
0.0101234
0.0102058
0.0103034
0.0104246
0.0105608
0.0106819
0.0107863
0.010865
0.0109345
0.0110172
0.0111265
0.011223
0.0113799
0.0114916
0.0115022
0.0114075
0.0112385
0.0110392
0.0108211
0.0106132
0.0104542
0.0103236
0.01023
0.0101779
0.0101666
0.00971861
0.00963275
0.00960164
0.0096137
0.00967779
0.00977397
0.00989005
0.0100258
0.0101802
0.0103539
0.0105154
0.0106574
0.0107725
0.0108817
0.011008
0.0111581
0.0112861
0.0114557
0.0115643
0.0115485
0.0114116
0.011189
0.0109373
0.010638
0.0103788
0.0101683
0.00999123
0.00987433
0.00980092
0.00976276
0.00918305
0.00910168
0.00908463
0.00911397
0.00920311
0.00934158
0.00951007
0.00968903
0.00988742
0.0100912
0.0103007
0.0104924
0.0106508
0.0108051
0.0109806
0.0111766
0.0113452
0.011529
0.0116349
0.0115909
0.0114131
0.0111399
0.0108109
0.0104317
0.0100959
0.00981129
0.00957961
0.00941335
0.00931253
0.00924627
0.00859283
0.00853003
0.00853326
0.0085925
0.00871477
0.00889221
0.00910022
0.00932955
0.00957555
0.0098291
0.0100783
0.0103027
0.0105115
0.0107213
0.0109518
0.0112004
0.0114146
0.0116203
0.0117243
0.0116591
0.0114465
0.011123
0.0106974
0.0102527
0.00981797
0.0094529
0.00915181
0.00892422
0.00877693
0.00867695
0.0080369
0.00799222
0.00802032
0.00811053
0.00826419
0.00847859
0.00872692
0.00899606
0.00929019
0.00959689
0.00988893
0.010151
0.010395
0.0106535
0.0109441
0.0112527
0.0115137
0.0117532
0.0118589
0.011788
0.0115606
0.0111828
0.010679
0.0101443
0.00961908
0.00915963
0.00878201
0.0084848
0.00827888
0.00813808
0.00759967
0.00757133
0.00762189
0.00773727
0.00791832
0.00816265
0.00844468
0.00875134
0.00908407
0.00942478
0.00974719
0.0100388
0.0103204
0.0106311
0.0109869
0.0113616
0.0116715
0.0119531
0.0120729
0.0119988
0.0117355
0.0113098
0.0107658
0.0101688
0.00957437
0.00902105
0.00855178
0.00817937
0.00790545
0.00771674
0.00737468
0.00735736
0.00742214
0.00755333
0.00775399
0.00802052
0.00832884
0.00866464
0.00902133
0.00937696
0.00971237
0.0100204
0.0103307
0.0106916
0.0111174
0.0115643
0.0119283
0.012254
0.0124023
0.012328
0.0120516
0.0116119
0.011039
0.010398
0.00974815
0.00912435
0.00856786
0.00810676
0.0077555
0.0075093
0.0074908
0.00747616
0.00754345
0.00767768
0.00788563
0.0081614
0.00847755
0.00881825
0.00917139
0.00951671
0.00984397
0.0101538
0.0104817
0.0108893
0.0113859
0.0119098
0.0123344
0.0127046
0.0129021
0.0128593
0.0125883
0.0121521
0.0115718
0.0109087
0.0102226
0.0095534
0.00893208
0.00839321
0.00795897
0.00764389
0.00810806
0.00808976
0.00814865
0.00827047
0.00846394
0.00872072
0.00901154
0.00932082
0.00963358
0.00993753
0.0102319
0.0105252
0.010856
0.0113038
0.0118646
0.0124648
0.0129543
0.0133698
0.0136356
0.0136439
0.0134176
0.013012
0.0124535
0.0118016
0.0111135
0.0104275
0.00977647
0.00918435
0.00867388
0.00828254
0.00949583
0.00946356
0.00949653
0.0095792
0.00972131
0.00991133
0.010126
0.0103483
0.0105698
0.0107883
0.0110124
0.0112591
0.011573
0.0120449
0.0126486
0.0133127
0.0138674
0.0143313
0.0146786
0.0147658
0.0146255
0.0142885
0.0137944
0.013229
0.012605
0.0119511
0.0113022
0.0106909
0.0101474
0.00969509
0.0121639
0.0120851
0.0120315
0.0120038
0.0120196
0.0120619
0.0121128
0.0121645
0.0122197
0.0122863
0.0123835
0.0125356
0.0127967
0.0132505
0.013851
0.0145453
0.015157
0.0156789
0.0161148
0.0163158
0.0163028
0.0160944