/*--------------------------------*- C++ -*----------------------------------*\
  =========                 |
  \\      /  F ield         | OpenFOAM: The Open Source CFD Toolbox
   \\    /   O peration     | Website:  https://openfoam.org
    \\  /    A nd           | Version:  12
     \\/     M anipulation  |
\*---------------------------------------------------------------------------*/
FoamFile
{
    format      ascii;
    class       volScalarField;
    location    "150/air";
    object      p_rgh;
}
// * * * * * * * * * * * * * * * * * * * * * * * * * * * * * * * * * * * * * //

dimensions      [1 -1 -2 0 0 0 0];

internalField   nonuniform List<scalar> 
243000
(
34.5286
34.4216
34.3575
34.2807
34.2078
34.1376
34.0673
33.9984
33.9199
33.8459
33.7509
33.6692
33.6027
33.6012
33.6331
33.7432
33.8686
34.0207
34.1176
34.2148
34.2637
34.3123
34.3464
34.3809
34.4097
34.432
34.4498
34.4564
34.4671
34.4555
34.5251
34.422
34.3612
34.2859
34.2153
34.1472
34.0783
34.0108
33.9329
33.8592
33.7647
33.6873
33.6238
33.6239
33.6531
33.7588
33.8788
34.0295
34.1271
34.225
34.2745
34.3241
34.3583
34.3926
34.4213
34.4436
34.4624
34.4682
34.4812
34.4705
34.4909
34.3852
34.3277
34.2526
34.1849
34.1192
34.0527
33.9883
33.9124
33.8387
33.7411
33.6631
33.5975
33.5978
33.6228
33.7233
33.8385
33.9884
34.0875
34.1896
34.2411
34.2939
34.3304
34.3672
34.3981
34.4222
34.4429
34.4474
34.4611
34.4497
34.4383
34.3304
34.2751
34.1991
34.1322
34.0673
34.0017
33.9383
33.8608
33.7825
33.6791
33.5982
33.528
33.5254
33.5448
33.6384
33.7502
33.9009
34.003
34.1107
34.1677
34.2263
34.2683
34.31
34.3456
34.3736
34.3977
34.4028
34.4161
34.4047
34.3732
34.2662
34.2118
34.1338
34.0661
33.9998
33.9338
33.8696
33.7882
33.7028
33.5932
33.508
33.432
33.4253
33.4386
33.5253
33.635
33.7867
33.8931
34.0074
34.0715
34.1372
34.186
34.2341
34.2754
34.3083
34.3368
34.3443
34.3581
34.3477
34.2964
34.1926
34.1386
34.0583
33.9891
33.9202
33.8526
33.7863
33.6999
33.6069
33.4914
33.4019
33.3201
33.3089
33.3161
33.3965
33.5042
33.6572
33.7679
33.8895
33.961
34.0341
34.0899
34.1446
34.1921
34.2303
34.2635
34.2742
34.2888
34.2797
34.2078
34.1087
34.0542
33.9713
33.8997
33.8271
33.7572
33.6868
33.594
33.4934
33.3723
33.2782
33.1906
33.1743
33.1751
33.2499
33.3557
33.5103
33.6254
33.754
33.8335
33.9148
33.9781
34.0401
34.0945
34.1385
34.1768
34.1917
34.2075
34.1997
34.1067
34.0129
33.957
33.8711
33.7966
33.7198
33.6466
33.5704
33.4697
33.3617
33.2353
33.1365
33.043
33.0208
33.0147
33.084
33.1874
33.3436
33.4628
33.5985
33.6867
33.7772
33.8494
33.9196
33.9814
34.0321
34.0762
34.0963
34.114
34.1068
33.9915
33.903
33.8445
33.7554
33.6778
33.5964
33.5191
33.4358
33.3263
33.2111
33.0793
32.9757
32.8761
32.847
32.8333
32.897
32.9969
33.1548
33.278
33.4216
33.5192
33.6196
33.7013
33.7805
33.8506
33.909
33.96
33.9863
34.0067
34.0001
33.8595
33.7757
33.7133
33.6211
33.5401
33.4543
33.3724
33.2811
33.1624
33.0404
32.903
32.7944
32.6878
32.6512
32.6289
32.6865
32.7825
32.942
33.0697
33.2211
33.3285
33.4393
33.5313
33.6201
33.6994
33.7663
33.8252
33.8586
33.8826
33.8769
33.7073
33.6274
33.5602
33.4651
33.3806
33.2905
33.2038
33.1043
32.9766
32.8479
32.7052
32.5912
32.4772
32.4327
32.4006
32.4514
32.5427
32.7034
32.8352
32.9933
33.1111
33.2329
33.3358
33.4351
33.5243
33.6008
33.6679
33.7086
33.7375
33.7331
33.531
33.4538
33.3814
33.2838
33.1963
33.1024
33.0107
32.9034
32.767
32.6322
32.4846
32.3653
32.244
32.1908
32.1478
32.191
32.2759
32.4367
32.5714
32.7353
32.8635
32.9965
33.111
33.2216
33.3218
33.4083
33.4839
33.5322
33.5668
33.5647
33.3263
33.2504
33.1727
33.0735
32.9837
32.8871
32.7909
32.6765
32.5325
32.3928
32.2409
32.1164
31.9882
31.9251
31.8709
31.9051
31.9816
32.1398
32.2765
32.4452
32.5823
32.7266
32.8532
32.9758
33.0873
33.1842
33.2686
33.3251
33.366
33.3676
33.0885
33.0133
32.9313
32.832
32.7412
32.6429
32.543
32.4231
32.2736
32.1306
31.9751
31.8461
31.7112
31.6377
31.5722
31.5954
31.6614
31.8116
31.9483
32.1212
32.2661
32.421
32.5595
32.6939
32.8167
32.9243
33.0177
33.0826
33.1298
33.1374
32.8148
32.7398
32.655
32.557
32.4673
32.3693
32.2672
32.1444
31.9923
31.8474
31.6899
31.5579
31.4172
31.3333
31.256
31.2666
31.3199
31.458
31.5907
31.7647
31.9162
32.0796
32.2285
32.3739
32.5074
32.6254
32.7278
32.8016
32.8547
32.8703
32.5027
32.4277
32.3418
32.2473
32.1614
32.0673
31.9662
31.8441
31.6931
31.5487
31.3908
31.2569
31.1116
31.0174
30.9275
30.9249
30.9636
31.0878
31.2123
31.3824
31.537
31.7055
31.8625
32.0164
32.1591
32.2864
32.3974
32.4802
32.5389
32.5638
32.1498
32.0757
31.9922
31.9059
31.828
31.7418
31.6459
31.529
31.3834
31.2423
31.0871
30.9526
30.8041
30.7004
30.5979
30.58
30.6009
30.7071
30.82
30.9828
31.136
31.306
31.4672
31.6264
31.775
31.9089
32.0262
32.117
32.181
32.2159
31.7577
31.6879
31.6132
31.5403
31.4752
31.4019
31.3166
31.2105
31.0752
30.9407
30.7932
30.6613
30.5129
30.4023
30.2895
30.2537
30.2518
30.3329
30.4281
30.5772
30.7235
30.8912
31.0524
31.2128
31.363
31.4994
31.6195
31.7149
31.7815
31.8267
31.3372
31.2761
31.2163
31.1625
31.1163
31.062
30.9932
30.9048
30.7875
30.6668
30.5312
30.4056
30.2606
30.1454
30.0246
29.9697
29.9446
29.9953
30.0654
30.1922
30.3228
30.4799
30.6343
30.7897
30.9359
31.07
31.1888
31.2851
31.3518
31.4082
30.9028
30.8559
30.8195
30.7913
30.7703
30.7435
30.7008
30.6344
30.537
30.4323
30.3095
30.1915
30.0523
29.9367
29.8132
29.7475
29.7052
29.7227
29.7627
29.8606
29.9689
30.1052
30.242
30.3816
30.516
30.6406
30.7511
30.8448
30.9091
30.9756
30.4789
30.4527
30.4471
30.4545
30.4653
30.467
30.4517
30.4072
30.3284
30.2378
30.1269
30.0167
29.8846
29.7727
29.6513
29.582
29.5292
29.5232
29.5405
29.6141
29.6986
29.8065
29.9163
30.0294
30.1387
30.24
30.3322
30.4178
30.4759
30.5505
30.1036
30.1101
30.1372
30.1753
30.2156
30.2403
30.2489
30.2261
30.1667
30.0906
29.9919
29.8891
29.7655
29.6598
29.5408
29.4661
29.4026
29.3854
29.3891
29.4452
29.5096
29.5919
29.6752
29.7624
29.8438
29.9187
29.9834
30.0478
30.09
30.1671
29.8205
29.8499
29.9043
29.9662
30.0316
30.0797
30.1094
30.1067
30.065
30.0015
29.9135
29.8182
29.7045
29.6048
29.4889
29.4091
29.3344
29.3075
29.2995
29.3383
29.3863
29.4497
29.5127
29.5777
29.6371
29.6897
29.7275
29.7691
29.7959
29.8736
29.6332
29.6784
29.7538
29.8416
29.9352
30.0067
30.0563
30.065
30.036
29.9821
29.9044
29.8187
29.7103
29.6122
29.4952
29.4107
29.3288
29.2941
29.2788
29.3048
29.3398
29.3871
29.4327
29.4773
29.5141
29.5463
29.5642
29.5898
29.6055
29.6782
29.5418
29.6061
29.7061
29.8208
29.939
30.0456
30.1071
30.1176
30.0914
30.0416
29.9677
29.8836
29.7766
29.6772
29.5572
29.4684
29.3811
29.3414
29.3237
29.3444
29.3727
29.41
29.4444
29.4759
29.4957
29.5083
29.5092
29.5197
29.5248
29.5807
29.5469
29.6476
29.7802
29.9321
30.0801
30.197
30.2563
30.264
30.2344
30.1796
30.0999
30.0104
29.9
29.7963
29.6743
29.5819
29.4912
29.4514
29.4335
29.4529
29.4802
29.515
29.5463
29.5718
29.5849
29.5884
29.5746
29.5687
29.5587
29.5933
29.7278
29.8505
30.0127
30.1962
30.3633
30.482
30.528
30.5166
30.4681
30.3969
30.302
30.2011
30.0831
29.9744
29.848
29.7509
29.6594
29.6211
29.6054
29.6283
29.6617
29.7051
29.7447
29.778
29.7982
29.806
29.7911
29.7741
29.7518
29.7755
29.9219
30.0777
30.2832
30.5044
30.6927
30.8104
30.8386
30.8047
30.7307
30.6376
30.5257
30.4123
30.2848
30.1705
30.0381
29.9378
29.8475
29.8123
29.7995
29.8246
29.8636
29.918
29.9702
30.0144
30.0424
30.0535
30.0332
29.9982
29.9575
29.9713
30.791
30.9447
31.1454
31.3462
31.4924
31.5525
31.5232
31.4304
31.2967
31.1509
30.9958
30.8505
30.6995
30.566
30.4162
30.3076
30.2189
30.1869
30.1896
30.2531
30.333
30.4307
30.5318
30.6325
30.7212
30.7902
30.821
30.8216
30.8027
30.8258
29.3509
29.6134
29.969
30.3243
30.5875
30.7138
30.7092
30.6397
30.5316
30.411
30.2799
30.1554
30.0213
29.8977
29.7448
29.6251
29.5096
29.4409
29.4088
29.4358
29.4732
29.5255
29.5805
29.6311
29.6642
29.6744
29.6361
29.5504
29.4298
29.3885
34.3969
34.2991
34.2343
34.1379
34.0418
33.9472
33.8559
33.7649
33.6576
33.5439
33.4023
33.2819
33.1711
33.1294
33.1194
33.2006
33.3076
33.4652
33.5949
33.7277
33.8153
33.9071
33.9891
34.0701
34.1413
34.1998
34.2473
34.2745
34.3044
34.3068
34.3891
34.2866
34.2282
34.1376
34.0465
33.9562
33.8673
33.7771
33.6691
33.5543
33.4116
33.2893
33.1752
33.1286
33.1118
33.1833
33.2827
33.4371
33.5699
33.7078
33.8051
33.9077
33.9931
34.0766
34.1494
34.2086
34.2568
34.2837
34.3149
34.316
34.3651
34.2582
34.2073
34.1198
34.0341
33.9486
33.8631
33.773
33.6627
33.5435
33.395
33.2705
33.1549
33.1054
33.0827
33.1462
33.2376
33.3885
33.5247
33.6693
33.772
33.8797
33.9698
34.0602
34.1376
34.1996
34.2496
34.2749
34.3077
34.3054
34.324
34.2148
34.1662
34.0775
33.9943
33.9115
33.8278
33.7364
33.6233
33.5011
33.3506
33.2258
33.1075
33.0552
33.0264
33.0825
33.1683
33.3185
33.4575
33.6081
33.7169
33.8303
33.9253
34.0194
34.1006
34.1659
34.2194
34.2458
34.2796
34.2758
34.2695
34.1629
34.1143
34.0239
33.9414
33.859
33.7749
33.6807
33.5632
33.4368
33.2842
33.1585
33.0375
32.9822
32.9478
32.9977
33.0799
33.2313
33.3726
33.5287
33.6435
33.7628
33.8633
33.9618
34.0475
34.1166
34.1739
34.2023
34.2365
34.2325
34.2027
34.1011
34.0509
33.9582
33.8751
33.791
33.7047
33.6063
33.4837
33.3521
33.197
33.0702
32.946
32.888
32.8482
32.8932
32.973
33.1263
33.27
33.4315
33.5521
33.6777
33.7843
33.8877
33.9782
34.0518
34.1135
34.1448
34.1796
34.1765
34.1241
34.0281
33.9781
33.8826
33.796
33.7076
33.6176
33.5135
33.385
33.2486
33.0902
32.9613
32.8336
32.7726
32.7275
32.7683
32.8461
33.0019
33.1475
33.3151
33.4421
33.5742
33.6874
33.7966
33.8927
33.9717
34.0383
34.0736
34.1093
34.1079
34.0328
33.9415
33.8912
33.7941
33.7038
33.6089
33.5131
33.4021
33.2669
33.1252
32.9633
32.8316
32.6997
32.6352
32.5844
32.6213
32.6971
32.8529
33.002
33.1772
33.3113
33.4507
33.5713
33.6874
33.7904
33.8758
33.9481
33.9884
34.0258
34.0256
33.9238
33.8375
33.7831
33.6842
33.592
33.4916
33.3892
33.2706
33.1279
32.9807
32.815
32.6797
32.5432
32.4743
32.4173
32.4503
32.5236
32.6765
32.8302
33.0143
33.1565
33.3042
33.4332
33.5572
33.668
33.7609
33.8398
33.8863
33.926
33.9267
33.7957
33.7127
33.6518
33.5506
33.4561
33.3522
33.2427
33.1163
32.9659
32.813
32.6433
32.5037
32.3622
32.2876
32.2241
32.2526
32.3227
32.4746
32.6303
32.8228
32.9736
33.1307
33.2689
33.4019
33.5218
33.6234
33.7095
33.7626
33.8059
33.8089
33.6461
33.5645
33.4968
33.3921
33.2948
33.1867
33.0704
32.9359
32.778
32.6197
32.4459
32.3014
32.1545
32.0733
32.0028
32.0261
32.092
32.2422
32.399
32.598
32.7586
32.9256
33.0738
33.2168
33.3468
33.4583
33.5528
33.6134
33.6611
33.6675
33.468
33.3864
33.3136
33.2058
33.1052
32.9918
32.8684
32.7262
32.5617
32.3985
32.2207
32.0715
31.9188
31.8299
31.7521
31.7693
31.8298
31.9745
32.132
32.3363
32.508
32.6849
32.8431
32.9968
33.1378
33.2604
33.3644
33.4338
33.487
33.4976
33.2562
33.1731
33.0942
32.9837
32.88
32.763
32.6334
32.4848
32.3146
32.1475
31.9663
31.813
31.6546
31.5571
31.4721
31.4825
31.5357
31.6768
31.831
32.0377
32.2195
32.4053
32.5734
32.7371
32.8894
33.024
33.1389
33.218
33.2779
33.2938
33.0032
32.9177
32.8334
32.7222
32.6166
32.4967
32.3635
32.2106
32.0368
31.8675
31.6839
31.5273
31.3633
31.2575
31.1652
31.1683
31.2122
31.3532
31.5034
31.7069
31.8928
32.0843
32.2616
32.4352
32.5975
32.7441
32.8699
32.9583
33.0263
33.0486
32.702
32.6163
32.5305
32.4218
32.3166
32.1941
32.0593
31.9047
31.7302
31.561
31.3766
31.218
31.0496
30.9367
30.8362
30.832
30.8645
31.0013
31.1492
31.348
31.53
31.7246
31.9066
32.0874
32.2602
32.4167
32.552
32.6489
32.7247
32.7549
32.3522
32.2708
32.1863
32.0806
31.9791
31.859
31.7251
31.5715
31.3993
31.2328
31.05
30.8917
30.721
30.6026
30.4933
30.4816
30.5011
30.6261
30.7675
30.9616
31.1374
31.3324
31.5174
31.7006
31.8782
32.0419
32.1844
32.2906
32.3719
32.4122
31.9573
31.8835
31.8004
31.7021
31.6091
31.4962
31.3683
31.2202
31.0552
30.8954
30.7178
30.562
30.3912
30.2683
30.1505
30.1298
30.1347
30.2432
30.3723
30.558
30.7266
30.9165
31.101
31.2842
31.4609
31.627
31.7731
31.8875
31.9729
32.0247
31.5244
31.4585
31.3819
31.2989
31.2197
31.1182
31.0042
30.8688
30.7155
30.5626
30.3907
30.2381
30.0689
29.9451
29.8251
29.7964
29.7849
29.871
29.9839
30.1562
30.3158
30.4937
30.669
30.8468
31.0202
31.1837
31.3299
31.4488
31.5365
31.6013
31.0663
31.0114
30.9507
30.89
30.8325
30.75
30.648
30.5223
30.3771
30.2286
30.0614
29.9121
29.7447
29.6248
29.5067
29.4779
29.4602
29.5334
29.6267
29.7814
29.9299
30.0907
30.2491
30.413
30.5746
30.7299
30.8697
30.9879
31.0764
31.1547
30.6031
30.5713
30.5389
30.5055
30.4621
30.3904
30.2927
30.1766
30.0421
29.903
29.745
29.6006
29.4374
29.321
29.1956
29.16
29.138
29.21
29.2936
29.4402
29.5834
29.7362
29.878
30.0243
30.1656
30.3017
30.4231
30.5294
30.6107
30.6974
30.1849
30.181
30.1653
30.1421
30.1028
30.0424
29.9604
29.8648
29.7494
29.6248
29.4804
29.3451
29.1895
29.0705
28.9321
28.8792
28.8401
28.8946
28.9671
29.1056
29.2468
29.4022
29.5401
29.6727
29.7993
29.9224
30.0298
30.125
30.1907
30.2776
29.8294
29.8322
29.8183
29.8056
29.7871
29.7532
29.6972
29.6259
29.5303
29.4223
29.2945
29.1692
29.0153
28.8887
28.7387
28.6709
28.6123
28.6386
28.6906
28.8112
28.9421
29.093
29.2295
29.3512
29.4597
29.5691
29.6715
29.7672
29.8283
29.9205
29.5169
29.5279
29.5378
29.5533
29.5648
29.5589
29.528
29.4802
29.4057
29.3156
29.1988
29.0741
28.9168
28.7823
28.6251
28.5416
28.4616
28.4649
28.5007
28.6056
28.7242
28.8652
28.9971
29.1138
29.2076
29.2878
29.3676
29.4502
29.5057
29.603
29.3054
29.3397
29.3824
29.4251
29.4637
29.4824
29.4758
29.4519
29.3958
29.3106
29.1888
29.0568
28.8992
28.7596
28.5974
28.4943
28.3917
28.3748
28.3976
28.4887
28.5984
28.732
28.8615
28.9807
29.0763
29.1482
29.2029
29.2576
29.2917
29.3778
29.2623
29.319
29.3851
29.4611
29.5257
29.5645
29.5665
29.5382
29.4746
29.3783
29.2524
29.1186
28.9616
28.8173
28.6442
28.5202
28.402
28.3661
28.38
28.4602
28.563
28.692
28.8204
28.9429
29.0449
29.1271
29.1833
29.2331
29.2626
29.3245
29.3714
29.4578
29.5533
29.6471
29.7206
29.7544
29.7447
29.6978
29.6148
29.5086
29.3802
29.2454
29.0823
28.9298
28.7486
28.6096
28.4825
28.4376
28.4447
28.517
28.614
28.739
28.8676
28.994
29.1039
29.1953
29.2659
29.3272
29.3657
29.4224
29.5871
29.692
29.8062
29.9081
29.9774
29.9922
29.963
29.9017
29.807
29.6912
29.5541
29.4142
29.2492
29.0954
28.9157
28.7745
28.639
28.5977
28.5951
28.6594
28.751
28.8696
28.9958
29.1242
29.2416
29.3453
29.4284
29.5014
29.5527
29.6215
29.788
29.9007
30.0285
30.1387
30.2105
30.2207
30.1865
30.1201
30.025
29.912
29.7794
29.6459
29.494
29.3576
29.1987
29.0733
28.936
28.902
28.8932
28.9335
29.0009
29.0954
29.2
29.3114
29.4181
29.5177
29.6008
29.6772
29.7348
29.8096
30.4132
30.5066
30.6151
30.7105
30.7759
30.7895
30.7658
30.7138
30.6365
30.5431
30.4322
30.3219
30.1976
30.0959
29.9831
29.9087
29.8166
29.8125
29.8205
29.8397
29.8729
29.9284
29.9913
30.059
30.1253
30.1901
30.2456
30.3048
30.3579
30.4306
32.5039
32.4958
32.5033
32.5046
32.4939
32.4552
32.39
32.303
32.1942
32.0709
31.9359
31.812
31.6882
31.6071
31.5307
31.5167
31.4886
31.5467
31.6291
31.7409
31.8474
31.9586
32.0611
32.1538
32.2321
32.2996
32.353
32.4108
32.4683
32.548
34.549
34.4983
34.4674
34.3791
34.2739
34.1639
34.0645
33.9816
33.8939
33.8258
33.7523
33.7397
33.7429
33.8266
33.9265
34.1236
34.276
34.4369
34.4636
34.4701
34.4214
34.3927
34.3672
34.3641
34.3742
34.3924
34.4117
34.419
34.4448
34.4348
34.5251
34.452
34.4234
34.3363
34.2443
34.1479
34.0576
33.9758
33.8828
33.8097
33.7331
33.7146
33.7084
33.7783
33.8621
34.0437
34.1888
34.3516
34.3916
34.4123
34.3796
34.3633
34.3471
34.35
34.3643
34.3856
34.4101
34.4155
34.4433
34.4297
34.4894
34.4031
34.3776
34.2918
34.2079
34.1221
34.038
33.9547
33.8591
33.7841
33.7032
33.6797
33.6639
33.722
33.7901
33.9574
34.0934
34.2576
34.3116
34.3489
34.331
34.3274
34.32
34.3296
34.3478
34.3709
34.3979
34.4018
34.4316
34.4129
34.4419
34.3503
34.3249
34.2388
34.1596
34.0777
33.9958
33.9114
33.8156
33.7398
33.6545
33.6265
33.6018
33.6513
33.7061
33.8623
33.9929
34.1605
34.2249
34.2765
34.2706
34.2778
34.2777
34.293
34.3147
34.3394
34.3684
34.3715
34.4006
34.3806
34.386
34.2936
34.2665
34.1793
34.1023
34.0212
33.9389
33.8533
33.7568
33.6806
33.5914
33.5594
33.5268
33.5707
33.6149
33.7635
33.8901
34.0633
34.1353
34.1993
34.2029
34.219
34.2247
34.2446
34.2694
34.2961
34.327
34.3306
34.3582
34.3383
34.3212
34.2308
34.1998
34.1112
34.0351
33.9532
33.8691
33.7826
33.684
33.6058
33.5139
33.4803
33.4404
33.4807
33.5161
33.66
33.7833
33.9635
34.0416
34.1164
34.1279
34.1512
34.1614
34.185
34.2126
34.2409
34.2741
34.2794
34.3054
34.2863
34.2463
34.1593
34.1228
34.0318
33.9548
33.8711
33.7847
33.6978
33.5984
33.5182
33.4237
33.3887
33.3423
33.38
33.4087
33.5496
33.6705
33.8566
33.9407
34.0253
34.0435
34.0728
34.0869
34.1133
34.1421
34.1714
34.2068
34.2147
34.2399
34.2227
34.1617
34.0774
34.0347
33.9408
33.8613
33.7752
33.6868
33.5995
33.4996
33.4183
33.3208
33.2836
33.2313
33.2668
33.2903
33.4296
33.5483
33.7388
33.8289
33.9219
33.9464
33.9814
33.9991
34.0279
34.0578
34.0881
34.1257
34.1369
34.1624
34.1481
34.0658
33.9829
33.9334
33.8361
33.7527
33.664
33.5743
33.4863
33.3852
33.3027
33.2026
33.163
33.1057
33.1383
33.1574
33.2959
33.4127
33.6071
33.7023
33.8025
33.8331
33.874
33.8954
33.9269
33.9585
33.9902
34.0303
34.046
34.0726
34.0613
33.9543
33.8714
33.8155
33.7148
33.6257
33.5336
33.4432
33.3542
33.252
33.1686
33.066
33.0245
32.9627
32.9921
33.0066
33.145
33.2597
33.4581
33.5568
33.6645
33.7005
33.7475
33.7729
33.8072
33.8406
33.8741
33.9178
33.9386
33.9668
33.9572
33.8218
33.7378
33.6759
33.573
33.4787
33.3821
33.2911
33.2008
33.0977
33.0135
32.9088
32.8657
32.7988
32.8261
32.8353
32.9742
33.0863
33.2878
33.3891
33.505
33.5461
33.599
33.6286
33.6657
33.701
33.7378
33.7854
33.8104
33.84
33.8307
33.6636
33.5777
33.5098
33.4051
33.3082
33.2081
33.1159
33.0238
32.9201
32.8356
32.7289
32.6847
32.6122
32.6384
32.6416
32.7815
32.8901
33.0941
33.1969
33.3213
33.3678
33.4258
33.4597
33.4993
33.5367
33.578
33.6281
33.6563
33.6873
33.6779
33.4755
33.3874
33.3137
33.2071
33.1094
33.008
32.915
32.8211
32.7171
32.6327
32.5244
32.4795
32.4016
32.4279
32.4243
32.5656
32.67
32.8767
32.9791
33.1115
33.1636
33.2257
33.2636
33.3053
33.3446
33.3895
33.4405
33.472
33.5046
33.4954
33.2531
33.163
33.0834
32.9753
32.8782
32.7779
32.6859
32.5908
32.487
32.4034
32.2937
32.2487
32.166
32.1932
32.1838
32.3264
32.4257
32.6367
32.7376
32.8762
32.9322
32.9974
33.0384
33.0816
33.1221
33.1668
33.219
33.2537
33.2876
33.2796
32.9918
32.9009
32.816
32.7084
32.6129
32.517
32.4268
32.3317
32.2293
32.1471
32.0369
31.9921
31.9057
31.934
31.9197
32.0653
32.1585
32.3725
32.4715
32.6152
32.6731
32.741
32.7837
32.8272
32.8671
32.9085
32.9602
32.998
33.0327
33.0267
32.6906
32.6002
32.5111
32.4076
32.3163
32.2268
32.1372
32.0435
31.9435
31.8635
31.7539
31.7103
31.6217
31.6509
31.632
31.7846
31.8716
32.0854
32.1821
32.3287
32.3877
32.4572
32.5007
32.5434
32.5803
32.6177
32.6638
32.7023
32.7379
32.7361
32.3506
32.2615
32.174
32.0784
31.9931
31.908
31.8181
31.727
31.6301
31.5521
31.4442
31.4035
31.3141
31.3446
31.3223
31.4847
31.5675
31.7827
31.8775
32.0221
32.0801
32.1504
32.1933
32.2336
32.2666
32.2998
32.3376
32.3703
32.403
32.4097
31.9792
31.8974
31.8158
31.7278
31.6443
31.5612
31.4696
31.3814
31.2896
31.2185
31.1171
31.0815
30.9925
31.0237
30.9954
31.1656
31.2456
31.4667
31.5603
31.7028
31.7561
31.8241
31.8649
31.9023
31.9304
31.9603
31.9941
32.0179
32.0396
32.0537
31.5971
31.5239
31.441
31.3535
31.2667
31.1845
31.1014
31.0253
30.9464
30.8884
30.7982
30.7702
30.6837
30.7176
30.6821
30.8528
30.9198
31.1355
31.2272
31.3697
31.4171
31.4779
31.5143
31.5472
31.5697
31.5968
31.6299
31.654
31.6671
31.6848
31.209
31.133
31.0416
30.9532
30.8772
30.8093
30.7474
30.6922
30.6314
30.588
30.5103
30.4912
30.4099
30.4519
30.4121
30.5828
30.6296
30.8294
30.9084
31.0409
31.0766
31.1203
31.1414
31.1639
31.1795
31.2027
31.235
31.2668
31.2797
31.3106
30.7947
30.7175
30.6382
30.5699
30.521
30.4778
30.4379
30.4029
30.3604
30.3322
30.2672
30.2581
30.1856
30.2393
30.1952
30.3711
30.4029
30.5901
30.6501
30.7659
30.7849
30.8067
30.8021
30.8019
30.7992
30.8054
30.8233
30.8497
30.862
30.9093
30.3959
30.3379
30.2908
30.255
30.2319
30.21
30.1909
30.1757
30.1504
30.1374
30.0859
30.0877
30.0255
30.0896
30.0431
30.2279
30.2481
30.4248
30.4697
30.5731
30.5774
30.5799
30.5534
30.5236
30.4914
30.4704
30.461
30.466
30.4646
30.5146
30.0898
30.0593
30.0397
30.0296
30.0277
30.0256
30.0248
30.0271
30.0179
30.0197
29.9839
29.9944
29.9372
30.0127
29.9657
30.1619
30.1738
30.3433
30.3766
30.4655
30.4615
30.4511
30.4074
30.354
30.2897
30.2382
30.2011
30.1851
30.1647
30.2037
29.9106
29.8985
29.9016
29.9111
29.9243
29.9388
29.9537
29.9738
29.9817
29.9977
29.972
29.9819
29.9295
30.0165
29.9713
30.181
30.1866
30.3541
30.3808
30.452
30.4502
30.4347
30.3778
30.3086
30.2216
30.1358
30.0659
30.0272
29.9888
30.0146
29.8747
29.8724
29.8913
29.9119
29.9416
29.9726
30.0057
30.0438
30.0629
30.0775
30.052
30.0597
30.0102
30.1095
30.0654
30.2907
30.2921
30.459
30.4835
30.5508
30.5535
30.5367
30.4747
30.3974
30.2993
30.1979
30.0983
30.0223
29.9601
29.9674
30.0335
30.031
30.0564
30.0825
30.1217
30.1658
30.2076
30.2427
30.2553
30.2613
30.2327
30.2374
30.1863
30.2943
30.2478
30.4931
30.4924
30.664
30.6917
30.766
30.7712
30.7627
30.7028
30.6238
30.523
30.4145
30.3043
30.2172
30.138
30.1219
30.4022
30.3985
30.4242
30.4482
30.4828
30.5181
30.5461
30.5658
30.5614
30.5521
30.5137
30.509
30.452
30.5633
30.5137
30.7867
30.7877
30.9715
31.009
31.0959
31.1047
31.1155
31.0684
31.0005
30.9075
30.8045
30.6938
30.602
30.5135
30.4868
30.9594
30.9467
30.9623
30.9732
30.9904
31.003
31.0032
30.9943
30.9646
30.9327
30.8751
30.8558
30.7922
30.909
30.8585
31.1698
31.1789
31.382
31.4352
31.5397
31.5621
31.5903
31.5658
31.5207
31.4454
31.359
31.26
31.1719
31.081
31.0464
31.7694
31.7355
31.7198
31.6988
31.6781
31.65
31.6097
31.5605
31.4939
31.4305
31.3469
31.312
31.2391
31.3648
31.3181
31.6789
31.7069
31.9402
32.0169
32.1489
32.1994
32.2505
32.2576
32.244
32.1972
32.1372
32.0618
31.9905
31.9084
31.8695
33.043
32.96
32.8812
32.7927
32.6998
32.5967
32.4818
32.361
32.2292
32.1109
31.982
31.9174
31.8217
31.947
31.9031
32.3171
32.3694
32.6508
32.7639
32.9428
33.0463
33.1561
33.2218
33.2686
33.2852
33.2869
33.2658
33.2416
33.1964
33.171
34.8491
34.8405
34.8336
34.7628
34.6688
34.5679
34.4743
34.4073
34.3373
34.3143
34.2816
34.3196
34.3625
34.504
34.652
34.9151
35.098
35.2709
35.2288
35.1663
35.0411
34.9453
34.8584
34.8048
34.7709
34.7526
34.7452
34.734
34.743
34.7171
34.7969
34.7659
34.7603
34.6909
34.6067
34.5159
34.4311
34.3667
34.2978
34.2734
34.2371
34.2665
34.2977
34.4206
34.5485
34.7897
34.9588
35.1291
35.1069
35.0658
34.9648
34.887
34.8135
34.7688
34.7409
34.7256
34.7208
34.7069
34.7191
34.6844
34.7378
34.691
34.6868
34.6179
34.5422
34.4599
34.3817
34.3181
34.2486
34.2207
34.1778
34.2001
34.2187
34.3242
34.4298
34.6494
34.8039
34.9738
34.9726
34.9557
34.8779
34.8193
34.7597
34.7247
34.7033
34.6916
34.6898
34.6746
34.6897
34.6504
34.6834
34.6284
34.622
34.5516
34.4802
34.4019
34.3261
34.262
34.1923
34.162
34.1125
34.1296
34.1373
34.23
34.3165
34.5197
34.664
34.8361
34.8492
34.8509
34.7909
34.7479
34.7
34.6736
34.658
34.6497
34.6511
34.6364
34.6516
34.6139
34.6309
34.572
34.5623
34.4895
34.4197
34.3425
34.2664
34.2031
34.1337
34.102
34.0462
34.06
34.0588
34.1433
34.2136
34.4044
34.5396
34.7166
34.7394
34.7566
34.7096
34.6788
34.64
34.6206
34.6095
34.6044
34.6094
34.5964
34.6109
34.5763
34.5767
34.517
34.5029
34.4276
34.3577
34.2797
34.2021
34.1407
34.072
34.0397
33.9781
33.9912
33.9824
34.0626
34.1199
34.3013
34.4281
34.6107
34.6406
34.6708
34.6336
34.6119
34.58
34.5659
34.5581
34.5556
34.5641
34.5531
34.5666
34.535
34.5181
34.4591
34.4398
34.3625
34.2919
34.2112
34.1321
34.0728
34.0064
33.9739
33.9085
33.9222
33.9084
33.9862
34.0336
34.2084
34.3273
34.5145
34.5508
34.5914
34.5611
34.5458
34.5186
34.5082
34.5023
34.5015
34.5128
34.5042
34.5163
34.487
34.4527
34.3944
34.3699
34.2911
34.2196
34.1353
34.0543
33.9981
33.9366
33.9049
33.8375
33.852
33.8357
33.912
33.9512
34.1208
34.2324
34.4233
34.4664
34.5154
34.4891
34.4778
34.4538
34.4455
34.4398
34.4395
34.4528
34.4465
34.4575
34.4297
34.3783
34.3199
34.2906
34.2106
34.1382
34.0515
33.9693
33.9167
33.8616
33.8322
33.764
33.7804
33.7613
33.8363
33.868
34.0332
34.1377
34.3322
34.3812
34.4386
34.4143
34.4051
34.383
34.3753
34.3688
34.3681
34.3827
34.3783
34.3886
34.3612
34.292
34.2324
34.1987
34.118
34.0443
33.9565
33.8758
33.8275
33.7791
33.7535
33.6866
33.705
33.681
33.7553
33.7794
33.9401
34.0374
34.2354
34.2898
34.3567
34.3334
34.3249
34.3033
34.2953
34.287
34.2851
34.3
34.2972
34.3073
34.2789
34.1907
34.1288
34.0912
34.01
33.9353
33.8471
33.7708
33.7281
33.6871
33.6662
33.6022
33.6207
33.5925
33.6657
33.6811
33.837
33.9262
34.1277
34.1884
34.2656
34.2438
34.2347
34.2127
34.2035
34.1925
34.1884
34.202
34.2005
34.2107
34.1805
34.0715
34.0063
33.9657
33.8839
33.8085
33.7212
33.6515
33.6163
33.5834
33.5683
33.5073
33.5254
33.495
33.5647
33.5696
33.72
33.8002
34.0055
34.0721
34.1618
34.1424
34.1325
34.1092
34.0979
34.0834
34.0758
34.0861
34.0856
34.096
34.064
33.9319
33.8628
33.8197
33.7375
33.6614
33.5772
33.5159
33.4907
33.4667
33.4593
33.4001
33.4198
33.3859
33.4502
33.4423
33.587
33.6571
33.8666
33.9379
34.0425
34.0267
34.0165
33.9912
33.9773
33.9582
33.945
33.9503
33.9502
33.9609
33.928
33.7697
33.6967
33.6513
33.5693
33.4929
33.4149
33.3637
33.3508
33.3371
33.338
33.2799
33.3036
33.2634
33.3219
33.2978
33.4371
33.4962
33.7101
33.7843
33.9058
33.895
33.8857
33.8579
33.8403
33.8154
33.7947
33.7936
33.7927
33.8034
33.771
33.5838
33.5073
33.4594
33.3784
33.3037
33.2354
33.1966
33.1973
33.1959
33.2013
33.1471
33.1767
33.1279
33.1806
33.1381
33.2708
33.3181
33.5361
33.6104
33.7506
33.7461
33.7389
33.7083
33.6859
33.6537
33.6251
33.6167
33.6127
33.6221
33.5925
33.3734
33.2942
33.2437
33.164
33.0962
33.0416
33.0176
33.033
33.043
33.05
33.0063
33.0398
32.9812
33.0284
32.9667
33.0914
33.1243
33.346
33.42
33.5772
33.5803
33.5756
33.5422
33.5138
33.4734
33.4369
33.42
33.411
33.4174
33.3928
33.1392
33.0571
33.0032
32.9293
32.8751
32.8379
32.8311
32.8629
32.8793
32.8904
32.8608
32.8959
32.8263
32.8691
32.7872
32.905
32.92
33.1429
33.2169
33.3866
33.3991
33.3968
33.3601
33.3244
33.2751
33.2298
33.2029
33.188
33.1905
33.1726
32.8807
32.7945
32.7427
32.6838
32.6467
32.6312
32.6428
32.6891
32.7084
32.7312
32.7117
32.7489
32.6669
32.7068
32.6043
32.7176
32.7136
32.935
33.0054
33.1843
33.2067
33.2076
33.1676
33.1233
33.0634
33.0065
32.9651
32.9423
32.94
32.9306
32.5968
32.5178
32.4785
32.4395
32.4218
32.4278
32.4597
32.5141
32.5388
32.5793
32.5651
32.605
32.5094
32.5478
32.4229
32.5339
32.512
32.7323
32.796
32.9809
33.0132
33.0189
32.9765
32.923
32.8516
32.7807
32.7213
32.6838
32.669
32.6629
32.3127
32.2506
32.2287
32.2101
32.2128
32.2387
32.2878
32.3482
32.386
32.4425
32.4301
32.4719
32.3615
32.3995
32.2502
32.3613
32.3215
32.5417
32.5977
32.7859
32.8282
32.8407
32.7963
32.7359
32.6534
32.5682
32.4916
32.4354
32.4013
32.3925
32.0581
32.0122
32.007
32.0092
32.0325
32.0769
32.1379
32.2069
32.263
32.3294
32.3159
32.3576
32.2316
32.2696
32.0938
32.2077
32.15
32.3719
32.4198
32.608
32.6594
32.6811
32.6361
32.5721
32.4798
32.3807
32.2885
32.2154
32.1631
32.1488
31.8488
31.8203
31.8305
31.8511
31.8948
31.9556
32.0264
32.1066
32.1791
32.2486
32.2307
32.2694
32.1274
32.1653
31.9608
32.0814
32.0046
32.2319
32.2723
32.4593
32.5175
32.5516
32.5091
32.4447
32.3447
32.2328
32.1255
32.0365
31.9681
31.9456
31.7044
31.6928
31.7168
31.7548
31.814
31.8905
31.9685
32.0617
32.143
32.21
32.182
32.2147
32.0539
32.0921
31.8566
31.989
31.8925
32.1297
32.1639
32.3516
32.4108
32.4609
32.4249
32.3626
32.2622
32.1434
32.0221
31.9179
31.8353
31.8023
31.6458
31.6436
31.6817
31.7335
31.8015
31.8839
31.9657
32.0783
32.1576
32.2154
32.1743
32.1975
32.0133
32.0535
31.7844
31.9348
31.8195
32.0737
32.1008
32.2909
32.3491
32.4164
32.3935
32.3374
32.2394
32.1181
31.9921
31.8803
31.7829
31.7386
31.6936
31.6939
31.7431
31.7996
31.8756
31.9604
32.0488
32.163
32.2244
32.263
32.2063
32.2169
32.0064
32.0505
31.7447
31.9206
31.7869
32.0602
32.0849
32.2833
32.3414
32.4227
32.4195
32.3811
32.2959
32.1797
32.0539
31.9384
31.8338
31.7759
31.8578
31.8542
31.9037
31.9626
32.0391
32.1236
32.2076
32.3029
32.337
32.3515
32.2757
32.2712
32.031
32.0801
31.7361
31.947
31.7911
32.0864
32.1135
32.3186
32.3878
32.4841
32.5042
32.4919
32.4247
32.328
32.2077
32.0948
31.9947
31.9348
32.1364
32.1295
32.1769
32.2343
32.3028
32.3725
32.4331
32.4931
32.4912
32.4786
32.378
32.3561
32.0842
32.1394
31.7555
32.0145
31.834
32.162
32.1915
32.4083
32.4935
32.6062
32.6532
32.6703
32.6313
32.5629
32.4646
32.3613
32.2686
32.2121
32.5385
32.5307
32.5705
32.611
32.6546
32.6916
32.7137
32.7251
32.6832
32.6391
32.507
32.4647
32.1602
32.2235
31.8017
32.1221
31.9262
32.2872
32.3215
32.5553
32.6596
32.7907
32.8684
32.9173
32.9203
32.8857
32.8231
32.7421
32.6639
32.6166
33.0837
33.0671
33.0758
33.0763
33.073
33.0609
33.0327
32.9945
32.908
32.8259
32.6551
32.5888
32.2521
32.3259
31.8733
32.2615
32.0668
32.4559
32.4974
32.7571
32.8827
33.0386
33.1565
33.2474
33.2955
33.31
33.2912
33.2527
33.2041
33.1711
33.7854
33.7388
33.6946
33.635
33.5664
33.4876
33.3926
33.2903
33.1494
33.0228
32.8029
32.7065
32.3411
32.4271
31.9539
32.4083
32.2334
32.6517
32.7019
32.9911
33.1404
33.3344
33.4964
33.6421
33.7495
33.8263
33.8689
33.889
33.8876
33.886
35.2437
35.2442
35.2422
35.181
35.0997
35.0115
34.9281
34.8749
34.8116
34.8109
34.7932
34.8575
34.9181
35.1456
35.3936
35.8675
36.2492
36.5455
36.43
36.255
35.958
35.7241
35.5215
35.3834
35.2855
35.2221
35.1814
35.144
35.1295
35.0888
35.1724
35.1551
35.1574
35.0989
35.0278
34.9492
34.8751
34.8267
34.7674
34.7691
34.7511
34.8105
34.8619
35.069
35.2905
35.7296
36.09
36.3836
36.291
36.1411
35.877
35.6667
35.4782
35.3489
35.2567
35.1938
35.1533
35.1115
35.0991
35.045
35.092
35.0618
35.0666
35.01
34.9475
34.8774
34.8114
34.7667
34.7092
34.7112
34.6893
34.7446
34.7849
34.9747
35.168
35.5743
35.9109
36.2029
36.136
36.0175
35.7835
35.5959
35.422
35.3022
35.2153
35.1543
35.115
35.0706
35.0602
35.0004
35.0289
34.9924
34.9952
34.9379
34.8798
34.8142
34.7523
34.7097
34.6527
34.6551
34.6284
34.6818
34.7117
34.8898
35.0578
35.4388
35.7558
36.0497
36.0033
35.908
35.6966
35.5276
35.3647
35.2534
35.1719
35.1131
35.0754
35.0308