/*--------------------------------*- C++ -*----------------------------------*\
  =========                 |
  \\      /  F ield         | OpenFOAM: The Open Source CFD Toolbox
   \\    /   O peration     | Website:  https://openfoam.org
    \\  /    A nd           | Version:  12
     \\/     M anipulation  |
\*---------------------------------------------------------------------------*/
FoamFile
{
    format      ascii;
    class       volScalarField;
    location    "300/air";
    object      alphat;
}
// * * * * * * * * * * * * * * * * * * * * * * * * * * * * * * * * * * * * * //

dimensions      [1 -1 -1 0 0 0 0];

internalField   nonuniform List<scalar> 
243000
(
0.000178079
0.000179036
0.000175352
0.000169431
0.000162243
0.000154302
0.000145847
0.000137096
0.000128092
0.000119089
0.000110292
0.000101755
9.15177e-05
9.15724e-05
0.000126873
0.000150616
0.000166928
0.000178832
0.000184471
0.000182993
0.00017821
0.00017362
0.000168975
0.000164564
0.000160578
0.000156943
0.000154155
0.000151858
0.000154129
0.000158399
0.000714289
0.00069587
0.000667198
0.000635055
0.000602413
0.000569791
0.000537349
0.000505621
0.000474555
0.000445131
0.000417385
0.000392241
0.00036246
0.000393284
0.000508897
0.000588155
0.000644779
0.000688637
0.000710479
0.000705335
0.000688245
0.000672145
0.000655884
0.000641579
0.000629328
0.000619235
0.000612702
0.000609196
0.000618819
0.000637817
0.000948132
0.000958083
0.00095265
0.000940078
0.000923752
0.000904005
0.000880786
0.00085482
0.000826008
0.000796096
0.000764907
0.000734536
0.000695422
0.000782667
0.000975746
0.00110993
0.00120245
0.00126751
0.0012911
0.0012655
0.00121479
0.00116294
0.00110942
0.00105813
0.00100959
0.000964422
0.000924635
0.000890304
0.000871995
0.000868004
0.0010168
0.00102651
0.00102106
0.00100859
0.000992082
0.000971958
0.000948251
0.000921783
0.000892558
0.000862355
0.000830712
0.000799946
0.000763979
0.000871729
0.00105529
0.00118545
0.00127674
0.00134001
0.00136417
0.00134169
0.00129218
0.00124082
0.0011877
0.0011365
0.00108785
0.00104264
0.00100283
0.000969297
0.000950895
0.000949385
0.00106839
0.0010778
0.00107285
0.001061
0.00104484
0.00102483
0.00100112
0.00097462
0.000945397
0.000915136
0.000883181
0.000852134
0.000820408
0.000941774
0.00111336
0.00123731
0.00132559
0.00138594
0.00140995
0.00139113
0.00134398
0.00129438
0.00124289
0.00119294
0.00114527
0.00110099
0.00106206
0.00102992
0.00101195
0.00101232
0.00110989
0.00111899
0.00111459
0.00110337
0.00108761
0.00106781
0.00104426
0.00101789
0.000988809
0.000958542
0.000926296
0.000895096
0.000868461
0.00099833
0.00115726
0.00127416
0.00135853
0.00141583
0.00143928
0.0014242
0.00138011
0.00133299
0.00128377
0.00123569
0.0011896
0.00114681
0.00110924
0.00107874
0.0010615
0.00106313
0.00114514
0.0011539
0.00114984
0.00113907
0.00112357
0.0011039
0.00108045
0.0010542
0.00102524
0.000994885
0.000962288
0.000931018
0.000910236
0.00104448
0.00119106
0.00130081
0.00138097
0.00143538
0.00145815
0.00144673
0.0014061
0.0013619
0.00131536
0.0012695
0.00122537
0.00118438
0.00114846
0.0011197
0.00110335
0.00110582
0.00117638
0.00118469
0.00118069
0.00117007
0.0011546
0.00113489
0.00111142
0.00108517
0.00105621
0.00102558
0.000992496
0.00096117
0.000946943
0.00108219
0.00121728
0.00132015
0.00139615
0.00144798
0.00147015
0.00146219
0.00142532
0.0013843
0.00134065
0.00129728
0.00125535
0.00121636
0.00118225
0.00115526
0.0011399
0.00114294
0.00120491
0.00121255
0.00120831
0.00119756
0.00118188
0.00116191
0.00113823
0.00111181
0.00108265
0.00105154
0.00101775
0.000986262
0.000979534
0.00111268
0.00123753
0.00133401
0.00140609
0.00145562
0.00147743
0.00147266
0.00143985
0.0014021
0.00136152
0.00132082
0.00128124
0.00124438
0.0012122
0.00118695
0.00117261
0.001176
0.00123133
0.00123811
0.00123339
0.00122224
0.00120609
0.00118564
0.00116156
0.00113477
0.00110518
0.00107333
0.00103859
0.00100679
0.0010083
0.001137
0.00125286
0.00134351
0.00141197
0.00145948
0.00148124
0.00147942
0.00145087
0.00141646
0.00137906
0.00134115
0.00130404
0.00126938
0.00123915
0.00121562
0.00120235
0.00120593
0.00125592
0.00126163
0.00125623
0.00124445
0.0012276
0.00120646
0.00118179
0.00115443
0.00112417
0.00109131
0.00105534
0.00102325
0.00103302
0.00115614
0.00126395
0.00134934
0.0014144
0.00146046
0.00148219
0.00148321
0.00145895
0.00142802
0.00139383
0.00135878
0.00132416
0.00129174
0.00126353
0.00124176
0.00122962
0.00123334
0.00127868
0.00128314
0.00127689
0.00126429
0.00124655
0.00122455
0.00119911
0.00117099
0.00113986
0.00110579
0.00106833
0.00103632
0.00105364
0.00117066
0.0012712
0.00135186
0.00141432
0.00145918
0.00148102
0.00148445
0.00146442
0.00143698
0.00140604
0.00137379
0.00134172
0.00131161
0.00128553
0.00126557
0.00125468
0.00125851
0.00129943
0.00130248
0.00129524
0.00128167
0.0012629
0.00123992
0.00121358
0.00118454
0.00115234
0.0011169
0.00107804
0.00104783
0.00107227
0.00118113
0.00127493
0.00135151
0.00141133
0.00145506
0.00147724
0.00148294
0.0014673
0.00144341
0.00141559
0.00138615
0.00135666
0.00132897
0.00130511
0.00128707
0.00127751
0.00128143
0.0013178
0.00131932
0.00131102
0.00129638
0.0012765
0.00125244
0.00122506
0.00119489
0.00116137
0.00112447
0.00108546
0.00105988
0.00108965
0.00118988
0.00127564
0.00134824
0.00140562
0.00144848
0.00147107
0.00147896
0.00146701
0.00144692
0.00142233
0.00139573
0.00136882
0.00134361
0.0013221
0.00130608
0.0012979
0.00130188
0.00133334
0.00133324
0.00132386
0.00130811
0.00128703
0.00126181
0.00123336
0.00120207
0.00116731
0.00112971
0.00109351
0.00107207
0.00110568
0.00119799
0.00127702
0.00134433
0.00139794
0.00143953
0.00146242
0.00147223
0.00146382
0.00144693
0.00142581
0.00140217
0.00137804
0.00135527
0.00133619
0.00132224
0.00131548
0.00131945
0.00134545
0.00134381
0.0013333
0.00131636
0.0012942
0.00126795
0.00123846
0.00120627
0.00117123
0.00113547
0.00110182
0.0010841
0.00112028
0.00120539
0.00127849
0.00134119
0.00139169
0.00143072
0.00145261
0.00146292
0.00145743
0.00144365
0.00142536
0.00140502
0.00138377
0.00136369
0.00134696
0.00133511
0.00132974
0.00133364
0.00135357
0.00135044
0.00133886
0.00132094
0.00129782
0.00127081
0.00124063
0.00120914
0.00117549
0.00114136
0.00111005
0.00109573
0.00113341
0.00121194
0.00127981
0.00133846
0.00138621
0.001423
0.00144412
0.0014545
0.00145001
0.00143769
0.00142164
0.00140385
0.0013855
0.00136829
0.00135406
0.00134419
0.00134013
0.00134391
0.0013572
0.00135276
0.00134041
0.00132181
0.00129811
0.00127185
0.00124268
0.00121212
0.00117971
0.00114707
0.00111795
0.00110674
0.00114511
0.00121743
0.00128075
0.00133578
0.00138103
0.00141592
0.00143645
0.00144683
0.0014433
0.00143252
0.00141786
0.00140119
0.0013839
0.0013687
0.001357
0.00134908
0.0013461
0.0013497
0.00135606
0.0013506
0.00133862
0.00132098
0.00129826
0.00127272
0.00124449
0.00121484
0.0011836
0.00115238
0.00112533
0.00111697
0.00115526
0.00122182
0.001281
0.00133284
0.0013758
0.00140906
0.00142909
0.00143943
0.00143678
0.0014275
0.00141404
0.00139852
0.00138241
0.00136816
0.00135685
0.00134935
0.00134724
0.00135067
0.00135259
0.00134773
0.00133656
0.00131974
0.00129795
0.00127312
0.00124582
0.00121708
0.00118696
0.00115713
0.00113207
0.00112627
0.00116381
0.00122499
0.00128043
0.00132935
0.00137019
0.00140201
0.00142161
0.00143189
0.00143003
0.00142212
0.00140986
0.0013954
0.00138048
0.00136712
0.00135627
0.00134894
0.00134607
0.00134771
0.00134879
0.00134416
0.00133371
0.00131767
0.00129682
0.00127286
0.00124645
0.00121864
0.00118964
0.00116122
0.00113803
0.00113454
0.00117076
0.00122693
0.00127872
0.00132504
0.00136392
0.00139441
0.00141359
0.00142381
0.00142268
0.00141596
0.00140491
0.0013915
0.0013777
0.00136514
0.00135477
0.0013476
0.00134417
0.00134437
0.00134393
0.00133935
0.00132959
0.00131443
0.00129462
0.00127165
0.00124628
0.0012194
0.00119154
0.00116453
0.00114312
0.00114168
0.0011761
0.00122728
0.00127569
0.00131963
0.00135666
0.00138592
0.00140469
0.00141485
0.00141436
0.00140871
0.00139884
0.00138656
0.00137375
0.00136191
0.001352
0.00134497
0.00134098
0.00134003
0.00133748
0.00133294
0.00132383
0.00130974
0.00129112
0.00126926
0.00124503
0.0012193
0.00119259
0.00116702
0.0011473
0.00114755
0.00117977
0.00122618
0.00127136
0.00131273
0.00134814
0.00137623
0.00139457
0.00140462
0.00140474
0.00140006
0.00139131
0.00138017
0.00136835
0.00135715
0.00134764
0.00134062
0.00133605
0.0013341
0.00132901
0.00132461
0.00131629
0.00130328
0.00128605
0.00126551
0.0012426
0.00121815
0.00119279
0.00116866
0.00115059
0.00115206
0.00118166
0.0012237
0.00126552
0.00130431
0.0013381
0.00136507
0.00138291
0.0013928
0.00139348
0.00138972
0.00138204
0.00137198
0.00136112
0.00135054
0.00134129
0.00133418
0.001329
0.00132611
0.00131814
0.0013141
0.00130674
0.00129497
0.00127918
0.00126022
0.00123887
0.00121591
0.00119209
0.00116958
0.00115312
0.0011553
0.00118186
0.00121978
0.00125826
0.00129442
0.00132641
0.0013523
0.00136954
0.00137912
0.00138028
0.00137737
0.00137079
0.00136181
0.00135183
0.00134182
0.00133274
0.00132529
0.00131942
0.00131563
0.00130455
0.00130114
0.00129502
0.0012847
0.0012706
0.0012534
0.00123392
0.00121276
0.00119087
0.0011704
0.00115559
0.0011581
0.00118145
0.00121531
0.00125034
0.0012837
0.0013136
0.00133823
0.00135459
0.00136365
0.00136514
0.00136296
0.00135743
0.00134952
0.00134038
0.00133085
0.00132183
0.00131392
0.00130713
0.0013023
0.00128837
0.001286
0.00128149
0.00127304
0.00126108
0.00124609
0.00122924
0.00121082
0.00119164
0.00117354
0.0011612
0.00116382
0.00118424
0.00121387
0.00124513
0.00127515
0.00130225
0.00132497
0.00133983
0.00134789
0.00134933
0.00134755
0.00134281
0.0013358
0.00132732
0.00131811
0.00130894
0.00130034
0.00129242
0.00128639
0.00127235
0.001272
0.00127015
0.00126487
0.00125656
0.00124589
0.00123334
0.00121963
0.00120529
0.00119198
0.00118344
0.00118676
0.00120431
0.00122943
0.00125569
0.00128075
0.00130348
0.00132212
0.00133372
0.0013394
0.00133996
0.00133773
0.00133295
0.00132604
0.0013175
0.00130792
0.00129796
0.00128802
0.00127838
0.00127062
0.00128757
0.00129201
0.00129594
0.00129755
0.00129725
0.00129561
0.00129288
0.00128851
0.00128314
0.00127787
0.00127491
0.00127895
0.00129181
0.00130917
0.00132644
0.00134233
0.00135636
0.00136743
0.00137245
0.00137361
0.0013716
0.00136751
0.00136144
0.00135351
0.00134388
0.00133289
0.00132102
0.00130865
0.00129634
0.00128592
0.00152329
0.00153286
0.0015417
0.00154945
0.00155625
0.00156203
0.00156662
0.00156571
0.00156261
0.00155797
0.00155255
0.00154863
0.00154782
0.00154859
0.00154805
0.00154896
0.00155146
0.00155446
0.00155187
0.00155105
0.00155196
0.00155387
0.0015555
0.00155612
0.00155523
0.00155216
0.00154634
0.00153882
0.00153029
0.00152188
0.00022987
0.000229495
0.000222922
0.00021392
0.000203539
0.000192404
0.000180767
0.00016905
0.000157421
0.000146824
0.000138002
0.000133739
0.000135791
0.000154765
0.000180912
0.000205732
0.000225229
0.000241101
0.000248579
0.000245532
0.000239555
0.00023326
0.000227028
0.000221432
0.000216736
0.000212968
0.000210424
0.000208368
0.000209183
0.000211629
0.00122471
0.00121913
0.00113433
0.00104201
0.000960785
0.000887351
0.000821293
0.000766075
0.000720568
0.000687987
0.000660347
0.000648703
0.000651664
0.000708171
0.00082044
0.00094405
0.00104075
0.00113699
0.00117772
0.00113758
0.00109043
0.00104809
0.00100789
0.000977166
0.000954188
0.0009371
0.000924296
0.000908574
0.000894991
0.000903942
0.00220406
0.00229498
0.00220338
0.00205745
0.00190897
0.00176584
0.00163373
0.00152187
0.00143005
0.0013628
0.00130538
0.00127553
0.00126221
0.00136152
0.00156131
0.00177783
0.00194239
0.00210134
0.00218748
0.00213636
0.00205667
0.00198441
0.00191684
0.00186473
0.0018249
0.00179175
0.0017672
0.00174204
0.00172286
0.00176038
0.00307712
0.0032554
0.00318407
0.00301559
0.00282059
0.00262157
0.00243215
0.00226878
0.0021346
0.00203372
0.00194985
0.00190253
0.00187376
0.00201518
0.00227207
0.00254905
0.00275973
0.00295378
0.00308167
0.00304085
0.00294661
0.00286043
0.00278033
0.00271787
0.00266702
0.00262589
0.00259456
0.00256584
0.00254483
0.00261299
0.00386481
0.0041011
0.00405206
0.00387659
0.00365285
0.00341394
0.00318048
0.00297604
0.00280605
0.00267842
0.00257302
0.00251268
0.00247204
0.00265066
0.00293902
0.00324999
0.00349029
0.00370231
0.00386547
0.00384819
0.00375455
0.00366765
0.00358621
0.00352071
0.00346387
0.0034182
0.00338331
0.00335389
0.003334
0.00342966
0.00458015
0.00483624
0.0048194
0.00464126
0.00439746
0.00413234
0.00386867
0.00363356
0.00343731
0.00328984
0.00316827
0.00310002
0.00305772
0.00326118
0.00356151
0.00388767
0.00414519
0.00436701
0.00455817
0.00457265
0.00449166
0.00441355
0.00433794
0.00427302
0.00421335
0.00416693
0.00413069
0.00410301
0.00408667
0.00420473
0.00524464
0.00549992
0.00548867
0.00531031
0.005057
0.00477631
0.00449403
0.00423862
0.00402516
0.00386398
0.00373121
0.00365937
0.0036285
0.00383964
0.00413943
0.00446797
0.00473427
0.004962
0.00517423
0.00522517
0.00516558
0.00510258
0.00503657
0.0049725
0.00491803
0.00487469
0.00483965
0.00481603
0.00480529
0.00494047
0.0058625
0.00609267
0.00607041
0.00589073
0.00563544
0.00534864
0.00505697
0.00478989
0.00456665
0.00439703
0.00425695
0.00418588
0.00417071
0.00438062
0.00467141
0.00499385
0.00526385
0.00549504
0.0057217
0.00581099
0.00577846
0.00573409
0.00567834
0.00562538
0.00558069
0.00554362
0.0055122
0.00549564
0.00549307
0.00564065
0.00643618
0.00661624
0.00657287
0.00639162
0.00613879
0.00585233
0.00555823
0.00528664
0.00505927
0.00488625
0.00474168
0.00467523
0.00467579
0.00487869
0.00515491
0.00546576
0.0057361
0.00596979
0.00620428
0.00633068
0.00632832
0.00630375
0.00626453
0.00623175
0.00619963
0.00617213
0.00614833
0.00613024
0.00612809
0.00626985
0.00694605
0.0070691
0.0070029
0.00682128
0.00657296
0.00628998
0.00599864
0.00572825
0.00550121
0.00532908
0.00518234
0.00512203
0.00513763
0.00532866
0.00558687
0.00588259
0.00615023
0.00638737
0.00662346
0.00678209
0.00681109
0.00680833
0.00679782
0.00678552
0.00677003
0.00674568
0.00671571
0.00669369
0.0066913
0.00680598
0.00738119
0.00745278
0.00736738
0.00718508
0.00694141
0.00666451
0.00637965
0.00611462
0.00589139
0.00572307
0.00557632
0.00552458
0.00555658
0.00572596
0.00596426
0.00624267
0.00650524
0.00674598
0.00698053
0.00716198
0.00722436
0.00725213
0.00726961
0.00727822
0.00726183
0.00723323
0.0072019
0.00718025
0.00717257
0.0072702
0.00774686
0.00777136
0.00767034
0.00748672
0.00724778
0.00697855
0.00670268
0.00644587
0.00622936
0.00606582
0.0059208
0.00587175
0.005917
0.0060656
0.00628456
0.00654437
0.00679993
0.00704357
0.00727439
0.00746966
0.00756691
0.00762861
0.00766971
0.00767796
0.00766244
0.00763614
0.00760882
0.0075873
0.00758522
0.00766362
0.00804334
0.00802926
0.00791415
0.00772881
0.00749468
0.00723413
0.00696887
0.00672226
0.0065141
0.00635749
0.00621328
0.00615573
0.00620864
0.00634619
0.0065459
0.00678638
0.00703355
0.00727793
0.00750461
0.00770603
0.00784024
0.00793063
0.00797598
0.00798916
0.00798014
0.0079611
0.00794024
0.00792611
0.00792935
0.00798724
0.00827225
0.00822728
0.00809984
0.00791288
0.00768381
0.00743271
0.00717923
0.00694415
0.00674487
0.00659285
0.00644387
0.00637024
0.00642493
0.00656804
0.00674643
0.00696747
0.00720583
0.00744633
0.00767101
0.00787193
0.00804121
0.00814493
0.00819878
0.00822173
0.00822285
0.00821395
0.00820346
0.00819843
0.00820479
0.00824201
0.00843475
0.00836532
0.00822754
0.00803952
0.00781604
0.0075753
0.00733483
0.00711241
0.00692121
0.00676985
0.00660643
0.00652306
0.00657015
0.00670492
0.0068689
0.00707841
0.00730698
0.00754575
0.00777018
0.00797111
0.00816289
0.00827865
0.00834628
0.00838229
0.00839563
0.00839817
0.00839982
0.00840343
0.00841142
0.00842859
0.00853177
0.00844309
0.00829676
0.00810842
0.00789135
0.0076624
0.00743685
0.00722852
0.00704067
0.00687268
0.00670079
0.00661201
0.00664798
0.00676579
0.00690969
0.00710109
0.00731937
0.00756149
0.00779597
0.00799712
0.00819699
0.0083347
0.00842122
0.00847423
0.00850184
0.00851603
0.00852879
0.00854101
0.00854949
0.00854779
0.00856438
0.00846036
0.00830583
0.00811754
0.00790774
0.00769331
0.0074857
0.00727823
0.00708138
0.00690335
0.0067282
0.00663622
0.00665726
0.00675202
0.00687106
0.00703935
0.00724194
0.00748391
0.00772066
0.00792884
0.00814705
0.00831226
0.00841997
0.00849692
0.00854508
0.00857176
0.00859251
0.0086124
0.00862029
0.0086014
0.0085339
0.00841738
0.00825777
0.00807422
0.00787379
0.00765849
0.0074504
0.00724684
0.00704628
0.00686567
0.00669105
0.00659662
0.00659939
0.00666728
0.00675834
0.0069004
0.00708338
0.00732423
0.00755841
0.00776815
0.00799242
0.00817906
0.00832294
0.0084342
0.00851351
0.00856088
0.00859779
0.00862268
0.00862754
0.00859435
0.00844678
0.00832307
0.00815846
0.00796663
0.00776151
0.00754996
0.0073447
0.00714281
0.00694334
0.00676435
0.00659305
0.00649562
0.00647801
0.00651713
0.00657884
0.00669311
0.00685631
0.00709256
0.00731367
0.00751869
0.007745
0.00794429
0.00810767
0.00824217
0.00835309
0.00843958
0.0085121
0.00856
0.0085709
0.00853818
0.00829904
0.00815171
0.00797805
0.00778303
0.00757851
0.00737538
0.00717672
0.00697833
0.00678015
0.00660641
0.00643803
0.00633748
0.00629821
0.0063084
0.00634091
0.00642709
0.00657183
0.00678808
0.0069919
0.00719472
0.00741885
0.00763079
0.00781048
0.00796488
0.0080948
0.00820346
0.00829526
0.00836204
0.00839765
0.00839577
0.00804226
0.00788174
0.00771091
0.00752599
0.00733226
0.00714207
0.00695223
0.00675803
0.00656425
0.00639806
0.00623034
0.00612715
0.00606596
0.00604844
0.00605315
0.00611193
0.00623715
0.00642459
0.00661287
0.00680897
0.00702856
0.00724693
0.00744219
0.00761285
0.00775922
0.00788426
0.00799082
0.00807065
0.00811859
0.00813664
0.00767821
0.00751743
0.0073634
0.00719851
0.00703003
0.00685539
0.00667476
0.00648705
0.00630307
0.0061432
0.00597386
0.00586891
0.00578718
0.00574429
0.00572385
0.00575685
0.0058582
0.00601924
0.00618928
0.0063746
0.00658753
0.00680718
0.00701417
0.00719698
0.00735612
0.00749292
0.00760856
0.00769734
0.00775267
0.00778297
0.00723804
0.00709017
0.00695567
0.00682078
0.00667796
0.00651744
0.00634818
0.00617428
0.00600069
0.00584313
0.0056711
0.00556484
0.00546675
0.00540186
0.00536023
0.00537066
0.005449
0.00558362
0.00573318
0.00590422
0.0061082
0.00632477
0.00653665
0.00672631
0.00689375
0.00703845
0.00715984
0.00725335
0.00731305
0.00734537
0.00674111
0.00661636
0.00651153
0.0064032
0.00627571
0.00613595
0.005983
0.00582022
0.00565474
0.00549606
0.00532275
0.00521215
0.00510784
0.00502551
0.00496832
0.00496149
0.00502307
0.00512883
0.00525499
0.00540985
0.00560164
0.00581122
0.00601654
0.00620524
0.00637542
0.00652489
0.00665072
0.00674879
0.00681086
0.00684509
0.00620465
0.00611648
0.00603304
0.00594432
0.00583733
0.00571349
0.00557291
0.00541855
0.00525686
0.00509657
0.00492535
0.0048101
0.00470959
0.00461972
0.00455498
0.00453872
0.00458401
0.00466617
0.00477251
0.00490481
0.00507757
0.00527475
0.00547471
0.00566332
0.005832
0.00597616
0.00609367
0.00618472
0.00625081
0.00629114
0.00563954
0.00558395
0.00551977
0.00544659
0.00535231
0.00523891
0.00510622
0.00495755
0.00479934
0.00464038
0.00447998
0.004369
0.00427599
0.00419747
0.00413598
0.00411959
0.00415099
0.00421304
0.00429514
0.00440614
0.00455398
0.00472967
0.00491583
0.00509627
0.00526059
0.00540098
0.00551443
0.00560253
0.00566136
0.00569469
0.00504005
0.00500407
0.00495687
0.00489406
0.00480908
0.00470419
0.00458108
0.00444333
0.0042974
0.00415322
0.00401979
0.00392776
0.00385512
0.00379581
0.00375239
0.00374082
0.00376377
0.00380998
0.00387036
0.00395377
0.00406731
0.00420725
0.0043645
0.00452293
0.00466849
0.00479511
0.00489996
0.00498093
0.00503324
0.00506502
0.00439735
0.00437933
0.0043487
0.00430042
0.00423294
0.00415038
0.00405492
0.00394933
0.00383787
0.00373098
0.003639
0.00357833
0.00353272
0.00349463
0.00346764
0.00345934
0.00347739
0.00351208
0.00354836
0.00360029
0.00367475
0.00376997
0.00388489
0.00400539
0.00411208
0.00420457
0.00428127
0.00433943
0.0043779
0.00440224
0.00381761
0.003826
0.00382334
0.00380312
0.003768
0.00372355
0.00367056
0.00360989
0.00354202
0.0034746
0.00341651
0.00337611
0.00334291
0.00331282
0.00329675
0.00330424
0.00332749
0.00335911
0.00338166
0.00340648
0.00344331
0.00348386
0.00352805
0.00358832
0.00364664
0.00369996
0.00374512
0.00377759
0.0037989
0.00381516
0.00338833
0.00341815
0.00343744
0.00344261
0.00343856
0.00342875
0.00341252
0.0033908
0.00335984
0.00333231
0.0033092
0.00329153
0.003276
0.00326398
0.00326516
0.0032881
0.00332014
0.0033554
0.00338011
0.00339753
0.00341439
0.00342619
0.00343433
0.0034454
0.00345539
0.00345952
0.0034565
0.00344409
0.00342043
0.00339133
0.000261862
0.000261783
0.000254781
0.000245131
0.000233829
0.000221599
0.000208826
0.000196186
0.000184004
0.000173719
0.000166086
0.00016665
0.000177336
0.000199851
0.000225853
0.000251287
0.000272138
0.000289865
0.000297056
0.000291873
0.00028391
0.000275557
0.000267607
0.000260629
0.000254924
0.000250577
0.000247646
0.000244971
0.000243926
0.00024378
0.00158212
0.0016474
0.00156511
0.00145694
0.00135298
0.0012537
0.00116253
0.00108589
0.0010233
0.000977927
0.000936431
0.000932548
0.000960982
0.00108246
0.00124343
0.00141747
0.0015435
0.00166667
0.00171498
0.00163545
0.00154903
0.00147072
0.00139816
0.00134374
0.00130623
0.0012816
0.00126323
0.00123562
0.00119497
0.00118155
0.00295539
0.00317851
0.00310825
0.0029343
0.0027412
0.00254777
0.00236631
0.00221385
0.00209222
0.00200379
0.00192513
0.00190448
0.00193114
0.00213698
0.00240806
0.00269988
0.00289535
0.00308396
0.00318997
0.00307639
0.00293085
0.00279877
0.00268069
0.0025942
0.00253728
0.00250129
0.00247477
0.00243372
0.00237849
0.00240158
0.00423377
0.00456933
0.00452896
0.00431942
0.00406186
0.00379456
0.0035391
0.00332282
0.00315235
0.00302525
0.002918
0.00287668
0.00290168
0.003164
0.0034926
0.00384584
0.0040785
0.00429466
0.00445004
0.00433363
0.00416086
0.00400527
0.00387173
0.00377805
0.00372009
0.00368583
0.00366048
0.00361761
0.00356856
0.0036383
0.00542442
0.00582271
0.00579951
0.00556712
0.00526679
0.00494759
0.00463873
0.00437405
0.00416566
0.00400708
0.00387881
0.00382203
0.00384562
0.00414031
0.00449042
0.00486712
0.00511786
0.00534376
0.0055383
0.00543948
0.00526465
0.0051097
0.00498239
0.00489803
0.0048495
0.00482176
0.00479833
0.00475938
0.00472313
0.00484379
0.00652338
0.00694637
0.00692286
0.00667192
0.00634859
0.00599802
0.00565418
0.00535733
0.00512256
0.00494009
0.00480664
0.0047349
0.00475423
0.00505981
0.00540994
0.00578648
0.00604324
0.00627308
0.00649749
0.00643076
0.0062732
0.0061362
0.00602897
0.0059627
0.00592718
0.00590407
0.00588716
0.00586254
0.00584271
0.00600498
0.00753182
0.0079531
0.00792655
0.00766655
0.00731794
0.00694429
0.0065815
0.00626716
0.00601909
0.00582771
0.00569451
0.00560806
0.00561901
0.00591979
0.00625605
0.00661865
0.00687575
0.00710645
0.00735441
0.00732936
0.00720264
0.00709489
0.00701511
0.00697025
0.00694629
0.00693917
0.00693589
0.00692976
0.00693065
0.00712462
0.0084845
0.00885102
0.00878467
0.00851499
0.00816738
0.00779048
0.00742081
0.00709963
0.00684736
0.00664516
0.00651162
0.0064298
0.00643484
0.00671565
0.00702967
0.00737117
0.00762687
0.00785655
0.00812269
0.0081447
0.00805711
0.00798433
0.0079345
0.00791284
0.00791834
0.00793396
0.00794585
0.00795774
0.0079829
0.00819968
0.00936255
0.00963241
0.00952341
0.00925181
0.00891118
0.00853899
0.00817148
0.0078518
0.00760147
0.00739344
0.00725307
0.00717597
0.00719322
0.00744156
0.00772937
0.00804677
0.00830104
0.00852911
0.00880792
0.00887844
0.00883394
0.0087967
0.0087849
0.00880637
0.00883942
0.00887828
0.00890873
0.00892799
0.00894857
0.00913011
0.0101129
0.0102951
0.0101553
0.00988773
0.00955712
0.00919315
0.0088336
0.00852105
0.00827805
0.00806818
0.00792382
0.00784066
0.00788876
0.00809102
0.00835294
0.00864542
0.00889823
0.00912602
0.009411
0.00952862
0.00952765
0.00953372
0.00957309
0.00963333
0.00969362
0.00972919
0.00974391
0.0097527
0.00976341
0.00992246
0.0107513
0.0108488
0.0106919
0.0104322
0.0101095
0.00975597
0.00940868
0.0091068
0.00887484
0.00866536
0.00851966
0.00842993
0.00848957
0.00866912
0.00889746
0.00916532
0.00941574
0.00964659
0.00993076
0.0100912
0.0101351
0.0101958
0.0102801
0.0103513
0.0103966
0.0104216
0.0104304
0.0104369
0.0104627
0.0106007
0.011284
0.0113063
0.0111434
0.0108876
0.0105726
0.0102315
0.00989906
0.00960999
0.00939057
0.00918246
0.00903719
0.00894331
0.00900119
0.00916736
0.00935909
0.00960297
0.00985021
0.0100871
0.0103643
0.0105642
0.0106599
0.0107671
0.0108529
0.0109166
0.0109599
0.010985
0.0110013
0.0110206
0.0110567
0.0111698
0.011713
0.0116814
0.0115112
0.0112574
0.0109507
0.0106232
0.0103068
0.0100316
0.00982457
0.00961771
0.00947283
0.00937739
0.00942854
0.00956418
0.00973241
0.00995234
0.0101968
0.0104411
0.0107072
0.0109417
0.0110916
0.0112095
0.0112955
0.0113641
0.0114157
0.01145
0.0114766
0.0115066
0.0115486
0.0116357
0.0120443
0.011976
0.0117968
0.0115442
0.0112464
0.0109332
0.0106334
0.010372
0.0101763
0.00996845
0.00982215
0.00972584
0.00976243
0.00986726
0.0100073
0.0102039
0.0104392
0.0106989
0.0109551
0.0112229
0.0114118
0.0115338
0.0116316
0.0117124
0.011776
0.0118198
0.0118571
0.0118968
0.0119421
0.0120036
0.0122836
0.0121882
0.0120003
0.0117492
0.0114611
0.0111628
0.0108793
0.0106304
0.0104434
0.0102299
0.0100783
0.00998125
0.00999489
0.010065
0.0101719
0.0103417
0.0105731
0.010846
0.011099
0.011384
0.0115994
0.0117476
0.0118668
0.0119642
0.0120394
0.0120949
0.0121436
0.0121927
0.0122399
0.0122772
0.0124335
0.0123162
0.0121201
0.0118715
0.0115944
0.0113111
0.0110433
0.0108042
0.0106152
0.0103959
0.0102399
0.0101392
0.010123
0.0101549
0.0102248
0.0103641
0.010586
0.0108654
0.0111221
0.0114184
0.0116698
0.0118509
0.0119982
0.0121141
0.0122045
0.0122751
0.0123367
0.0123956
0.0124443
0.0124595
0.0124948
0.0123571
0.0121528
0.0119078
0.0116438
0.0113742
0.0111154
0.0108844
0.0106893
0.0104657
0.0103062
0.0101951
0.0101445
0.0101354
0.0101654
0.0102706
0.0104783
0.0107537
0.0110188
0.0113213
0.0116033
0.0118284
0.0120127
0.0121544
0.0122679
0.0123591
0.0124365
0.0125068
0.0125581
0.0125549
0.0124662
0.0123044
0.0120907
0.0118493
0.0115971
0.0113404
0.0110919
0.0108688
0.0106639
0.0104374
0.0102763
0.0101448
0.010058
0.0100057
0.00999369
0.0100617
0.0102504
0.0105206
0.0107869
0.0110941
0.0113956
0.0116618
0.0118877
0.0120695
0.0122192
0.0123439
0.0124439
0.012528
0.0125849
0.0125737
0.0123632
0.0121709
0.0119447
0.011702
0.0114523
0.0112088
0.0109726
0.0107541
0.0105371
0.010309
0.0101446
0.00998746
0.00986251
0.00976604
0.00971119
0.00973978
0.0099054
0.0101554
0.0104227
0.0107346
0.0110393
0.011341
0.0116146
0.0118428
0.0120323
0.0121945
0.0123316
0.0124422
0.0125146
0.0125171
0.0121604
0.0119433
0.0117047
0.0114628
0.0112171
0.0109813
0.0107554
0.0105353
0.0103067
0.0100772
0.00990516
0.00972277
0.00955818
0.0094183
0.00932162
0.00931022
0.00944656
0.00967219
0.00993523
0.010247
0.0105559
0.0108758
0.0111672
0.0114346
0.011666
0.0118626
0.0120314
0.0121642
0.0122546
0.0122994
0.0118283
0.0115942
0.0113597
0.0111225
0.0108822
0.0106558
0.0104328
0.0102093
0.00996985
0.00973822
0.00955296
0.00935031
0.00914689
0.00896722
0.00883171
0.00878231
0.00888425
0.00908147
0.00933435
0.00963709
0.00995177
0.0102836
0.0106002
0.0108931
0.0111541
0.0113815
0.0115822
0.0117526
0.0118746
0.011956
0.0113332
0.0111029
0.0108925
0.0106688
0.0104408
0.0102211
0.00999993
0.00977178
0.00952374
0.00928871
0.00908591
0.00886921
0.00863385
0.0084207
0.00825209
0.00816938
0.00823366
0.00840064
0.00863517
0.00892113
0.00923757
0.00957387
0.00991555
0.0102312
0.0105181
0.0107715
0.0110007
0.0112033
0.0113627
0.0114757
0.0106873
0.0104945
0.0103033
0.0100959
0.00988415
0.00967196
0.00945214
0.00921904
0.00896724
0.00872706
0.00850571
0.00828034
0.00802932
0.00779151
0.00759865
0.00748868
0.0075169
0.00765698
0.00787287
0.00812911
0.00843068
0.00876683
0.00911663
0.00945415
0.00975687
0.0100261
0.010275
0.0105068
0.0107005
0.010841
0.00992206
0.00976616
0.00958949
0.00940273
0.00920821
0.00900491
0.00878724
0.00855224
0.00830111
0.00805721
0.00782301
0.00759468
0.00734492
0.0070995
0.00689391
0.00676417
0.0067749
0.00690902
0.00710067
0.00732306
0.00758336
0.00788719
0.00823046
0.00857644
0.00888087
0.00916604
0.00942159
0.0096581
0.00987097
0.0100387
0.00901827
0.00890686
0.00875043
0.00859016
0.00841519
0.00822328
0.00801169
0.0077806
0.00753554
0.0072952
0.00706179
0.00683971
0.00660523
0.0063723
0.00617015
0.00604417
0.0060723
0.00619829
0.00636417
0.00655055
0.0067641
0.00700887
0.00729405
0.00762671
0.00794193
0.00823474
0.00849374
0.00872861
0.00893429
0.00909895
0.00801376
0.00792596
0.00780544
0.0076716
0.00751771
0.00734274
0.00714613
0.00693069
0.00670401
0.00648077
0.00626564
0.00606653
0.00585795
0.00565013
0.00548375
0.00540262
0.00545001
0.00557069
0.00571126
0.00586235
0.00602745
0.00621084
0.0064192
0.00665867
0.00694915
0.0072321
0.00747955
0.00770597
0.00789929
0.00805294
0.00692942
0.00687435
0.00678991
0.00668671
0.00656157
0.00641563
0.0062496
0.00606775
0.00587693
0.00568754
0.00550645
0.00534393
0.00516444
0.00501383
0.00491684
0.00488035
0.00494326
0.00506235
0.00518262
0.0053021
0.00542153
0.00554543
0.00568251
0.00583487
0.00600773
0.00621167
0.0064328
0.00663694
0.00680005
0.00693282
0.00586528
0.00584718
0.00580098
0.00573479
0.00564858
0.00554531
0.00542478
0.00529159
0.00514881
0.00500046
0.00485377
0.0047269
0.0046218
0.00452798
0.00448392
0.00449039
0.004575
0.00469684
0.00480696
0.00490238
0.00498562
0.00504941
0.00511682
0.00519927
0.00529006
0.00538069
0.00547902
0.00559092
0.00571571
0.00583718
0.00489223
0.00489725
0.00489609
0.00487474
0.00483691
0.0047833
0.00471271
0.00462988
0.00453749
0.00444326
0.00435228
0.00427885
0.00421648
0.00417503
0.00418195
0.00424704
0.00437539
0.00452026
0.00464652
0.00473783
0.00478918
0.00479489
0.00478307
0.00477824
0.00478368
0.00479648
0.00481487
0.00483639
0.00485889
0.00488983
0.00429103
0.00426623
0.00424893
0.004234
0.0042142
0.00418971
0.00415955
0.00412255
0.00407664
0.00403507
0.00400012
0.00397953
0.00397586
0.00401057
0.00410368
0.00427192
0.00448497
0.00470617
0.00489725
0.00502383
0.00507074
0.00503666
0.00495473
0.00485282
0.00474742
0.00464715
0.00455729
0.00447713
0.00440278
0.00433193