/*--------------------------------*- C++ -*----------------------------------*\
  =========                 |
  \\      /  F ield         | OpenFOAM: The Open Source CFD Toolbox
   \\    /   O peration     | Website:  https://openfoam.org
    \\  /    A nd           | Version:  12
     \\/     M anipulation  |
\*---------------------------------------------------------------------------*/
FoamFile
{
    format      ascii;
    class       volScalarField;
    location    "300/air";
    object      epsilon;
}
// * * * * * * * * * * * * * * * * * * * * * * * * * * * * * * * * * * * * * //

dimensions      [0 2 -3 0 0 0 0];

internalField   nonuniform List<scalar> 
243000
(
4.14754
4.90298
5.34229
5.56507
5.61135
5.50515
5.25761
4.89146
4.41989
3.88715
3.33245
2.78042
2.12251
2.3743
6.23115
10.202
13.5601
16.0584
16.7288
15.2973
13.0525
11.0194
9.17082
7.56891
6.22295
5.09759
4.20833
3.48512
3.1432
2.93301
3.29593
3.54513
3.62497
3.61023
3.53897
3.41502
3.23921
3.02311
2.76965
2.50347
2.2301
1.97243
1.64055
2.30684
4.88146
7.40755
9.5383
11.1971
11.679
10.7107
9.19877
7.82668
6.56933
5.49613
4.59196
3.83964
3.24135
2.76145
2.49835
2.35298
3.96799
4.09417
4.02701
3.87207
3.67615
3.44727
3.18975
2.91712
2.63298
2.3587
2.0931
1.85637
1.5894
2.37804
4.44333
6.44209
8.14106
9.49535
10.0052
9.40884
8.31472
7.29578
6.33932
5.50514
4.78495
4.17264
3.67816
3.28549
3.0902
3.05115
4.89386
5.03738
4.96062
4.78419
4.55601
4.28665
3.98233
3.65985
3.32426
3.00031
2.68395
2.40242
2.12051
3.2657
5.60817
7.84306
9.74049
11.2171
11.8014
11.2121
10.0085
8.86347
7.77906
6.82141
5.98584
5.27173
4.69175
4.23919
4.00623
3.99064
5.67854
5.83365
5.75742
5.57223
5.32455
5.02697
4.68819
4.32782
3.9522
3.58753
3.22791
2.90881
2.64048
4.09647
6.5757
8.91643
10.9022
12.4127
13.0349
12.5026
11.2674
10.0678
8.9196
7.89239
6.98685
6.20893
5.57453
5.08634
4.82901
4.83739
6.36939
6.53268
6.46011
6.27061
6.00871
5.68904
5.32296
4.93225
4.52403
4.12449
3.72684
3.37652
3.14871
4.8574
7.37725
9.73917
11.7404
13.2407
13.8758
13.4264
12.2123
11.0065
9.83804
8.77874
7.83561
7.02136
6.35493
5.84768
5.57589
5.60411
7.00101
7.16952
7.09833
6.90396
6.62866
6.2889
5.8988
5.48175
5.04508
4.61377
4.18141
3.80499
3.64381
5.54008
8.03855
10.3687
12.3416
13.8094
14.445
14.09
12.9321
11.7539
10.5952
9.52996
8.57266
7.74162
7.0594
6.5446
6.26571
6.30981
7.59727
7.76652
7.69196
7.48923
7.1985
6.83793
6.42442
5.98234
5.51888
5.05669
4.59118
4.19226
4.12246
6.14029
8.58005
10.8472
12.7671
14.1934
14.8249
14.5677
13.4907
12.3627
11.235
10.1836
9.22918
8.39585
7.7098
7.19548
6.91513
6.97162
8.17275
8.33679
8.25318
8.03721
7.72727
7.34349
6.90527
6.43773
5.94716
5.45341
4.95466
4.53563
4.57874
6.65736
9.01712
11.204
13.0586
14.4408
15.0702
14.908
13.932
12.8685
11.7877
10.7651
9.82663
9.00202
8.32119
7.81281
7.53511
7.60074
8.73339
8.88615
8.78788
8.55338
8.21964
7.80915
7.34402
6.84939
6.33011
5.8029
5.26967
4.83292
5.00256
7.09447
9.36074
11.4589
13.2429
14.582
15.2137
15.1426
14.2813
13.2932
12.2716
11.2891
10.3767
9.56918
8.90058
8.40319
8.13222
8.2047
9.28001
9.41493
9.29679
9.03849
8.67623
8.23536
7.7407
7.21681
6.66662
6.10369
5.53416
5.08411
5.38305
7.4538
9.61784
11.6241
13.3338
14.6356
15.2727
15.2895
14.5505
13.6481
12.6941
11.7601
10.8818
10.099
9.44987
8.96907
8.70943
8.78807
9.80877
9.91879
9.776
9.48908
9.09407
8.6197
8.09316
7.53775
6.95454
6.35491
5.74801
5.2935
5.71107
7.73558
9.79229
11.7061
13.3501
14.6214
15.2631
15.3575
14.744
13.9343
13.0541
12.1752
11.3388
10.589
9.96713
9.50905
9.26609
9.35037
10.3105
10.3891
10.2176
9.89815
9.46729
8.95734
8.39709
7.80843
7.19049
6.55323
5.91251
5.47847
6.00475
7.94254
9.88713
11.7116
13.2895
14.5273
15.1771
15.3435
14.861
14.1477
13.3455
12.5279
11.7414
11.033
10.4465
10.0179
9.7964
9.88556
10.7716
10.8134
10.6101
10.2558
9.78748
9.24106
8.64588
8.02183
7.36632
6.69289
6.04124
5.67572
6.2884
8.10583
9.91174
11.6414
13.1496
14.3567
15.0166
15.2503
14.8849
14.2785
13.5609
12.8109
12.0803
11.4211
10.8782
10.4856
10.2897
10.3826
11.175
11.1757
10.9397
10.5497
10.0429
9.45938
8.83022
8.17331
7.48489
6.79227
6.18245
5.87955
6.55765
8.26178
9.93869
11.5425
12.9479
14.1146
14.7794
15.0706
14.8131
14.3082
13.6853
13.0118
12.346
11.7408
11.2486
10.8978
10.7307
10.8257
11.5
11.4593
11.1899
10.7635
10.2224
9.60723
8.94761
8.26523
7.56628
6.90192
6.32986
6.08496
6.80904
8.40717
9.96975
11.4652
12.7827
13.8648
14.4956
14.8106
14.6444
14.233
13.6985
13.1141
12.5219
11.9798
11.5416
11.2373
11.101
11.1961
11.7262
11.6451
11.3436
10.8876
10.3181
9.68053
9.00131
8.3307
7.65499
7.01517
6.47782
6.28737
7.03923
8.53804
9.99876
11.3989
12.6382
13.6497
14.2546
14.5644
14.4306
14.0705
13.6106
13.1013
12.5899
12.1208
11.7423
11.4856
11.3804
11.4733
11.8356
11.7178
11.394
10.9184
10.3331
9.71148
9.05294
8.3986
7.74343
7.12633
6.62179
6.48261
7.24693
8.64992
10.0197
11.3341
12.5022
13.4549
14.0392
14.3435
14.24
13.9298
13.508
13.0335
12.5557
12.1494
11.8359
11.6267
11.5491
11.6378
11.8189
11.6736
11.3561
10.9052
10.3439
9.73843
9.09917
8.46119
7.8257
7.23093
6.75811
6.66692
7.42983
8.7396
10.0251
11.2625
12.3654
13.268
13.834
14.1328
14.0568
13.7919
13.4052
12.9662
12.5243
12.1413
11.8394
11.6485
11.5925
11.676
11.7337
11.6051
11.3106
10.881
10.3428
9.75383
9.13421
8.51352
7.89764
7.32568
6.88383
6.83696
7.58587
8.80375
10.0116
11.1769
12.2193
13.0769
13.6253
13.9194
13.8678
13.6431
13.2922
12.8866
12.4796
12.1196
11.8309
11.6437
11.5685
11.6062
11.6405
11.5184
11.2444
10.836
10.3219
9.75325
9.15343
8.55143
7.95596
7.40789
6.99642
6.98955
7.71316
8.84005
9.97291
11.0707
12.056
12.8712
13.4025
13.6921
13.662
13.4724
13.1585
12.785
12.4105
12.0729
11.7983
11.6146
11.5252
11.5264
11.5198
11.3995
11.146
10.7613
10.2748
9.73051
9.15423
8.5716
7.99823
7.4754
7.09394
7.12147
7.81086
8.84289
9.90284
10.9373
11.8679
12.6423
13.1562
13.4409
13.4298
13.2713
12.9939
12.6551
12.3092
11.9925
11.732
11.5514
11.4481
11.4206
11.3585
11.24
11.0057
10.6509
10.1962
9.68031
9.13106
8.57304
8.02287
7.52666
7.17495
7.22956
7.87562
8.81565
9.80096
10.7692
11.6487
12.3827
12.8781
13.1565
13.1624
13.0325
12.7899
12.4861
12.1691
11.8721
11.624
11.4439
11.3265
11.2743
11.147
11.033
10.8214
10.4977
10.0803
9.59855
9.08118
8.55218
8.02954
7.56104
7.23896
7.31157
7.90429
8.75789
9.66521
10.564
11.3931
12.0866
12.5611
12.8306
12.8519
12.7489
12.5399
12.2693
11.9809
11.7032
11.4648
11.2834
11.1515
11.0766
10.8774
10.7737
10.5892
10.3004
9.92223
9.48173
9.00262
8.50779
8.01803
7.58063
7.28783
7.369
7.90102
8.6697
9.49788
10.3254
11.0988
11.7522
12.202
12.4584
12.4923
12.4142
12.2385
12.0013
11.74
11.4806
11.2498
11.062
10.9146
10.8184
10.5449
10.4586
10.3074
10.0584
9.72542
9.3303
8.89708
8.44374
7.99492
7.59707
7.33397
7.416
7.88558
8.56913
9.31621
10.069
10.7794
11.389
11.8067
12.0441
12.0858
12.0289
11.8848
11.6804
11.4455
11.2029
10.9773
10.781
10.6133
10.4937
10.1566
10.0966
9.98706
9.78682
9.5087
9.16829
8.79595
8.40305
8.0096
7.65703
7.43635
7.51671
7.92835
8.52901
9.19219
9.8625
10.4977
11.0492
11.4204
11.6271
11.6669
11.6222
11.5021
11.3253
11.1127
10.8835
10.6589
10.4495
10.2582
10.1131
9.7779
9.76588
9.7198
9.59507
9.40228
9.15878
8.87897
8.58111
8.28
8.01326
7.85631
7.94729
8.31376
8.83802
9.40664
9.97296
10.5067
10.9593
11.2475
11.3925
11.4098
11.3556
11.2373
11.0675
10.8583
10.6252
10.3861
10.1498
9.92244
9.74097
10.1088
10.2104
10.3002
10.3329
10.3187
10.2712
10.1973
10.0856
9.95377
9.83142
9.77114
9.88283
10.193
10.6069
11.0274
11.4259
11.7837
12.0669
12.2
12.2342
12.1854
12.0812
11.9257
11.724
11.481
11.2065
10.9148
10.6136
10.3176
10.0711
16.5995
16.9126
17.2042
17.4598
17.6826
17.872
18.023
17.9819
17.8671
17.7046
17.5215
17.3972
17.376
17.4034
17.3884
17.4269
17.5092
17.5776
17.4841
17.4612
17.4976
17.5665
17.6264
17.6523
17.629
17.5357
17.3548
17.1081
16.8271
16.5535
8.96911
10.38
11.032
11.2589
11.1394
10.7342
10.072
9.23447
8.27346
7.368
6.63788
6.48768
7.21459
11.0438
17.7471
25.8494
33.1982
39.2686
40.8551
36.8662
31.6358
26.6632
22.1923
18.4018
15.277
12.725
10.6992
9.00341
7.86247
7.01131
6.00517
6.2282
6.51933
6.71108
6.74574
6.63359
6.39072
6.04971
5.6523
5.29652
5.07551
5.26514
6.20478
8.94835
12.8429
17.1323
20.9081
23.8047
24.6106
22.6508
19.9526
17.2486
14.7561
12.5754
10.7344
9.19549
7.96163
6.91779
6.28209
5.84064
5.62029
5.47415
5.59607
5.74242
5.82184
5.80871
5.70299
5.5237
5.30045
5.11116
5.04406
5.35863
6.41142
8.75894
11.7859
14.9669
17.7357
19.7929
20.3263
18.9636
17.0128
14.9804
13.0589
11.3363
9.85266
8.59899
7.57861
6.70831
6.19041
5.84252
5.50364
5.21892
5.26412
5.37502
5.4648
5.4948
5.4592
5.36665
5.2387
5.14355
5.15881
5.54556
6.63565
8.66843
11.1819
13.731
15.9317
17.532
17.9021
16.8772
15.3428
13.6961
12.1064
10.6573
9.39339
8.30212
7.40243
6.63603
6.15541
5.83164
5.45413
5.13761
5.14413
5.23051
5.31633
5.36344
5.36541
5.32406
5.2582
5.21935
5.2878
5.71501
6.79258
8.55469
10.6892
12.7971
14.6002
15.891
16.1512
15.3538
14.1005
12.725
11.375
10.1298
9.03145
8.06794
7.25844
6.56999
6.10329
5.7863
5.45286
5.16451
5.13302
5.20156
5.27951
5.32873
5.34698
5.33536
5.3067
5.30221
5.4055
5.85395
6.87273
8.41241
10.2515
12.031
13.5368
14.605
14.7913
14.1582
13.1111
11.9425
10.7804
9.69951
8.7344
7.87144
7.13338
6.50367
6.04557
5.73213
5.48682
5.24207
5.20182
5.25373
5.31655
5.35813
5.37845
5.37971
5.36988
5.3843
5.50872
5.96388
6.89063
8.25759
9.86184
11.3919
12.6723
13.5792
13.72
13.2119
12.3257
11.322
10.313
9.37024
8.50353
7.71879
7.03677
6.4508
6.00101
5.69219
5.56055
5.3687
5.33119
5.36766
5.4096
5.43499
5.447
5.44856
5.44405
5.46534
5.60031
6.04794
6.87748
8.10467
9.52138
10.8614
11.9717
12.7627
12.882
12.4738
11.7194
10.8512
9.97061
9.12925
8.3385
7.61507
6.97664
6.42246
5.9814
5.67862
5.67235
5.53897
5.50858
5.52851
5.54571
5.54894
5.54483
5.53688
5.52744
5.54537
5.68169
6.1084
6.84892
7.96382
9.23099
10.4263
11.4099
12.1183
12.2355
11.9106
11.2689
10.5152
9.73686
8.96672
8.23691
7.5615
6.95495
6.43328
6.01099
5.72636
5.83148
5.74837
5.7231
5.72365
5.71371
5.69155
5.66555
5.64047
5.6182
5.6239
5.75245
6.14844
6.80979
7.84133
8.98947
10.0748
10.966
11.6143
11.7449
11.4914
10.9497
10.2921
9.58358
8.87428
8.19211
7.56067
6.99645
6.50639
6.10349
5.85149
6.04026
5.98864
5.96257
5.94205
5.9042
5.85418
5.80231
5.75483
5.71376
5.70046
5.81168
6.16562
6.79315
7.74074
8.7944
9.79571
10.6201
11.2251
11.3788
11.1879
10.7333
10.1481
9.49881
8.84045
8.21561
7.63392
7.10287
6.63706
6.25884
6.02746
6.28169
6.24781
6.21533
6.17274
6.10688
6.02797
5.94816
5.87523
5.8123
5.77246
5.86063
6.18844
6.78259
7.66524
8.64396
9.58093
10.3564
10.9297
11.111
10.9752
10.5932
10.0642
9.46927
8.8775
8.30564
7.76238
7.25829
6.81624
6.45516
6.24203
6.54011
6.51286
6.46968
6.40478
6.31169
6.20429
6.09618
5.99698
5.91166
5.85846
5.92552
6.23449
6.78025
7.6174
8.54003
9.42726
10.165
10.7136
10.921
10.8321
10.5055
10.0278
9.49945
8.96472
8.43527
7.92409
7.44509
7.02318
6.67837
6.48164
6.80018
6.77095
6.71446
6.62808
6.50956
6.37539
6.24033
6.11629
6.01061
5.94571
6.00026
6.2904
6.80793
7.60218
8.49405
9.34117
10.0453
10.5723
10.7961
10.7455
10.4581
10.0363
9.56479
9.075
8.58144
8.09907
7.64391
7.24078
6.9143
6.73115
7.04786
7.01094
6.94025
6.83438
6.69336
6.5356
6.3771
6.23245
6.1118
6.04085
6.08703
6.36395
6.87858
7.65506
8.52274
9.34353
10.024
10.5151
10.7377
10.7114
10.4491
10.0775
9.64546
9.19044
8.72758
8.2718
7.83925
7.45618
7.14852
6.9755
7.27184
7.22484
7.14074
7.0184
6.85933
6.68349
6.50799
6.35163
6.22583
6.15291
6.19188
6.46482
6.99093
7.76808
8.62796
9.43361
10.0958
10.5582
10.7683
10.7491
10.5012
10.148
9.73646
9.30363
8.86453
8.43222
8.02192
7.65808
7.3682
7.20155
7.46514
7.40891
7.31426
7.18047
7.01015
6.82584
6.64422
6.48563
6.3604
6.28725
6.32286
6.60262
7.1531
7.94595
8.81236
9.61404
10.2645
10.7027
10.9007
10.8803
10.6279
10.2662
9.85324
9.4219
8.99259
8.57687
8.18642
7.83967
7.56423
7.4
7.62772
7.56621
7.46726
7.33116
7.16057
6.97924
6.80082
6.64443
6.52247
6.45181
6.49037
6.78747
7.37435
8.19544
9.08047
9.88719
10.5315
10.9484
11.1369
11.1087
10.842
10.4601
10.0265
9.57805
9.13418
8.71546
8.33454
8.00085
7.73404
7.56803
7.77168
7.71391
7.62251
7.49511
7.33348
7.15915
6.98808
6.83842
6.72314
6.65818
6.70733
7.03159
7.66566
8.52535
9.43896
10.2579
10.901
11.2998
11.4805
11.4409
11.1524
10.7392
10.2727
9.79425
9.32542
8.88809
8.49431
8.1552
7.88692
7.71338
7.93443
7.88836
7.80823
7.69162
7.54219
7.37975
7.2211
7.08296
6.97802
6.92244
6.99014
7.35077
8.041
8.94745
9.89742
10.734
11.3788
11.7639
11.9384
11.8869
11.5723
11.1199
10.6094
10.0884
9.58349
9.11389
8.69598
8.34036
8.05778
7.86533
8.14328
8.10731
8.04031
7.93831
7.80593
7.66128
7.52046
7.39874
7.3086
7.26714
7.36159
7.76646
8.51983
9.47884
10.4705
11.3277
11.9754
12.3516
12.5225
12.4604
12.1187
11.6227
11.0602
10.4854
9.93193
9.41979
8.96426
8.58006
8.27412
8.06046
8.41847
8.39154
8.34103
8.25953
8.15122
8.03157
7.91499
7.81565
7.74644
7.72586
7.85587
8.31148
9.13292
10.1479
11.1839
12.0615
12.7106
13.081
13.2509
13.181
12.8146
12.2743
11.6551
11.0176
10.4041
9.83707
9.33301
8.9048
8.56307
8.32116
8.79083
8.77244
8.7439
8.69153
8.61647
8.53123
8.44862
8.38119
8.34192
8.35395
8.52943
9.04228
9.93489
11.0083
12.0886
12.9815
13.6247
13.9872
14.1552
14.0796
13.6944
13.1138
12.4363
11.7294
11.0447
10.4093
9.84248
9.35708
8.96293
8.68106
9.30508
9.29694
9.29982
9.28953
9.2628
9.22868
9.19729
9.17862
9.1864
9.25156
9.4874
10.0695
11.0324
12.169
13.2914
14.1856
14.8029
15.1456
15.3032
15.2157
14.8168
14.2068
13.4737
12.6913
11.9226
11.2015
10.5537
9.99142
9.52748
9.18793
10.0325
10.0421
10.0988
10.157
10.2081
10.2568
10.3105
10.376
10.469
10.6209
10.9464
11.6208
12.6608
13.8649
15.023
15.8841
16.4369
16.7352
16.8564
16.733
16.3129
15.6811
14.9037
14.0403
13.1686
12.3338
11.5744
10.9036
10.3409
9.91989
11.1259
11.1845
11.3408
11.5239
11.7166
11.9165
12.1287
12.3555
12.6072
12.914
13.3885
14.2015
15.348
16.6055
17.772
18.5257
18.951
19.1538
19.1767
18.9653
18.4967
17.8337
17.0139
16.0719
15.0681
14.0708
13.1408
12.3005
11.583
11.0351
13.0319
13.2213
13.5844
14.016
14.485
14.9798
15.503
16.0465
16.5958
17.1794
17.9021
18.9167
20.1821
21.4254
22.4481
22.9498
23.1218
23.1374
22.9487
22.5846
22.0438
21.346
20.4757
19.4467
18.2895
17.0704
15.8704
14.7458
13.7593
12.986
16.9909
17.538
18.3496
19.2791
20.2765
21.3147
22.3969
23.4781
24.4895
25.4436
26.4221
27.5384
28.6734
29.5379
29.8952
29.6781
29.2444
28.8104
28.245
27.753
27.344
26.9126
26.2699
25.3241
24.0948
22.6768
21.1694
19.6429
18.2001
17.0116
26.0873
27.4349
28.9974
30.6133
32.2548
33.8772
35.4686
36.9046
38.0584
38.8186
39.1786
39.2686
38.9288
38.0307
36.3645
34.3562
32.753
31.4892
30.4272
29.9513
30.0646
30.6204
31.2722
31.5713
31.4776
30.9669
30.0681
28.8273
27.3851
26.042
33.1972
35.7718
38.1652
40.1619
41.8131
43.0939
43.971
44.3303
44.1082
43.2113
41.6463
39.6704
37.1966
34.3959
31.3957
28.8568
26.9983
25.5467
24.4316
24.0107
24.2297
24.9554
25.967
27.1899
28.4958
29.7066
30.7041
31.4243
31.8537
32.3547
13.297
15.4571
16.5231
16.992
16.9368
16.443
15.569
14.4745
13.2582
12.2564
11.6344
12.6033
15.9273
23.4552
34.2091
46.8805
58.3903
68.118
69.5978
61.7991
52.5379
43.8323
36.2307
29.9105
24.791
20.6863
17.4193
14.6205
12.4643
10.7286
7.54605
7.9022
8.40665
8.79466
8.95349
8.91077
8.692
8.35165
7.95173
7.63702
7.56918
8.39811
10.6697
14.8615
20.1118
25.6806
30.5747
34.1617
34.4402
31.2761
27.3572
23.4894
20.0242
17.0399
14.556
12.5042
10.8451
9.3967
8.41525
7.54103
6.63306
6.52388
6.76984
7.05074
7.23034
7.2897
7.23638
7.09353
6.90503
6.78348
6.89121
7.73035
9.67509
12.9259
16.7678
20.6842
24.1556
26.5244
26.5498
24.4025
21.6957
18.9506
16.4336
14.2171
12.3349
10.7461
9.44675
8.31714
7.56313
6.93236
6.21697
5.98181
6.12509
6.33988
6.51129
6.60442
6.62112
6.57083
6.48625
6.46914
6.67586
7.52488
9.24141
11.9429
15.0253
18.0957
20.8085
22.5615
22.4946
20.8749
18.7648
16.5794
14.5422
12.7244
11.1622
9.82942
8.72939
7.78048
7.11686
6.60262
5.98288
5.73614
5.83338
6.00702
6.15998
6.25898
6.3047
6.30319
6.27975
6.32593
6.601
7.43069
8.96688
11.2668
13.8303
16.3381
18.5248
19.8786
19.7725
18.4918
16.7603
14.9363
13.2171
11.6734
10.3389
9.19579
8.24358
7.42353
6.81335
6.35869
5.87479
5.65922
5.73291
5.87862
6.00604
6.09508
6.14816
6.16871
6.17996
6.26605
6.57529
7.37957
8.77285
10.7581
12.9374
15.0359
16.8273
17.9022
17.7812
16.7409
15.2779
13.7142
12.2289
10.8916
9.73244
8.74035
7.89611
7.16383
6.59516
6.1854
5.8742
5.69571
5.74449
5.86377
5.97464
6.05047
6.097
6.12243
6.14832
6.25087
6.57955
7.35747
8.63605
10.3729
12.2588
14.0488
15.5362
16.4128
16.2905
15.4344
14.1771
12.8142
11.5108
10.3348
9.31551
8.42616
7.65821
6.99057
6.45585
6.08124
5.93958
5.81584
5.86349
5.96038
6.03927
6.09033
6.12212
6.14206
6.17127
6.28862
6.63157
7.36455
8.54529
10.0905
11.749
13.3021
14.5548
15.2889
15.1773
14.4681
13.3795
12.1797
11.0225
9.97499
9.04368
8.2267
7.51692
6.90002
6.39323
6.04494
6.0687
6.00732
6.05443
6.12539
6.17106
6.19414
6.20574
6.21365
6.23955
6.36543
6.72269
7.41585
8.49748
9.89666
11.3762
12.7449
13.8161
14.4468
14.3547
13.7672
12.8238
11.7623
10.7195
9.75044
8.88973
8.12962
7.46201
6.88791
6.42561
6.12839
6.28296
6.25735
6.29675
6.33824
6.35061
6.34533
6.33431
6.32666
6.34473
6.47397
6.83741
7.50506
8.48527
9.78084
11.1159
12.3387
13.2691
13.8216
13.7549
13.2705
12.4571
11.5073
10.5415
9.64182
8.83592
8.13572
7.52732
7.00133
6.57753
6.31247
6.55409
6.54675
6.57027
6.58012
6.56219
6.5297
6.49525
6.47094
6.47891
6.60855
6.97181
7.61916
8.53073
9.72369
10.9499
12.0553
12.8752
13.3635
13.3251
12.9293
12.2287
11.3604
10.4669
9.64098
8.9152
8.27359
7.70465
7.21196
6.80533
6.55902
6.85847
6.85457
6.85528
6.83634
6.79102
6.73322
6.67672
6.63659
6.63488
6.76353
7.12265
7.75225
8.6219
9.71698
10.868
11.8773
12.6079
13.038
13.0269
12.7027
12.0908
11.2995
10.5004
9.761
9.09156
8.49009
7.94793
7.47196
7.07993
6.84746
7.17374
7.15981
7.13693
7.0922
7.02288
6.9434
6.86829
6.81519
6.80664
6.93486
7.28957
7.90632
8.74639
9.78782
10.8684
11.8007
12.4545
12.8264
12.8374
12.5648
12.0203
11.3239
10.6157
9.93919
9.31199
8.73932
8.21764
7.75784
7.37994
7.15569
7.47859
7.44697
7.40124
7.33444
7.24596
7.15018
7.06213
7.00123
6.99079
7.12184
7.47621
8.088
8.91573
9.92803
10.9675
11.8376
12.4284
12.7269
12.7491
12.4994
12.0089
11.4077
10.7656
10.1373
9.54362
8.99644
8.49397
8.04936
7.6841
7.46241
7.75615
7.70382
7.63764
7.55374
7.45242
7.34755
7.2547
7.19365
7.18993
7.33052
7.68988
8.30549
9.13306
10.1304
11.1422
11.961
12.5014
12.7538
12.7727
12.5225
12.0826
11.5297
10.9329
10.3377
9.77237
9.24586
8.75979
8.32847
7.97349
7.74894
7.99556
7.92335
7.84117
7.74675
7.64075
7.53615
7.44998
7.39866
7.40688
7.56187
7.93256
8.56068
9.39927
10.3933
11.3877
12.163
12.6614
12.8759
12.894
12.6576
12.2328
11.6933
11.118
10.5411
9.99268
9.47892
9.00377
8.58202
8.23367
8.00142
8.19379
8.10588
8.01471
7.91867
7.81915
7.72673
7.65416
7.61798
7.64631
7.82099
8.21
8.85957
9.71977
10.7204
11.7057
12.4426
12.9024
13.0876
13.1025
12.8749
12.4583
11.9242
11.3463
10.7644
10.2122
9.69737
9.2239
8.80489
8.45757
8.21305
8.35787
8.26186
8.17234
8.08671
8.00227
7.92839
7.87646
7.86183
7.91825
8.11851
8.53327
9.21346
10.1057
11.1216
12.105
12.8062
13.2285
13.3894
13.4001
13.177
12.7626
12.2247
11.6342
11.0356
10.4601
9.92036
9.42983
9.00328
8.64885
8.38682
8.50951
8.41658
8.33768
8.26897
8.20689
8.15865
8.13376
8.14857
8.24014
8.47254
8.92071
9.64046
10.5754
11.6144
12.6025
13.268
13.6524
13.7908
13.797
13.5758
13.1596
12.6109
11.998
11.3697
10.7586
10.1784
9.65278
9.19898
8.82453
8.53976
8.67972
8.59555
8.53444
8.49064
8.45867
8.44335
8.45264
8.50635
8.63921
8.91126
9.40157
10.1682
11.1576
12.2266
13.2252
13.8518
14.196
14.3111
14.3121
14.0918
13.6719
13.1079
12.4657
11.7961
11.1358
10.5034
9.92254
9.42233
9.01312
8.70194
8.89957
8.83037
8.79518
8.78568
8.79267
8.81973
8.87426
8.9749
9.15684
9.47751
10.0201
10.84
11.8966
13.0015
14.0145
14.5939
14.8936
14.9812
14.9754
14.7552
14.3318
13.7518
13.0773
12.3582
11.6366
10.937
10.287
9.71605
9.25142
8.90231
9.21364
9.16432
9.16389
9.20261
9.26254
9.34386
9.45536
9.6146
9.85678
10.2377
10.8444
11.7266
12.8607
14.0058
15.0339
15.5498
15.7975
15.8468
15.8313
15.6097
15.1856
14.5917
13.8857
13.1134
12.3214
11.5412
10.803
10.1434
9.59609
9.19077
9.6877
9.6603
9.71326
9.81639
9.94585
10.0986
10.2848
10.521
10.8408
11.2994
11.9854
12.9448
14.1575
15.3455
16.3824
16.8079
16.9847
16.974
16.9268
16.7097
16.2978
15.697
14.9638
14.1406
13.2724
12.3983
11.5558
10.7829
10.1299
9.64341
10.4234
10.4253
10.5542
10.7449
10.9694
11.2211
11.5114
11.8542
12.2805
12.8436
13.6304
14.6832
15.9739
17.1899
18.2148
18.5019
18.5457
18.3962
18.2918
18.073
17.7142
17.1651
16.4205
15.5528
14.6091
13.6303
12.667
11.7574
10.9665
10.3684
11.5863
11.6444
11.8813
12.1987
12.5609
12.9581
13.4016
13.8999
14.4792
15.1864
16.1014
17.2571
18.6179
19.8124
20.757
20.7726
20.5157
20.1704
19.9611
19.728
19.4433
19.03
18.4071
17.5239
16.5191
15.429
14.3277
13.2565
12.2933
11.5405
13.4984
13.6667
14.0753
14.5904
15.1645
15.7839
16.4583
17.1865
17.9801
18.8759
19.9349
21.1753
22.5501
23.5892
24.1991
23.5963
22.8914
22.2593
21.8765
21.6131
21.4382
21.2376
20.8876
20.2703
19.285
18.1131
16.8626
15.5983
14.4306
13.4798
16.7869
17.2008
17.9068
18.7399
19.641
20.5921
21.5948
22.6307
23.6738
24.7479
25.8937
27.0748
28.1917
28.5744
28.1959
26.6584
25.3527
24.3318
23.7051
23.4023
23.3871
23.5053
23.5819
23.4471
22.9687
22.075
20.8051
19.3934
18.0053
16.8094
22.64
23.5445
24.7267
26.0157
27.345
28.6863
30.0265
31.315
32.4529
33.406
34.2026
34.6921
34.4825
33.3594
31.5213
28.8192
26.8218
25.3915
24.5128
24.1832
24.353
24.8905
25.5424
26.0749
26.363
26.3559
25.969
25.1165
23.8859
22.6526
30.2389
32.1153
34.0462
35.9118
37.5922
39.0762
40.3462
41.3083
41.7872
41.6331
40.8284
39.4351
37.3616
34.5342
31.238
27.6949
25.2558
23.6119
22.5903
22.251
22.5498
23.3736
24.4949
25.705
26.8686
27.8759
28.6406
29.1116
29.3329
29.5628
28.5861
31.1861
33.7504
36.0064
37.8383
39.1915
40.0087
40.2305
39.7387
38.5324
36.675
34.2816
31.3365
27.9629
24.5238
21.4289
19.3661
17.9891
17.1141
16.7966
16.9829
17.5944
18.5032
19.6434
20.9512
22.3182
23.6533
24.8921
26.0365
27.4068
17.3648
20.2562
21.774
22.5845
22.7166
22.2556
21.2876
20.0529
18.6732
17.5773
16.8883
18.9872
25.0465
36.8725
52.6715
71.1832
88.4349
103.6
103.904
90.3501
75.2932
61.5808
50.1943
40.9411
33.5927
27.8738
23.4262
19.6383
16.5537
13.8905
8.90456
9.35946
10.0554
10.6276
10.9127
10.9457
10.7572
10.4168
9.99613
9.66613
9.63721
10.9798
14.4293
20.1925
27.2119
34.7473
41.6533
46.8837
46.2611
41.0822
35.2014
29.642
24.9106
20.9331
17.6985
15.1157
13.0935
11.3506
10.1458
8.91159
7.49947
7.4734
7.83913
8.22668
8.47693
8.5777
8.53883
8.38756
8.1784
8.05654
8.25304
9.47308
12.223
16.5168
21.5921
26.9253
31.8112
35.0402
34.3375
30.9071
26.9139
23.0506
19.6582
16.7543
14.3563
12.397
10.8355
9.4987
8.58959
7.7613
6.87568
6.73858
6.98104
7.27382
7.48844
7.59993
7.61412
7.543
7.43688
7.43716
7.76916
8.94066
11.3098
14.8466
18.953
23.1967
27.0189
29.3009
28.6508
26.0438
22.8954
19.7909
17.0163
14.6217
12.6311
10.9927
9.67557
8.56493
7.78499
7.16317
6.52272
6.40259
6.59654
6.83427
7.01469
7.11725
7.14877
7.11894
7.079
7.16119
7.58829
8.73899
10.8475
13.8838
17.3608
20.8845
23.966
25.6562
25.0735
22.9712
20.3276
17.6709
15.2719
13.1983
11.4764
10.0643
8.92506
7.98072
7.28686
6.79473
6.3657
6.28698
6.46684
6.66557
6.80976
6.89405
6.92644
6.91835
6.92245
7.06445
7.53864
8.66714
10.6269
13.3059
16.3323
19.3298
21.8459
23.128
22.606
20.851
18.5551
16.2038
14.0642
12.2168
10.6894
9.44898
8.44662
7.61809
6.99376
6.57395
6.3716
6.31719
6.46947
6.64492
6.77165
6.83785
6.86229
6.86423
6.89487
7.0749
7.60286
8.70188
10.5381
12.9874
15.6771
18.2724
20.3441
21.3334
20.8622
19.3658
17.3338
15.2112
13.2639
11.5851
10.1967
9.06578
8.15255
7.40397
6.83645
6.46981
6.45829
6.47214
6.62336
6.76731
6.85654
6.89767
6.91159
6.91809
6.97168
7.1978
7.7751
8.87828
10.5745
12.8609
15.2917
17.5688
19.2878
20.0608
19.6329
18.343
16.527
14.5895
12.776
11.1992
9.89894
8.85024
8.00717
7.31428
6.79072
6.48523
6.66241
6.72489
6.86258
6.97241
7.02649
7.04373
7.04667
7.05565
7.13094
7.39716
8.014
9.12682
10.7604
12.8548
15.1086
17.1246
18.5602
19.1681
18.7793
17.6611
16.0283
14.2162
12.4932
11.0015
9.7667
8.77438
7.98755
7.3707
6.91473
6.66231
6.95778
7.04446
7.1596
7.23384
7.2562
7.25323
7.24662
7.25812
7.35518
7.65832
8.30883
9.43424
11.0215
13.0016
15.07
16.8723
18.0759
18.5507
18.1984
17.2184
15.7316
14.0238
12.3787
10.9568
9.80945
8.89619
8.17213
7.60214
7.16647
6.93487
7.31351
7.40348
7.48938
7.52852
7.52504
7.50662
7.49273
7.50931
7.62952
7.96795
8.65038
9.78992
11.3444
13.2305
15.1559
16.7648
17.7734
18.1326
17.811
16.9426
15.5781
13.9731
12.4595
11.139
10.0517
9.18307
8.483
7.92219
7.49628
7.27606
7.70185
7.77684
7.82907
7.83681
7.81492
7.78567
7.7685
7.79507
7.9412
8.31499
9.03063
10.1855
11.719
13.5295
15.3386
16.7744
17.6121
17.8617
17.5596
16.7751
15.5311
14.1013
12.701
11.4484
10.398
9.54612
8.8536
8.29742
7.87643
7.65846
8.09671
8.14195
8.15892
8.14356
8.10901
8.07502
8.06029
8.104
8.28031
8.69189
9.4444
10.6173
12.1426
13.897
15.6088
16.8888
17.5756
17.7095
17.4104
16.6852
15.5945
14.3156
13.0111
11.8116
10.784
9.94482
9.25659
8.70091
8.28006
8.0556
8.47465
8.48041
8.46662
8.43488
8.39445
8.36324
8.35884
8.42902
8.64149
9.09653
9.8929
11.0884
12.6043
14.2923
15.8958
17.0227
17.5848
17.6553
17.3446
16.6584
15.7111
14.5604
13.3434
12.1892
11.1849
10.3547
9.66743
9.10833
8.68292
8.44384
8.8158
8.7829
8.74401
8.70214
8.66404
8.64433
8.66195
8.77004
9.02649
9.52452
10.3648
11.5787
13.0809
14.6974
16.1921
17.1601
17.6006
17.6148
17.3148
16.7211
15.866
14.8175
13.6833
12.5697
11.585
10.7583
10.0673
9.50024
9.06529
8.80429
9.11151
9.04541
8.98797
8.94415
8.91815
8.92204
8.97608
9.12434
9.42721
9.97083
10.8561
12.0844
13.5695
15.1118
16.498
17.3041
17.6253
17.5835
17.2932
16.7723
16.0311
15.0893
14.0288
12.9548
11.9805
11.1478
10.4458
9.86443
9.41403
9.12485
9.36333
9.27127
9.20499
9.16981
9.16727
9.20495
9.30049
9.49482
9.84767
10.4395
11.3689
12.6099
14.0764
15.5444
16.8249
17.4664
17.6675
17.5665
17.2802
16.8145
16.1697
15.3354
14.3713
13.3567
12.3821
11.529
10.8045
10.1987
9.72516
9.4021
9.58391
9.47591
9.41367
9.39526
9.42498
9.5045
9.6479
9.89374
10.3002
10.9423
11.914
13.1683
14.6175
16.0139
17.1914
17.6644
17.7423
17.5746
17.2873
16.869
16.3065
15.5685
14.6979
13.7495
12.7947
11.9225
11.1606
10.515
10.0071
9.64404
9.80053
9.68653
9.63357
9.64223
9.71576
9.84435
10.0414
10.3436
10.8073
11.5012
12.5125
13.7832
15.2186
16.5485
17.623
17.9192
17.8685
17.6352
17.3484
16.9642
16.4643
15.8114
15.0289
14.1487
13.2219
12.3314
11.5286
10.8385
10.2846
9.87447
10.0389
9.92877
9.89569
9.94873
10.0754
10.2604
10.5169
10.8799
11.4045
12.1519
13.2006
14.4917
15.9183
17.1827
18.1513
18.2567
18.0653
17.7585
17.464
17.107
16.664
16.0919
15.3959
14.5864
13.6983
12.7884
11.9373
11.1877
10.5756
10.1165
10.3398
10.2452
10.2485
10.3635
10.5541
10.8042
11.1271
11.5565
12.1458
12.9493
14.0345
15.3479
16.7721
17.9629
18.8136
18.7008
18.3502
17.9614
17.6516
17.3163
16.9281
16.4377
15.8329
15.1027
14.265
13.3477
12.4414
11.6156
10.9263
10.4072
10.7641
10.6944
10.7625
10.9546
11.2228
11.5496
11.9489
12.4529
13.1124
13.9763
15.1017
16.4306
17.8579
18.9468
19.6507
19.274
18.7375
18.255
17.9208
17.6026
17.2726
16.8725
16.3721
15.7387
14.9708
14.0772
13.1146
12.2016
11.4104
10.8115
11.4036
11.3722
11.5331
11.8214
12.1848
12.6051
13.097
13.6892
14.4271
15.3581
16.5261
17.862
19.2647
20.1978
20.699
19.9904
19.2337
18.638
18.2684
17.9646
17.6986
17.4032
17.031
16.5254
15.8598
15.0242
14.0521
13.0428
12.1346
11.4338
12.3895
12.4227
12.7067
13.117
13.5999
14.1383
14.7468
15.447
16.2755
17.2771
18.483
19.807
21.0859
21.7704
21.9696
20.8404
19.8132
19.0824
18.6652
18.3722
18.1788
18.0095
17.7993
17.4671
16.9578
16.2404
15.3314
14.2745
13.2387
12.414
13.9198
14.0656
14.5087
15.0786
15.7169
16.4073
17.1615
17.9913
18.9239
19.9854
21.1933
22.3811
23.3921
23.6637
23.4164
21.7511
20.3984
19.5157
19.0373
18.7521
18.6375
18.6182
18.6127
18.5127
18.2381
17.7302
16.9799
16.0139
14.9189
13.9556
16.2979
16.6297
17.2927
18.0755
18.9144
19.7922
20.7126
21.6727
22.6862
23.7451
24.7583
25.5899
26.0992
25.7408
24.8267
22.5287
20.8317
19.7924
19.2416
18.9636
18.9264
19.0682
19.3028
19.5016
19.5562
19.3824
18.9388
18.2218
17.3025
16.3538
19.6973
20.4657
21.4576
22.5133
23.582
24.6488
25.7022
26.7103
27.594
28.3173
28.8599
29.0687
28.7676
27.4978
25.7149
22.8077
20.8206
19.6656
19.05
18.7697
18.7816
19.0724
19.5504
20.0842
20.5457
20.8292
20.8824
20.6512
20.156
19.5901
23.2801
24.5924
26.0562
27.4915
28.8265
30.0273
31.0623
31.8844
32.4098
32.5551
32.3223
31.6218
30.2066
27.8807
25.2903
22.0517
19.9613
18.7922
18.1483
17.8563
17.8827
18.2345
18.8505
19.6282
20.4679
21.2724
21.9484
22.4137
22.6496
22.8288
24.6942
26.4877
28.3362
30.0787
31.597
32.8305
33.7209
34.2209
34.2459
33.6683
32.5375
30.8349
28.4903
25.5393
22.6772
19.7502
17.89
16.8897
16.2937
15.9917
15.9626
16.2191
16.7505
17.5092
18.4399
19.4755
20.5443
21.5904
22.6227
23.7618
19.9757
21.7483
23.6005
25.3613
26.8785
28.0607
28.8336
29.1372
28.8824
28.0298
26.6348
24.7817
22.4898
19.9717
17.8456
16.0144
14.7778
14.1247
13.6893
13.3892
13.2376
13.2326
13.4092
13.7699
14.3105
15.001
15.8088
16.7055
17.7136
19.0028
20.9169
25.0674
26.8487
27.8908
28.2386
27.8605
26.8405
25.4805
23.8519
22.3984
21.1469
23.8934
32.9377
49.8255
72.787
100.883
126.043
147.573
144.994
124.513
102.148
82.2195
65.6005
52.382
42.0736
34.3907
28.6584
23.9485
20.0586
16.4893
10.1453
10.9278
11.7508
12.3916
12.7523
12.8279
12.6382
12.2532
11.7415
11.274
11.1179
12.8008
17.578
25.241
34.9111
46.0123
56.1886
63.5112
61.3014
53.5466
44.9933
37.1619
30.5181
25.0932
20.7972
17.5184
15.0653
13.0406
11.6686
10.1216
8.42318
8.57211
9.04479
9.49184
9.77211
9.87524
9.80225
9.58869
9.29826
9.09952
9.30308
10.8673
14.6029
20.3266
27.3606
35.2319
42.5639
47.1808
45.2729
39.9466
33.9386
28.3768
23.6375
19.7231
16.5812
14.1026
12.1966
10.6244
9.57449
8.59403
7.66743
7.67276
8.01376
8.36378
8.59396
8.69163
8.65848
8.52111
8.35044
8.32554
8.74238
10.2945
13.5112
18.3024
24.1046
30.4927
36.3195
39.6067
37.9871
33.8155
28.9316
24.3285
20.3738
17.0895
14.4447