/*--------------------------------*- C++ -*----------------------------------*\
  =========                 |
  \\      /  F ield         | OpenFOAM: The Open Source CFD Toolbox
   \\    /   O peration     | Website:  https://openfoam.org
    \\  /    A nd           | Version:  12
     \\/     M anipulation  |
\*---------------------------------------------------------------------------*/
FoamFile
{
    format      ascii;
    class       volScalarField;
    location    "300/air";
    object      k;
}
// * * * * * * * * * * * * * * * * * * * * * * * * * * * * * * * * * * * * * //

dimensions      [0 2 -2 0 0 0 0];

internalField   nonuniform List<scalar> 
243000
(
0.0841131
0.0917019
0.0947335
0.0950426
0.0933899
0.090209
0.0857076
0.0801513
0.0736472
0.0665969
0.0593453
0.0520766
0.0431594
0.0454569
0.0868081
0.121192
0.147158
0.1658
0.171908
0.163743
0.149276
0.135382
0.121837
0.109225
0.097826
0.087528
0.0788164
0.0711865
0.0681058
0.0666924
0.15015
0.153707
0.15219
0.148174
0.142881
0.1365
0.129098
0.120978
0.112181
0.103292
0.0944025
0.0860671
0.0754513
0.0928329
0.153969
0.204124
0.242615
0.271729
0.281931
0.26903
0.246297
0.224512
0.203175
0.183789
0.166371
0.150901
0.13791
0.126922
0.121667
0.119866
0.18981
0.193814
0.191667
0.186695
0.180319
0.172734
0.164007
0.154509
0.144293
0.134071
0.123796
0.114242
0.102827
0.133016
0.203453
0.261523
0.306113
0.339501
0.351781
0.337762
0.311105
0.285128
0.259581
0.236226
0.215111
0.196323
0.180477
0.167368
0.160631
0.159238
0.218295
0.222525
0.220229
0.214946
0.208028
0.199723
0.190137
0.17971
0.168531
0.15737
0.146081
0.135612
0.124447
0.164561
0.237738
0.29823
0.345031
0.379411
0.39272
0.379648
0.352026
0.324621
0.297519
0.272517
0.249746
0.229446
0.212278
0.198371
0.190994
0.190461
0.241035
0.245371
0.243194
0.237919
0.230787
0.222083
0.21197
0.200941
0.189117
0.177266
0.165177
0.153999
0.143866
0.191621
0.264444
0.324868
0.371946
0.405898
0.419593
0.408211
0.380912
0.35335
0.325891
0.300312
0.276845
0.255877
0.238121
0.22398
0.216318
0.216538
0.260181
0.264561
0.262562
0.257372
0.250128
0.241154
0.230675
0.21922
0.206925
0.19452
0.181758
0.170035
0.161595
0.214885
0.285583
0.344541
0.390734
0.423701
0.437378
0.428004
0.401834
0.374903
0.347824
0.322337
0.298787
0.277698
0.259822
0.245779
0.238064
0.238842
0.277063
0.281436
0.279535
0.274382
0.267015
0.257792
0.246998
0.235191
0.222501
0.209594
0.196221
0.184073
0.177922
0.234782
0.302442
0.35919
0.403892
0.435662
0.449149
0.441881
0.417353
0.391574
0.365349
0.340389
0.31717
0.296315
0.27863
0.264891
0.257278
0.258467
0.292517
0.296786
0.294853
0.289626
0.282063
0.272548
0.261429
0.249271
0.236197
0.222778
0.208805
0.196301
0.192977
0.251641
0.315887
0.370089
0.413023
0.44358
0.45685
0.45167
0.429139
0.404842
0.379787
0.35567
0.333068
0.312699
0.295417
0.282112
0.27471
0.276195
0.307031
0.311066
0.308957
0.303526
0.295659
0.285776
0.274277
0.261732
0.248234
0.234255
0.219648
0.206818
0.206768
0.265747
0.326514
0.378073
0.419166
0.448573
0.461714
0.458504
0.438277
0.415647
0.391996
0.368955
0.347178
0.327475
0.310748
0.297951
0.290831
0.292517
0.320829
0.324499
0.322081
0.316315
0.308027
0.297679
0.28573
0.272735
0.258744
0.244129
0.22882
0.215683
0.219227
0.27735
0.334724
0.383682
0.422961
0.451315
0.46446
0.463109
0.445384
0.424564
0.402489
0.380688
0.359891
0.34098
0.324915
0.312693
0.305925
0.307744
0.333979
0.33715
0.334308
0.328084
0.31926
0.308354
0.295877
0.282359
0.267797
0.252456
0.236365
0.222995
0.230157
0.286688
0.340777
0.387249
0.424736
0.452261
0.465467
0.465898
0.450763
0.431899
0.411501
0.391056
0.371346
0.353337
0.338043
0.326482
0.320146
0.322077
0.346433
0.348968
0.345601
0.338811
0.329353
0.317808
0.304735
0.290621
0.275411
0.259294
0.242355
0.228963
0.239412
0.293894
0.344825
0.388943
0.424952
0.451792
0.465078
0.467072
0.454554
0.437722
0.419077
0.400052
0.381535
0.36455
0.350152
0.339349
0.333541
0.335571
0.358024
0.359801
0.355826
0.348386
0.338222
0.325984
0.312257
0.297488
0.281563
0.264617
0.246898
0.234203
0.247688
0.299137
0.346984
0.388957
0.423495
0.449652
0.46313
0.46658
0.456748
0.442002
0.425126
0.40759
0.390371
0.374536
0.361164
0.351228
0.346033
0.348142
0.368491
0.369412
0.364775
0.356632
0.345721
0.332758
0.31833
0.302828
0.286088
0.268318
0.250415
0.239733
0.255547
0.303351
0.347496
0.387296
0.42037
0.445948
0.459664
0.464481
0.457014
0.444533
0.429519
0.413553
0.397701
0.383126
0.37091
0.361946
0.357428
0.359593
0.377503
0.377499
0.372182
0.363315
0.351626
0.337906
0.32278
0.30658
0.289109
0.27092
0.254249
0.245385
0.262899
0.307326
0.348168
0.385084
0.415984
0.440764
0.454633
0.460635
0.455372
0.444947
0.43197
0.417704
0.403367
0.390099
0.379144
0.371237
0.36744
0.369627
0.384659
0.383744
0.37773
0.368114
0.355723
0.341349
0.325578
0.308827
0.291153
0.273782
0.258226
0.25102
0.26968
0.310996
0.34892
0.383339
0.412376
0.435494
0.448716
0.455159
0.451742
0.443237
0.432067
0.419727
0.407039
0.39524
0.385562
0.378775
0.375717
0.377885
0.389566
0.387772
0.381084
0.370855
0.357866
0.343021
0.326827
0.310405
0.293376
0.276723
0.262188
0.256513
0.275837
0.314266
0.349613
0.381833
0.409215
0.430922
0.44365
0.450044
0.447275
0.439775
0.430084
0.419319
0.408363
0.398197
0.389893
0.384207
0.381871
0.383976
0.391879
0.389293
0.382134
0.371487
0.358154
0.343696
0.328021
0.312039
0.295584
0.279593
0.266017
0.261761
0.281343
0.317048
0.350111
0.380357
0.406234
0.426756
0.439094
0.445424
0.443267
0.436764
0.427879
0.417824
0.407561
0.398693
0.39184
0.387235
0.38552
0.387527
0.391417
0.388228
0.381232
0.371132
0.35835
0.344279
0.329086
0.31354
0.297629
0.282279
0.269617
0.266673
0.286154
0.319271
0.350241
0.378731
0.403229
0.42274
0.434737
0.440993
0.439396
0.433817
0.425664
0.416334
0.406817
0.398473
0.391864
0.38761
0.386382
0.388279
0.389496
0.386667
0.380163
0.370534
0.358278
0.344595
0.329884
0.314787
0.299409
0.284698
0.272918
0.271169
0.290235
0.320865
0.349928
0.376789
0.400014
0.41862
0.430298
0.436489
0.435392
0.430642
0.42323
0.414581
0.405794
0.397955
0.391629
0.387463
0.385806
0.386681
0.387392
0.3847
0.378633
0.369469
0.357749
0.34454
0.330305
0.315681
0.300843
0.286787
0.275859
0.275179
0.293552
0.321795
0.349014
0.37438
0.396414
0.414176
0.425547
0.431676
0.431023
0.427
0.420347
0.412356
0.404248
0.396891
0.390864
0.386781
0.384802
0.384863
0.384675
0.382017
0.376382
0.367731
0.356619
0.343965
0.33029
0.316143
0.301874
0.288494
0.27839
0.278634
0.296097
0.321905
0.347374
0.371351
0.392254
0.409214
0.420278
0.426338
0.426081
0.422706
0.416795
0.409516
0.402007
0.395092
0.389357
0.385343
0.383051
0.382464
0.381049
0.378421
0.37319
0.365179
0.354765
0.342746
0.329698
0.31615
0.302465
0.289784
0.280482
0.281463
0.297805
0.321274
0.344995
0.367517
0.387386
0.403564
0.414302
0.420267
0.420371
0.417591
0.412389
0.405826
0.39892
0.392407
0.386925
0.382915
0.380303
0.379157
0.376282
0.373745
0.36899
0.361643
0.352043
0.340785
0.328468
0.315611
0.302611
0.290644
0.282129
0.283617
0.298606
0.319904
0.341813
0.362827
0.381677
0.397084
0.407451
0.413272
0.413708
0.411486
0.406968
0.401083
0.394768
0.38865
0.383355
0.379302
0.376351
0.374686
0.370181
0.367856
0.363682
0.357081
0.348333
0.337991
0.326549
0.314496
0.302301
0.291131
0.283388
0.285138
0.298587
0.31779
0.337871
0.357344
0.375061
0.389712
0.399633
0.405223
0.405938
0.404237
0.400404
0.395202
0.38944
0.383686
0.378526
0.374306
0.370983
0.368824
0.362594
0.360647
0.357197
0.351459
0.3437
0.33437
0.323977
0.312901
0.301709
0.291548
0.284589
0.286404
0.298259
0.315374
0.333577
0.351418
0.367836
0.381639
0.390954
0.396185
0.397081
0.395827
0.392646
0.388117
0.38289
0.377463
0.372377
0.36793
0.364118
0.3614
0.353643
0.352285
0.349764
0.345106
0.338575
0.330486
0.321518
0.311898
0.302084
0.293093
0.287273
0.289075
0.299449
0.314469
0.330673
0.346649
0.361441
0.374044
0.382411
0.387018
0.38788
0.386878
0.384192
0.380226
0.375443
0.37026
0.365144
0.360354
0.355958
0.352614
0.344832
0.344585
0.343529
0.340618
0.336079
0.330298
0.323581
0.316341
0.308911
0.3022
0.298119
0.300202
0.309281
0.322206
0.335965
0.349385
0.36179
0.372151
0.378668
0.381912
0.382275
0.381043
0.378371
0.374519
0.369761
0.364436
0.358938
0.353473
0.348187
0.343948
0.35275
0.355141
0.35725
0.35805
0.357777
0.356742
0.355095
0.352561
0.349526
0.346656
0.345172
0.347647
0.354805
0.364367
0.373975
0.382951
0.390934
0.397231
0.400153
0.400878
0.399776
0.397462
0.394009
0.389515
0.384075
0.377895
0.371275
0.364397
0.357588
0.351873
0.491852
0.498031
0.50376
0.50877
0.513139
0.516849
0.51979
0.51906
0.516898
0.513779
0.51022
0.50775
0.507295
0.50782
0.507512
0.508211
0.509808
0.511345
0.509584
0.509109
0.509781
0.511092
0.512224
0.512699
0.512205
0.510315
0.506715
0.501875
0.496355
0.490952
0.14049
0.151022
0.153451
0.151859
0.147338
0.140619
0.132025
0.122246
0.111652
0.101743
0.0936052
0.0910643
0.0967026
0.127716
0.175147
0.225545
0.267517
0.30109
0.311897
0.294492
0.269483
0.244131
0.219721
0.197585
0.178096
0.161111
0.146837
0.134032
0.125487
0.119174
0.265075
0.269402
0.265856
0.258514
0.248867
0.237171
0.223959
0.210439
0.197255
0.186538
0.178844
0.180454
0.196335
0.24584
0.317144
0.393206
0.45628
0.509054
0.526863
0.496761
0.45645
0.416002
0.377224
0.342802
0.312909
0.286968
0.265162
0.245033
0.231711
0.224492
0.343933
0.346461
0.343257
0.336008
0.325883
0.313074
0.29838
0.283403
0.269077
0.257876
0.250636
0.255209
0.277687
0.337102
0.418985
0.50421
0.573985
0.6309
0.652405
0.622736
0.578671
0.533267
0.4892
0.44944
0.414427
0.383585
0.357623
0.334038
0.319069
0.313292
0.402091
0.402868
0.400198
0.393567
0.383797
0.371019
0.356194
0.341067
0.326812
0.315998
0.309757
0.317043
0.34416
0.407939
0.492224
0.578157
0.648318
0.703823
0.726529
0.70072
0.657579
0.611988
0.567103
0.52595
0.489071
0.456207
0.428208
0.40317
0.386665
0.38134
0.448606
0.448642
0.446293
0.440204
0.430803
0.418309
0.403806
0.389067
0.375384
0.365285
0.360228
0.369858
0.399904
0.464712
0.547275
0.630112
0.69782
0.750015
0.772682
0.751662
0.711387
0.667771
0.624146
0.58349
0.546446
0.513057
0.484166
0.458623
0.440693
0.435194
0.488314
0.488429
0.486168
0.480324
0.471046
0.458736
0.44459
0.43035
0.41736
0.408021
0.404131
0.41577
0.447315
0.511115
0.589925
0.668098
0.7321
0.780741
0.802764
0.786627
0.750106
0.709484
0.668141
0.628929
0.592618
0.559485
0.530314
0.504676
0.48559
0.47961
0.524179
0.524762
0.522317
0.516376
0.506916
0.494548
0.48058
0.466719
0.454303
0.445588
0.442713
0.455942
0.487893
0.549454
0.623733
0.696837
0.756851
0.802307
0.823557
0.812124
0.779786
0.742643
0.704067
0.666789
0.631688
0.599201
0.570089
0.544519
0.524604
0.518067
0.557916
0.558966
0.556114
0.549753
0.539797
0.527081
0.513025
0.499295
0.487211
0.478883
0.476772
0.491056
0.522606
0.581434
0.651031
0.719264
0.775559
0.818378
0.839013
0.832029
0.804087
0.770633
0.735041
0.699961
0.666292
0.634644
0.605781
0.580348
0.559953
0.552904
0.590425
0.591685
0.588248
0.581181
0.570439
0.557092
0.542654
0.528769
0.516716
0.508494
0.506814
0.521558
0.552228
0.608269
0.673372
0.737198
0.790281
0.831065
0.85136
0.848504
0.825071
0.79536
0.762857
0.730078
0.697945
0.667235
0.638763
0.613536
0.592993
0.585534
0.622025
0.623102
0.61892
0.610909
0.599143
0.584921
0.569842
0.555527
0.543207
0.534773
0.533125
0.54771
0.577199
0.630834
0.691795
0.751753
0.802169
0.841472
0.861764
0.862571
0.843719
0.817729
0.788324
0.757863
0.727326
0.69764
0.669713
0.644854
0.624518
0.61681
0.652662
0.653065
0.647985
0.638838
0.625885
0.610622
0.594706
0.579737
0.566897
0.557937
0.555862
0.569643
0.599575
0.649774
0.707009
0.763609
0.811841
0.850087
0.870748
0.874584
0.860291
0.837957
0.811582
0.78343
0.754555
0.726047
0.698912
0.674662
0.654871
0.647057
0.681897
0.681192
0.67505
0.664644
0.650427
0.634044
0.617182
0.60142
0.587929
0.578003
0.575189
0.58842
0.618275
0.665563
0.719556
0.773238
0.819642
0.85709
0.878338
0.884631
0.874668
0.855857
0.832399
0.80656
0.779479
0.75236
0.726301
0.702929
0.68396
0.676092
0.708991
0.706956
0.699584
0.687872
0.672405
0.654915
0.637092
0.620503
0.606331
0.596131
0.592504
0.604767
0.633283
0.678687
0.729995
0.781098
0.82587
0.862564
0.88445
0.892641
0.886584
0.871095
0.850414
0.826911
0.801756
0.776231
0.751519
0.729287
0.711318
0.703366
0.733179
0.729668
0.721002
0.708033
0.691415
0.672925
0.65423
0.6369
0.622125
0.611588
0.607244
0.618011
0.645631
0.689792
0.739163
0.787888
0.830988
0.866716
0.889054
0.898609
0.895827
0.883359
0.865281
0.844079
0.820928
0.79715
0.774006
0.753122
0.736256
0.728134
0.753716
0.748688
0.73877
0.724686
0.707104
0.687823
0.668483
0.650664
0.635503
0.624715
0.619341
0.629075
0.656316
0.699445
0.747122
0.794205
0.835946
0.870155
0.892341
0.902788
0.902375
0.892508
0.876768
0.857728
0.836569
0.814603
0.793155
0.773747
0.758003
0.749582
0.769994
0.763542
0.752499
0.737506
0.719247
0.699542
0.679988
0.662207
0.646945
0.635291
0.629154
0.638405
0.665622
0.70786
0.753995
0.799335
0.83962
0.872773
0.895027
0.90588
0.90655
0.898702
0.884898
0.867753
0.848455
0.828238
0.808471
0.790555
0.775862
0.767
0.781653
0.773993
0.761993
0.74638
0.727856
0.708373
0.689331
0.671475
0.655819
0.643662
0.637132
0.646419
0.673841
0.715273
0.759941
0.803472
0.842107
0.874206
0.896158
0.907407
0.90914
0.902664
0.890147
0.874471
0.856788
0.838099
0.81979
0.803214
0.789375
0.779934
0.788712
0.780172
0.767693
0.752169
0.734057
0.714687
0.69578
0.678211
0.662512
0.650294
0.643791
0.653525
0.681288
0.721932
0.765137
0.806781
0.843639
0.874723
0.896267
0.907528
0.909449
0.903715
0.892606
0.878314
0.861873
0.84431
0.827474
0.811943
0.798557
0.78843
0.792066
0.783342
0.770952
0.755452
0.737567
0.718717
0.700311
0.683123
0.667743
0.655772
0.649715
0.660152
0.688291
0.728077
0.76975
0.809398
0.844485
0.874494
0.895101
0.906051
0.907963
0.902457
0.891725
0.877964
0.862508
0.846451
0.831092
0.816722
0.803739
0.793365
0.793271
0.783943
0.771613
0.75643
0.739137
0.72125
0.703743
0.687229
0.672298
0.660869
0.655499
0.666797
0.695191
0.733944
0.773931
0.811424
0.844762
0.872941
0.892501
0.903431
0.905216
0.90001
0.889458
0.875931
0.860738
0.845059
0.830119
0.816299
0.804089
0.794391
0.791088
0.78146
0.769773
0.755674
0.739658
0.723196
0.706904
0.691256
0.677058
0.666432
0.661831
0.674024
0.702383
0.739804
0.77785
0.812954
0.844337
0.870264
0.888996
0.899863
0.901667
0.896708
0.886506
0.873061
0.8579
0.842249
0.827225
0.813393
0.801166
0.791677
0.785937
0.776466
0.766188
0.753882
0.740134
0.725495
0.710634
0.69614
0.683107
0.673401
0.669557
0.682528
0.710422
0.746087
0.781846
0.814237
0.843119
0.866952
0.884777
0.895567
0.897678
0.893151
0.883514
0.870188
0.854965
0.839088
0.823648
0.809266
0.796471
0.78671
0.7798
0.77104
0.762494
0.75285
0.741709
0.729102
0.716077
0.703366
0.691736
0.683014
0.679861
0.693318
0.720265
0.753667
0.786719
0.815995
0.841983
0.863512
0.8802
0.890852
0.893648
0.889938
0.881081
0.868044
0.852793
0.836592
0.820538
0.805311
0.791444
0.780652
0.774303
0.766831
0.760918
0.754161
0.745549
0.735867
0.725395
0.714723
0.704746
0.69719
0.694748
0.708168
0.733776
0.764407
0.794299
0.819958
0.842704
0.86127
0.876276
0.886556
0.890245
0.887951
0.879913
0.867311
0.852121
0.835623
0.818935
0.802741
0.787516
0.775334
0.771441
0.766378
0.763319
0.759886
0.754918
0.748662
0.741319
0.733286
0.725456
0.719422
0.717928
0.730909
0.754886
0.782377
0.808642
0.829943
0.848381
0.863615
0.876537
0.885328
0.88942
0.888889
0.882883
0.871602
0.856635
0.839271
0.821024
0.802841
0.786035
0.772384
0.77461
0.772856
0.773803
0.774859
0.774515
0.772779
0.769679
0.765427
0.760701
0.757
0.757248
0.770091
0.791987
0.816181
0.838123
0.853952
0.866904
0.877956
0.886983
0.893395
0.896999
0.897691
0.893955
0.884698
0.870372
0.852285
0.832287
0.81169
0.791841
0.77519
0.792608
0.795543
0.802606
0.810079
0.816324
0.821032
0.824219
0.825807
0.825857
0.825974
0.829399
0.842674
0.862305
0.881605
0.897208
0.905719
0.911815
0.917649
0.921098
0.923552
0.925478
0.926338
0.924124
0.916842
0.903382
0.884577
0.86225
0.838048
0.81383
0.793153
0.845389
0.857169
0.8737
0.89055
0.906074
0.919856
0.931982
0.941672
0.948014
0.952672
0.958667
0.970439
0.983901
0.993246
0.995385
0.990515
0.985722
0.983204
0.978509
0.977011
0.979812
0.984648
0.987652
0.984623
0.973158
0.95471
0.930869
0.902831
0.872956
0.84637
0.976014
1.00206
1.02979
1.05527
1.07816
1.09841
1.11587
1.12878
1.13544
1.1357
1.1313
1.12581
1.1154
1.0975
1.07046
1.04157
1.02046
1.00527
0.991474
0.987271
0.994485
1.00956
1.0268
1.04068
1.04758
1.04672
1.03777
1.02064
0.997645
0.974924
1.03729
1.08157
1.12033
1.15015
1.17285
1.18896
1.19812
1.19915
1.1906
1.1735
1.14799
1.11742
1.07943
1.03603
0.989851
0.952188
0.925382
0.904857
0.888101
0.882662
0.88888
0.903687
0.922988
0.946128
0.970054
0.991116
1.00724
1.01723
1.0207
1.02443
0.182548
0.196794
0.200733
0.199673
0.194697
0.18675
0.1764
0.16485
0.152779
0.142703
0.135908
0.141647
0.164274
0.211676
0.271854
0.335785
0.390052
0.434862
0.445059
0.415763
0.378115
0.340266
0.304858
0.273344
0.246092
0.222848
0.203275
0.185205
0.17062
0.158213
0.337571
0.352622
0.354496
0.349825
0.340145
0.326652
0.310669
0.294296
0.278723
0.266965
0.259967
0.273177
0.312663
0.3918
0.48877
0.589978
0.672018
0.738341
0.752161
0.700012
0.637152
0.575174
0.517644
0.467968
0.426297
0.391262
0.361699
0.332931
0.309768
0.291474
0.432446
0.444969
0.448288
0.444533
0.4351
0.421186
0.404409
0.387243
0.371347
0.360112
0.355597
0.374482
0.421947
0.51327
0.620911
0.730613
0.817974
0.88485
0.900559
0.847909
0.780299
0.712471
0.649085
0.593673
0.546692
0.50651
0.472318
0.439436
0.414184
0.398342
0.5011
0.510853
0.514725
0.511464
0.50265
0.48928
0.473088
0.456598
0.441767
0.432086
0.430868
0.454047
0.505447
0.600256
0.707749
0.815483
0.900932
0.962878
0.978897
0.930611
0.864437
0.796973
0.733563
0.677561
0.629526
0.587907
0.552089
0.518122
0.492105
0.478542
0.556417
0.564727
0.568457
0.565251
0.556758
0.543913
0.528532
0.513089
0.499675
0.49174
0.493973
0.520103
0.573167
0.666886
0.769852
0.871595
0.952096
1.00802
1.02366
0.981099
0.918734
0.854168
0.793116
0.738757
0.691619
0.650315
0.614223
0.580496
0.553962
0.541926
0.604768
0.612696
0.61575
0.61223
0.603639
0.591012
0.576248
0.561754
0.549683
0.543405
0.548826
0.576928
0.630382
0.72038
0.817219
0.911602
0.985914
1.03631
1.05128
1.01481
0.957303
0.896734
0.839034
0.787222
0.741789
0.701558
0.665857
0.63291
0.606223
0.595187
0.649841
0.657738
0.659669
0.655495
0.646404
0.633624
0.61914
0.605315
0.594327
0.589481
0.597581
0.626967
0.680008
0.765138
0.855423
0.942335
1.01037
1.05599
1.07039
1.04011
0.987966
0.931927
0.87799
0.829064
0.785646
0.746778
0.711774
0.679748
0.653287
0.642886
0.693572
0.701239
0.701689
0.696559
0.686634
0.67336
0.658809
0.645319
0.635105
0.631412
0.641615
0.671727
0.723924
0.803824
0.887721
0.967633
1.02989
1.07154
1.08567
1.06144
1.015
0.963757
0.913734
0.867791
0.826461
0.789002
0.75481
0.72369
0.697741
0.687706
0.736675
0.743604
0.742474
0.736103
0.725048
0.710987
0.696066
0.682617
0.672891
0.670102
0.681851
0.712219
0.763312
0.838069
0.916005
0.98959
1.04676
1.08521
1.09938
1.08097
1.04045
0.994118
0.948056
0.905073
0.865776
0.829684
0.796357
0.766125
0.740887
0.731069
0.779196
0.784713
0.781966
0.774125
0.761747
0.746708
0.731213
0.71759
0.708137
0.706007
0.718803
0.749082
0.798922
0.868837
0.941339
1.00927
1.06207
1.09793
1.11235
1.09942
1.06495
1.02354
0.981403
0.941296
0.903977
0.869247
0.836871
0.807597
0.783289
0.773627
0.820669
0.824062
0.819646
0.810207
0.796433
0.780357
0.764203
0.750298
0.740983
0.739301
0.752701
0.782689
0.831234
0.896706
0.964321
1.0272
1.07618
1.10991
1.12462
1.11675
1.08824
1.0517
1.0134
0.97613
0.940816
0.907552
0.87631
0.848126
0.824884
0.815211
0.860142
0.860876
0.854753
0.843691
0.82858
0.81154
0.794775
0.780594
0.771385
0.76998
0.783653
0.813282
0.860572
0.922058
0.985375
1.04368
1.08924
1.12104
1.13596
1.13253
1.10967
1.07788
1.04334
1.00894
0.975735
0.944077
0.914147
0.887166
0.865011
0.8551
0.896328
0.894353
0.886428
0.873825
0.857563
0.839762
0.822566
0.808238
0.799215
0.798007
0.811759
0.84113
0.887178
0.94531
1.00498
1.0591
1.10146
1.13123
1.14616
1.1463
1.12856
1.10134
1.07044
1.03892
1.0079
0.977956
0.949472
0.923771
0.902664
0.892251
0.928085
0.923568
0.913837
0.89989
0.882781
0.864548
0.847238
0.83302
0.824383
0.82338
0.837201
0.866503
0.911527
0.967099
1.02375
1.0741
1.11335
1.14064
1.15534
1.15777
1.14448
1.12143
1.094
1.06523
1.0364
1.0082
0.98124
0.956853
0.936702
0.92552
0.954535
0.947666
0.936298
0.921329
0.903792
0.885576
0.868617
0.854894
0.847004
0.846311
0.860183
0.889632
0.933576
0.986728
1.04038
1.08697
1.12369
1.14961
1.16395
1.16725
1.15746
1.13786
1.11359
1.08726
1.06048
1.03398
1.00851
0.985388
0.966054
0.95385
0.975085
0.966124
0.953432
0.937885
0.920469
0.902834
0.886879
0.874099
0.866798
0.866585
0.880726
0.910411
0.95322
1.00398
1.05457
1.09731
1.13153
1.15608
1.17059
1.17523
1.16808
1.15089
1.12918
1.10483
1.07977
1.05476
1.03061
1.00862
0.989903
0.976472
0.989562
0.978829
0.965238
0.949704
0.933158
0.916758
0.901919
0.890297
0.883826
0.884333
0.898997
0.928813
0.970455
1.01875
1.06613
1.10485
1.1364
1.15948
1.17443
1.18015
1.17535
1.16106
1.14142
1.11839
1.09448
1.07057
1.0474
1.02626
1.0079
0.993123
0.998315
0.986113
0.972223
0.957397
0.942157
0.927303
0.914005
0.903843
0.898401
0.899861
0.915292
0.944937
0.985391
1.03105
1.07502
1.10943
1.13807
1.15999
1.1751
1.1818
1.17885
1.16726
1.1498
1.12847
1.10555
1.08222
1.05943
1.03871
1.02037
1.00438
1.0032
0.989922
0.976089
0.962127
0.948199
0.935246
0.923861
0.915365
0.911088
0.913683
0.929925
0.959156
0.998276
1.04103
1.08132
1.11106
1.1365
1.15657
1.17198
1.17989
1.17814
1.16905
1.15409
1.13459
1.11257
1.08954
1.06703
1.04634
1.02782
1.01123
1.00487
0.991016
0.977596
0.964964
0.952747
0.941784
0.932488
0.925752
0.92271
0.926533
0.943429
0.972019
1.00954
1.049
1.08532
1.10995
1.13173
1.14977
1.16535
1.17442
1.17421
1.16716
1.15351
1.13558
1.11456
1.09164
1.06861
1.0471
1.02793
1.01188
1.00354
0.989712
0.977723
0.966961
0.956811
0.948229
0.94109
0.936152
0.934382
0.939406
0.956606
0.984316
1.01986
1.05559
1.08754
1.10654
1.12417
1.13985
1.15537
1.16538
1.16726
1.16247
1.15108
1.13449
1.11409
1.09115
1.06761
1.04521
1.02521
1.00913
0.999547
0.986737
0.977378
0.969297
0.962001
0.955952
0.951124
0.948039
0.947592
0.953658
0.970653
0.99721
1.03031
1.06177
1.08887
1.10166
1.11459
1.12748
1.14251
1.15322
1.15756
1.15535
1.14718
1.13259
1.11325
1.09045
1.06626
1.04273
1.02143
1.00459
0.995382
0.985057
0.978713
0.973935
0.969989
0.966821
0.964497
0.963355
0.964394
0.971231
0.98743
1.01246
1.04258
1.06915
1.09078
1.09663
1.10427
1.11388
1.12783
1.13877
1.14558
1.14666
1.1419
1.13057
1.11279
1.09039
1.06579
1.04116
1.01846
1.00022
0.99493
0.987234
0.984313
0.983444
0.983307
0.983448
0.983936
0.984992
0.987666
0.995035
1.00997
1.03278
1.05928
1.08023
1.09558
1.09353
1.09528
1.10131
1.11322
1.12384
1.13248
1.13729
1.13655
1.12927
1.1139
1.09322
1.06858
1.04241
1.0178
0.998057
1.00014
0.996481
0.997718
1.00164
1.00597
1.00999
1.01378
1.01741
1.02186
1.02962
1.043
1.0626
1.08453
1.09876
1.10649
1.09508
1.09039
1.09203
1.1007
1.11025
1.12026
1.12854
1.13274
1.13042
1.12019
1.1025
1.07913
1.05237
1.02534
1.00259
1.01769
1.01844
1.02567
1.03526
1.04475
1.05334
1.06106
1.06776
1.07406
1.08195
1.09317
1.10855
1.12406
1.129
1.12606
1.10321
1.09091
1.08731
1.09134
1.09906
1.11013
1.12195
1.13155
1.13579
1.13218
1.11949
1.09863
1.0726
1.0446
1.01943
1.05535
1.06406
1.07897
1.09532
1.11075
1.12456
1.13656
1.14639
1.15389
1.16056
1.16796
1.17644
1.18015
1.17023
1.15077
1.11428
1.09317
1.08346
1.08194
1.08733
1.09933
1.11497
1.1309
1.14307
1.14837
1.14528
1.13178
1.10991
1.08259
1.05626
1.12758
1.14804
1.1718
1.19502
1.2159
1.23391
1.24858
1.2593
1.26455
1.26446
1.2604
1.25245
1.23449
1.2015
1.16179
1.11113
1.08148
1.06586
1.05932
1.0625
1.07537
1.09442
1.11643
1.13749
1.154
1.1641
1.16639
1.1592
1.14323
1.12527
1.18987
1.22706
1.26328
1.29453
1.31936
1.33775
1.34928
1.35314
1.34718
1.33054
1.30392
1.27035
1.22726
1.17371
1.11669
1.05898
1.02589
1.00788
0.999289
1.00135
1.01362
1.03283
1.05636
1.08207
1.10733
1.12979
1.14771
1.16007
1.16749
1.17596
1.08253
1.1278
1.17108
1.20772
1.23532
1.25358
1.26201
1.25985
1.24502
1.21955
1.18446
1.14196
1.09102
1.03462
0.979523
0.933557
0.908856
0.896881
0.892146
0.89506
0.904248
0.917427
0.933363
0.952073
0.972866
0.993808
1.01352
1.03088
1.04585
1.06474
0.217993
0.23551
0.241147
0.24128
0.236715
0.228445
0.217256
0.204822
0.191924
0.181452
0.174216
0.186276
0.222468
0.286631
0.362882
0.443902
0.514586
0.575222
0.581484
0.53572
0.480819
0.427072
0.37914
0.337256
0.301591
0.272052
0.247785
0.225532
0.206178
0.187923
0.394706
0.421998
0.432627
0.432375
0.424015
0.409988
0.392402
0.374167
0.356674
0.343238
0.3349
0.357378
0.419901
0.530992
0.659402
0.791903
0.896261
0.972755
0.974567
0.898287
0.807602
0.719319
0.639327
0.572001
0.517407
0.473689
0.438439
0.404187
0.374686
0.346341
0.503112
0.527461
0.539407
0.540187
0.532314
0.51821
0.500237
0.481612
0.4643
0.45219
0.448622
0.477942
0.550277
0.675715
0.816575
0.959437
1.0693
1.14358
1.1445
1.0645
0.966411
0.87001
0.781972
0.707496
0.64704
0.598079
0.55821
0.520026
0.489006
0.465974
0.579868
0.600534
0.612827
0.613668
0.60632
0.592929
0.575909
0.558449
0.542923
0.533519
0.535752
0.570136
0.646694
0.775143
0.915474
1.05552
1.16197
1.22818
1.22844
1.15163
1.05395
0.956668
0.867705
0.792255
0.730915
0.681011
0.640052
0.601663
0.571069
0.553409
0.641065
0.659915
0.671788
0.672085
0.664906
0.652137
0.636238
0.620308
0.606986
0.600623
0.608596
0.646879
0.725365
0.851503
0.986626
1.11891
1.21794
1.27529
1.27497
1.20365
1.10935
1.01403
0.926662
0.852535
0.792287
0.743245
0.702693
0.665599
0.635844
0.622187
0.694894
0.713087
0.723855
0.723254
0.715835
0.703407
0.688465
0.674024
0.662867
0.659615
0.672716
0.714155
0.793519
0.915023
1.04315
1.16585
1.25592
1.30531
1.30467
1.23965
1.15019
1.05816
0.973426
0.901455
0.842938
0.795306
0.75568
0.720281
0.691668
0.680774
0.745768
0.763514
0.772548
0.770808
0.762813
0.750428
0.736186
0.723052
0.713828
0.713683
0.731148
0.77515
0.854939
0.971092
1.09173
1.20454
1.28552
1.32822
1.32774
1.26935
1.18553
1.09755
1.01587
0.946255
0.889534
0.843301
0.80467
0.770859
0.743532
0.734319
0.795755
0.81271
0.819479
0.816444
0.807642
0.795052
0.781274
0.769237
0.761663
0.764664
0.785813
0.831908
0.911809
1.02259
1.13583
1.23914
1.31161
1.34887
1.34905
1.29751
1.21987
1.13644
1.05797
0.990627
0.935472
0.890365
0.852539
0.819992
0.793915
0.785634
0.845517
0.861117
0.865278
0.860839
0.85104
0.838071
0.824592
0.813503
0.807435
0.813493
0.837793
0.885694
0.965445
1.07098
1.17713
1.27151
1.33631
1.3692
1.37049
1.32582
1.25489
1.17635
1.10117
1.03587
0.981964
0.937662
0.900423
0.868834
0.843896
0.836134
0.894969
0.908375
0.909758
0.903853
0.89299
0.879588
0.866361
0.856163
0.851576
0.86052
0.887547
0.937044
1.01651
1.11687
1.21625
1.3022
1.36018
1.38955
1.3922
1.35431
1.29052
1.21714
1.1453
1.08191
1.02901
0.985293
0.948526
0.917726
0.893821
0.886176
0.943316
0.953552
0.952329
0.944897
0.933024
0.919281
0.90638
0.897124
0.894082
0.905757
0.935173
0.986142
1.06512
1.16039
1.25324
1.3311
1.38294
1.40937
1.41341
1.38206
1.32578
1.25778
1.18947
1.12799
1.07609
1.03289
0.996527
0.966332
0.943192
0.935221
0.989332
0.995584
0.99207
0.983134
0.970435
0.956572
0.9442
0.936033
0.934714
0.948983
0.980574
1.03296
1.11112
1.2014
1.28796
1.35786
1.40402
1.42776
1.43302
1.4079
1.35917
1.29696
1.23254
1.17311
1.12224
1.07951
1.04347
1.01367
0.990996
0.982226
1.03159
1.0335
1.02791
1.01766
1.00445
0.990814
0.979283
0.97241
0.97316
0.989923
1.02356
1.07742
1.15429
1.23977
1.31996
1.38203
1.42282
1.44392
1.45003
1.43059
1.38923
1.33334
1.27316
1.21592
1.16614
1.12386
1.08806
1.05848
1.03597
1.0259
1.06862
1.06651
1.05896
1.04768
1.03438
1.02143
1.01115
1.00586
1.00913
1.02837
1.06404
1.11931
1.19383
1.27343
1.34629
1.40029
1.43657
1.45696
1.46369
1.44914
1.41484
1.36552
1.30986
1.2551
1.20648
1.16463
1.129
1.09945
1.0768
1.06499
1.09941
1.09391
1.08454
1.07265
1.05978
1.04808
1.03951
1.03629
1.04244
1.06372
1.10109
1.15715
1.2284
1.30154
1.36669
1.41216
1.44376
1.46344
1.47196
1.46281
1.43514
1.39242
1.34166
1.28959
1.24218
1.20073
1.16515
1.13545
1.11237
1.09842
1.12354
1.11514
1.10433
1.09236
1.08055
1.07076
1.06437
1.06318
1.07221
1.09544
1.13437
1.19029
1.2576
1.32381
1.38101
1.41771
1.44458
1.46348
1.47353
1.46869
1.44846
1.41344
1.36785
1.31888
1.27261
1.23147
1.19577
1.16567
1.14187
1.12548
1.14097
1.13011
1.11848
1.10715
1.09708
1.08933
1.08513
1.08652
1.09833
1.1234
1.16367
1.21823
1.28123
1.3402
1.38939
1.41735
1.43917
1.45685
1.46854
1.46669
1.45281
1.42572
1.38702
1.34282
1.29775
1.25671
1.22067
1.18982
1.16501
1.14603
1.15217
1.13929
1.12769
1.11756
1.10941
1.10399
1.1022
1.10658
1.12095
1.14768
1.18864
1.24098
1.29931
1.35085
1.3921
1.41116
1.42805
1.44443
1.45732
1.45806
1.44859
1.4265
1.39654
1.35859
1.31697
1.27691
1.2404
1.20834
1.1822
1.1608
1.15907
1.14415
1.13246
1.12423
1.11842
1.11552
1.11648
1.12385
1.14049
1.16861
1.20913
1.25875
1.31207
1.35607
1.38953
1.39981
1.41177
1.42663
1.44036
1.44352
1.43737
1.4208
1.39434
1.36215
1.32665
1.28957
1.25381
1.22158
1.19434
1.17155
1.16211
1.14602
1.13499
1.12863
1.12539
1.12513
1.12913
1.13912
1.15761
1.18641
1.22566
1.27196
1.3199
1.35566
1.38223
1.38392
1.39102
1.40412
1.41848
1.42371
1.42041
1.40822
1.38723
1.35842
1.32558
1.29114
1.25699
1.22484
1.19687
1.17432
1.1621
1.14587
1.13641
1.13236
1.13176
1.13458
1.14137
1.15346
1.17325
1.20174
1.239
1.28128
1.32314
1.35168
1.37093
1.3642
1.36635
1.37786
1.39263
1.39944
1.39854
1.39023
1.37409
1.3506
1.3209
1.28847
1.25533
1.22328
1.19481
1.17237
1.15881
1.14434
1.13807
1.13687
1.13961
1.1455
1.1547
1.16831
1.1885
1.21588
1.25028
1.28776
1.32278
1.34435
1.35645
1.34132
1.33886
1.34896
1.36389
1.37169
1.37278
1.36779
1.35619
1.33799
1.3133
1.28358
1.25204
1.22044
1.19141
1.16849
1.15589
1.14514
1.14211
1.1446
1.15098
1.15975
1.17099
1.18552
1.20507
1.23058
1.26123
1.29283
1.32135
1.33483
1.33972
1.31617
1.30987
1.31866
1.3335
1.34166
1.34423
1.34194
1.33453
1.32142
1.30267
1.27725
1.24829
1.21787
1.18857
1.16488
1.15713
1.15006
1.15123