/*--------------------------------*- C++ -*----------------------------------*\
  =========                 |
  \\      /  F ield         | OpenFOAM: The Open Source CFD Toolbox
   \\    /   O peration     | Website:  https://openfoam.org
    \\  /    A nd           | Version:  12
     \\/     M anipulation  |
\*---------------------------------------------------------------------------*/
FoamFile
{
    format      ascii;
    class       volScalarField;
    location    "300/air";
    object      nut;
}
// * * * * * * * * * * * * * * * * * * * * * * * * * * * * * * * * * * * * * //

dimensions      [0 2 -1 0 0 0 0];

internalField   nonuniform List<scalar> 
243000
(
0.000153525
0.000154361
0.00015119
0.000146086
0.000139886
0.000133037
0.000125746
0.000118202
0.000110444
0.000102688
9.51154e-05
8.77843e-05
7.89849e-05
7.83263e-05
0.000108842
0.00012957
0.00014373
0.000154067
0.00015899
0.000157745
0.000153648
0.000149694
0.000145679
0.000141858
0.000138406
0.000135261
0.000132851
0.000130864
0.000132812
0.000136484
0.000615624
0.000599784
0.000575058
0.000547333
0.000519175
0.00049104
0.000463068
0.000435713
0.000408935
0.000383563
0.000359654
0.000337998
0.000312312
0.000336224
0.000437077
0.000506237
0.000555403
0.000593484
0.000612523
0.000608175
0.000593511
0.000579619
0.000565536
0.000553125
0.000542497
0.000533749
0.000528087
0.000525021
0.000533252
0.00054956
0.000817166
0.000825748
0.000821026
0.000810147
0.000796032
0.000778977
0.000758942
0.000736538
0.000711686
0.000685866
0.000658969
0.000632748
0.000598723
0.000669623
0.000838422
0.000955511
0.00103591
0.00109248
0.00111317
0.00109126
0.00104763
0.00100289
0.000956632
0.000912282
0.000870339
0.000831333
0.000796994
0.000767338
0.00075147
0.000747946
0.000876349
0.000884696
0.000879942
0.000869144
0.000854872
0.000837491
0.000817031
0.000794187
0.000768969
0.000742887
0.000715581
0.000688956
0.000657315
0.000746309
0.000907025
0.00102061
0.00109996
0.001155
0.00117619
0.00115696
0.00111435
0.00107002
0.0010241
0.000979839
0.000937809
0.000898772
0.00086441
0.000835444
0.000819491
0.000818112
0.000920804
0.000928854
0.000924527
0.000914264
0.000900292
0.000883012
0.000862551
0.000839674
0.00081445
0.000788312
0.000760713
0.000733774
0.000705465
0.000806716
0.00095712
0.00106529
0.00114205
0.00119456
0.00121561
0.00119954
0.00115895
0.00111614
0.00107163
0.00102844
0.000987266
0.000949045
0.000915443
0.00088768
0.000872107
0.000872364
0.000956523
0.000964282
0.000960432
0.000950724
0.000937102
0.000920012
0.00089968
0.000876916
0.000851811
0.000825662
0.000797788
0.000770639
0.000746389
0.00085556
0.00099498
0.00109699
0.00117037
0.00122026
0.00124078
0.00122794
0.00118998
0.00114929
0.00110676
0.0010652
0.0010254
0.000988475
0.000956057
0.000929715
0.000914777
0.000916134
0.000986825
0.000994286
0.000990739
0.000981419
0.000968029
0.000951054
0.000930822
0.000908162
0.000883158
0.000856928
0.000828725
0.000801435
0.000781888
0.000895478
0.00102412
0.00111986
0.0011896
0.00123699
0.00125691
0.00124722
0.00121222
0.00117406
0.00113383
0.00109421
0.00105611
0.00102075
0.000989759
0.000964928
0.000950773
0.000952875
0.00101365
0.00102071
0.00101722
0.00100805
0.000994702
0.000977694
0.00095745
0.000934792
0.000909785
0.000883327
0.000854676
0.000827256
0.00081301
0.000928146
0.00104669
0.00113641
0.00120254
0.00124767
0.00126706
0.00126035
0.00122858
0.00119316
0.00115545
0.00111799
0.00108179
0.00104817
0.00101876
0.000995462
0.000982178
0.000984785
0.0010381
0.0010446
0.00104092
0.00103164
0.00101812
0.0010009
0.000980487
0.000957687
0.000932511
0.000905636
0.00087636
0.000848753
0.000840359
0.000954718
0.00106409
0.00114821
0.00121092
0.00125405
0.00127312
0.00126914
0.00124087
0.00120827
0.00117321
0.00113807
0.00110393
0.00107215
0.00104442
0.00102264
0.00101026
0.00101319
0.00106074
0.00106649
0.0010624
0.0010528
0.00103888
0.00102126
0.00100051
0.000977399
0.00095186
0.000924347
0.000894228
0.000866289
0.000864648
0.000975841
0.00107723
0.00115623
0.00121579
0.00125714
0.00127616
0.00127471
0.0012501
0.00122039
0.00118808
0.00115537
0.00112338
0.00109352
0.00106749
0.00104721
0.00103577
0.00103887
0.00108177
0.00108661
0.00108194
0.00107181
0.00105731
0.0010391
0.00101785
0.000994261
0.000968161
0.000939771
0.000908569
0.000880276
0.000885651
0.000992394
0.00108669
0.00116108
0.00121766
0.00125779
0.00127674
0.0012777
0.00125679
0.00123008
0.00120056
0.00117033
0.00114051
0.00111261
0.00108833
0.00106958
0.00105913
0.00106235
0.0011012
0.00110498
0.00109959
0.00108876
0.00107351
0.00105458
0.00103269
0.00100845
0.000981607
0.000952176
0.00091966
0.000891317
0.00090327
0.00100492
0.00109284
0.00116306
0.00121741
0.00125641
0.00127542
0.00127846
0.00126124
0.00123753
0.00121083
0.00118304
0.00115543
0.00112954
0.0011071
0.00108993
0.00108055
0.00108388
0.00111889
0.00112147
0.00111525
0.00110359
0.00108748
0.00106772
0.00104505
0.00102004
0.000992282
0.00096166
0.000927908
0.000901087
0.000919515
0.00101397
0.00109595
0.0011626
0.00121459
0.0012526
0.00127192
0.00127694
0.00126342
0.00124281
0.00121883
0.00119347
0.00116809
0.00114428
0.00112378
0.00110827
0.00110004
0.00110345
0.00113453
0.0011358
0.00112868
0.00111613
0.00109907
0.0010784
0.00105485
0.00102887
0.000999983
0.000968121
0.000934195
0.000911331
0.00093464
0.00102173
0.00109646
0.00115964
0.00120947
0.00124668
0.00126634
0.00127321
0.00126286
0.00124557
0.00122438
0.00120151
0.00117836
0.00115669
0.00113821
0.00112444
0.00111742
0.00112088
0.00114772
0.00114762
0.00113959
0.00112609
0.00110801
0.00108636
0.0010619
0.00103498
0.00100503
0.000972548
0.000941027
0.000921715
0.00094858
0.00102889
0.00109772
0.00115625
0.00120281
0.00123876
0.00125866
0.00126715
0.00125988
0.0012453
0.00122714
0.00120682
0.00118609
0.00116653
0.00115014
0.00113817
0.00113237
0.00113583
0.00115797
0.00115656
0.00114757
0.00113307
0.00111407
0.00109155
0.00106621
0.00103853
0.00100833
0.000977422
0.000948086
0.000931965
0.000961291
0.00103539
0.00109903
0.00115352
0.00119731
0.0012311
0.00125011
0.00125891
0.00125416
0.00124227
0.00122651
0.00120903
0.00119081
0.00117359
0.00115922
0.00114906
0.00114446
0.00114787
0.00116479
0.00116212
0.00115222
0.00113689
0.00111708
0.00109392
0.001068
0.00104092
0.00101192
0.000982415
0.000955082
0.000941875
0.000972796
0.00104107
0.0011002
0.00115113
0.00119251
0.00122438
0.0012427
0.00125158
0.0012477
0.00123707
0.00122313
0.00120786
0.0011921
0.00117735
0.00116515
0.0011567
0.00115323
0.00115654
0.00116777
0.00116399
0.00115345
0.00113755
0.00111726
0.00109473
0.00106969
0.00104341
0.00101548
0.000987257
0.0009618
0.000951271
0.000983014
0.00104587
0.00110103
0.00114879
0.00118798
0.0012182
0.00123599
0.0012449
0.00124183
0.00123251
0.00121981
0.0012055
0.00119066
0.00117751
0.0011675
0.00116074
0.00115821
0.00116138
0.00116666
0.00116202
0.00115183
0.00113676
0.00111731
0.00109541
0.00107117
0.00104567
0.00101876
0.000991755
0.000968084
0.000960008
0.000991888
0.00104971
0.00110125
0.00114622
0.00118342
0.00121222
0.00122956
0.00123845
0.00123614
0.00122809
0.00121647
0.00120313
0.00118929
0.001177
0.00116731
0.00116082
0.00115905
0.00116208
0.00116362
0.00115949
0.00114999
0.00113562
0.00111697
0.00109568
0.00107224
0.00104753
0.00102158
0.00099578
0.000973817
0.000967966
0.000999391
0.0010525
0.00110076
0.00114319
0.00117855
0.00120609
0.00122302
0.00123188
0.00123026
0.00122338
0.00121282
0.00120039
0.00118755
0.00117604
0.00116674
0.00116042
0.00115799
0.00115947
0.0011603
0.00115636
0.00114747
0.00113378
0.00111593
0.0010954
0.00107273
0.00104882
0.00102383
0.000999232
0.000978905
0.000975041
0.0010055
0.00105426
0.00109927
0.00113945
0.0011731
0.00119948
0.00121605
0.00122487
0.00122385
0.00121802
0.00120851
0.00119698
0.00118508
0.00117429
0.0011654
0.00115922
0.0011563
0.00115653
0.00115607
0.00115219
0.00114388
0.00113093
0.00111399
0.0010943
0.00107253
0.00104941
0.00102542
0.00100203
0.00098325
0.000981162
0.00101021
0.00105464
0.00109667
0.00113475
0.00116681
0.00119211
0.00120833
0.00121709
0.00121663
0.00121173
0.00120323
0.00119267
0.00118163
0.00117146
0.00116296
0.00115691
0.00115351
0.00115274
0.00115049
0.00114664
0.00113889
0.00112686
0.00111093
0.00109219
0.00107141
0.00104929
0.00102627
0.00100413
0.000986812
0.000986222
0.0010135
0.00105375
0.00109295
0.00112879
0.00115945
0.00118373
0.00119957
0.00120824
0.0012083
0.00120425
0.00119671
0.00118712
0.00117694
0.00116732
0.00115916
0.00115312
0.00114923
0.0011476
0.00114318
0.00113946
0.00113237
0.00112127
0.00110652
0.00108892
0.00106927
0.00104826
0.00102641
0.0010055
0.000989602
0.000990143
0.00101526
0.00105168
0.00108795
0.00112154
0.00115078
0.00117409
0.0011895
0.00119802
0.00119857
0.00119531
0.0011887
0.00118003
0.00117068
0.0011616
0.00115366
0.00114755
0.00114313
0.0011407
0.00113382
0.0011304
0.00112415
0.0011141
0.00110058
0.00108434
0.00106603
0.0010463
0.00102578
0.00100627
0.000991763
0.000992992
0.00101555
0.00104838
0.00108173
0.00111304
0.0011407
0.00116308
0.00117797
0.00118622
0.00118719
0.00118467
0.00117899
0.00117125
0.00116266
0.00115406
0.00114628
0.00113989
0.00113486
0.00113166
0.00112212
0.00111926
0.00111406
0.00110525
0.00109318
0.00107845
0.00106175
0.00104357
0.00102472
0.00100697
0.000993896
0.000995476
0.0010153
0.00104462
0.00107497
0.00110384
0.00112969
0.00115097
0.00116511
0.00117291
0.00117415
0.00117227
0.00116749
0.00116067
0.0011528
0.00114462
0.00113688
0.00113009
0.00112429
0.00112019
0.00110822
0.00110625
0.00110244
0.00109523
0.001085
0.00107216
0.00105772
0.00104191
0.00102539
0.0010097
0.000998785
0.00100054
0.0010179
0.00104352
0.00107058
0.00109657
0.00112001
0.00113962
0.00115245
0.00115939
0.0011606
0.00115905
0.00115495
0.00114889
0.00114159
0.00113367
0.00112579
0.00111842
0.00111165
0.00110652
0.00109449
0.00109427
0.00109273
0.00108825
0.00108117
0.00107205
0.00106132
0.00104957
0.00103724
0.0010257
0.00101813
0.00102059
0.0010355
0.0010572
0.00107993
0.00110161
0.00112122
0.00113736
0.00114738
0.00115226
0.0011527
0.00115075
0.00114661
0.00114061
0.00113324
0.00112499
0.00111642
0.00110789
0.00109964
0.00109301
0.00110784
0.00111174
0.00111517
0.00111663
0.00111646
0.00111514
0.00111288
0.0011092
0.00110462
0.00110008
0.00109741
0.00110062
0.00111153
0.0011265
0.00114144
0.00115515
0.00116726
0.00117688
0.00118123
0.0011822
0.00118042
0.00117685
0.00117158
0.00116471
0.00115637
0.00114687
0.00113663
0.00112598
0.0011154
0.00110646
0.00131165
0.00131991
0.00132757
0.00133428
0.00134019
0.00134523
0.00134918
0.00134848
0.00134586
0.00134187
0.00133717
0.00133372
0.00133295
0.0013336
0.00133314
0.00133386
0.00133595
0.00133879
0.00133669
0.00133595
0.00133669
0.0013383
0.00133968
0.00134019
0.00133938
0.00133658
0.00133152
0.00132505
0.0013177
0.00131048
0.000198055
0.000197754
0.000192101
0.000184344
0.000175393
0.000165789
0.000155753
0.000145646
0.00013561
0.000126446
0.000118799
0.00011504
0.000116656
0.000132927
0.000155568
0.000177117
0.000194013
0.000207774
0.000214299
0.00021172
0.000206597
0.000201176
0.000195788
0.000190937
0.000186858
0.000183583
0.000181369
0.000179578
0.000180251
0.000182307
0.00105306
0.00104878
0.000975738
0.000896231
0.000826316
0.000763164
0.000706363
0.000658813
0.000619547
0.000591268
0.000567168
0.000556628
0.000559127
0.000607862
0.000704843
0.000812208
0.000896171
0.000979735
0.00101512
0.000980514
0.000939786
0.000902983
0.0008679
0.00084102
0.000820922
0.000805998
0.000794812
0.000781131
0.000769188
0.000776577
0.00189422
0.00197349
0.00189495
0.00176948
0.00164174
0.00151865
0.00140501
0.00130864
0.00122937
0.00117097
0.00112085
0.00109391
0.00108243
0.00116765
0.00134053
0.00152874
0.00167185
0.0018099
0.0018846
0.00184048
0.00177146
0.00170847
0.00164934
0.00160367
0.00156886
0.00153999
0.00151881
0.00149699
0.0014801
0.00151196
0.00264388
0.0027989
0.00273821
0.00259358
0.00242589
0.00225467
0.00209164
0.00195083
0.00183491
0.00174722
0.00167392
0.0016313
0.0016065
0.0017278
0.00195007
0.00219095
0.00237442
0.00254295
0.00265366
0.00261838
0.00253649
0.00246111
0.00239084
0.00233607
0.00229173
0.0022562
0.00222934
0.00220451
0.00218603
0.00224428
0.00332084
0.00352598
0.00348475
0.00333431
0.00314187
0.00293625
0.00273517
0.00255887
0.00241188
0.00230086
0.00220862
0.00215425
0.00211895
0.00227199
0.0025218
0.00279232
0.00300172
0.00318589
0.00332689
0.00331186
0.00323014
0.00315384
0.00308223
0.00302488
0.00297564
0.00293637
0.00290661
0.00288131
0.00286385
0.00294583
0.00393565
0.00415735
0.00414421
0.00399188
0.00378248
0.00355423
0.003327
0.00312408
0.0029542
0.00282586
0.00271927
0.00265767
0.00262024
0.00279485
0.00305525
0.00333903
0.00356341
0.00375625
0.00392114
0.00393344
0.00386233
0.00379343
0.00372686
0.00367026
0.00361875
0.00357903
0.00354825
0.0035246
0.00351031
0.00361163
0.00450693
0.00472786
0.00472014
0.0045678
0.00434995
0.00410815
0.00386471
0.00364413
0.00345915
0.0033188
0.00320211
0.00313714
0.00310909
0.00329043
0.00355044
0.00383627
0.00406825
0.00426628
0.00444914
0.00449284
0.00443999
0.00438409
0.00432599
0.0042704
0.00422326
0.00418638
0.00415676
0.00413671
0.00412745
0.00424361
0.00503805
0.00523774
0.00522091
0.00506749
0.00484772
0.00460044
0.00434873
0.00411789
0.00392423
0.00377645
0.00365302
0.00358838
0.00357407
0.00375412
0.00400633
0.00428681
0.00452186
0.00472291
0.00491811
0.00499485
0.00496529
0.00492559
0.00487689
0.00483009
0.00479163
0.00476025
0.00473399
0.00471974
0.00471784
0.00484506
0.00553107
0.00568847
0.00565357
0.00549868
0.00528085
0.00503368
0.0047797
0.00454475
0.00434733
0.00419646
0.00406877
0.00400793
0.00400735
0.00418131
0.00442084
0.00469114
0.00492633
0.00512943
0.00533147
0.00544021
0.00543678
0.00541443
0.0053791
0.00534993
0.00532257
0.00529897
0.00527993
0.00526611
0.00526496
0.00538851
0.00597145
0.00607878
0.00602394
0.00586843
0.00565438
0.00541011
0.00515834
0.00492422
0.0047269
0.00457662
0.0044468
0.00439115
0.00440312
0.00456755
0.00479141
0.00504845
0.00528111
0.00548691
0.00569076
0.00582721
0.00585109
0.00584732
0.00583612
0.00582494
0.00581172
0.00579355
0.00576956
0.00575208
0.00575115
0.00585164
0.00634692
0.00640954
0.0063378
0.00618141
0.00597132
0.0057322
0.00548587
0.0052562
0.00506207
0.00491476
0.00478493
0.00473665
0.00476276
0.00490891
0.00511548
0.00535734
0.00558541
0.00579402
0.00599694
0.00615314
0.00620582
0.00622735
0.00624076
0.00624839
0.00623712
0.00621476
0.00618947
0.00617219
0.00616681
0.00625163
0.00666197
0.00668426
0.00659857
0.00644084
0.00623478
0.0060022
0.0057635
0.0055408
0.00535235
0.00520885
0.00508065
0.00503542
0.00507237
0.0052011
0.00539087
0.00561644
0.00583823
0.00604907
0.00624902
0.00641735
0.00649983
0.00655037
0.0065855
0.00659516
0.00658382
0.00656296
0.00654096
0.00652411
0.00652224
0.00659064
0.00691733
0.00690646
0.00680831
0.00664896
0.00644701
0.00622186
0.00599224
0.00577827
0.00559697
0.00545936
0.00533209
0.0052798
0.00532344
0.0054422
0.00561595
0.00582463
0.00603888
0.00625012
0.00644654
0.00662039
0.00673388
0.0068103
0.0068518
0.00686473
0.00685848
0.00684345
0.00682735
0.00681562
0.00681867
0.00686944
0.00711446
0.00707691
0.00696793
0.0068071
0.0066095
0.00639248
0.00617298
0.00596894
0.00579534
0.00566182
0.00553094
0.00546458
0.00551056
0.005633
0.00578907
0.00598095
0.00618686
0.00639479
0.00658918
0.00676328
0.00690619
0.00699749
0.00704501
0.00706581
0.00706794
0.00706135
0.00705368
0.00704999
0.00705589
0.00708884
0.00725438
0.00719561
0.00707759
0.00691581
0.00672303
0.00651494
0.00630667
0.00611361
0.00594715
0.00581445
0.00567148
0.00559656
0.00563599
0.00575176
0.00589449
0.00607571
0.00627419
0.00648069
0.00667409
0.00684809
0.00701357
0.00711402
0.00717281
0.00720452
0.00721692
0.00721995
0.00722243
0.00722644
0.00723383
0.00724946
0.00733791
0.00726241
0.00713692
0.00697486
0.0067876
0.00658971
0.00639438
0.00621363
0.00605033
0.00590347
0.00575353
0.00567386
0.00570379
0.00580529
0.00593023
0.00609568
0.00628447
0.00649316
0.00669528
0.00687084
0.00704346
0.00716296
0.00723815
0.00728421
0.00730877
0.00732168
0.00733319
0.00734491
0.00735275
0.00735203
0.007366
0.00727716
0.00714452
0.00698248
0.00680152
0.00661624
0.00643656
0.00625676
0.00608592
0.00593058
0.00577814
0.00569579
0.00571299
0.00579482
0.00589807
0.00604336
0.00621785
0.00642652
0.00663069
0.00681093
0.00699933
0.00714307
0.00723747
0.00730457
0.00734691
0.00737062
0.00738846
0.0074064
0.00741387
0.00739821
0.00733981
0.0072401
0.00710324
0.00694546
0.00677259
0.00658668
0.00640657
0.00623038
0.00605645
0.00589903
0.00574729
0.00566316
0.00566474
0.00572352
0.00580247
0.00592489
0.00608224
0.00628973
0.00649163
0.00667266
0.00686578
0.00702698
0.00715177
0.00724878
0.00731913
0.00736133
0.00739384
0.00741578
0.00742075
0.0073924
0.00726525
0.00715931
0.00701777
0.00685297
0.0066763
0.00649377
0.00631635
0.00614164
0.00596883
0.0058129
0.0056642
0.00557797
0.00556208
0.00559609
0.0056496
0.00574786
0.00588791
0.00609097
0.00628096
0.00645782
0.0066529
0.0068253
0.00696658
0.00708313
0.0071796
0.00725501
0.00731834
0.00736133
0.00737166
0.00734418
0.00713789
0.00701172
0.00686261
0.00669517
0.00651922
0.00634413
0.00617259
0.00600109
0.00582952
0.00567824
0.00553223
0.00544373
0.0054093
0.00541838
0.00544659
0.00552047
0.00564436
0.00582991
0.00600499
0.00617965
0.00637275
0.00655593
0.00671122
0.00684479
0.00695762
0.007052
0.0071319
0.00719045
0.00722163
0.00722094
0.00691659
0.0067792
0.00663277
0.00647416
0.00630783
0.00614403
0.00598024
0.0058125
0.00564495
0.00550035
0.00535507
0.00526466
0.00521146
0.00519661
0.00520077
0.0052509
0.00535779
0.00551849
0.00568005
0.00584876
0.0060378
0.00622644
0.00639502
0.00654253
0.00666933
0.0067777
0.00687029
0.00693989
0.00698177
0.00699808
0.00660366
0.00646616
0.00633422
0.00619289
0.0060484
0.00589808
0.00574227
0.00558047
0.00542147
0.00528255
0.00513598
0.00504435
0.00497354
0.00493678
0.00491916
0.00494701
0.00503334
0.00517119
0.00531697
0.00547632
0.00565951
0.00584919
0.00602771
0.00618557
0.00632317
0.00644158
0.0065419
0.00661912
0.00666735
0.00669404
0.00622556
0.00609924
0.00598425
0.00586899
0.00574619
0.005608
0.00546231
0.00531252
0.00516247
0.00502585
0.00487711
0.00478442
0.00469964
0.00464388
0.00460792
0.00461628
0.00468297
0.00479786
0.00492596
0.005073
0.00524845
0.00543543
0.00561801
0.00578163
0.0059262
0.00605132
0.00615652
0.00623777
0.00628973
0.00631808
0.00579888
0.00569249
0.00560329
0.00551031
0.00540073
0.00528083
0.0051491
0.00500888
0.00486589
0.00472856
0.00457878
0.00448237
0.00439238
0.00432152
0.00427208
0.00426557
0.00431764
0.00440794
0.00451588
0.00464903
0.00481401
0.00499486
0.00517171
0.00533441
0.00548118
0.00561033
0.00571924
0.00580451
0.00585846
0.00588847
0.00533874
0.00526383
0.00519258
0.00511649
0.00502453
0.00491814
0.00479706
0.00466402
0.00452437
0.00438581
0.00423774
0.00413744
0.00405082
0.00397337
0.0039174
0.00390279
0.00394099
0.00401099
0.0041022
0.00421577
0.00436441
0.00453484
0.0047071
0.0048697
0.00501529
0.00513986
0.0052415
0.00532022
0.00537737
0.00541255
0.00485372
0.00480646
0.0047518
0.0046891
0.00460788
0.00451028
0.00439589
0.00426766
0.00413098
0.00399368
0.00385466
0.0037583
0.00367812
0.00361048
0.00355732
0.00354271
0.00356905
0.00362187
0.00369232
0.00378765
0.003915
0.00406683
0.00422736
0.00438293
0.00452475
0.00464616
0.00474424
0.00482057
0.00487188
0.00490097
0.00433863
0.00430818
0.00426783
0.00421379
0.00414045
0.00405002
0.00394378
0.00382489
0.00369874
0.0035741
0.00345832
0.00337845
0.00331586
0.00326484
0.00322737
0.003217
0.0032362
0.00327553
0.00332734
0.00339901
0.00349694
0.00361797
0.00375374
0.00389032
0.0040159
0.00412543
0.00421621
0.00428659
0.00433224
0.00435993
0.00378564
0.00377047
0.00374404
0.0037023
0.00364399
0.00357275
0.00349035
0.00339922
0.00330288
0.00321034
0.00313048
0.00307779
0.00303855
0.00300591
0.0029828
0.00297528
0.00299026
0.00301981
0.00305092
0.00309551
0.00315984
0.00324227
0.00334189
0.00344547
0.00353741
0.00361745
0.00368393
0.00373465
0.00376837
0.00378981
0.00328644
0.00329402
0.00329138
0.00327384
0.00324352
0.00320524
0.00315956
0.00310727
0.00304872
0.00299039
0.00294003
0.00290486
0.00287628
0.00285049
0.002836
0.00284194
0.00286141
0.00288831
0.00290765
0.00292887
0.00296062
0.00299567
0.00303429
0.00308733
0.00313773
0.00318421
0.00322356
0.00325223
0.003271
0.0032848
0.00291704
0.00294313
0.00295982
0.00296439
0.00296082
0.00295229
0.00293818
0.00291936
0.00289237
0.00286822
0.00284803
0.00283274
0.00281921
0.00280855
0.00280874
0.00282774
0.00285462
0.00288448
0.00290546
0.0029203
0.00293482
0.00294519
0.00295265
0.00296302
0.00297203
0.00297604
0.00297382
0.00296358
0.00294362
0.00291923
0.000225551
0.000225495
0.000219477
0.000211172
0.000201433
0.00019089
0.000179878
0.000168972
0.000158448
0.000149535
0.000142885
0.000143276
0.000152489
0.000171929
0.000194434
0.000216458
0.000234502
0.000249852
0.000256143
0.00025174
0.000244917
0.000237731
0.000230867
0.000224821
0.000219858
0.000216062
0.000213491
0.000211148
0.000210201
0.000209984
0.00135911
0.00141616
0.00134537
0.00125235
0.00116299
0.0010777
0.000999351
0.000933337
0.000879277
0.000839902
0.000803581
0.000799742
0.000824598
0.000929627
0.00106906
0.00121985
0.00132936
0.00143621
0.00147842
0.00141007
0.00133554
0.00126756
0.00120434
0.00115667
0.00112364
0.00110185
0.00108569
0.00106163
0.00102624
0.00101394
0.00253742
0.00273146
0.00267165
0.00252241
0.00235647
0.00219018
0.00203406
0.0019026
0.00179737
0.00172054
0.00165144
0.00163269
0.00165617
0.00183431
0.00206931
0.00232262
0.00249289
0.00265666
0.0027492
0.00265158
0.00252575
0.00241076
0.00230735
0.00223114
0.00218068
0.00214867
0.00212534
0.00208958
0.0020414
0.00206003
0.00363506
0.00392647
0.00389297
0.00371358
0.00349227
0.00326229
0.00304225
0.00285556
0.00270792
0.00259738
0.00250279
0.00246572
0.00248803
0.00271521
0.00300039
0.00330747
0.00351063
0.00369842
0.00383387
0.00373383
0.00358398
0.00344796
0.00333032
0.00324716
0.00319535
0.0031647
0.00314251
0.00310528
0.00306246
0.00312152
0.00465728
0.0050038
0.00498561
0.00478704
0.00452893
0.00425401
0.00398768
0.00375895
0.00357829
0.00344025
0.00332689
0.00327636
0.00329734
0.00355258
0.00385678
0.00418476
0.00440402
0.00460044
0.00476974
0.00468479
0.00453253
0.0043963
0.00428331
0.00420772
0.00416391
0.00413905
0.00411887
0.00408536
0.00405361
0.00415675
0.00560308
0.00597002
0.00595218
0.00573847
0.0054602
0.00515769
0.00486088
0.00460406
0.00440028
0.00424126
0.00412285
0.00405933
0.0040767
0.00434139
0.00464593
0.00497421
0.00519885
0.00539903
0.00559392
0.0055365
0.00539853
0.00527714
0.00518101
0.00512089
0.0050884
0.00506805
0.00505349
0.00503247
0.00501512
0.00515443
0.00647006
0.00683598
0.00681779
0.00659485
0.00629417
0.00597195
0.00565853
0.00538619
0.00517056
0.00500313
0.00488473
0.00480844
0.00481898
0.00507949
0.00537224
0.00568872
0.00591369
0.00611482
0.00632983
0.00630824
0.00619638
0.00609977
0.00602722
0.00598574
0.00596334
0.00595656
0.00595388
0.00594875
0.00594972
0.00611672
0.00728904
0.00760962
0.00755746
0.0073263
0.007026
0.00670034
0.00638058
0.00610206
0.00588246
0.00570575
0.00558696
0.0055142
0.00551953
0.00576303
0.00603666
0.00633495
0.00655862
0.00675899
0.00698948
0.00700843
0.00693006
0.0068634
0.00681713
0.00679454
0.00679739
0.00681042
0.00682148
0.0068312
0.00685346
0.00704135
0.0080482
0.0082841
0.00819468
0.00796134
0.00766684
0.00734489
0.00702667
0.00674916
0.00653098
0.00634888
0.00622412
0.00615615
0.00617102
0.00638724
0.00663803
0.00691539
0.00713764
0.0073366
0.00757789
0.00763874
0.00759753
0.00756184
0.00754635
0.0075611
0.00758866
0.00762075
0.00764896
0.00766927
0.00768833
0.00784897
0.00869704
0.00885674
0.0087398
0.00850935
0.00822334
0.00790841
0.00759681
0.00732524
0.00711318
0.0069293
0.00680098
0.00672895
0.00676995
0.00694614
0.00717445
0.00743001
0.00765077
0.00784933
0.00809592
0.00819754
0.00819377
0.00819369
0.00822308
0.00827057
0.0083235
0.00835858
0.00837373
0.00838399
0.00839506
0.00853308
0.00924841
0.00933547
0.00920262
0.00897845
0.00869946
0.00839336
0.00809216
0.00782967
0.00762706
0.00744352
0.00731379
0.00723625
0.00728959
0.00744237
0.00764323
0.00787723
0.00809572
0.00829652
0.00854251
0.00868116
0.00871594
0.00876255
0.00883052
0.00889481
0.00893554
0.00895966
0.00897026
0.00897656
0.00899869
0.00911892
0.00970858
0.00973068
0.00959176
0.009371
0.00909864
0.00880317
0.00851468
0.00826319
0.00807146
0.00788911
0.00775976
0.00767887
0.00773061
0.00787458
0.00804072
0.00825393
0.00846933
0.00867507
0.00891515
0.00908757
0.00916595
0.00925387
0.00933009
0.00938594
0.00942471
0.00944812
0.00946282
0.0094802
0.00951168
0.00961054
0.0100793
0.0100545
0.00990872
0.0096897
0.00942452
0.00914076
0.00886615
0.00862667
0.00844572
0.00826453
0.0081357
0.00805368
0.00809907
0.00821684
0.00836357
0.00855482
0.00876704
0.00897927
0.00920993
0.00941205
0.00953614
0.00964024
0.00971452
0.0097736
0.00981834
0.00984925
0.00987324
0.0098999
0.00993669
0.010013
0.0103657
0.0103086
0.0101549
0.00993697
0.00967949
0.00940814
0.00914783
0.0089203
0.00874932
0.00856743
0.00843764
0.00835492
0.00838735
0.00847855
0.00860048
0.00877141
0.00897613
0.00920061
0.00942279
0.00965154
0.00981656
0.00992183
0.0100056
0.0100742
0.0101295
0.0101688
0.0102019
0.010237
0.0102767
0.0103308
0.0105726
0.0104917
0.0103303
0.0101137
0.00986467
0.00960621
0.00936009
0.00914361
0.00898026
0.00879362
0.00865972
0.00857626
0.00858867
0.00864988
0.00874294
0.00889016
0.00909031
0.00932626
0.00954611
0.00979223
0.00997922
0.0101067
0.0102084
0.0102916
0.0103574
0.0104068
0.0104497
0.0104928
0.0105341
0.0105672
0.0107023
0.0106023
0.0104338
0.0102193
0.00997986
0.0097344
0.00950202
0.00929417
0.00912942
0.00893789
0.00880056
0.00871383
0.00870032
0.00872849
0.00878938
0.00890972
0.00910099
0.00934201
0.00956463
0.00982055
0.0100384
0.0101947
0.0103215
0.0104219
0.0105009
0.010563
0.0106171
0.0106686
0.0107111
0.0107249
0.0107558
0.0106379
0.0104622
0.010251
0.0100229
0.00978941
0.00956489
0.00936423
0.00919442
0.00899938
0.00885963
0.00876367
0.00872042
0.008713
0.00873913
0.00882957
0.00900803
0.00924513
0.00947426
0.00973588
0.00997979
0.0101747
0.0103343
0.0104577
0.0105569
0.0106369
0.0107042
0.0107654
0.0108102
0.010808
0.010732
0.010593
0.0104094
0.0102013
0.00998334
0.00976115
0.00954572
0.00935202
0.00917391
0.0089767
0.0088358
0.00872219
0.00864758
0.00860274
0.00859227
0.00865015
0.00881185
0.00904461
0.00927431
0.0095393
0.00979981
0.0100309
0.010227
0.0103854
0.0105162
0.0106254
0.0107122
0.0107852
0.0108344
0.0108253
0.0106442
0.0104787
0.0102843
0.0100753
0.00985968
0.00964885
0.00944418
0.00925443
0.00906626
0.00886788
0.00872447
0.00858862
0.00848102
0.00839788
0.00835014
0.00837364
0.00851469
0.00872971
0.0089599
0.00922914
0.00949283
0.00975359
0.00999114
0.0101899
0.0103549
0.0104965
0.0106156
0.0107114
0.0107743
0.0107769
0.0104701
0.0102832
0.0100783
0.00987016
0.00965817
0.00945432
0.00925842
0.00906752
0.00886949
0.00867013
0.00852041
0.00836275
0.00822084
0.00810002
0.00801592
0.00800462
0.00812015
0.00831363
0.00853981
0.00880894
0.00907623
0.00935345
0.00960652
0.00983877
0.0100399
0.0102111
0.0103576
0.0104727
0.010551
0.0105898
0.0101846
0.00998346
0.00978204
0.00957823
0.00937074
0.00917517
0.008982
0.00878831
0.00858116
0.00838021
0.00821929
0.00804418
0.00786863
0.00771326
0.00759543
0.00755107
0.00763679
0.00780529
0.0080224
0.00828384
0.00855606
0.0088439
0.00911872
0.00937316
0.00959976
0.00979752
0.00997187
0.0101195
0.0102249
0.0102951
0.00975927
0.00956192
0.00938183
0.00918851
0.00899214
0.00880215
0.00861071
0.00841324
0.0081988
0.00799512
0.00781921
0.00763206
0.00742875
0.00724431
0.00709776
0.00702444
0.00707756
0.00721972
0.00742075
0.0076678
0.00794139
0.00823317
0.00852985
0.00880385
0.00905253
0.00927258
0.00947164
0.00964727
0.00978517
0.0098825
0.00920453
0.00904014
0.0088754
0.00869662
0.00851401
0.00833058
0.00814047
0.00793888
0.00772127
0.00751333
0.00732154
0.00712694
0.00690991
0.00670405
0.00653644
0.00643949
0.00646148
0.0065786
0.00676325
0.00698472
0.00724709
0.0075387
0.00784258
0.00813526
0.00839698
0.0086306
0.00884675
0.00904779
0.00921559
0.00933685
0.0085471
0.00841384
0.00826198
0.008101
0.00793304
0.00775731
0.00756917
0.00736605
0.00714902
0.00693798
0.00673527
0.00653792
0.00632199
0.00610942
0.00593074
0.00581678
0.00582169
0.00593377
0.00609743
0.00628958
0.00651603
0.00678167
0.00707995
0.00737962
0.00764384
0.00789138
0.00811306
0.00831775
0.00850161
0.00864651
0.00777
0.00767473
0.00754037
0.00740211
0.00725089
0.00708496
0.00690204
0.00670232
0.00649053
0.00628265
0.00608064
0.00588867
0.00568588
0.00548416
0.0053085
0.00519569
0.00521575
0.00532109
0.00546253
0.0056234
0.00580918
0.00602338
0.0062736
0.00656289
0.00683655
0.00709027
0.00731496
0.0075188
0.00769676
0.00783905
0.00690537
0.00683047
0.00672675
0.00661107
0.0064779
0.00632656
0.00615654
0.00597034
0.00577447
0.00558146
0.0053952
0.00522305
0.0050428
0.00486313
0.00471591
0.00464212
0.00467896
0.0047801
0.00489983
0.00502995
0.0051737
0.0053344
0.00551698
0.00572767
0.00598213
0.0062272
0.00644204
0.00663803
0.00680547
0.00693858
0.00597123
0.00592417
0.0058512
0.00576181
0.00565343
0.00552721
0.00538366
0.00522652
0.00506174
0.00489825
0.00474135
0.00460061
0.00444626
0.00431327
0.00422703
0.00419179
0.00424225
0.00434208
0.00444433
0.00454681
0.00465078
0.00475998
0.00488103
0.00501528
0.00516743
0.00534769
0.00554112
0.00571693
0.00585831
0.00597354
0.0050543
0.00503811
0.00499787
0.00494038
0.00486588
0.00477679
0.00467276
0.00455771
0.00443467
0.0043075
0.00418022
0.00406941
0.00397758
0.0038947
0.00385382
0.00385562
0.00392454
0.00402674
0.00412004
0.0042013
0.00427376
0.00433085
0.00439178
0.00446593
0.0045463
0.0046275
0.00471494
0.00481506
0.00492456
0.00503079
0.00421381
0.00421951
0.00421866
0.00419982
0.00416744
0.00412174
0.00406111
0.00398926
0.00390888
0.00382699
0.00374785
0.00368304
0.0036282
0.0035902
0.0035927
0.00364434
0.00375047
0.00387193
0.00397834
0.00405572
0.00410063
0.00410743
0.00410006
0.00409956
0.00410728
0.00412107
0.00413931
0.00416049