/*--------------------------------*- C++ -*----------------------------------*\
  =========                 |
  \\      /  F ield         | OpenFOAM: The Open Source CFD Toolbox
   \\    /   O peration     | Website:  https://openfoam.org
    \\  /    A nd           | Version:  12
     \\/     M anipulation  |
\*---------------------------------------------------------------------------*/
FoamFile
{
    format      ascii;
    class       volScalarField;
    location    "300/air";
    object      p_rgh;
}
// * * * * * * * * * * * * * * * * * * * * * * * * * * * * * * * * * * * * * //

dimensions      [1 -1 -2 0 0 0 0];

internalField   nonuniform List<scalar> 
243000
(
31.4559
31.1342
30.9386
30.7206
30.5189
30.3352
30.1684
30.023
29.8893
29.7765
29.6742
29.5768
29.5345
29.5373
29.4925
29.466
29.5846
29.7693
29.9714
30.2135
30.379
30.5462
30.6703
30.7878
30.8875
30.9734
31.0585
31.1162
31.2047
31.2139
31.4135
31.1227
30.9461
30.7323
30.5342
30.3521
30.1858
30.0404
29.9061
29.7927
29.6894
29.5952
29.5535
29.5585
29.5281
29.5049
29.6196
29.7974
29.9959
30.2402
30.4048
30.5717
30.6945
30.8111
30.9096
30.9944
31.0791
31.1361
31.2277
31.2426
31.3317
31.0613
30.9011
30.6935
30.5044
30.3294
30.1697
30.0312
29.9022
29.7929
29.69
29.5974
29.5579
29.5617
29.5184
29.4876
29.5864
29.7506
29.9338
30.175
30.3396
30.5109
30.6378
30.7597
30.8633
30.9519
31.0424
31.1
31.1988
31.2117
31.2118
30.946
30.8002
30.6017
30.4267
30.2641
30.116
29.9878
29.8665
29.7636
29.6635
29.5766
29.5405
29.5329
29.4587
29.4125
29.4828
29.6237
29.7863
30.0204
30.1907
30.3726
30.5115
30.6458
30.7613
30.8599
30.9595
31.0228
31.1239
31.1373
31.0678
30.8139
30.6811
30.4936
30.3332
30.1831
30.0472
29.9296
29.8167
29.7203
29.6233
29.542
29.5062
29.4815
29.3718
29.3072
29.3437
29.4568
29.5968
29.8216
29.9987
30.1931
30.3469
30.4965
30.6266
30.7379
30.8482
30.9191
31.0201
31.0374
30.9042
30.6686
30.5483
30.3734
30.2282
30.0913
29.9683
29.8616
29.7575
29.668
29.5742
29.499
29.4601
29.4161
29.2731
29.1901
29.1933
29.2782
29.3937
29.6062
29.7871
29.9926
30.1612
30.3258
30.4702
30.5941
30.7146
30.7934
30.8927
30.9163
30.724
30.5105
30.4019
30.2412
30.1115
29.9884
29.8787
29.7834
29.6885
29.6059
29.5159
29.4467
29.4019
29.3368
29.1632
29.0618
29.0341
29.0905
29.1807
29.3781
29.56
29.7743
29.9565
30.1352
30.2936
30.4299
30.5599
30.6472
30.7436
30.7748
30.5304
30.3411
30.2436
30.0983
29.9842
29.8755
29.7795
29.696
29.6103
29.5349
29.4491
29.3858
29.3325
29.2454
29.0451
28.9263
28.8699
28.8987
28.9635
29.1433
29.3235
29.5436
29.7369
29.9284
30.0999
30.2481
30.3867
30.4825
30.5754
30.6154
30.3261
30.1618
30.0751
29.9462
29.8481
29.7541
29.6723
29.6006
29.5244
29.4565
29.3754
29.3178
29.2536
29.145
28.9228
28.7881
28.7049
28.7082
28.748
28.9081
29.0834
29.3061
29.5079
29.71
29.8925
30.0512
30.1971
30.3014
30.3912
30.4406
30.1132
29.9737
29.898
29.7865
29.7047
29.6261
29.5587
29.4988
29.4323
29.3725
29.2966
29.244
29.168
29.0384
28.8
28.6508
28.5429
28.5235
28.5394
28.6777
28.8445
29.0662
29.2732
29.4832
29.6744
29.842
29.9939
30.1063
30.1935
30.2525
29.8937
29.7786
29.7142
29.6212
29.556
29.4935
29.4405
29.3925
29.3359
29.2846
29.2146
29.1658
29.0783
28.9297
28.6801
28.5175
28.3873
28.3479
28.342
28.4565
28.6116
28.8283
29.037
29.2516
29.4489
29.6233
29.7795
29.8993
29.9846
30.0535
29.6698
29.5784
29.5263
29.4527
29.4045
29.3585
29.3199
29.2836
29.2372
29.1951
29.1318
29.0855
28.9868
28.823
28.5667
28.3913
28.2414
28.1837
28.1597
28.2493
28.3891
28.5971
28.8035
29.0191
29.2195
29.3985
29.557
29.6834
29.7674
29.8461
29.4443
29.3757
29.3369
29.2838
29.2529
29.2236
29.1991
29.175
29.1397
29.1077
29.0509
29.0058
28.8966
28.7221
28.4629
28.2775
28.1107
28.0356
27.9947
28.0599
28.182
28.3773
28.5774
28.7902
28.9904
29.1712
29.33
29.4615
29.5449
29.6334
29.2204
29.1742
29.1499
29.1178
29.1042
29.0918
29.082
29.071
29.048
29.0254
28.9743
28.9288
28.8108
28.6307
28.3729
28.1811
28.001
27.9088
27.8515
27.8926
27.9948
28.1741
28.3639
28.5699
28.7662
28.946
29.1028
29.2377
29.3207
29.4188
29.0026
28.9779
28.9692
28.9584
28.9625
28.9676
28.9734
28.9758
28.9647
28.9505
28.9037
28.856
28.7318
28.5505
28.2985
28.1036
27.9146
27.8071
27.7353
27.7528
27.8325
27.9933
28.1686
28.3639
28.5527
28.7281
28.8804
29.0167
29.0992
29.207
28.796
28.7922
28.7997
28.8109
28.8332
28.8565
28.8772
28.892
28.8919
28.8851
28.8409
28.7899
28.6623
28.4836
28.2397
28.0444
27.8505
27.7309
27.647
27.6451
27.7025
27.8406
27.9977
28.1786
28.356
28.5238
28.6689
28.8042
28.8859
29.0029
28.6076
28.6224
28.6473
28.6805
28.7219
28.763
28.7976
28.8238
28.8323
28.8312
28.7888
28.7352
28.6066
28.4328
28.1972
28.004
27.8071
27.6783
27.5831
27.5687
27.6071
27.7225
27.8591
28.0211
28.1833
28.34
28.4752
28.6068
28.6867
28.8116
28.443
28.4757
28.5193
28.5737
28.6337
28.6915
28.7384
28.7744
28.7894
28.7912
28.7505
28.6959
28.568
28.4005
28.1738
27.9837
27.7851
27.6491
27.543
27.5188
27.5428
27.6385
27.7554
27.897
28.0424
28.1852
28.3076
28.4318
28.5086
28.64
28.3094
28.3594
28.4216
28.4961
28.5727
28.6456
28.703
28.7473
28.7657
28.7675
28.7292
28.6746
28.5488
28.3884
28.1726
27.9838
27.7834
27.6427
27.5289
27.4952
27.509
27.5861
27.6844
27.8068
27.9359
28.0648
28.1741
28.2894
28.3624
28.4967
28.2104
28.2774
28.3563
28.4494
28.5413
28.6265
28.6922
28.7432
28.7645
28.7648
28.7312
28.6779
28.5548
28.3983
28.1927
28.0092
27.811
27.6657
27.5434
27.5016
27.5112
27.5703
27.6498
27.752
27.8643
27.9801
28.0781
28.185
28.2545
28.3857
28.1443
28.2304
28.325
28.4302
28.5338
28.6339
28.716
28.7698
28.7885
28.7858
28.7521
28.6982
28.5789
28.4292
28.2345
28.0579
27.8635
27.7161
27.5865
27.5394
27.5436
27.591
27.6611
27.7533
27.8426
27.9385
28.0237
28.1199
28.1872
28.3071
28.1149
28.2144
28.324
28.4551
28.5816
28.6912
28.7743
28.825
28.8393
28.8326
28.7965
28.7408
28.6252
28.4822
28.2973
28.1286
27.9399
27.7924
27.6584
27.6083
27.6085
27.6476
27.7064
27.785
27.8656
27.9535
28.0311
28.1172
28.1763
28.2733
28.1344
28.2628
28.3959
28.5422
28.6764
28.7866
28.866
28.9104
28.9182
28.9059
28.8653
28.806
28.6932
28.5565
28.3799
28.2194
28.0385
27.8928
27.758
27.7072
27.7052
27.7387
27.7899
27.8594
27.9313
28.0097
28.0788
28.1551
28.2091
28.2948
28.2248
28.374
28.523
28.6791
28.8137
28.9202
28.9916
29.0262
29.0254
29.0055
28.9583
28.8938
28.7824
28.6499
28.4807
28.3279
28.1563
28.0153
27.883
27.8337
27.8321
27.8631
27.9104
27.9747
28.0416
28.115
28.1795
28.2508
28.3022
28.3769
28.381
28.5448
28.7041
28.8626
28.9932
29.0915
29.1504
29.1714
29.1606
29.1306
29.0743
29.003
28.8909
28.7604
28.5979
28.4519
28.2905
28.157
28.0302
27.9846
27.9859
28.0177
28.0653
28.129
28.1954
28.268
28.3324
28.4029
28.4546
28.5253
28.596
28.7683
28.9325
29.0889
29.2115
29.2972
29.3398
29.3448
29.3215
29.279
29.2115
29.1314
29.0166
28.8863
28.7291
28.5894
28.4382
28.3148
28.1972
28.1566
28.1625
28.1985
28.2504
28.3178
28.3883
28.4644
28.5322
28.605
28.6603
28.7311
28.8758
29.0477
29.2126
29.3617
29.4712
29.5389
29.5609
29.5487
29.5089
29.4502
29.369
29.2788
29.1584
29.0263
28.8726
28.7388
28.598
28.4868
28.3808
28.3473
28.3602
28.4039
28.4645
28.5412
28.6218
28.7064
28.7828
28.862
28.925
29.0003
29.1474
29.3268
29.4957
29.6384
29.7344
29.7827
29.7845
29.7556
29.6986
29.6232
29.5278
29.4271
29.3008
29.1659
29.0137
28.8856
28.7546
28.6566
28.5617
28.5354
28.5557
28.6095
28.6816
28.7694
28.8593
28.9507
29.0327
29.1143
29.1806
29.2578
29.7083
29.8609
29.9973
30.1042
30.1649
30.1762
30.146
30.0841
29.9958
29.8921
29.7717
29.6538
29.5156
29.3753
29.2249
29.108
28.994
28.9195
28.8504
28.8408
28.8792
28.9598
29.0595
29.1762
29.2975
29.4184
29.5269
29.6316
29.7192
29.8168
29.1277
29.3635
29.5925
29.7572
29.8426
29.8592
29.8283
29.764
29.6717
29.5641
29.4415
29.3215
29.1803
29.0381
28.8848
28.7639
28.6435
28.5619
28.4727
28.4392
28.4549
28.5181
28.6031
28.7049
28.8137
28.9186
29.0058
29.0819
29.1371
29.2074
30.9618
30.5162
30.3399
30.136
29.974
29.8341
29.714
29.6179
29.5294
29.4578
29.3812
29.2832
29.1763
29.0554
28.7143
28.4338
28.2631
28.2246
28.3071
28.5822
28.8832
29.2132
29.5106
29.7914
30.0361
30.2425
30.4229
30.5446
30.675
30.6831
30.8873
30.4974
30.3489
30.152
29.9947
29.8567
29.7379
29.6429
29.5568
29.4859
29.4093
29.3122
29.2069
29.0868
28.7483
28.4721
28.2939
28.242
28.3186
28.5961
28.8997
29.2322
29.531
29.813
30.0584
30.2651
30.446
30.5676
30.7016
30.717
30.7928
30.4472
30.3206
30.1317
29.9833
29.8513
29.7381
29.6455
29.5612
29.4917
29.415
29.3171
29.2112
29.0831
28.74
28.4627
28.2746
28.2116
28.2678
28.5316
28.8311
29.1704
29.4773
29.7682
30.0206
30.2324
30.4174
30.5382
30.6732
30.6904
30.6697
30.361
30.2455
30.073
29.9358
29.8124
29.7073
29.6227
29.5431
29.4762
29.3969
29.2962
29.1876
29.045
28.7013
28.4219
28.2233
28.1495
28.1853
28.4332
28.7281
29.068
29.3779
29.6738
29.9323
30.15
30.342
30.4672
30.6051
30.6296
30.5282
30.2491
30.151
29.99
29.8659
29.7535
29.6587
29.5826
29.5085
29.444
29.3624
29.2585
29.1464
28.9864
28.6409
28.3587
28.1497
28.0664
28.0829
28.3121
28.6007
28.9406
29.2536
29.5544
29.8192
30.0429
30.2412
30.3713
30.5079
30.5418
30.3727
30.126
30.0407
29.8914
29.7804
29.6793
29.5955
29.5279
29.4593
29.3972
29.3132
29.2068
29.0906
28.9113
28.5639
28.2793
28.0609
27.9688
27.9676
28.1761
28.4559
28.7943
29.1099
29.4151
29.6858
29.9153
30.119
30.2543
30.3867
30.4314
30.2047
29.9922
29.9166
29.7796
29.6818
29.5926
29.5198
29.4607
29.3977
29.3379
29.2517
29.1436
29.0223
28.8234
28.4749
28.1885
27.9618
27.8613
27.8445
28.0309
28.2994
28.6341
28.9508
29.2595
29.5354
29.7703
29.9786
30.1195
30.2461
30.302
30.0262
29.8478
29.7799
29.6562
29.5721
29.4951
29.4335
29.383
29.3255
29.2681
29.1802
29.0713
28.9438
28.7264
28.3778
28.0906
27.8565
27.748
27.7172
27.8808
28.1354
28.464
28.7799
29.0907
29.3708
29.6104
29.8221
29.9688
30.0891
30.1564
29.8385
29.693
29.6323
29.523
29.4532
29.3889
29.3387
29.2967
29.2446
29.19
29.1009
28.9924
28.8549
28.6235
28.2763
27.9893
27.7487
27.6328
27.5888
27.7291
27.9674
28.2873
28.6001
28.9113
29.1941
29.4373
29.6512
29.8036
29.9177
29.9958
29.643
29.5286
29.4752
29.3821
29.3269
29.2759
29.2371
29.2036
29.1572
29.106
29.0166
28.9087
28.7601
28.518
28.174
27.888
27.6419
27.5188
27.4625
27.579
27.7987
28.1069
28.4143
28.7237
29.0071
29.2524
29.467
29.6249
29.7336
29.8221
29.4412
29.3561
29.3108
29.2353
29.1952
29.158
29.1307
29.1058
29.0653
29.0166
28.9278
28.8204
28.6665
28.4136
28.0748
27.7904
27.5398
27.4093
27.3412
27.4338
27.6323
27.9264
28.2255
28.5303
28.8118
29.0576
29.2715
29.4345
29.5392
29.638
29.2353
29.1773
29.1413
29.0852
29.0606
29.0375
29.0219
29.0059
28.9723
28.9265
28.8377
28.7323
28.5738
28.3145
27.9822
27.7003
27.4462
27.3076
27.2283
27.2974
27.4725
27.7492
28.0368
28.3339
28.6111
28.8557
29.0676
29.235
29.337
29.4463
29.0279
28.9951
28.9699
28.9344
28.9256
28.9171
28.9135
28.9069
28.8811
28.8414
28.7537
28.6515
28.4843
28.2247
27.9003
27.622
27.365
27.218
27.1272
27.1737
27.3237
27.5798
27.8525
28.1388
28.4092
28.6504
28.8587
29.0295
29.1299
29.25
28.8222
28.8128
28.8002
28.7868
28.7936
28.8001
28.8084
28.8116
28.7941
28.7614
28.6778
28.5783
28.4048
28.1468
27.831
27.5589
27.3012
27.1457
27.0425
27.0673
27.191
27.4231
27.6778
27.9502
28.2108
28.4463
28.6492
28.8218
28.9212
29.0528
28.6232
28.6346
28.637
28.646
28.6684
28.6901
28.711
28.7242
28.7155
28.6868
28.6075
28.5116
28.336
28.0819
27.7747
27.509
27.2516
27.0925
26.9791
26.9837
27.0803
27.2851
27.5187
27.7738
28.0215
28.2485
28.4439
28.6166
28.7151
28.8587
28.4362
28.4669
28.4846
28.5154
28.5543
28.5922
28.6262
28.6482
28.6463
28.6217
28.5469
28.4556
28.2799
28.0325
27.7351
27.4744
27.2165
27.055
26.9324
26.923
26.9985
27.1732
27.3819
27.6161
27.8479
28.0634
28.2492
28.4196
28.5169
28.6722
28.2659
28.3157
28.3493
28.4017
28.458
28.511
28.5561
28.5854
28.5897
28.5707
28.5015
28.4155
28.2413
28.0026
27.7165
27.4621
27.2043
27.0374
26.9028
26.8834
26.9429
27.0885
27.2734
27.485
27.6978
27.8983
28.0723
28.2379
28.333
28.4986
28.1185
28.1882
28.2383
28.3104
28.3817
28.4484
28.5044
28.5423
28.5526
28.538
28.4759
28.3954
28.2255
28.0016
27.722
27.4745
27.2174
27.0406
26.8987
26.871
26.9137
27.0335
27.1946
27.3823
27.5761
27.7621
27.9223
28.0804
28.1715
28.344
28.0015
28.0891
28.1538
28.2439
28.3298
28.4117
28.4804
28.5262
28.5408
28.5297
28.4786
28.4032
28.2369
28.0209
27.7535
27.5137
27.2594
27.079
26.9278
26.8913
26.9239
27.026
27.1541
27.3142
27.4864
27.657
27.8037
27.9544
28.0428
28.2159
27.9144
28.0206
28.0993
28.2083
28.3077
28.4016
28.4812
28.5422
28.559
28.5497
28.5037
28.4322
28.2716
28.0682
27.8131
27.5817
27.331
27.1481
26.9887
26.945
26.9684
27.0518
27.1678
27.3087
27.4485
27.5923
27.7222
27.8629
27.9504
28.1135
27.8629
27.9864
28.0793
28.2026
28.3234
28.441
28.5299
28.5927
28.6099
28.6019
28.5582
28.4893
28.3356
28.1449
27.9015
27.679
27.4328
27.2489
27.0836
27.0338
27.0494
27.1182
27.2153
27.3402
27.4677
27.5987
27.7075
27.8234
27.8998
28.0439
27.8526
27.9907
28.1166
28.2665
28.4021
28.5263
28.6175
28.6797
28.6963
28.6883
28.6455
28.5766
28.4298
28.2508
28.0185
27.8048
27.5642
27.3806
27.2123
27.1588
27.1685
27.2255
27.3082
27.4159
27.5266
27.6421
27.7417
27.8477
27.9174
28.0407
27.9179
28.0803
28.2265
28.3893
28.5306
28.6561
28.7466
28.8054
28.8193
28.8099
28.7661
28.6957
28.5541
28.3851
28.1624
27.9574
27.723
27.5413
27.3743
27.3195
27.3256
27.3743
27.446
27.541
27.6392
27.7425
27.832
27.9267
27.9905
28.0932
28.0596
28.2405
28.3995
28.567
28.7099
28.8326
28.9186
28.9708
28.9798
28.9671
28.9201
28.8466
28.7077
28.546
28.3316
28.1342
27.9066
27.7298
27.5687
27.5155
27.5197
27.5631
27.6289
27.7158
27.8062
27.9017
27.9849
28.0725
28.1325
28.2243
28.2792
28.47
28.6349
28.8012
28.9408
29.0563
29.1336
29.1759
29.1778
29.1596
29.1072
29.0286
28.8898
28.7319
28.5237
28.333
28.1136
27.9442
27.792
27.7438
27.7492
27.7908
27.8534
27.9384
28.026
28.1186
28.2008
28.2861
28.3466
28.4326
28.5716
28.7634
28.9297
29.0901
29.2217
29.3257
29.3902
29.4196
29.4128
29.3866
29.3261
29.2401
29.0991
28.9413
28.7361
28.5529
28.3418
28.1827
28.0418
28.0011
28.0106
28.0545
28.1183
28.2029
28.2946
28.3901
28.4755
28.5625
28.6274
28.7118
28.9406
29.1267
29.2877
29.4363
29.5546
29.6424
29.6899
29.703
29.6849
29.6471
29.5752
29.4791
29.3318
29.1723
28.9705
28.7955
28.596
28.4497
28.323
28.2928
28.3085
28.3572
28.4248
28.514
28.6105
28.7136
28.8108
28.907
28.9815
29.068
29.3427
29.5225
29.6768
29.8122
29.915
29.984
30.0125
30.0085
29.9768
29.9248
29.8402
29.7334
29.5833
29.4282
29.2289
29.056
28.8633
28.725
28.6091
28.5895
28.6162
28.6794
28.7649
28.8649
28.9686
29.0757
29.1758
29.2768
29.3615
29.4525
29.9281
30.0886
30.2219
30.3333
30.4119
30.456
30.4603
30.4374
30.3883
30.3197
30.2207
30.1028
29.9465
29.7913
29.5941
29.428
29.2442
29.119
29.0165
29.0072
29.0417
29.1153
29.2155
29.3327
29.4553
29.5825
29.7041
29.824
29.9269
30.0262
30.767
30.8773
30.9758
31.0534
31.0982
31.1074
31.0838
31.0339
30.959
30.8655
30.7462
30.6171
30.4585
30.3077
30.1236
29.9863
29.8331
29.7419
29.6734
29.6897
29.7407
29.8252
29.9319
30.0625
30.2026
30.3469
30.4857
30.6225
30.7448
30.865
30.7531
30.2809
30.1284
29.9151
29.7505
29.6051
29.4791
29.3789
29.283
29.2071
29.1137
28.9873
28.8008
28.5631
28.2284
27.9829
27.8465
27.8167
27.8697
28.1264
28.3952
28.7249
29.0298
29.3294
29.5983
29.8305
30.0394
30.183
30.3544
30.3796
30.6741
30.2585
30.1347
29.9296
29.7711
29.629
29.5056
29.4084
29.3179
29.2442
29.1499
29.0223
28.8342
28.5956
28.2599
28.0074
27.853
27.8068
27.8547
28.127
28.4023
28.7372
29.0462
29.3496
29.6214
29.8555
30.0668
30.2117
30.388
30.4213
30.5798
30.2195
30.1175
29.9246
29.7736
29.6343
29.5133
29.4184
29.3291
29.2566
29.1611
29.0325
28.8423
28.6025
28.263
28.004
27.8352
27.7756
27.8048
28.07
28.3522
28.7023
29.0227
29.3357
29.6141
29.8529
30.0671
30.2125
30.3889
30.4271
30.4597
30.1477
30.0569
29.8812
29.7416
29.6116
29.4987
29.4108
29.3244
29.2522
29.1485
29.0128
28.8162
28.5735
28.2312
27.9674
27.7849
27.7167
27.7294
27.9825
28.2626
28.6138
28.9416
29.2672
29.5552
29.8017
30.021
30.1687
30.339
30.3886
30.3233
30.0491
29.9718
29.8051
29.6785
29.5589
29.4563
29.376
29.2933
29.2217
29.1119
28.971
28.7668
28.5193
28.1732
27.9058
27.7113
27.6367
27.6346
27.8729
28.1493
28.5008
28.8315
29.1609
29.4547
29.7074
29.9325
30.0852
30.2535
30.3189
30.1725
29.9371
29.869
29.7124
29.5984
29.4893
29.3969
29.3236
29.2442
29.1727
29.0572
28.9112
28.6978
28.4445
28.0947
27.8251
27.6196
27.5398
27.5246
27.7466
28.0169
28.3678
28.7014
29.0345
29.3338
29.5916
29.8223
29.9804
30.1429
30.2256
30.0091
29.8128
29.75
29.6045
29.5032
29.4046
29.3222
29.2555
29.1791
29.1073
28.9864
28.8358
28.6121
28.3526
27.9997
27.7296
27.5143
27.43
27.403
27.6075
27.8696
28.2184
28.554
28.8905
29.1948
29.4576
29.6929
29.8571
30.0116
30.1116
29.8345
29.6758
29.6159
29.4829
29.3941
29.3063
29.2336
29.1733
29.0994
29.0273
28.9009
28.7466
28.5125
28.247
27.892
27.6229
27.399
27.3108
27.2729
27.4589
27.7105
28.0553
28.3916
28.7307
29.0395
29.3073
29.5462
29.717
29.8625
29.9785
29.6493
29.5258
29.4678
29.3488
29.2727
29.1959
29.1328
29.0784
29.007
28.9344
28.8029
28.6454
28.4017
28.1311
27.7752
27.5086
27.2772
27.1854
27.1371
27.3038
27.5428
27.881
28.2164
28.5572
28.8695
29.1414
29.3827
29.5602
29.6968
29.8268
29.4543
29.3632
29.3073
29.204
29.1404
29.0749
29.0213
28.9727
28.9038
28.8311
28.6951
28.5347
28.2808
28.0082
27.6529
27.3902
27.1524
27.0572
26.9988
27.1455
27.3694
27.6984
28.0308
28.3714
28.6856
28.9604
29.2027
29.3868
29.5157
29.6583
29.2507
29.1888
29.1362
29.0498
28.999
28.9452
28.9009
28.8583
28.7921
28.7197
28.5799
28.4168
28.1538
27.8821
27.5287
27.2715
27.028
26.9297
26.8613
26.9877
27.1934
27.5105
27.8368
28.1746
28.4885
28.7652
29.0076
29.1984
29.3216
29.4759
29.04
29.0043
28.9562
28.8882
28.8502
28.8087
28.774
28.7375
28.6742
28.6018
28.4587
28.293
28.0254
27.7564
27.4069
27.157
26.9086
26.8071
26.7287
26.8344
27.0191
27.321
27.6373
27.9697
28.2812
28.5586
28.8002
28.9974
29.1169
29.2822
28.8238
28.8115
28.7698
28.7215
28.6967
28.6681
28.6431
28.6131
28.5536
28.4814
28.3351
28.1685
27.8994
27.6367
27.2932
27.0531
26.8003
26.6945
26.6056
26.6903
26.8514
27.134
27.4368
27.7608
28.0677
28.3441
28.5838
28.7865
28.9038
29.0799
28.605
28.613
28.5803
28.5527
28.5414
28.5262
28.5115
28.4886
28.434
28.3636
28.2147
28.0481
27.7774
27.5225
27.1846
26.9556
26.7018
26.5993
26.4992
26.5612
26.6965
26.9551
27.2413
27.553
27.8524
28.1257
28.3618
28.5687
28.685
28.8724
28.3876
28.4125
28.3919
28.3858
28.3882
28.387
28.3834
28.3686
28.3172
28.2484
28.098
27.9319
27.6602
27.4139
27.081
26.8636
26.6099
26.5135
26.405
26.4546
26.5633
26.7921
27.0571
27.3525
27.6407
27.9081
28.1388
28.3482
28.464
28.6629
28.1753
28.2168
28.2112
28.2256
28.2421
28.2554
28.2609
28.2532
28.2042
28.1367
27.986
27.8214
27.5516
27.317
26.9912
26.7877
26.5327
26.4361
26.32
26.3629
26.4493
26.6542
26.8933
27.1666
27.4394
27.6976
27.9206
28.1304
28.2457
28.4559
27.9745
28.0332
28.0438
28.0782
28.1078
28.1331
28.1458
28.1441
28.0993
28.0331
27.883
27.7216
27.4564
27.236
26.9191
26.7314
26.477
26.381
26.2547
26.2855
26.3536
26.5368
26.7504
27.002
27.2583
27.5028
27.7145
27.922
28.0364
28.2568
27.7931
27.8699
27.8948
27.9462
27.9874
28.0233
28.044
28.048
28.0068
27.9417
27.7933
27.6374
27.379
27.1746
26.8683
26.6979
26.4464
26.3517
26.2153
26.2367
26.2874
26.4406
26.6293
26.8593
27.0982
27.3292
27.5308
27.7328
27.8449
28.0723
27.6361
27.7292
27.7673
27.8338
27.8871
27.9342
27.9617
27.9697
27.9311
27.8662
27.7223
27.573
27.3234
27.1357
26.8421
26.6906
26.4419
26.3484
26.2063
26.2204
26.2565
26.3811
26.5417
26.7426
26.9606
27.1791
27.3713
27.5672
27.6777
27.909
27.5056
27.6148
27.6673
27.7495
27.8149
27.8719
27.9042
27.9142
27.8767
27.8122
27.6739
27.5318
27.2928
27.1233
26.8444
26.7125
26.4705
26.3804
26.231
26.2402
26.2675
26.3728
26.4985
26.6681
26.8591
27.0594
27.2399
27.4294
27.5403
27.7662
27.4089
27.5376
27.6029
27.7006
27.7775
27.843
27.877
27.8856
27.8479
27.7853
27.6532
27.5253
27.2973
27.1396
26.8752
26.765
26.5318
26.4473
26.2928
26.2982
26.3167
26.4008
26.5136
26.6626
26.8174
26.9872
27.1497
27.3274
27.437
27.6504
27.3561
27.4984
27.5778
27.6846
27.7712
27.8437
27.8841
27.8893
27.8537
27.7942
27.6662
27.5433
27.3234
27.1856
26.9366
26.8492
26.6275
26.5514
26.3939
26.3971
26.4082
26.4751
26.5671
26.6962
26.8376
26.9924
27.134
27.2862
27.3858
27.5746
27.3478
27.496
27.6011
27.7247
27.8199
27.8937
27.9277
27.9274
27.8892
27.8296
27.7061
27.5895
27.3809
27.2623
27.0293
26.9664
26.7565
26.6873
26.5294
26.5323
26.5413
26.5973
26.671
26.7793
26.8998
27.037
27.1673
27.3089
27.4029
27.5638
27.4131
27.5728
27.6922
27.8199
27.9139
27.9822
28.0086
28.0029
27.9611
27.8985
27.7792
27.6671
27.4709
27.3693
27.1542
27.1145
26.9116
26.8496
26.6959
26.6993
26.7092
26.7627
26.8284
26.9171
27.0216
27.1413
27.2556
27.381
27.468
27.6075
27.5494
27.7137
27.84
27.963
28.0515
28.1109
28.1282
28.1164
28.07
28.0033
27.8849
27.777
27.5931
27.507
27.3094
27.2837
27.0873
27.036
26.8909
26.8963
26.9076
26.9614
27.029
27.1153
27.2034
27.3065
27.4089
27.5206
27.6046
27.7241
27.754
27.9167
28.0423
28.1548
28.233
28.2801
28.2862
28.2666
28.2129
28.1394
28.0215
27.9169
27.7475
27.6712
27.4796
27.4671
27.2811
27.2423
27.1094
27.1183
27.1326
27.1875
27.2575
27.351
27.4436
27.5405
27.6292
27.7271
27.8047
27.9103
28.0197
28.1684
28.2862
28.3845
28.4487
28.48
28.4739
28.4439
28.3826
28.3046
28.1885
28.0876
27.9208
27.8432
27.6565
27.6654
27.4935
27.4711
27.3545
27.3675
27.3843
27.44
27.5105
27.6058
27.7116
27.8204
27.9197
28.0161
28.0858
28.1701
28.3669
28.4925
28.5903
28.6633
28.7043
28.7137
28.6934
28.6505
28.5783
28.4899
28.3646
28.2571
28.0883
28.0153
27.8472
27.8868
27.7368
27.7375
27.6437
27.6628
27.68
27.7312
27.7948
27.8846
27.9873
28.1025
28.2164
28.3259
28.4112
28.4998
28.6906
28.7984
28.8806
28.9325
28.9514
28.9409
28.9035
28.844
28.7579
28.6589
28.5296
28.4222
28.2702
28.2211
28.0829
28.1605
28.039
28.0662
28.0032
28.0347
28.0606
28.1174
28.1828
28.2623
28.3484
28.4439
28.5395
28.6397
28.7268
28.8116
29.1764
29.2327
29.2689
29.2783
29.2625
29.2234
29.161
29.0802
28.978
28.869
28.738
28.6371
28.5023
28.4767
28.3735
28.5043
28.4269
28.4936
28.4726
28.5256
28.5657
28.6323
28.7032
28.7878
28.8776
28.974
29.0686
29.1635
29.2441
29.3167
30.6952
30.2109
30.0755
29.8413
29.6597
29.5001
29.3633
29.2581
29.1565
29.0854
28.987
28.8454
28.5936
28.344
28.0466
27.92
27.9068
27.9511
27.9724
28.178
28.3251
28.5977
28.8491
29.1201
29.3765
29.609
29.8263
29.9777
30.1842
30.2186
30.5857
30.1396
30.0459
29.834
29.6654
29.5118
29.3806
29.28
29.184
29.1162
29.0172
28.8706
28.615
28.3563
28.0375
27.8739
27.8194
27.8262
27.8448
28.0689
28.2388
28.5287
28.8126
29.1104
29.3809
29.6196
29.8425
29.9981
30.2119
30.254
30.4683
30.0798
30.007
29.8105
29.6562
29.5126
29.3856
29.2886
29.1949
29.1287
29.0282
28.8789
28.6199
28.3502
28.0117
27.8184
27.7273
27.7031
27.7099
27.948
28.1414
28.4447
28.7455
29.0664
29.3547
29.607
29.8405
29.9997
30.2138
30.2626
30.3258
29.9969
29.9358
29.7535
29.613
29.4802
29.3637
29.2762
29.187
29.121
29.0102
28.8511
28.5867
28.3081
27.9549
27.7364
27.6129
27.569
27.566
27.8059
28.018
28.3334
28.643
28.9758
29.2819
29.5487
29.7936
29.9601
30.1703
30.2366
30.1784
29.898
29.8481
29.6736
29.5468
29.4242
29.3186
29.2387
29.1536
29.087
28.9676
28.8002
28.5292
28.2409
27.8754
27.637
27.4852
27.4269
27.4156
27.6522
27.8784
28.204
28.5217
28.8613
29.1759
29.4561
29.7076
29.8833
30.0838
30.1699
30.0205
29.79
29.7444
29.5792
29.4653
29.3524
29.2568
29.1834
29.1012
29.0327
28.9049
28.7302
28.4508
28.1527
27.7773
27.5234
27.3464
27.2768
27.2574
27.4877
27.7237
28.0578
28.383
28.7294
29.0518
29.3393
29.5987
29.7809
29.9744
30.0817
29.8545
29.6713
29.6252
29.4709
29.369
29.2655
29.179
29.1111
29.0309
28.9598
28.8231
28.6426
28.354
28.0469
27.6637
27.3984
27.1991
27.1203
27.0928
27.3148
27.5564
27.8969
28.2285
28.5813
28.9111
29.2059
29.4722
29.6618
29.8457
29.9734
29.6799
29.5399
29.4907
29.3487
29.2582
29.164
29.0859
29.0228
28.9435
28.8695
28.7242
28.5386
28.2405
27.9266
27.5377
27.2645
27.0457
26.9596
26.9241
27.1354
27.3787
27.7232
28.0599
28.4179
28.7547
29.0564
29.3285
29.5264
29.6998
29.8454
29.496
29.3945
29.3413
29.2132
29.1334
29.0486
28.9784
28.9195
28.8406
28.7635
28.6101
28.4201
28.1124
27.7946
27.4019
27.1245
26.8885
26.7968
26.7534
26.9517
27.1933
27.5389
27.8785
28.2401
28.5825
28.8905
29.1672
29.3735
29.5369
29.6977
29.3026
29.2344
29.1777
29.0648
28.9954
28.9202
28.8574
28.8024
28.7237
28.6436
28.483
28.2894
27.9725
27.6539
27.2596
26.9815
26.7305
26.6347
26.5833
26.7664
27.0029
27.3459
27.6857
28.0485
28.3944
28.7072
28.9874
29.2025
29.358
29.5322
29.0992
29.0594
29.0006
28.9042
28.8449
28.7797
28.7243
28.6731
28.5946
28.5119
28.3447
28.1483
27.8237
27.5081
27.1144
26.8392
26.5751
26.4764
26.4166
26.5831
26.8102
27.1471
27.4838
27.8441
28.1909
28.5072
28.79
29.0145
29.1647
29.3507
28.8856
28.8698
28.811
28.7321
28.6833
28.6287
28.5806
28.5334
28.4553
28.3705
28.1975
27.9995
27.6697
27.3619
26.9718
26.7046
26.4292
26.3264
26.2571
26.4056
26.6182
26.9463
27.2763
27.63
27.9747
28.2929
28.577
28.8104
28.9578
29.1548
28.6622
28.6664
28.6102
28.5502
28.5123
28.4689
28.4284
28.3855
28.3083
28.2227
28.0451
27.8469
27.5125
27.2132
26.8245
26.5669
26.286
26.1913
26.1108
26.2388
26.4325
26.7473
27.067
27.4102
27.749
28.0665
28.3502
28.5916
28.7383
28.9462
28.431
28.4505
28.4006
28.3607
28.3343
28.3028
28.2705
28.233
28.1574
28.0695
27.8873
27.6894
27.3515
27.0619
26.6752
26.4251
26.1382
26.0553
25.9729
26.0907
26.2607
26.5551
26.8612
27.1899
27.518
27.8314
28.1124
28.3601
28.5076
28.7269
28.1934
28.2268
28.1863
28.1669
28.1527
28.1346
28.111
28.0764
28.0018
27.9117
27.7258
27.529
27.1921
26.9184
26.5379
26.2976
26.0005
25.9192
25.8362
25.9477
26.1032
26.3793
26.6658
26.9759
27.2876
27.5925
27.8679
28.1192
28.2684
28.4997
27.9535
28.0003
27.9725
27.9739
27.973
27.9658
27.9489
27.9168
27.8433
27.7539
27.5667
27.3739
27.0414
26.7877
26.4142
26.1893
25.8842
25.8066
25.714
25.8108
25.9531
26.211
26.4825
26.7793
27.0674
27.3569
27.6229
27.8737
28.0247
28.2683
27.7174
27.7783
27.7683
27.7861
27.7947
27.7971
27.7865
27.7604
27.6892
27.6011
27.4139
27.2285
26.9038
26.6746
26.3087
26.1036
25.7922
25.7198
25.6187
25.703
25.8221
26.0534
26.3077
26.5908
26.8615
27.1361
27.3875
27.6313
27.7823
28.0377
27.4951
27.5699
27.5736
27.6051
27.6219
27.6347
27.6325
27.6123
27.5436
27.4574
27.2722
27.0977
26.7843
26.5842
26.226
26.0447
25.7298
25.6633
25.553
25.6274
25.7265
25.9293
26.1542
26.4132
26.6689
26.9276
27.1653
27.4041
27.5518
27.8163
27.2883
27.3764
27.3916
27.4369
27.4645
27.4873
27.4921
27.4776
27.4114
27.3274
27.1475
26.9872
26.6885
26.5202
26.17
26.0163
25.7
25.6412
25.5229
25.5883
25.6693
25.8447
26.0395
26.2706
26.5033
26.7372
26.9596
27.1918
27.3352
27.6049
27.1021
27.2028
27.2333
27.2921
27.3301
27.3616
27.3718
27.3619
27.2978
27.2166
27.0456
26.9031
26.6217
26.4847
26.1435
26.0195
25.7008
25.6572
25.5316
25.5938
25.6625
25.8083
25.9708
26.1726
26.3788
26.5858
26.7867
27.002
27.1412
27.4069
26.9507
27.0633
27.1079
27.179
27.2264
27.2647
27.2784
27.2708
27.2087
27.1322
26.9735
26.8506
26.5907
26.4868
26.151
26.0588
25.7442
25.7138
25.5807
25.6385
25.6958
25.828
25.9748
26.1404
26.3081
26.4888
26.6609
26.8539
26.9866
27.2345
26.8448
26.9694
27.0254
27.1063
27.1606
27.2032
27.2179
27.211
27.1518
27.0819
26.9372
26.841
26.6004
26.5191
26.196
26.1354
25.827
25.811
25.6728
25.7281
25.7767
25.8908
26.0154
26.1667
26.3192
26.4732
26.6068
26.7624
26.88
27.1025
26.7968
26.9283
26.9956
27.0829
27.1429
27.1868
27.1987
27.1896
27.136
27.081
26.9465
26.8684
26.6435
26.5882
26.2787
26.2515
25.9495
25.9487
25.8086
25.8639
25.9057
26.005
26.1119
26.2421
26.3723
26.5103
26.6333
26.765
26.8549
27.0283
26.8145
26.9436
27.0301
27.1194
27.1791
27.2193
27.2256
27.2141
27.1656
27.1161
26.9983
26.9364
26.7241
26.6928
26.3978
26.4072
26.111
26.1239
25.9859
26.0433
26.0823
26.1724
26.263
26.3761
26.4903
26.6101
26.7182
26.8299
26.8999
27.0358
26.9264
27.0509
27.1357
27.2175
27.2701
27.3028
27.3041
27.2911
27.2465
27.2029
27.0953
27.0395
26.8404
26.8319
26.5534
26.5995
26.307
26.3359
26.2037
26.2657
26.3045
26.3909
26.4728
26.5696
26.6689
26.7746
26.8709
26.9716
27.0356
27.1335
27.1388
27.2502
27.326
27.3911
27.4302
27.4504
27.4451
27.4277
27.3789
27.3317
27.2248
27.1736
26.9884
27.0055
26.7448
26.8235
26.5362
26.5848
26.4632
26.5318
26.5728
26.6588
26.7373
26.8278
26.9118
27.0027
27.0884
27.1783
27.2421
27.3263
27.4124
27.5039
27.5686
27.6161
27.6387
27.6421
27.6253
27.5965
27.5389
27.4845
27.3794
27.3356
27.1684
27.2129
26.9653
27.0769
26.8023
26.8764
26.7685
26.8446
26.8899
26.9782
27.0567
27.1448
27.2252
27.3042
27.3742
27.4497
27.5078
27.5802
27.7285
27.7887
27.8368
27.8635
27.8664
27.8537
27.8223
27.78
27.7157
27.6605
27.562
27.5294
27.3769
27.4454
27.2123
27.3578
27.1007
27.2021
27.1164
27.2088
27.2617
27.355
27.4355
27.5238
27.6032
27.6801
27.7462
27.8073
27.8485
27.8945
28.151
28.1663
28.1751
28.1659
28.1425
28.1069
28.0573
28.002
27.9305
27.8719
27.7736
27.7456
27.6067
27.7031
27.485
27.6723
27.4274
27.5662
27.5134
27.6349
27.7035
27.8084
27.8954
27.9862
28.0652
28.1393
28.2008
28.2556
28.2919
28.3231
28.7238
28.694
28.6537
28.5974
28.5302
28.4542
28.37
28.2858
28.1925
28.1192
28.0159
27.9909
27.864
27.9864
27.7818
28.0313
27.8035
27.9991
27.9814
28.137
28.2261
28.3513
28.4539
28.5594
28.651
28.7358
28.8053
28.8638
28.9001
28.9212
30.993
30.4851
30.3803
30.1401
29.9342
29.7437
29.5734
29.4488
29.3332
29.2799
29.1925
29.1025
28.8744
28.7754
28.7078
29.0153
29.3855
29.731
29.667
29.5862
29.3657
29.323
29.3451
29.4991
29.6643
29.8319
30.006
30.1289
30.3425
30.3712
30.8372
30.3522
30.3031
30.086
29.9018
29.7293
29.5752
29.4567
29.3456
29.2947
29.2096
29.1151
28.8803
28.7561
28.6431
28.8767
29.1695
29.4508
29.3984
29.3787
29.2228
29.2222
29.2691
29.4369
29.6278
29.8198
30.0101
30.1398
30.363
30.3994
30.6879
30.2626
30.2302
30.0284
29.8643
29.7043
29.5614
29.4547
29.3484
29.3004
29.2142
29.1174
28.8662
28.7273
28.5758
28.7495
28.9718
29.2048
29.1614
29.1961
29.093
29.1282
29.1959
29.3736
29.5814
29.7901
29.9967
30.1395
30.3652
30.408
30.5115
30.1574
30.1422
29.9455
29.7975
29.6488
29.5179
29.4211
29.3219
29.2774
29.1842
29.0814
28.8221
28.6725
28.4876
28.6145
28.7742
28.9771
28.9394
29.0071
28.9455
29.0127
29.101
29.2886
29.5018