/*--------------------------------*- C++ -*----------------------------------*\
  =========                 |
  \\      /  F ield         | OpenFOAM: The Open Source CFD Toolbox
   \\    /   O peration     | Website:  https://openfoam.org
    \\  /    A nd           | Version:  12
     \\/     M anipulation  |
\*---------------------------------------------------------------------------*/
FoamFile
{
    format      ascii;
    class       volScalarField;
    location    "1100/porous";
    object      rho;
}
// * * * * * * * * * * * * * * * * * * * * * * * * * * * * * * * * * * * * * //

dimensions      [1 -3 0 0 0 0 0];

internalField   nonuniform List<scalar> 
140000
(
933.891
933.891
933.891
933.891
933.891
933.891
933.891
933.891
933.892
933.898
934.185
934.409
934.608
934.795
934.974
935.147
935.317
935.483
935.647
935.809
935.968
936.126
936.283
936.437
936.591
936.742
936.893
937.042
937.189
937.334
937.478
937.621
937.761
937.9
938.037
938.172
938.306
938.439
938.57
938.7
938.829
938.957
939.084
939.211
939.336
939.459
939.581
939.702
939.821
939.939
940.055
940.169
940.281
940.392
940.499
940.605
940.707
940.806
940.901
940.966
940.572
940.319
940.125
939.963
939.823
939.7
939.59
939.49
939.398
939.319
933.891
933.891
933.891
933.891
933.891
933.891
933.891
933.891
933.891
933.896
934.115
934.293
934.452
934.603
934.747
934.888
935.027
935.163
935.297
935.43
935.562
935.692
935.822
935.951
936.079
936.206
936.333
936.458
936.583
936.707
936.831
936.953
937.075
937.196
937.316
937.436
937.554
937.672
937.789
937.906
938.023
938.139
938.255
938.37
938.485
938.599
938.712
938.824
938.935
939.045
939.154
939.262
939.368
939.472
939.576
939.676
939.776
939.872
939.965
940.04
939.803
939.648
939.526
939.422
939.33
939.248
939.172
939.103
939.038
938.98
933.891
933.891
933.891
933.891
933.891
933.891
933.891
933.891
933.891
933.895
934.097
934.256
934.398
934.531
934.657
934.779
934.898
935.014
935.128
935.241
935.352
935.462
935.57
935.678
935.785
935.891
935.997
936.102
936.206
936.309
936.412
936.515
936.616
936.718
936.818
936.919
937.018
937.117
937.216
937.315
937.414
937.513
937.612
937.71
937.808
937.906
938.003
938.1
938.196
938.291
938.386
938.479
938.572
938.663
938.753
938.842
938.929
939.015
939.096
939.167
938.978
938.858
938.768
938.693
938.629
938.571
938.52
938.473
938.43
938.391
933.891
933.891
933.891
933.891
933.891
933.891
933.891
933.891
933.891
933.895
934.092
934.247
934.384
934.51
934.63
934.745
934.856
934.964
935.07
935.173
935.275
935.376
935.474
935.572
935.669
935.764
935.859
935.953
936.045
936.138
936.229
936.32
936.41
936.499
936.588
936.676
936.763
936.85
936.937
937.024
937.11
937.197
937.283
937.369
937.455
937.54
937.625
937.71
937.793
937.877
937.959
938.041
938.121
938.201
938.279
938.356
938.432
938.505
938.576
938.637
938.46
938.348
938.263
938.194
938.135
938.084
938.038
937.996
937.958
937.924
933.891
933.891
933.891
933.891
933.891
933.891
933.891
933.891
933.891
933.895
934.091
934.245
934.38
934.505
934.623
934.736
934.844
934.95
935.052
935.153
935.251
935.348
935.443
935.536
935.629
935.72
935.81
935.899
935.987
936.074
936.16
936.245
936.33
936.413
936.496
936.578
936.66
936.741
936.821
936.902
936.982
937.062
937.142
937.221
937.3
937.379
937.457
937.534
937.611
937.687
937.762
937.837
937.91
937.982
938.053
938.123
938.191
938.257
938.32
938.375
938.2
938.088
938.004
937.934
937.875
937.822
937.776
937.733
937.695
937.66
933.891
933.891
933.891
933.891
933.891
933.891
933.891
933.891
933.891
933.895
934.091
934.245
934.38
934.505
934.623
934.735
934.843
934.948
935.05
935.149
935.246
935.342
935.435
935.528
935.618
935.708
935.796
935.883
935.969
936.054
936.138
936.221
936.304
936.385
936.465
936.544
936.623
936.701
936.779
936.856
936.934
937.011
937.087
937.164
937.24
937.315
937.39
937.464
937.537
937.61
937.681
937.752
937.821
937.89
937.957
938.022
938.086
938.148
938.207
938.258
938.084
937.972
937.886
937.816
937.755
937.702
937.654
937.61
937.571
937.535
933.891
933.891
933.891
933.891
933.891
933.891
933.891
933.891
933.891
933.895
934.091
934.246
934.381
934.506
934.623
934.736
934.844
934.949
935.05
935.15
935.247
935.342
935.435
935.527
935.618
935.707
935.794
935.881
935.966
936.051
936.134
936.216
936.297
936.377
936.457
936.535
936.612
936.689
936.766
936.842
936.918
936.994
937.069
937.144
937.219
937.293
937.366
937.438
937.51
937.581
937.651
937.72
937.788
937.854
937.919
937.983
938.044
938.104
938.162
938.21
938.036
937.924
937.838
937.767
937.705
937.651
937.602
937.558
937.517
937.481
933.891
933.891
933.891
933.891
933.891
933.891
933.891
933.891
933.891
933.895
934.092
934.246
934.382
934.507
934.625
934.737
934.846
934.951
935.053
935.152
935.249
935.345
935.438
935.53
935.62
935.709
935.797
935.883
935.968
936.053
936.135
936.217
936.298
936.378
936.457
936.534
936.612
936.688
936.764
936.84
936.915
936.991
937.065
937.14
937.214
937.287
937.36
937.432
937.503
937.573
937.642
937.71
937.777
937.843
937.907
937.969
938.03
938.089
938.145
938.193
938.019
937.906
937.82
937.748
937.687
937.632
937.583
937.538
937.497
937.46
933.891
933.891
933.891
933.891
933.891
933.891
933.891
933.891
933.891
933.895
934.092
934.246
934.382
934.507
934.625
934.738
934.847
934.952
935.055
935.154
935.252
935.347
935.441
935.533
935.623
935.712
935.8
935.886
935.972
936.056
936.139
936.22
936.301
936.381
936.459
936.537
936.614
936.69
936.766
936.841
936.917
936.992
937.067
937.141
937.215
937.288
937.36
937.432
937.503
937.573
937.641
937.709
937.776
937.841
937.905
937.967
938.027
938.085
938.141
938.188
938.014
937.901
937.815
937.743
937.681
937.626
937.577
937.532
937.491
937.453
933.891
933.891
933.891
933.891
933.891
933.891
933.891
933.891
933.891
933.895
934.092
934.246
934.382
934.508
934.626
934.739
934.848
934.954
935.056
935.156
935.254
935.35
935.443
935.535
935.626
935.715
935.803
935.89
935.975
936.059
936.142
936.224
936.304
936.384
936.462
936.54
936.616
936.692
936.768
936.844
936.919
936.995
937.069
937.144
937.218
937.291
937.363
937.434
937.505
937.575
937.644
937.711
937.778
937.843
937.906
937.968
938.028
938.086
938.142
938.188
938.014
937.901
937.815
937.743
937.681
937.626
937.577
937.532
937.49
937.453
933.891
933.891
933.891
933.891
933.891
933.891
933.891
933.891
933.891
933.895
934.092
934.246
934.382
934.508
934.627
934.74
934.849
934.955
935.057
935.158
935.255
935.351
935.445
935.538
935.628
935.718
935.805
935.892
935.977
936.062
936.145
936.226
936.307
936.386
936.465
936.542
936.619
936.695
936.771
936.846
936.922
936.997
937.072
937.147
937.22
937.293
937.366
937.437
937.508
937.578
937.647
937.714
937.781
937.846
937.909
937.971
938.031
938.088
938.143
938.19
938.016
937.903
937.817
937.745
937.683
937.628
937.578
937.533
937.491
937.454
933.891
933.891
933.891
933.891
933.891
933.891
933.891
933.891
933.891
933.895
934.092
934.247
934.382
934.508
934.627
934.74
934.85
934.955
935.058
935.159
935.257
935.353
935.447
935.539
935.63
935.719
935.807
935.894
935.979
936.064
936.147
936.228
936.309
936.388
936.466
936.544
936.62
936.697
936.772
936.848
936.924
936.999
937.074
937.149
937.223
937.296
937.368
937.44
937.51
937.58
937.649
937.717
937.783
937.848
937.912
937.973
938.033
938.091
938.146
938.192
938.018
937.905
937.819
937.747
937.685
937.63
937.58
937.535
937.493
937.455
933.891
933.891
933.891
933.891
933.891
933.891
933.891
933.891
933.891
933.895
934.091
934.246
934.382
934.508
934.626
934.74
934.85
934.956
935.059
935.159
935.257
935.353
935.448
935.54
935.631
935.72
935.809
935.895
935.981
936.065
936.148
936.229
936.31
936.389
936.467
936.545
936.621
936.697
936.773
936.849
936.925
937.001
937.076
937.15
937.224
937.297
937.37
937.441
937.512
937.582
937.651
937.719
937.785
937.85
937.914
937.975
938.035
938.093
938.147
938.193
938.019
937.907
937.82
937.748
937.686
937.631
937.581
937.536
937.494
937.457
933.891
933.891
933.891
933.891
933.891
933.891
933.891
933.891
933.891
933.895
934.092
934.246
934.382
934.507
934.626
934.74
934.849
934.955
935.059
935.159
935.258
935.354
935.448
935.541
935.632
935.721
935.809
935.896
935.981
936.066
936.148
936.23
936.31
936.389
936.467
936.545
936.621
936.698
936.774
936.85
936.926
937.001
937.076
937.151
937.225
937.298
937.37
937.442
937.513
937.583
937.652
937.719
937.786
937.851
937.915
937.976
938.036
938.093
938.148
938.194
938.02
937.908
937.821
937.749
937.687
937.632
937.582
937.537
937.495
937.457
933.891
933.891
933.891
933.891
933.891
933.891
933.891
933.891
933.891
933.895
934.091
934.246
934.381
934.507
934.625
934.739
934.849
934.955
935.058
935.159
935.257
935.354
935.448
935.54
935.631
935.721
935.809
935.896
935.981
936.065
936.148
936.23
936.31
936.389
936.467
936.544
936.621
936.697
936.773
936.849
936.925
937.001
937.076
937.15
937.224
937.298
937.37
937.442
937.513
937.583
937.652
937.72
937.786
937.851
937.915
937.976
938.036
938.094
938.148
938.194
938.02
937.908
937.821
937.749
937.687
937.632
937.582
937.537
937.495
937.457
933.891
933.891
933.891
933.891
933.891
933.891
933.891
933.891
933.891
933.895
934.091
934.245
934.38
934.506
934.625
934.738
934.848
934.954
935.058
935.158
935.257
935.353
935.447
935.54
935.631
935.721
935.809
935.895
935.981
936.065
936.147
936.229
936.308
936.387
936.466
936.543
936.62
936.696
936.772
936.848
936.924
937
937.075
937.149
937.223
937.297
937.369
937.441
937.512
937.582
937.651
937.719
937.786
937.851
937.914
937.976
938.036
938.093
938.148
938.194
938.02
937.907
937.82
937.748
937.686
937.631
937.581
937.536
937.495
937.457
933.891
933.891
933.891
933.891
933.891
933.891
933.891
933.891
933.891
933.895
934.091
934.245
934.38
934.505
934.624
934.738
934.847
934.953
935.057
935.158
935.256
935.352
935.447
935.539
935.63
935.72
935.808
935.894
935.98
936.064
936.146
936.227
936.307
936.386
936.464
936.541
936.618
936.695
936.771
936.847
936.922
936.998
937.073
937.148
937.222
937.295
937.368
937.439
937.51
937.58
937.65
937.718
937.784
937.849
937.913
937.975
938.034
938.092
938.147
938.192
938.019
937.906
937.819
937.747
937.685
937.63
937.58
937.535
937.494
937.456
933.891
933.891
933.891
933.891
933.891
933.891
933.891
933.891
933.891
933.895
934.09
934.244
934.379
934.505
934.623
934.736
934.846
934.952
935.056
935.157
935.255
935.352
935.446
935.539
935.629
935.719
935.807
935.893
935.978
936.062
936.144
936.225
936.304
936.383
936.462
936.54
936.617
936.693
936.769
936.845
936.92
936.996
937.071
937.146
937.22
937.293
937.366
937.438
937.509
937.579
937.648
937.716
937.783
937.848
937.912
937.973
938.033
938.091
938.145
938.191
938.017
937.904
937.818
937.746
937.684
937.629
937.579
937.534
937.492
937.455
933.891
933.891
933.891
933.891
933.891
933.891
933.891
933.891
933.891
933.895
934.09
934.243
934.378
934.503
934.622
934.736
934.845
934.951
935.055
935.156
935.254
935.351
935.445
935.538
935.628
935.718
935.805
935.892
935.977
936.06
936.142
936.222
936.302
936.382
936.46
936.539
936.616
936.692
936.767
936.843
936.919
936.994
937.069
937.144
937.218
937.291
937.364
937.436
937.507
937.577
937.646
937.714
937.781
937.846
937.91
937.972
938.032
938.089
938.144
938.189
938.015
937.903
937.816
937.744
937.682
937.627
937.578
937.532
937.491
937.453
933.891
933.891
933.891
933.891
933.891
933.891
933.891
933.891
933.891
933.895
934.09
934.243
934.378
934.503
934.621
934.735
934.844
934.951
935.054
935.155
935.253
935.35
935.444
935.537
935.628
935.717
935.804
935.891
935.975
936.059
936.14
936.221
936.301
936.38
936.46
936.538
936.615
936.691
936.767
936.842
936.918
936.993
937.068
937.142
937.216
937.29
937.362
937.434
937.505
937.575
937.645
937.713
937.779
937.845
937.909
937.97
938.03
938.088
938.142
938.188
938.014
937.902
937.815
937.743
937.681
937.626
937.576
937.531
937.49
937.452
933.891
933.891
933.891
933.891
933.891
933.891
933.891
933.891
933.891
933.895
934.089
934.242
934.377
934.502
934.62
934.734
934.843
934.949
935.053
935.154
935.252
935.349
935.443
935.536
935.627
935.716
935.803
935.889
935.974
936.057
936.139
936.22
936.3
936.38
936.459
936.538
936.615
936.692
936.767
936.842
936.917
936.992
937.067
937.142
937.215
937.289
937.361
937.433
937.504
937.574
937.644
937.712
937.778
937.844
937.908
937.97
938.029
938.087
938.141
938.187
938.013
937.901
937.814
937.742
937.68
937.625
937.575
937.53
937.489
937.451
933.891
933.891
933.891
933.891
933.891
933.891
933.891
933.891
933.891
933.895
934.089
934.242
934.376
934.501
934.619
934.733
934.842
934.949
935.052
935.153
935.252
935.348
935.443
935.535
935.626
935.715
935.803
935.889
935.973
936.056
936.138
936.219
936.3
936.38
936.46
936.538
936.616
936.692
936.768
936.843
936.918
936.992
937.067
937.141
937.215
937.288
937.361
937.432
937.503
937.574
937.643
937.711
937.778
937.843
937.907
937.969
938.029
938.086
938.141
938.187
938.013
937.9
937.813
937.741
937.679
937.624
937.575
937.529
937.488
937.45
933.891
933.891
933.891
933.891
933.891
933.891
933.891
933.891
933.891
933.895
934.089
934.241
934.376
934.5
934.619
934.732
934.842
934.948
935.051
935.152
935.251
935.348
935.442
935.535
935.626
935.715
935.802
935.888
935.973
936.056
936.138
936.219
936.3
936.38
936.46
936.539
936.616
936.693
936.769
936.843
936.918
936.993
937.067
937.141
937.215
937.288
937.36
937.432
937.503
937.573
937.642
937.71
937.777
937.843
937.907
937.968
938.028
938.086
938.141
938.187
938.013
937.9
937.813
937.741
937.679
937.624
937.574
937.529
937.487
937.45
933.891
933.891
933.891
933.891
933.891
933.891
933.891
933.891
933.891
933.895
934.089
934.241
934.375
934.5
934.618
934.731
934.841
934.947
935.051
935.152
935.251
935.347
935.442
935.534
935.625
935.714
935.802
935.888
935.972
936.056
936.138
936.219
936.3
936.381
936.46
936.539
936.617
936.693
936.769
936.844
936.919
936.993
937.067
937.141
937.214
937.287
937.36
937.431
937.502
937.573
937.642
937.71
937.777
937.842
937.906
937.968
938.028
938.086
938.141
938.187
938.012
937.9
937.813
937.741
937.679
937.624
937.574
937.529
937.487
937.45
933.891
933.891
933.891
933.891
933.891
933.891
933.891
933.891
933.891
933.895
934.089
934.241
934.375
934.499
934.617
934.731
934.84
934.947
935.05
935.151
935.25
935.347
935.442
935.534
935.625
935.714
935.802
935.888
935.972
936.056
936.138
936.22
936.301
936.381
936.461
936.539
936.617
936.694
936.77
936.845
936.919
936.993
937.067
937.141
937.214
937.287
937.359
937.431
937.502
937.572
937.641
937.709
937.776
937.842
937.906
937.968
938.028
938.085
938.14
938.186
938.012
937.9
937.813
937.741
937.679
937.624
937.574
937.529
937.487
937.449
933.891
933.891
933.891
933.891
933.891
933.891
933.891
933.891
933.891
933.895
934.088
934.24
934.374
934.498
934.616
934.73
934.839
934.946
935.049
935.151
935.25
935.346
935.441
935.534
935.625
935.714
935.802
935.888
935.973
936.056
936.138
936.22
936.301
936.381
936.461
936.539
936.617
936.694
936.77
936.845
936.919
936.993
937.067
937.14
937.214
937.286
937.359
937.43
937.501
937.571
937.64
937.709
937.776
937.841
937.905
937.968
938.028
938.086
938.141
938.188
938.013
937.9
937.813
937.741
937.679
937.624
937.574
937.529
937.487
937.45
933.891
933.891
933.891
933.891
933.891
933.891
933.891
933.891
933.891
933.895
934.088
934.24
934.374
934.498
934.616
934.729
934.839
934.945
935.049
935.15
935.249
935.346
935.441
935.534
935.625
935.715
935.802
935.888
935.973
936.056
936.138
936.22
936.301
936.381
936.461
936.54
936.617
936.694
936.769
936.844
936.919
936.993
937.067
937.14
937.213
937.286
937.358
937.43
937.501
937.571
937.64
937.708
937.775
937.841
937.905
937.967
938.028
938.086
938.141
938.188
938.013
937.9
937.814
937.741
937.679
937.624
937.574
937.529
937.488
937.45
933.891
933.891
933.891
933.891
933.891
933.891
933.891
933.891
933.891
933.895
934.088
934.24
934.374
934.498
934.615
934.729
934.838
934.945
935.049
935.15
935.249
935.346
935.441
935.534
935.625
935.715
935.803
935.889
935.973
936.057
936.139
936.22
936.301
936.381
936.461
936.539
936.617
936.693
936.769
936.843
936.918
936.992
937.066
937.139
937.213
937.285
937.357
937.429
937.5
937.57
937.639
937.708
937.775
937.841
937.905
937.968
938.028
938.086
938.142
938.188
938.014
937.901
937.814
937.742
937.68
937.625
937.575
937.53
937.488
937.45
933.891
933.891
933.891
933.891
933.891
933.891
933.891
933.891
933.891
933.895
934.088
934.239
934.373
934.497
934.615
934.728
934.838
934.944
935.048
935.15
935.249
935.346
935.441
935.534
935.625
935.715
935.803
935.889
935.974
936.057
936.139
936.22
936.301
936.381
936.46
936.539
936.616
936.692
936.768
936.842
936.917
936.991
937.065
937.139
937.212
937.285
937.357
937.428
937.499
937.569
937.639
937.707
937.774
937.84
937.905
937.967
938.028
938.087
938.143
938.189
938.015
937.902
937.815
937.743
937.68
937.625
937.576
937.53
937.489
937.451
933.891
933.891
933.891
933.891
933.891
933.891
933.891
933.891
933.891
933.895
934.088
934.239
934.373
934.497
934.615
934.728
934.838
934.944
935.048
935.149
935.248
935.345
935.44
935.533
935.625
935.715
935.803
935.889
935.974
936.058
936.139
936.22
936.3
936.38
936.46
936.538
936.615
936.691
936.766
936.841
936.916
936.99
937.065
937.138
937.211
937.284
937.356
937.428
937.499
937.569
937.639
937.707
937.774
937.84
937.905
937.968
938.029
938.088
938.143
938.19
938.016
937.902
937.816
937.744
937.681
937.626
937.577
937.531
937.49
937.452
933.891
933.891
933.891
933.891
933.891
933.891
933.891
933.891
933.891
933.895
934.088
934.239
934.373
934.497
934.614
934.728
934.837
934.944
935.047
935.149
935.248
935.345
935.44
935.533
935.625
935.715
935.803
935.89
935.975
936.058
936.14
936.22
936.3
936.38
936.459
936.537
936.614
936.69
936.765
936.84
936.915
936.99
937.064
937.138
937.211
937.284
937.356
937.428
937.499
937.569
937.639
937.707
937.775
937.841
937.906
937.969
938.03
938.089
938.146
938.193
938.018
937.904
937.818
937.745
937.683
937.628
937.578
937.533
937.491
937.454
933.891
933.891
933.891
933.891
933.891
933.891
933.891
933.891
933.891
933.895
934.087
934.239
934.372
934.496
934.614
934.727
934.837
934.943
935.047
935.148
935.247
935.344
935.439
935.533
935.624
935.714
935.803
935.889
935.975
936.058
936.14
936.22
936.3
936.38
936.458
936.536
936.613
936.689
936.764
936.84
936.915
936.99
937.065
937.139
937.212
937.285
937.357
937.429
937.5
937.57
937.639
937.708
937.776
937.842
937.907
937.971
938.032
938.091
938.147
938.195
938.02
937.906
937.819
937.747
937.685
937.63
937.58
937.535
937.493
937.455
933.891
933.891
933.891
933.891
933.891
933.891
933.891
933.891
933.891
933.895
934.087
934.239
934.372
934.496
934.614
934.727
934.836
934.943
935.046
935.148
935.247
935.344
935.439
935.532
935.624
935.714
935.802
935.889
935.974
936.058
936.14
936.221
936.3
936.379
936.458
936.536
936.612
936.688
936.764
936.84
936.916
936.991
937.066
937.14
937.213
937.286
937.358
937.43
937.501
937.571
937.641
937.709
937.777
937.843
937.909
937.972
938.034
938.094
938.15
938.197
938.022
937.909
937.822
937.749
937.687
937.632
937.582
937.537
937.495
937.457
933.891
933.891
933.891
933.891
933.891
933.891
933.891
933.891
933.891
933.895
934.087
934.239
934.372
934.496
934.613
934.726
934.836
934.942
935.046
935.147
935.246
935.343
935.438
935.531
935.623
935.713
935.801
935.888
935.974
936.058
936.14
936.221
936.3
936.379
936.458
936.535
936.612
936.688
936.765
936.841
936.917
936.992
937.067
937.141
937.214
937.287
937.359
937.431
937.502
937.572
937.642
937.711
937.778
937.845
937.91
937.974
938.036
938.096
938.153
938.201
938.025
937.911
937.824
937.752
937.689
937.634
937.584
937.539
937.497
937.459
933.891
933.891
933.891
933.891
933.891
933.891
933.891
933.891
933.891
933.895
934.087
934.238
934.372
934.495
934.613
934.725
934.835
934.941
935.045
935.146
935.245
935.342
935.437
935.53
935.622
935.712
935.8
935.887
935.973
936.057
936.139
936.22
936.3
936.379
936.457
936.535
936.612
936.688
936.765
936.841
936.917
936.992
937.067
937.141
937.215
937.288
937.36
937.432
937.503
937.573
937.643
937.712
937.779
937.846
937.912
937.976
938.038
938.098
938.155
938.203
938.027
937.913
937.826
937.754
937.691
937.636
937.586
937.54
937.499
937.461
933.891
933.891
933.891
933.891
933.891
933.891
933.891
933.891
933.891
933.895
934.087
934.238
934.371
934.495
934.612
934.725
934.834
934.94
935.044
935.145
935.244
935.341
935.436
935.529
935.621
935.711
935.799
935.886
935.972
936.055
936.138
936.219
936.299
936.378
936.456
936.534
936.611
936.688
936.765
936.841
936.917
936.992
937.067
937.141
937.215
937.288
937.36
937.432
937.503
937.573
937.643
937.712
937.78
937.847
937.913
937.977
938.039
938.1
938.157
938.205
938.029
937.915
937.827
937.755
937.692
937.637
937.587
937.541
937.5
937.462
933.891
933.891
933.891
933.891
933.891
933.891
933.891
933.891
933.891
933.895
934.087
934.238
934.371
934.494
934.612
934.724
934.833
934.939
935.043
935.144
935.242
935.339
935.434
935.527
935.619
935.709
935.798
935.884
935.97
936.054
936.136
936.217
936.297
936.376
936.454
936.532
936.61
936.687
936.764
936.84
936.916
936.992
937.067
937.141
937.215
937.288
937.36
937.432
937.503
937.573
937.643
937.712
937.78
937.847
937.913
937.977
938.04
938.1
938.158
938.207
938.03
937.916
937.828
937.756
937.693
937.638
937.588
937.542
937.5
937.462
933.891
933.891
933.891
933.891
933.891
933.891
933.891
933.891
933.891
933.895
934.087
934.238
934.371
934.494
934.611
934.723
934.832
934.938
935.041
935.142
935.241
935.338
935.432
935.526
935.617
935.707
935.796
935.882
935.968
936.052
936.134
936.215
936.295
936.374
936.452
936.531
936.608
936.686
936.763
936.839
936.915
936.991
937.065
937.14
937.213
937.286
937.359
937.43
937.501
937.572
937.642
937.711
937.779
937.846
937.912
937.976
938.039
938.1
938.158
938.207
938.03
937.916
937.828
937.756
937.693
937.637
937.587
937.542
937.5
937.462
933.891
933.891
933.891
933.891
933.891
933.891
933.891
933.891
933.891
933.895
934.087
934.238
934.37
934.493
934.61
934.722
934.831
934.937
935.04
935.141
935.239
935.336
935.431
935.524
935.615
935.705
935.793
935.88
935.966
936.049
936.132
936.213
936.293
936.372
936.45
936.528
936.606
936.684
936.761
936.837
936.913
936.989
937.064
937.138
937.211
937.284
937.357
937.428
937.5
937.57
937.64
937.709
937.777
937.844
937.91
937.975
938.038
938.099
938.158
938.207
938.03
937.915
937.828
937.755
937.692
937.637
937.587
937.541
937.499
937.461
933.891
933.891
933.891
933.891
933.891
933.891
933.891
933.891
933.891
933.895
934.087
934.237
934.37
934.493
934.609
934.721
934.83
934.935
935.038
935.139
935.237
935.334
935.428
935.521
935.613
935.702
935.791
935.877
935.963
936.046
936.129
936.21
936.29
936.369
936.448
936.526
936.604
936.681
936.758
936.835
936.911
936.986
937.061
937.135
937.209
937.282
937.354
937.426
937.497
937.567
937.637
937.706
937.774
937.842
937.908
937.973
938.037
938.098
938.156
938.206
938.029
937.914
937.826
937.754
937.691
937.635
937.585
937.54
937.498
937.46
933.891
933.891
933.891
933.891
933.891
933.891
933.891
933.891
933.891
933.895
934.086
934.237
934.369
934.492
934.608
934.72
934.828
934.934
935.037
935.137
935.235
935.332
935.426
935.519
935.61
935.7
935.788
935.875
935.96
936.043
936.126
936.207
936.287
936.366
936.445
936.523
936.601
936.679
936.756
936.832
936.908
936.984
937.058
937.133
937.206
937.279
937.351
937.423
937.494
937.565
937.634
937.703
937.772
937.839
937.906
937.971
938.034
938.096
938.155
938.204
938.027
937.913
937.825
937.752
937.69
937.634
937.584
937.539
937.497
937.459
933.891
933.891
933.891
933.891
933.891
933.891
933.891
933.891
933.891
933.895
934.086
934.236
934.369
934.491
934.607
934.719
934.827
934.932
935.035
935.135
935.233
935.329
935.423
935.516
935.607
935.697
935.785
935.871
935.956
936.04
936.122
936.203
936.283
936.363
936.442
936.52
936.598
936.676
936.753
936.83
936.905
936.981
937.056
937.13
937.203
937.276
937.349
937.42
937.492
937.562
937.632
937.701
937.77
937.837
937.904
937.97
938.034
938.095
938.155
938.205
938.028
937.913
937.825
937.753
937.69
937.635
937.585
937.54
937.498
937.46
933.891
933.891
933.891
933.891
933.891
933.891
933.891
933.891
933.891
933.895
934.086
934.236
934.368
934.49
934.606
934.718
934.826
934.93
935.033
935.133
935.231
935.327
935.421
935.514
935.605
935.694
935.782
935.869
935.954
936.037
936.119
936.201
936.281
936.361
936.44
936.518
936.597
936.674
936.752
936.828
936.904
936.98
937.055
937.129
937.203
937.276
937.348
937.42
937.492
937.563
937.633
937.702
937.771
937.839
937.906
937.972
938.037
938.099
938.159
938.21
938.033
937.918
937.831
937.758
937.696
937.641
937.591
937.546
937.504
937.467
933.891
933.891
933.891
933.891
933.891
933.891
933.891
933.891
933.891
933.895
934.085
934.236
934.367
934.49
934.605
934.716
934.824
934.929
935.031
935.131
935.229
935.325
935.419
935.512
935.603
935.692
935.78
935.867
935.952
936.036
936.119
936.2
936.281
936.361
936.441
936.52
936.598
936.676
936.754
936.831
936.908
936.984
937.059
937.134
937.208
937.282
937.355
937.428
937.5
937.571
937.642
937.712
937.782
937.851
937.919
937.986
938.051
938.115
938.176
938.228
938.05
937.936
937.849
937.777
937.715
937.66
937.611
937.566
937.525
937.488
933.891
933.891
933.891
933.891
933.891
933.891
933.891
933.891
933.891
933.895
934.086
934.235
934.367
934.489
934.605
934.716
934.824
934.929
935.031
935.131
935.229
935.325
935.42
935.513
935.605
935.695
935.783
935.871
935.956
936.041
936.124
936.207
936.289
936.37
936.45
936.531
936.61
936.689
936.768
936.846
936.924
937.001
937.078
937.154
937.23
937.305
937.379
937.453
937.527
937.6
937.672
937.744
937.816
937.886
937.956
938.025
938.093
938.158
938.222
938.276
938.098
937.984
937.897
937.826
937.765
937.711
937.662
937.618
937.578
937.542
933.891
933.891
933.891
933.891
933.891
933.891
933.891
933.891
933.891
933.895
934.085
934.235
934.368
934.49
934.606
934.718
934.826
934.932
935.035
935.136
935.235
935.333
935.429
935.523
935.616
935.708
935.798
935.887
935.975
936.062
936.148
936.232
936.316
936.4
936.483
936.566
936.648
936.73
936.812
936.893
936.973
937.053
937.133
937.212
937.291
937.369
937.447
937.525
937.602
937.678
937.754
937.83
937.904
937.979
938.053
938.125
938.197
938.267
938.334
938.392
938.214
938.1
938.015
937.944
937.884
937.831
937.784
937.741
937.703
937.668
933.891
933.891
933.891
933.891
933.891
933.891
933.891
933.891
933.891
933.895
934.086
934.238
934.372
934.496
934.614
934.729
934.839
934.948
935.054
935.158
935.261
935.362
935.462
935.561
935.658
935.754
935.849
935.943
936.036
936.128
936.219
936.309
936.398
936.488
936.577
936.665
936.753
936.841
936.929
937.016
937.103
937.19
937.276
937.361
937.447
937.532
937.616
937.701
937.784
937.868
937.951
938.034
938.116
938.197
938.278
938.358
938.437
938.515
938.59
938.655
938.473
938.36
938.274
938.204
938.145
938.093
938.046
938.004
937.966
937.932
933.891
933.891
933.891
933.891
933.891
933.891
933.891
933.891
933.891
933.895
934.091
934.247
934.387
934.517
934.643
934.764
934.882
934.999
935.114
935.227
935.339
935.45
935.56
935.669
935.777
935.884
935.99
936.095
936.199
936.302
936.404
936.506
936.608
936.709
936.81
936.91
937.011
937.111
937.21
937.31
937.409
937.507
937.606
937.704
937.801
937.898
937.995
938.091
938.187
938.283
938.378
938.472
938.566
938.66
938.752
938.844
938.935
939.024
939.109
939.185
938.992
938.871
938.779
938.704
938.639
938.581
938.529
938.482
938.438
938.399
933.891
933.891
933.891
933.891
933.891
933.891
933.891
933.891
933.891
933.896
934.109
934.284
934.441
934.59
934.733
934.874
935.012
935.149
935.284
935.418
935.551
935.683
935.814
935.944
936.073
936.201
936.328
936.454
936.579
936.703
936.825
936.947
937.069
937.19
937.31
937.43
937.549
937.667
937.785
937.903
938.019
938.135
938.25
938.365
938.479
938.592
938.704
938.815
938.926
939.036
939.145
939.254
939.361
939.468
939.574
939.678
939.781
939.881
939.979
940.06
939.819
939.662
939.538
939.434
939.341
939.258
939.183
939.112
939.048
938.989
933.891
933.891
933.891
933.891
933.891
933.891
933.891
933.891
933.892
933.898
934.179
934.4
934.597
934.782
934.96
935.133
935.303
935.47
935.635
935.798
935.959
936.119
936.277
936.433
936.588
936.741
936.892
937.041
937.188
937.333
937.476
937.617
937.757
937.895
938.032
938.168
938.302
938.436
938.567
938.698
938.827
938.954
939.08
939.205
939.329
939.451
939.572
939.692
939.81
939.928
940.044
940.159
940.273
940.386
940.497
940.607
940.714
940.818
940.918
940.989
940.59
940.335
940.139
939.976
939.835
939.712
939.601
939.5
939.408
939.328
933.891
933.891
933.891
933.891
933.891
933.891
933.891
933.891
933.891
933.896
934.113
934.317
934.508
934.691
934.868
935.04
935.209
935.375
935.539
935.701
935.861
936.019
936.176
936.332
936.486
936.638
936.789
936.939
937.087
937.233
937.378
937.521
937.662
937.802
937.94
938.076
938.21
938.343
938.475
938.605
938.735
938.864
938.991
939.118
939.243
939.367
939.49
939.611
939.731
939.849
939.965
940.08
940.193
940.304
940.412
940.519
940.622
940.722
940.818
940.89
940.564
940.323
940.131
939.97
939.831
939.708
939.597
939.497
939.405
939.325
933.891
933.891
933.891
933.891
933.891
933.891
933.891
933.891
933.891
933.894
934.049
934.203
934.351
934.495
934.635
934.773
934.909
935.043
935.176
935.307
935.438
935.567
935.696
935.824
935.952
936.078
936.204
936.33
936.455
936.578
936.702
936.824
936.946
937.067
937.187
937.307
937.425
937.543
937.661
937.778
937.894
938.011
938.126
938.242
938.357
938.471
938.584
938.696
938.808
938.918
939.027
939.136
939.242
939.348
939.452
939.553
939.653
939.751
939.846
939.926
939.76
939.624
939.51
939.41
939.322
939.242
939.169
939.101
939.037
938.98
933.891
933.891
933.891
933.891
933.891
933.891
933.891
933.891
933.891
933.894
934.033
934.17
934.301
934.426
934.548
934.667
934.783
934.897
935.009
935.12
935.23
935.339
935.447
935.554
935.66
935.765
935.87
935.974
936.078
936.181
936.283
936.385
936.486
936.587
936.687
936.787
936.886
936.985
937.084
937.182
937.281
937.379
937.478
937.576
937.674
937.771
937.868
937.965
938.061
938.156
938.251
938.344
938.437
938.529
938.619
938.709
938.796
938.883
938.966
939.041
938.918
938.817
938.735
938.665
938.604
938.55
938.501
938.455
938.414
938.376
933.891
933.891
933.891
933.891
933.891
933.891