/*--------------------------------*- C++ -*----------------------------------*\
  =========                 |
  \\      /  F ield         | OpenFOAM: The Open Source CFD Toolbox
   \\    /   O peration     | Website:  https://openfoam.org
    \\  /    A nd           | Version:  12
     \\/     M anipulation  |
\*---------------------------------------------------------------------------*/
FoamFile
{
    format      ascii;
    class       volScalarField;
    location    "1100/porous";
    object      T;
}
// * * * * * * * * * * * * * * * * * * * * * * * * * * * * * * * * * * * * * //

dimensions      [0 0 0 1 0 0 0];

internalField   nonuniform List<scalar> 
140000
(
400
400
400
400
400
400
400
400
400
399.992
399.685
399.444
399.23
399.029
398.836
398.649
398.466
398.286
398.109
397.933
397.76
397.589
397.419
397.25
397.083
396.918
396.754
396.591
396.431
396.271
396.114
395.958
395.804
395.651
395.501
395.352
395.205
395.059
394.914
394.771
394.628
394.486
394.346
394.206
394.067
393.93
393.795
393.661
393.528
393.398
393.268
393.141
393.016
392.893
392.773
392.655
392.54
392.43
392.324
392.25
392.692
392.974
393.191
393.371
393.526
393.663
393.785
393.896
393.998
394.086
400
400
400
400
400
400
400
400
400
399.995
399.76
399.569
399.398
399.236
399.08
398.928
398.779
398.632
398.487
398.343
398.201
398.059
397.919
397.779
397.64
397.502
397.364
397.228
397.092
396.956
396.822
396.688
396.555
396.423
396.291
396.161
396.031
395.901
395.773
395.644
395.516
395.388
395.261
395.134
395.008
394.882
394.757
394.634
394.511
394.389
394.269
394.149
394.032
393.916
393.801
393.689
393.579
393.472
393.368
393.284
393.548
393.721
393.856
393.972
394.073
394.165
394.248
394.325
394.397
394.461
400
400
400
400
400
400
400
400
400
399.996
399.78
399.608
399.456
399.314
399.178
399.046
398.918
398.793
398.67
398.548
398.428
398.309
398.191
398.074
397.959
397.843
397.729
397.615
397.502
397.389
397.277
397.166
397.055
396.945
396.835
396.726
396.617
396.509
396.4
396.292
396.184
396.076
395.968
395.86
395.752
395.644
395.538
395.432
395.326
395.221
395.117
395.014
394.912
394.811
394.712
394.613
394.517
394.423
394.333
394.254
394.464
394.596
394.695
394.778
394.849
394.912
394.969
395.021
395.068
395.111
400
400
400
400
400
400
400
400
400
399.996
399.785
399.618
399.471
399.335
399.207
399.083
398.963
398.847
398.733
398.621
398.511
398.402
398.295
398.189
398.085
397.981
397.879
397.777
397.676
397.576
397.477
397.378
397.28
397.183
397.087
396.991
396.895
396.8
396.706
396.611
396.517
396.422
396.327
396.233
396.139
396.046
395.953
395.86
395.768
395.677
395.586
395.497
395.408
395.321
395.234
395.15
395.066
394.986
394.907
394.84
395.036
395.159
395.252
395.328
395.393
395.449
395.5
395.546
395.587
395.625
400
400
400
400
400
400
400
400
400
399.996
399.786
399.621
399.475
399.341
399.214
399.093
398.976
398.862
398.751
398.643
398.537
398.432
398.33
398.228
398.128
398.03
397.932
397.836
397.74
397.646
397.552
397.459
397.367
397.276
397.186
397.097
397.008
396.92
396.832
396.744
396.657
396.569
396.482
396.395
396.309
396.223
396.137
396.052
395.968
395.885
395.802
395.721
395.64
395.561
395.483
395.406
395.332
395.259
395.189
395.129
395.322
395.444
395.537
395.614
395.679
395.736
395.788
395.834
395.876
395.914
400
400
400
400
400
400
400
400
400
399.996
399.786
399.62
399.475
399.341
399.215
399.094
398.977
398.864
398.754
398.647
398.542
398.439
398.337
398.238
398.139
398.042
397.947
397.852
397.759
397.667
397.575
397.485
397.396
397.307
397.22
397.134
397.048
396.963
396.878
396.794
396.709
396.625
396.541
396.458
396.375
396.292
396.211
396.13
396.049
395.97
395.891
395.814
395.738
395.663
395.589
395.517
395.447
395.379
395.313
395.257
395.449
395.572
395.666
395.743
395.81
395.869
395.921
395.969
396.013
396.052
400
400
400
400
400
400
400
400
400
399.996
399.786
399.62
399.475
399.34
399.214
399.093
398.976
398.863
398.753
398.646
398.541
398.438
398.337
398.238
398.14
398.044
397.949
397.855
397.762
397.671
397.58
397.491
397.403
397.316
397.229
397.144
397.06
396.976
396.893
396.809
396.726
396.644
396.561
396.479
396.398
396.317
396.237
396.157
396.079
396.001
395.925
395.849
395.775
395.702
395.63
395.561
395.493
395.427
395.363
395.31
395.502
395.625
395.72
395.798
395.865
395.924
395.978
396.026
396.071
396.111
400
400
400
400
400
400
400
400
400
399.996
399.785
399.62
399.474
399.339
399.212
399.091
398.974
398.861
398.751
398.644
398.539
398.436
398.334
398.235
398.137
398.041
397.946
397.852
397.76
397.669
397.578
397.49
397.402
397.315
397.229
397.145
397.061
396.977
396.895
396.812
396.729
396.647
396.565
396.484
396.403
396.323
396.243
396.165
396.087
396.01
395.934
395.86
395.786
395.714
395.644
395.575
395.508
395.443
395.382
395.33
395.521
395.644
395.739
395.818
395.885
395.945
395.999
396.048
396.093
396.134
400
400
400
400
400
400
400
400
400
399.996
399.785
399.619
399.473
399.339
399.211
399.09
398.973
398.859
398.749
398.641
398.536
398.433
398.332
398.232
398.134
398.038
397.943
397.849
397.756
397.665
397.575
397.486
397.399
397.312
397.227
397.142
397.058
396.975
396.893
396.81
396.728
396.646
396.564
396.483
396.402
396.322
396.243
396.165
396.087
396.011
395.935
395.861
395.787
395.716
395.646
395.578
395.511
395.448
395.386
395.335
395.526
395.65
395.745
395.823
395.891
395.951
396.006
396.055
396.1
396.141
400
400
400
400
400
400
400
400
400
399.996
399.785
399.619
399.473
399.338
399.211
399.089
398.971
398.858
398.747
398.639
398.534
398.43
398.329
398.229
398.131
398.034
397.939
397.845
397.753
397.662
397.572
397.483
397.395
397.309
397.223
397.139
397.055
396.972
396.89
396.807
396.725
396.643
396.561
396.48
396.399
396.319
396.24
396.162
396.084
396.008
395.932
395.858
395.785
395.714
395.644
395.576
395.51
395.446
395.386
395.335
395.526
395.65
395.745
395.823
395.891
395.952
396.006
396.055
396.101
396.142
400
400
400
400
400
400
400
400
400
399.996
399.785
399.619
399.473
399.338
399.21
399.088
398.971
398.857
398.746
398.638
398.532
398.428
398.327
398.227
398.129
398.032
397.937
397.843
397.75
397.659
397.569
397.48
397.392
397.306
397.221
397.136
397.053
396.97
396.887
396.805
396.722
396.64
396.558
396.477
396.396
396.316
396.237
396.159
396.081
396.005
395.929
395.855
395.782
395.711
395.641
395.573
395.507
395.444
395.384
395.332
395.524
395.648
395.743
395.821
395.89
395.95
396.004
396.054
396.099
396.141
400
400
400
400
400
400
400
400
400
399.996
399.785
399.619
399.473
399.338
399.21
399.088
398.97
398.856
398.745
398.637
398.531
398.427
398.325
398.225
398.127
398.03
397.935
397.841
397.748
397.656
397.566
397.478
397.39
397.304
397.219
397.134
397.051
396.968
396.885
396.802
396.72
396.638
396.556
396.474
396.394
396.314
396.235
396.156
396.079
396.002
395.927
395.852
395.779
395.708
395.638
395.571
395.505
395.442
395.381
395.33
395.522
395.645
395.74
395.819
395.888
395.948
396.002
396.052
396.097
396.139
400
400
400
400
400
400
400
400
400
399.996
399.785
399.62
399.473
399.338
399.21
399.088
398.97
398.856
398.745
398.636
398.53
398.426
398.324
398.224
398.126
398.029
397.933
397.839
397.747
397.655
397.565
397.476
397.389
397.303
397.218
397.134
397.05
396.967
396.884
396.801
396.719
396.636
396.554
396.473
396.392
396.312
396.233
396.154
396.077
396
395.925
395.85
395.777
395.706
395.636
395.569
395.503
395.44
395.38
395.329
395.52
395.644
395.739
395.818
395.886
395.946
396.001
396.05
396.096
396.137
400
400
400
400
400
400
400
400
400
399.996
399.785
399.619
399.474
399.338
399.211
399.088
398.97
398.856
398.744
398.636
398.53
398.426
398.324
398.224
398.125
398.028
397.933
397.839
397.746
397.654
397.564
397.476
397.389
397.303
397.218
397.133
397.05
396.967
396.884
396.801
396.718
396.636
396.554
396.472
396.391
396.311
396.232
396.154
396.076
395.999
395.924
395.849
395.776
395.705
395.635
395.567
395.502
395.439
395.379
395.328
395.519
395.643
395.738
395.817
395.885
395.946
396
396.05
396.095
396.137
400
400
400
400
400
400
400
400
400
399.996
399.786
399.62
399.474
399.339
399.211
399.089
398.971
398.856
398.745
398.636
398.53
398.426
398.324
398.224
398.125
398.028
397.933
397.839
397.746
397.655
397.565
397.476
397.389
397.303
397.218
397.134
397.05
396.967
396.884
396.801
396.718
396.636
396.554
396.472
396.392
396.312
396.232
396.154
396.076
395.999
395.924
395.849
395.776
395.705
395.635
395.567
395.502
395.438
395.378
395.328
395.519
395.643
395.738
395.817
395.885
395.946
396
396.05
396.095
396.137
400
400
400
400
400
400
400
400
400
399.996
399.786
399.621
399.475
399.34
399.212
399.09
398.972
398.857
398.746
398.637
398.531
398.426
398.324
398.224
398.126
398.029
397.933
397.839
397.747
397.655
397.566
397.477
397.39
397.305
397.22
397.135
397.052
396.968
396.885
396.802
396.72
396.637
396.555
396.474
396.393
396.313
396.233
396.155
396.077
396
395.925
395.85
395.777
395.705
395.636
395.568
395.502
395.439
395.379
395.329
395.52
395.644
395.739
395.818
395.886
395.946
396.001
396.05
396.096
396.137
400
400
400
400
400
400
400
400
400
399.996
399.786
399.621
399.475
399.341
399.213
399.091
398.973
398.858
398.746
398.638
398.531
398.427
398.325
398.225
398.126
398.029
397.934
397.84
397.748
397.657
397.567
397.479
397.392
397.307
397.221
397.137
397.053
396.97
396.887
396.804
396.721
396.639
396.557
396.475
396.395
396.314
396.235
396.156
396.079
396.002
395.926
395.851
395.778
395.707
395.637
395.569
395.503
395.44
395.38
395.33
395.521
395.645
395.74
395.819
395.887
395.947
396.002
396.051
396.097
396.138
400
400
400
400
400
400
400
400
400
399.996
399.787
399.622
399.476
399.342
399.214
399.092
398.974
398.859
398.748
398.639
398.532
398.428
398.326
398.226
398.127
398.031
397.935
397.841
397.749
397.658
397.569
397.481
397.395
397.309
397.223
397.139
397.055
396.972
396.889
396.806
396.724
396.641
396.559
396.478
396.397
396.317
396.237
396.158
396.081
396.004
395.928
395.853
395.78
395.708
395.639
395.571
395.505
395.442
395.382
395.332
395.523
395.647
395.742
395.82
395.889
395.949
396.003
396.053
396.098
396.14
400
400
400
400
400
400
400
400
400
399.996
399.787
399.622
399.477
399.343
399.215
399.093
398.975
398.86
398.749
398.64
398.533
398.429
398.327
398.227
398.128
398.032
397.937
397.843
397.751
397.66
397.571
397.484
397.397
397.311
397.225
397.14
397.056
396.973
396.891
396.808
396.726
396.643
396.561
396.48
396.399
396.319
396.239
396.161
396.083
396.006
395.93
395.855
395.782
395.71
395.64
395.572
395.507
395.444
395.384
395.333
395.524
395.648
395.743
395.822
395.89
395.951
396.005
396.054
396.1
396.141
400
400
400
400
400
400
400
400
400
399.996
399.787
399.623
399.478
399.343
399.216
399.094
398.976
398.861
398.75
398.641
398.534
398.43
398.328
398.228
398.129
398.033
397.938
397.844
397.752
397.662
397.573
397.486
397.399
397.312
397.226
397.141
397.057
396.974
396.892
396.809
396.727
396.645
396.563
396.481
396.4
396.32
396.241
396.162
396.084
396.007
395.932
395.857
395.784
395.712
395.642
395.574
395.508
395.445
395.385
395.335
395.526
395.65
395.745
395.823
395.892
395.952
396.006
396.056
396.101
396.143
400
400
400
400
400
400
400
400
400
399.996
399.788
399.624
399.479
399.345
399.217
399.095
398.977
398.862
398.751
398.642
398.535
398.431
398.329
398.229
398.13
398.034
397.939
397.846
397.754
397.663
397.575
397.487
397.4
397.313
397.226
397.141
397.056
396.973
396.891
396.809
396.727
396.645
396.563
396.482
396.401
396.321
396.242
396.163
396.085
396.009
395.933
395.858
395.785
395.713
395.643
395.575
395.509
395.446
395.386
395.336
395.527
395.651
395.746
395.825
395.893
395.953
396.007
396.057
396.103
396.144
400
400
400
400
400
400
400
400
400
399.996
399.788
399.624
399.479
399.345
399.218
399.096
398.978
398.863
398.752
398.643
398.536
398.432
398.33
398.229
398.131
398.035
397.94
397.846
397.755
397.665
397.576
397.488
397.4
397.313
397.226
397.141
397.056
396.973
396.89
396.809
396.727
396.645
396.564
396.483
396.402
396.322
396.243
396.164
396.086
396.009
395.933
395.859
395.785
395.714
395.644
395.576
395.51
395.447
395.387
395.336
395.527
395.651
395.746
395.825
395.893
395.954
396.008
396.058
396.103
396.145
400
400
400
400
400
400
400
400
400
399.996
399.788
399.624
399.48
399.346
399.219
399.097
398.979
398.864
398.752
398.643
398.537
398.432
398.33
398.23
398.131
398.035
397.94
397.847
397.755
397.665
397.576
397.487
397.4
397.312
397.226
397.14
397.055
396.972
396.889
396.808
396.726
396.645
396.564
396.483
396.402
396.322
396.243
396.164
396.087
396.01
395.934
395.859
395.786
395.714
395.644
395.576
395.51
395.447
395.387
395.336
395.528
395.651
395.747
395.826
395.894
395.954
396.009
396.058
396.104
396.145
400
400
400
400
400
400
400
400
400
399.996
399.788
399.625
399.481
399.347
399.22
399.098
398.98
398.865
398.753
398.644
398.537
398.433
398.331
398.23
398.132
398.035
397.94
397.847
397.756
397.665
397.576
397.487
397.399
397.312
397.225
397.14
397.055
396.971
396.889
396.807
396.726
396.644
396.563
396.483
396.402
396.323
396.244
396.165
396.087
396.01
395.935
395.86
395.787
395.715
395.644
395.576
395.51
395.447
395.387
395.336
395.528
395.652
395.747
395.826
395.894
395.954
396.009
396.058
396.104
396.145
400
400
400
400
400
400
400
400
400
399.996
399.788
399.625
399.481
399.347
399.22
399.098
398.98
398.865
398.754
398.644
398.538
398.433
398.331
398.23
398.132
398.035
397.94
397.847
397.755
397.665
397.576
397.487
397.399
397.311
397.225
397.139
397.055
396.971
396.888
396.807
396.725
396.644
396.564
396.483
396.403
396.323
396.244
396.166
396.088
396.011
395.935
395.861
395.787
395.715
395.645
395.577
395.511
395.447
395.387
395.336
395.528
395.652
395.747
395.826
395.894
395.954
396.009
396.058
396.104
396.145
400
400
400
400
400
400
400
400
400
399.996
399.789
399.626
399.482
399.348
399.221
399.099
398.981
398.866
398.754
398.645
398.538
398.434
398.331
398.231
398.132
398.035
397.94
397.847
397.755
397.665
397.576
397.487
397.399
397.311
397.225
397.139
397.054
396.971
396.888
396.807
396.725
396.645
396.564
396.483
396.403
396.324
396.245
396.166
396.089
396.012
395.936
395.861
395.788
395.716
395.645
395.577
395.511
395.447
395.386
395.335
395.527
395.651
395.746
395.825
395.894
395.954
396.009
396.058
396.104
396.145
400
400
400
400
400
400
400
400
400
399.996
399.789
399.626
399.482
399.349
399.222
399.1
398.982
398.867
398.755
398.645
398.539
398.434
398.331
398.231
398.132
398.035
397.94
397.847
397.755
397.665
397.575
397.487
397.398
397.311
397.225
397.139
397.054
396.971
396.888
396.807
396.726
396.645
396.564
396.484
396.404
396.324
396.245
396.167
396.089
396.012
395.937
395.862
395.788
395.716
395.646
395.577
395.511
395.447
395.386
395.335
395.527
395.651
395.746
395.825
395.893
395.954
396.008
396.058
396.104
396.145
400
400
400
400
400
400
400
400
400
399.996
399.789
399.626
399.482
399.349
399.222
399.1
398.982
398.867
398.755
398.646
398.539
398.434
398.332
398.231
398.132
398.035
397.94
397.846
397.754
397.664
397.575
397.487
397.399
397.311
397.225
397.139
397.055
396.971
396.889
396.808
396.727
396.646
396.565
396.484
396.405
396.325
396.246
396.168
396.09
396.013
395.937
395.862
395.789
395.717
395.646
395.577
395.51
395.446
395.385
395.334
395.526
395.65
395.746
395.825
395.893
395.953
396.008
396.057
396.103
396.144
400
400
400
400
400
400
400
400
400
399.996
399.789
399.627
399.483
399.35
399.223
399.101
398.983
398.868
398.756
398.646
398.539
398.435
398.332
398.231
398.132
398.035
397.94
397.846
397.754
397.664
397.575
397.487
397.399
397.312
397.225
397.14
397.056
396.972
396.89
396.809
396.728
396.646
396.566
396.485
396.405
396.326
396.247
396.168
396.091
396.014
395.938
395.863
395.789
395.717
395.646
395.577
395.51
395.446
395.385
395.333
395.525
395.649
395.745
395.824
395.892
395.953
396.007
396.057
396.102
396.143
400
400
400
400
400
400
400
400
400
399.996
399.79
399.627
399.483
399.35
399.223
399.101
398.983
398.868
398.756
398.647
398.54
398.435
398.332
398.231
398.132
398.035
397.939
397.846
397.754
397.663
397.574
397.487
397.399
397.312
397.226
397.141
397.057
396.974
396.892
396.81
396.729
396.647
396.566
396.486
396.406
396.326
396.247
396.169
396.091
396.014
395.938
395.863
395.789
395.717
395.646
395.576
395.509
395.445
395.384
395.332
395.524
395.648
395.744
395.823
395.891
395.952
396.006
396.056
396.101
396.142
400
400
400
400
400
400
400
400
400
399.996
399.79
399.627
399.483
399.35
399.223
399.102
398.983
398.869
398.757
398.647
398.54
398.435
398.333
398.232
398.132
398.035
397.939
397.846
397.753
397.663
397.574
397.487
397.4
397.313
397.227
397.142
397.058
396.975
396.894
396.812
396.73
396.648
396.567
396.486
396.406
396.326
396.247
396.169
396.091
396.014
395.938
395.863
395.789
395.716
395.645
395.576
395.508
395.443
395.381
395.329
395.522
395.646
395.742
395.821
395.889
395.95
396.004
396.054
396.1
396.141
400
400
400
400
400
400
400
400
400
399.996
399.79
399.627
399.484
399.35
399.224
399.102
398.984
398.869
398.757
398.648
398.541
398.436
398.333
398.232
398.133
398.035
397.94
397.846
397.753
397.663
397.574
397.486
397.4
397.313
397.227
397.143
397.059
396.976
396.894
396.812
396.73
396.648
396.566
396.485
396.405
396.326
396.247
396.168
396.09
396.013
395.937
395.862
395.788
395.715
395.643
395.574
395.506
395.441
395.379
395.327
395.52
395.644
395.74
395.819
395.887
395.948
396.002
396.052
396.098
396.139
400
400
400
400
400
400
400
400
400
399.996
399.79
399.627
399.484
399.351
399.224
399.102
398.985
398.87
398.758
398.649
398.542
398.437
398.334
398.233
398.134
398.036
397.94
397.846
397.753
397.663
397.574
397.486
397.399
397.313
397.228
397.143
397.06
396.977
396.894
396.811
396.729
396.647
396.565
396.484
396.404
396.324
396.245
396.167
396.089
396.012
395.936
395.861
395.786
395.713
395.642
395.572
395.504
395.438
395.376
395.324
395.517
395.642
395.737
395.817
395.885
395.946
396
396.05
396.096
396.137
400
400
400
400
400
400
400
400
400
399.996
399.79
399.627
399.484
399.351
399.225
399.103
398.985
398.871
398.759
398.649
398.542
398.438
398.335
398.234
398.134
398.037
397.941
397.847
397.754
397.663
397.574
397.486
397.399
397.313
397.228
397.144
397.06
396.977
396.894
396.811
396.728
396.646
396.564
396.483
396.403
396.323
396.244
396.166
396.088
396.011
395.935
395.859
395.785
395.712
395.64
395.57
395.502
395.436
395.373
395.32
395.514
395.639
395.735
395.814
395.883
395.943
395.998
396.048
396.093
396.135
400
400
400
400
400
400
400
400
400
399.996
399.79
399.628
399.484
399.351
399.225
399.104
398.986
398.871
398.76
398.65
398.543
398.439
398.336
398.235
398.136
398.038
397.942
397.848
397.755
397.664
397.575
397.487
397.4
397.314
397.229
397.144
397.06
396.977
396.893
396.81
396.727
396.645
396.563
396.482
396.402
396.322
396.243
396.165
396.087
396.01
395.933
395.858
395.784
395.71
395.638
395.568
395.499
395.434
395.371
395.318
395.512
395.637
395.733
395.812
395.881
395.941
395.996
396.046
396.092
396.133
400
400
400
400
400
400
400
400
400
399.996
399.79
399.628
399.485
399.352
399.226
399.104
398.987
398.872
398.761
398.652
398.545
398.44
398.337
398.236
398.137
398.039
397.944
397.849
397.756
397.665
397.576
397.488
397.401
397.315
397.23
397.146
397.061
396.977
396.894
396.81
396.727
396.645
396.563
396.482
396.402
396.322
396.243
396.164
396.087
396.009
395.933
395.858
395.783
395.71
395.637
395.567
395.498
395.432
395.368
395.316
395.51
395.635
395.731
395.81
395.879
395.94
395.995
396.045
396.09
396.132
400
400
400
400
400
400
400
400
400
399.996
399.79
399.628
399.485
399.352
399.226
399.105
398.988
398.873
398.762
398.653
398.546
398.441
398.339
398.238
398.139
398.041
397.945
397.851
397.758
397.667
397.578
397.49
397.403
397.317
397.232
397.147
397.062
396.978
396.894
396.811
396.728
396.646
396.564
396.483
396.402
396.323
396.243
396.165
396.087
396.01
395.933
395.858
395.783
395.71
395.637
395.566
395.498
395.431
395.368
395.314
395.508
395.634
395.73
395.81
395.878
395.939
395.994
396.044
396.09
396.131
400
400
400
400
400
400
400
400
400
399.996
399.79
399.629
399.486
399.353
399.227
399.106
398.989
398.875
398.763
398.654
398.548
398.443
398.341
398.24
398.141
398.043
397.947
397.853
397.76
397.669
397.58
397.492
397.405
397.319
397.234
397.149
397.064
396.98
396.896
396.812
396.729
396.647
396.565
396.484
396.404
396.324
396.245
396.166
396.088
396.011
395.935
395.859
395.784
395.711
395.638
395.567
395.498
395.431
395.368
395.314
395.508
395.634
395.73
395.81
395.878
395.939
395.994
396.044
396.09
396.131
400
400
400
400
400
400
400
400
400
399.996
399.791
399.629
399.486
399.354
399.228
399.107
398.99
398.876
398.765
398.656
398.55
398.445
398.343
398.242
398.143
398.046
397.95
397.856
397.763
397.672
397.583
397.495
397.408
397.322
397.236
397.151
397.066
396.982
396.898
396.814
396.731
396.649
396.567
396.486
396.406
396.326
396.247
396.168
396.09
396.013
395.937
395.861
395.786
395.712
395.64
395.569
395.499
395.432
395.368
395.314
395.509
395.634
395.731
395.81
395.879
395.94
395.995
396.045
396.091
396.132
400
400
400
400
400
400
400
400
400
399.996
399.791
399.629
399.487
399.354
399.229
399.108
398.991
398.878
398.767
398.658
398.552
398.447
398.345
398.244
398.146
398.048
397.953
397.859
397.766
397.675
397.586
397.498
397.411
397.325
397.239
397.154
397.069
396.985
396.901
396.817
396.734
396.652
396.57
396.489
396.409
396.329
396.25
396.171
396.093
396.016
395.94
395.864
395.789
395.715
395.642
395.571
395.501
395.434
395.37
395.315
395.51
395.636
395.732
395.812
395.881
395.942
395.996
396.046
396.092
396.134
400
400
400
400
400
400
400
400
400
399.996
399.791
399.629
399.487
399.355
399.23
399.11
398.993
398.879
398.768
398.66
398.554
398.45
398.348
398.247
398.148
398.051
397.956
397.862
397.769
397.679
397.589
397.501
397.414
397.328
397.242
397.157
397.072
396.987
396.903
396.82
396.737
396.655
396.573
396.492
396.412
396.332
396.253
396.174
396.096
396.019
395.943
395.867
395.792
395.718
395.645
395.573
395.504
395.436
395.371
395.317
395.511
395.637
395.733
395.813
395.882
395.943
395.998
396.048
396.093
396.135
400
400
400
400
400
400
400
400
400
399.996
399.791
399.63
399.488
399.356
399.231
399.111
398.994
398.881
398.771
398.662
398.556
398.452
398.35
398.25
398.152
398.055
397.959
397.865
397.773
397.682
397.593
397.505
397.418
397.331
397.245
397.16
397.075
396.99
396.906
396.823
396.74
396.658
396.576
396.495
396.415
396.335
396.256
396.177
396.099
396.022
395.945
395.869
395.794
395.72
395.647
395.575
395.504
395.437
395.371
395.316
395.511
395.637
395.733
395.813
395.881
395.942
395.997
396.047
396.092
396.134
400
400
400
400
400
400
400
400
400
399.996
399.791
399.63
399.488
399.357
399.232
399.112
398.996
398.883
398.772
398.664
398.559
398.455
398.353
398.253
398.154
398.057
397.962
397.868
397.776
397.685
397.596
397.508
397.42
397.334
397.248
397.162
397.077
396.992
396.908
396.824
396.741
396.659
396.577
396.496
396.415
396.335
396.256
396.177
396.099
396.021
395.944
395.868
395.793
395.718
395.644
395.572
395.501
395.432
395.366
395.31
395.506
395.631
395.727
395.807
395.875
395.936
395.99
396.04
396.085
396.126
400
400
400
400
400
400
400
400
400
399.996
399.792
399.631
399.489
399.358
399.233
399.113
398.997
398.885
398.774
398.666
398.561
398.457
398.355
398.255
398.156
398.059
397.964
397.87
397.778
397.687
397.597
397.508
397.421
397.333
397.247
397.161
397.075
396.99
396.905
396.821
396.738
396.655
396.572
396.491
396.409
396.329
396.249
396.169
396.09
396.012
395.934
395.857
395.781
395.705
395.631
395.557
395.485
395.415
395.348
395.291
395.486
395.612
395.708
395.787
395.855
395.915
395.969
396.018
396.063
396.103
400
400
400
400
400
400
400
400
400
399.996
399.792
399.631
399.489
399.358
399.233
399.114
398.998
398.885
398.774
398.666
398.56
398.456
398.354
398.253
398.154
398.057
397.961
397.866
397.773
397.681
397.59
397.501
397.412
397.324
397.236
397.149
397.062
396.976
396.89
396.804
396.72
396.635
396.552
396.468
396.386
396.304
396.222
396.141
396.06
395.98
395.901
395.822
395.744
395.666
395.59
395.514
395.44
395.367
395.298
395.238
395.434
395.559
395.654
395.732
395.8
395.859
395.912
395.96
396.004
396.044
400
400
400
400
400
400
400
400
400
399.996
399.792
399.631
399.489
399.357
399.232
399.112
398.995
398.881
398.77
398.661
398.554
398.448
398.345
398.243
398.142
398.042
397.944
397.848
397.752
397.658
397.565
397.473
397.382
397.291
397.2
397.11
397.021
396.931
396.842
396.754
396.666
396.578
396.491
396.405
396.319
396.233
396.148
396.063
395.979
395.895
395.811
395.729
395.646
395.565
395.484
395.404
395.325
395.248
395.174
395.11
395.306
395.431
395.525
395.603
395.669
395.727
395.778
395.825
395.868
395.906
400
400
400
400
400
400
400
400
400
399.996
399.791
399.628
399.484
399.35
399.223
399.1
398.981
398.864
398.749
398.637
398.526
398.417
398.309
398.202
398.096
397.992
397.889
397.787
397.686
397.587
397.488
397.39
397.293
397.195
397.099
397.002
396.906
396.81
396.714
396.619
396.524
396.43
396.336
396.242
396.148
396.055
395.962
395.87
395.778
395.686
395.595
395.505
395.414
395.324
395.235
395.147
395.06
394.975
394.892
394.82
395.02
395.146
395.24
395.317
395.382
395.439
395.49
395.537
395.578
395.616
400
400
400
400
400
400
400
400
400
399.996
399.786
399.618
399.468
399.328
399.193
399.063
398.935
398.809
398.685
398.562
398.441
398.321
398.203
398.085
397.968
397.852
397.737
397.623
397.51
397.398
397.286
397.175
397.065
396.955
396.845
396.735
396.625
396.516
396.407
396.298
396.19
396.082
395.974
395.867
395.76
395.653
395.547
395.441
395.335
395.23
395.126
395.022
394.918
394.815
394.713
394.611
394.511
394.413
394.318
394.234
394.448
394.582
394.683
394.766
394.838
394.902
394.959
395.011
395.059
395.102
400
400
400
400
400
400
400
400
400
399.995
399.766
399.578
399.41
399.25
399.095
398.943
398.794
398.647
398.501
398.356
398.212
398.07
397.928
397.787
397.647
397.508
397.369
397.232
397.096
396.961
396.827
396.694
396.562
396.43
396.298
396.167
396.037
395.907
395.777
395.648
395.52
395.393
395.266
395.14
395.014
394.89
394.766
394.643
394.521
394.399
394.278
394.158
394.039
393.921
393.803
393.688
393.573
393.462
393.353
393.263
393.531
393.705
393.843
393.959
394.061
394.153
394.237
394.314
394.386
394.451
400
400
400
400
400
400
400
400
400
399.993
399.691
399.454
399.243
399.043
398.851
398.665
398.481
398.3
398.121
397.944
397.77
397.596
397.425
397.255
397.086
396.92
396.755
396.592
396.432
396.273
396.117
395.962
395.808
395.656
395.506
395.357
395.209
395.062
394.917
394.773
394.631
394.49
394.35
394.212
394.075
393.939
393.805
393.672
393.54
393.41
393.28
393.152
393.025
392.899
392.775
392.653
392.533
392.416
392.305
392.225
392.672
392.956
393.175
393.356
393.513
393.65
393.773
393.885
393.987
394.076
400
400
400
400
400
400
400
400
400
399.995
399.763
399.544
399.338
399.141
398.95
398.765
398.582
398.403
398.226
398.05
397.877
397.705
397.534
397.365
397.198
397.032
396.867
396.704
396.542
396.382
396.224
396.067
395.912
395.759
395.608
395.458
395.31
395.164
395.019
394.875
394.732
394.59
394.449
394.308
394.17
394.032
393.896
393.762
393.629
393.498
393.368
393.24
393.115
392.991
392.87
392.751
392.636
392.524
392.416
392.336
392.7
392.97
393.183
393.363
393.517
393.654
393.777
393.888
393.99
394.08
400
400
400
400
400
400
400
400
400
399.997
399.831
399.666
399.507
399.352
399.201
399.053
398.906
398.762
398.618
398.476
398.335
398.195
398.055
397.916
397.778
397.64
397.504
397.367
397.232
397.097
396.962
396.829
396.696
396.564
396.432
396.302
396.172
396.043
395.914
395.785
395.657
395.53
395.402
395.275
395.149
395.023
394.899
394.775
394.652
394.53
394.409
394.289
394.171
394.054
393.939
393.826
393.715
393.607
393.501
393.411
393.596
393.748
393.874
393.984
394.082
394.171
394.252
394.328
394.398
394.461
400
400
400
400
400
400
400
400
400
399.998
399.848
399.702
399.561
399.426
399.295
399.167
399.042
398.919
398.798
398.678
398.559
398.442
398.325
398.209
398.094
397.98
397.867
397.754
397.641
397.53
397.418
397.308
397.197
397.087
396.978
396.869
396.761
396.653
396.545
396.437
396.33
396.222
396.114
396.007
395.9
395.793
395.686
395.58
395.475
395.37
395.266
395.163
395.06
394.959
394.859
394.761
394.664
394.569
394.477
394.394
394.53
394.641
394.732
394.809
394.876
394.936
394.99
395.04
395.086
395.128
400
400
400
400
400
400
400
400
400
399.998
399.852
399.71
399.575
399.446
399.322
399.202
399.085
398.97
398.858
398.748
398.639
398.532
398.426
398.321
398.218
398.115
398.013
397.912
397.812
397.712
397.614
397.516
397.418
397.321
397.225
397.13
397.035
396.94
396.846
396.752
396.658
396.564
396.47
396.376
396.283
396.19
396.097
396.005
395.913
395.822
395.731
395.642
395.553
395.465
395.379
395.294
395.21
395.128
395.048
394.977
395.102
395.204
395.288
395.359
395.421
395.475
395.524
395.568
395.608
395.644
400
400
400
400
400
400
400
400
400
399.998
399.853
399.712
399.578
399.451
399.329
399.211
399.097
398.985
398.876
398.769
398.664
398.561
398.459
398.359
398.26
398.162
398.065
397.969
397.874
397.78
397.687
397.594
397.503
397.412
397.322
397.233
397.145
397.057
396.969
396.882
396.795
396.708
396.621
396.535
396.449
396.363
396.278
396.193
396.109
396.026
395.943
395.862
395.781
395.701
395.623
395.546
395.471
395.397
395.325
395.262
395.384
395.486
395.57
395.642
395.704
395.759
395.809
395.853
395.894
395.932
400
400
400
400
400
400
400
400
400
399.998
399.853
399.712
399.578
399.451
399.329
399.212
399.098
398.987
398.879
398.773
398.669
398.567
398.467
398.368
398.27
398.174
398.079
397.985
397.892
397.8
397.709
397.619
397.53
397.442
397.355
397.269
397.183
397.098
397.014
396.93
396.846
396.762
396.679
396.596
396.513
396.431
396.349
396.268
396.188
396.109
396.03
395.952
395.876
395.8
395.726
395.654
395.583
395.513
395.447
395.387
395.509
395.612
395.697
395.769
395.833
395.889
395.94
395.986
396.028
396.067
400
400
400
400
400
400
400
400
400
399.998
399.853
399.711
399.578
399.45
399.328
399.211
399.097
398.986
398.878
398.772
398.668
398.567
398.467
398.368
398.271
398.175
398.081
397.987
397.895
397.804
397.714
397.625
397.537
397.45
397.364
397.279
397.194
397.111
397.028
396.945
396.862
396.78
396.698
396.616
396.535
396.454
396.374
396.295
396.217
396.139