/*--------------------------------*- C++ -*----------------------------------*\
  =========                 |
  \\      /  F ield         | OpenFOAM: The Open Source CFD Toolbox
   \\    /   O peration     | Website:  https://openfoam.org
    \\  /    A nd           | Version:  12
     \\/     M anipulation  |
\*---------------------------------------------------------------------------*/
FoamFile
{
    format      ascii;
    class       volScalarField;
    location    "600/porous";
    object      rho;
}
// * * * * * * * * * * * * * * * * * * * * * * * * * * * * * * * * * * * * * //

dimensions      [1 -3 0 0 0 0 0];

internalField   nonuniform List<scalar> 
140000
(
933.891
933.891
933.891
933.891
933.891
933.891
933.891
933.891
933.892
933.899
934.193
934.419
934.618
934.803
934.981
935.152
935.321
935.486
935.648
935.808
935.966
936.123
936.278
936.432
936.584
936.734
936.883
937.031
937.177
937.322
937.465
937.607
937.746
937.884
938.019
938.152
938.283
938.412
938.539
938.666
938.792
938.919
939.045
939.172
939.297
939.422
939.546
939.669
939.791
939.913
940.035
940.157
940.28
940.404
940.528
940.655
940.785
940.918
941.057
941.178
940.827
940.63
940.503
940.419
940.371
940.351
940.359
940.391
940.447
940.517
933.891
933.891
933.891
933.891
933.891
933.891
933.891
933.891
933.891
933.896
934.122
934.301
934.46
934.61
934.753
934.893
935.03
935.165
935.298
935.43
935.56
935.69
935.818
935.946
936.073
936.199
936.324
936.449
936.572
936.696
936.818
936.939
937.06
937.18
937.298
937.415
937.531
937.646
937.76
937.873
937.988
938.102
938.218
938.333
938.447
938.562
938.675
938.788
938.901
939.012
939.124
939.235
939.346
939.457
939.568
939.679
939.792
939.905
940.021
940.125
939.909
939.781
939.693
939.629
939.585
939.557
939.546
939.548
939.566
939.596
933.891
933.891
933.891
933.891
933.891
933.891
933.891
933.891
933.891
933.895
934.103
934.264
934.406
934.537
934.662
934.783
934.901
935.016
935.129
935.24
935.35
935.459
935.566
935.673
935.779
935.884
935.988
936.091
936.194
936.297
936.399
936.5
936.6
936.7
936.799
936.896
936.993
937.089
937.184
937.28
937.377
937.475
937.573
937.672
937.77
937.868
937.965
938.062
938.159
938.255
938.35
938.445
938.54
938.634
938.727
938.821
938.913
939.006
939.098
939.183
938.999
938.889
938.81
938.75
938.703
938.667
938.64
938.622
938.612
938.61
933.891
933.891
933.891
933.891
933.891
933.891
933.891
933.891
933.891
933.895
934.099
934.256
934.392
934.517
934.636
934.749
934.859
934.966
935.07
935.172
935.273
935.372
935.47
935.566
935.661
935.755
935.849
935.941
936.032
936.123
936.213
936.302
936.391
936.478
936.565
936.65
936.734
936.818
936.901
936.985
937.069
937.155
937.241
937.328
937.414
937.499
937.585
937.669
937.754
937.837
937.921
938.003
938.085
938.166
938.246
938.326
938.405
938.482
938.559
938.628
938.45
938.341
938.26
938.195
938.142
938.097
938.059
938.027
938.001
937.979
933.891
933.891
933.891
933.891
933.891
933.891
933.891
933.891
933.891
933.895
934.098
934.254
934.389
934.513
934.629
934.74
934.847
934.951
935.053
935.152
935.249
935.344
935.437
935.529
935.62
935.71
935.798
935.885
935.972
936.057
936.142
936.225
936.308
936.389
936.47
936.549
936.627
936.704
936.78
936.858
936.937
937.016
937.096
937.176
937.256
937.335
937.413
937.491
937.568
937.645
937.721
937.796
937.871
937.945
938.017
938.089
938.159
938.229
938.297
938.357
938.181
938.07
937.986
937.918
937.861
937.811
937.767
937.728
937.693
937.663
933.891
933.891
933.891
933.891
933.891
933.891
933.891
933.891
933.891
933.895
934.099
934.255
934.39
934.513
934.629
934.739
934.846
934.949
935.05
935.148
935.243
935.337
935.429
935.52
935.609
935.697
935.783
935.868
935.952
936.035
936.117
936.198
936.278
936.357
936.435
936.511
936.586
936.659
936.733
936.808
936.884
936.961
937.038
937.115
937.192
937.268
937.343
937.418
937.492
937.565
937.637
937.709
937.78
937.85
937.918
937.986
938.053
938.118
938.181
938.237
938.062
937.95
937.865
937.795
937.736
937.683
937.637
937.595
937.557
937.523
933.891
933.891
933.891
933.891
933.891
933.891
933.891
933.891
933.891
933.895
934.099
934.256
934.39
934.514
934.63
934.74
934.847
934.95
935.05
935.148
935.244
935.337
935.429
935.519
935.607
935.694
935.779
935.864
935.947
936.029
936.11
936.19
936.268
936.346
936.422
936.497
936.57
936.643
936.716
936.789
936.865
936.941
937.017
937.092
937.167
937.242
937.316
937.389
937.462
937.534
937.605
937.675
937.744
937.812
937.879
937.945
938.009
938.072
938.134
938.187
938.012
937.9
937.815
937.744
937.684
937.63
937.583
937.54
937.501
937.465
933.891
933.891
933.891
933.891
933.891
933.891
933.891
933.891
933.891
933.895
934.1
934.256
934.392
934.515
934.631
934.742
934.849
934.952
935.053
935.15
935.246
935.339
935.431
935.521
935.609
935.695
935.78
935.864
935.947
936.028
936.108
936.188
936.266
936.343
936.418
936.492
936.565
936.637
936.71
936.783
936.858
936.934
937.01
937.085
937.16
937.234
937.307
937.38
937.452
937.523
937.594
937.663
937.732
937.799
937.865
937.93
937.994
938.056
938.116
938.168
937.994
937.881
937.796
937.725
937.665
937.611
937.563
937.52
937.48
937.444
933.891
933.891
933.891
933.891
933.891
933.891
933.891
933.891
933.891
933.895
934.1
934.257
934.393
934.516
934.633
934.744
934.85
934.954
935.054
935.152
935.248
935.341
935.433
935.523
935.611
935.697
935.782
935.865
935.947
936.028
936.108
936.187
936.265
936.341
936.416
936.49
936.563
936.635
936.708
936.782
936.857
936.933
937.009
937.084
937.159
937.233
937.306
937.379
937.45
937.522
937.592
937.661
937.729
937.796
937.862
937.927
937.99
938.052
938.111
938.163
937.988
937.876
937.791
937.72
937.659
937.606
937.558
937.514
937.474
937.438
933.891
933.891
933.891
933.891
933.891
933.891
933.891
933.891
933.891
933.895
934.101
934.258
934.393
934.517
934.634
934.745
934.852
934.956
935.056
935.154
935.25
935.344
935.435
935.525
935.613
935.699
935.783
935.867
935.948
936.029
936.108
936.187
936.264
936.341
936.416
936.49
936.563
936.636
936.709
936.783
936.858
936.934
937.01
937.085
937.16
937.234
937.307
937.38
937.452
937.523
937.593
937.662
937.731
937.798
937.864
937.928
937.991
938.053
938.112
938.163
937.989
937.877
937.791
937.72
937.66
937.606
937.558
937.514
937.474
937.438
933.891
933.891
933.891
933.891
933.891
933.891
933.891
933.891
933.891
933.895
934.101
934.258
934.394
934.518
934.634
934.746
934.853
934.957
935.058
935.156
935.252
935.345
935.437
935.526
935.614
935.7
935.784
935.867
935.948
936.029
936.108
936.186
936.263
936.34
936.416
936.49
936.564
936.637
936.71
936.784
936.86
936.936
937.012
937.087
937.162
937.236
937.31
937.382
937.454
937.526
937.596
937.665
937.733
937.801
937.867
937.931
937.994
938.055
938.114
938.165
937.991
937.879
937.794
937.723
937.662
937.609
937.561
937.517
937.477
937.441
933.891
933.891
933.891
933.891
933.891
933.891
933.891
933.891
933.891
933.895
934.101
934.259
934.394
934.518
934.635
934.746
934.854
934.958
935.059
935.157
935.253
935.347
935.438
935.527
935.615
935.701
935.785
935.867
935.948
936.028
936.106
936.185
936.262
936.339
936.416
936.491
936.565
936.638
936.712
936.787
936.863
936.939
937.015
937.09
937.165
937.239
937.312
937.385
937.457
937.529
937.599
937.668
937.737
937.804
937.87
937.934
937.997
938.059
938.118
938.168
937.994
937.882
937.797
937.726
937.666
937.612
937.564
937.52
937.48
937.445
933.891
933.891
933.891
933.891
933.891
933.891
933.891
933.891
933.891
933.895
934.101
934.258
934.394
934.518
934.635
934.747
934.854
934.958
935.059
935.158
935.254
935.347
935.439
935.528
935.616
935.701
935.785
935.867
935.947
936.026
936.105
936.183
936.261
936.339
936.416
936.492
936.567
936.641
936.715
936.79
936.865
936.941
937.017
937.093
937.168
937.242
937.315
937.388
937.46
937.532
937.602
937.672
937.74
937.807
937.873
937.938
938.001
938.062
938.121
938.171
937.998
937.886
937.8
937.73
937.669
937.615
937.567
937.524
937.484
937.448
933.891
933.891
933.891
933.891
933.891
933.891
933.891
933.891
933.891
933.895
934.102
934.259
934.394
934.518
934.635
934.747
934.854
934.958
935.06
935.158
935.254
935.348
935.439
935.528
935.616
935.701
935.784
935.866
935.945
936.024
936.103
936.182
936.261
936.339
936.417
936.494
936.57
936.645
936.719
936.793
936.869
936.945
937.02
937.096
937.171
937.245
937.318
937.391
937.463
937.535
937.605
937.675
937.743
937.811
937.877
937.941
938.004
938.065
938.124
938.175
938.001
937.889
937.804
937.733
937.672
937.619
937.57
937.527
937.487
937.451
933.891
933.891
933.891
933.891
933.891
933.891
933.891
933.891
933.891
933.895
934.101
934.258
934.394
934.518
934.635
934.746
934.854
934.958
935.06
935.158
935.254
935.348
935.439
935.528
935.615
935.7
935.783
935.864
935.943
936.022
936.101
936.181
936.261
936.341
936.419
936.497
936.574
936.649
936.723
936.798
936.873
936.948
937.024
937.099
937.174
937.248
937.321
937.394
937.466
937.538
937.608
937.678
937.747
937.814
937.88
937.944
938.007
938.069
938.128
938.178
938.004
937.892
937.807
937.736
937.675
937.622
937.574
937.53
937.49
937.454
933.891
933.891
933.891
933.891
933.891
933.891
933.891
933.891
933.891
933.895
934.101
934.257
934.393
934.517
934.634
934.746
934.854
934.958
935.059
935.158
935.254
935.348
935.439
935.528
935.615
935.7
935.782
935.862
935.941
936.02
936.1
936.181
936.262
936.342
936.422
936.501
936.578
936.654
936.729
936.803
936.877
936.952
937.028
937.103
937.177
937.251
937.325
937.397
937.47
937.541
937.612
937.681
937.75
937.817
937.883
937.948
938.011
938.072
938.131
938.181
938.007
937.895
937.81
937.739
937.678
937.624
937.576
937.533
937.493
937.457
933.891
933.891
933.891
933.891
933.891
933.891
933.891
933.891
933.891
933.895
934.101
934.257
934.393
934.517
934.634
934.745
934.853
934.958
935.059
935.158
935.254
935.348
935.439
935.528
935.615
935.699
935.781
935.861
935.94
936.019
936.099
936.181
936.264
936.345
936.425
936.504
936.583
936.659
936.734
936.808
936.882
936.957
937.031
937.106
937.181
937.254
937.328
937.401
937.473
937.544
937.615
937.684
937.753
937.82
937.886
937.951
938.013
938.075
938.134
938.184
938.01
937.898
937.812
937.741
937.681
937.627
937.579
937.535
937.495
937.459
933.891
933.891
933.891
933.891
933.891
933.891
933.891
933.891
933.891
933.895
934.1
934.256
934.392
934.516
934.633
934.744
934.852
934.957
935.058
935.157
935.253
935.347
935.439
935.528
935.614
935.698
935.78
935.859
935.938
936.018
936.1
936.183
936.266
936.348
936.429
936.508
936.587
936.664
936.74
936.814
936.887
936.961
937.035
937.109
937.184
937.257
937.331
937.403
937.475
937.547
937.617
937.687
937.755
937.823
937.889
937.953
938.016
938.077
938.136
938.187
938.013
937.9
937.815
937.744
937.683
937.629
937.581
937.537
937.497
937.461
933.891
933.891
933.891
933.891
933.891
933.891
933.891
933.891
933.891
933.895
934.1
934.256
934.391
934.515
934.632
934.744
934.852
934.956
935.058
935.157
935.253
935.347
935.438
935.527
935.614
935.698
935.779
935.859
935.938
936.018
936.101
936.185
936.269
936.351
936.432
936.511
936.59
936.668
936.745
936.819
936.892
936.965
937.038
937.112
937.186
937.26
937.333
937.405
937.477
937.549
937.619
937.689
937.757
937.824
937.89
937.955
938.018
938.079
938.138
938.189
938.014
937.902
937.816
937.745
937.684
937.631
937.582
937.539
937.499
937.463
933.891
933.891
933.891
933.891
933.891
933.891
933.891
933.891
933.891
933.895
934.099
934.255
934.39
934.514
934.631
934.743
934.851
934.956
935.058
935.157
935.253
935.347
935.438
935.527
935.614
935.698
935.779
935.858
935.938
936.019
936.103
936.188
936.271
936.353
936.434
936.513
936.592
936.671
936.748
936.823
936.895
936.967
937.04
937.114
937.187
937.261
937.334
937.406
937.478
937.55
937.62
937.69
937.758
937.826
937.892
937.956
938.019
938.08
938.139
938.19
938.016
937.903
937.818
937.747
937.685
937.632
937.583
937.54
937.5
937.464
933.891
933.891
933.891
933.891
933.891
933.891
933.891
933.891
933.891
933.895
934.098
934.253
934.388
934.513
934.63
934.742
934.85
934.955
935.057
935.156
935.253
935.347
935.438
935.527
935.614
935.698
935.779
935.859
935.938
936.02
936.105
936.19
936.273
936.355
936.435
936.515
936.594
936.672
936.75
936.825
936.897
936.969
937.041
937.114
937.187
937.261
937.334
937.406
937.478
937.55
937.62
937.69
937.758
937.826
937.892
937.956
938.019
938.081
938.14
938.191
938.017
937.904
937.818
937.747
937.686
937.632
937.584
937.54
937.5
937.464
933.891
933.891
933.891
933.891
933.891
933.891
933.891
933.891
933.891
933.895
934.098
934.253
934.388
934.512
934.629
934.742
934.85
934.955
935.057
935.156
935.253
935.347
935.439
935.528
935.615
935.699
935.78
935.86
935.939
936.022
936.107
936.191
936.274
936.356
936.436
936.516
936.595
936.673
936.751
936.826
936.898
936.969
937.041
937.114
937.187
937.26
937.333
937.406
937.478
937.549
937.62
937.689
937.758
937.825
937.891
937.956
938.019
938.08
938.14
938.191
938.016
937.904
937.818
937.747
937.686
937.632
937.584
937.54
937.5
937.464
933.891
933.891
933.891
933.891
933.891
933.891
933.891
933.891
933.891
933.895
934.097
934.252
934.387
934.511
934.629
934.741
934.849
934.954
935.056
935.156
935.253
935.347
935.439
935.528
935.615
935.699
935.781
935.861
935.941
936.024
936.108
936.192
936.275
936.357
936.437
936.517
936.596
936.674
936.751
936.826
936.899
936.969
937.041
937.113
937.186
937.259
937.332
937.405
937.477
937.548
937.619
937.688
937.757
937.824
937.891
937.955
938.018
938.08
938.14
938.192
938.017
937.904
937.818
937.747
937.686
937.632
937.584
937.54
937.5
937.464
933.891
933.891
933.891
933.891
933.891
933.891
933.891
933.891
933.891
933.895
934.096
934.251
934.386
934.51
934.628
934.74
934.849
934.954
935.056
935.156
935.253
935.347
935.439
935.529
935.616
935.701
935.783
935.863
935.943
936.026
936.11
936.194
936.277
936.358
936.439
936.518
936.597
936.675
936.752
936.827
936.899
936.97
937.04
937.112
937.185
937.258
937.331
937.403
937.476
937.547
937.618
937.687
937.756
937.823
937.89
937.954
938.018
938.079
938.139
938.192
938.017
937.904
937.818
937.747
937.686
937.632
937.583
937.539
937.499
937.463
933.891
933.891
933.891
933.891
933.891
933.891
933.891
933.891
933.891
933.895
934.096
934.251
934.386
934.51
934.627
934.74
934.849
934.954
935.056
935.156
935.253
935.348
935.44
935.53
935.617
935.702
935.784
935.865
935.945
936.028
936.112
936.196
936.278
936.36
936.44
936.52
936.598
936.676
936.753
936.828
936.9
936.97
937.04
937.112
937.184
937.257
937.33
937.402
937.474
937.546
937.617
937.686
937.755
937.822
937.889
937.953
938.017
938.079
938.139
938.192
938.016
937.904
937.818
937.746
937.685
937.631
937.583
937.539
937.499
937.463
933.891
933.891
933.891
933.891
933.891
933.891
933.891
933.891
933.891
933.895
934.094
934.249
934.384
934.509
934.626
934.739
934.848
934.954
935.056
935.156
935.253
935.348
935.44
935.531
935.618
935.704
935.786
935.867
935.948
936.03
936.114
936.198
936.28
936.362
936.442
936.521
936.6
936.678
936.755
936.829
936.901
936.971
937.04
937.111
937.183
937.256
937.329
937.401
937.473
937.545
937.615
937.685
937.754
937.821
937.888
937.952
938.016
938.078
938.139
938.193
938.017
937.904
937.818
937.747
937.686
937.632
937.583
937.539
937.499
937.463
933.891
933.891
933.891
933.891
933.891
933.891
933.891
933.891
933.891
933.895
934.094
934.249
934.384
934.508
934.626
934.739
934.848
934.953
935.056
935.156
935.253
935.348
935.441
935.531
935.619
935.705
935.788
935.869
935.95
936.033
936.117
936.2
936.283
936.364
936.444
936.523
936.602
936.68
936.756
936.831
936.902
936.971
937.041
937.111
937.183
937.256
937.328
937.401
937.473
937.544
937.615
937.684
937.753
937.821
937.887
937.952
938.015
938.077
938.138
938.193
938.017
937.904
937.818
937.747
937.686
937.632
937.583
937.539
937.499
937.463
933.891
933.891
933.891
933.891
933.891
933.891
933.891
933.891
933.891
933.895
934.094
934.248
934.383
934.508
934.626
934.739
934.848
934.953
935.056
935.156
935.253
935.348
935.441
935.532
935.62
935.706
935.79
935.872
935.953
936.035
936.119
936.202
936.285
936.366
936.446
936.525
936.604
936.681
936.758
936.833
936.904
936.972
937.041
937.111
937.183
937.255
937.328
937.4
937.472
937.543
937.614
937.684
937.752
937.82
937.886
937.951
938.015
938.077
938.139
938.194
938.018
937.904
937.818
937.747
937.686
937.632
937.583
937.539
937.499
937.463
933.891
933.891
933.891
933.891
933.891
933.891
933.891
933.891
933.891
933.895
934.093
934.247
934.382
934.507
934.625
934.738
934.847
934.953
935.056
935.156
935.253
935.348
935.442
935.532
935.621
935.708
935.792
935.874
935.955
936.037
936.121
936.204
936.287
936.368
936.448
936.527
936.605
936.683
936.76
936.834
936.905
936.973
937.041
937.111
937.183
937.255
937.327
937.399
937.471
937.542
937.613
937.683
937.751
937.819
937.885
937.95
938.014
938.077
938.139
938.195
938.018
937.905
937.819
937.747
937.686
937.632
937.584
937.54
937.5
937.464
933.891
933.891
933.891
933.891
933.891
933.891
933.891
933.891
933.891
933.895
934.093
934.247
934.382
934.507
934.625
934.738
934.847
934.952
935.055
935.155
935.253
935.348
935.442
935.533
935.622
935.709
935.793
935.876
935.957
936.039
936.122
936.206
936.288
936.369
936.449
936.528
936.606
936.684
936.761
936.835
936.905
936.973
937.041
937.111
937.182
937.254
937.326
937.398
937.47
937.541
937.612
937.682
937.75
937.818
937.884
937.949
938.013
938.076
938.138
938.195
938.018
937.905
937.818
937.747
937.686
937.632
937.583
937.539
937.499
937.463
933.891
933.891
933.891
933.891
933.891
933.891
933.891
933.891
933.891
933.895
934.092
934.246
934.381
934.506
934.624
934.737
934.846
934.952
935.055
935.155
935.253
935.348
935.442
935.533
935.622
935.709
935.794
935.877
935.959
936.04
936.123
936.206
936.288
936.369
936.449
936.528
936.607
936.684
936.761
936.834
936.903
936.971
937.04
937.11
937.181
937.253
937.325
937.397
937.469
937.54
937.61
937.68
937.749
937.816
937.883
937.948
938.012
938.075
938.138
938.196
938.018
937.905
937.818
937.747
937.686
937.631
937.583
937.539
937.499
937.463
933.891
933.891
933.891
933.891
933.891
933.891
933.891
933.891
933.891
933.895
934.092
934.246
934.381
934.505
934.623
934.736
934.845
934.951
935.054
935.154
935.252
935.348
935.441
935.533
935.622
935.71
935.795
935.879
935.96
936.041
936.123
936.205
936.288
936.368
936.448
936.527
936.605
936.683
936.759
936.831
936.9
936.968
937.037
937.107
937.179
937.251
937.323
937.395
937.466
937.538
937.608
937.678
937.746
937.814
937.881
937.946
938.01
938.074
938.137
938.195
938.018
937.904
937.817
937.746
937.685
937.63
937.582
937.538
937.498
937.462
933.891
933.891
933.891
933.891
933.891
933.891
933.891
933.891
933.891
933.895
934.092
934.245
934.38
934.505
934.623
934.736
934.845
934.95
935.053
935.154
935.251
935.347
935.441
935.532
935.622
935.71
935.795
935.879
935.961
936.042
936.123
936.204
936.286
936.366
936.446
936.525
936.603
936.68
936.754
936.826
936.896
936.964
937.034
937.104
937.176
937.248
937.32
937.392
937.464
937.535
937.605
937.675
937.744
937.811
937.878
937.943
938.008
938.072
938.136
938.194
938.016
937.902
937.816
937.744
937.683
937.629
937.58
937.537
937.496
937.46
933.891
933.891
933.891
933.891
933.891
933.891
933.891
933.891
933.891
933.895
934.091
934.245
934.38
934.504
934.622
934.735
934.844
934.949
935.052
935.153
935.25
935.346
935.44
935.531
935.621
935.709
935.795
935.879
935.962
936.042
936.122
936.202
936.283
936.363
936.442
936.521
936.598
936.675
936.749
936.82
936.89
936.959
937.029
937.101
937.173
937.245
937.317
937.389
937.46
937.532
937.602
937.672
937.74
937.808
937.875
937.941
938.005
938.07
938.134
938.194
938.015
937.901
937.814
937.743
937.681
937.627
937.579
937.535
937.495
937.459
933.891
933.891
933.891
933.891
933.891
933.891
933.891
933.891
933.891
933.895
934.091
934.244
934.379
934.504
934.621
934.734
934.843
934.949
935.051
935.151
935.249
935.345
935.439
935.53
935.62
935.709
935.795
935.879
935.962
936.042
936.121
936.201
936.28
936.359
936.438
936.516
936.593
936.669
936.742
936.814
936.884
936.955
937.025
937.097
937.169
937.242
937.314
937.386
937.457
937.528
937.599
937.669
937.737
937.805
937.872
937.938
938.003
938.068
938.132
938.192
938.013
937.899
937.812
937.741
937.679
937.625
937.576
937.533
937.492
937.456
933.891
933.891
933.891
933.891
933.891
933.891
933.891
933.891
933.891
933.895
934.091
934.244
934.379
934.503
934.62
934.733
934.842
934.947
935.05
935.15
935.248
935.344
935.437
935.529
935.619
935.707
935.794
935.878
935.961
936.042
936.12
936.199
936.277
936.355
936.433
936.511
936.587
936.662
936.736
936.808
936.879
936.95
937.022
937.094
937.166
937.239
937.311
937.383
937.454
937.525
937.596
937.666
937.734
937.802
937.869
937.935
938.001
938.066
938.131
938.19
938.011
937.897
937.81
937.739
937.677
937.623
937.574
937.53
937.49
937.454
933.891
933.891
933.891
933.891
933.891
933.891
933.891
933.891
933.891
933.895
934.09
934.244
934.378
934.502
934.62
934.732
934.841
934.946
935.049
935.149
935.247
935.342
935.436
935.528
935.618
935.706
935.793
935.877
935.96
936.041
936.119
936.196
936.274
936.351
936.428
936.505
936.581
936.656
936.73
936.802
936.874
936.946
937.019
937.091
937.164
937.236
937.308
937.38
937.452
937.523
937.593
937.663
937.732
937.8
937.867
937.933
937.998
938.063
938.129
938.189
938.01
937.895
937.808
937.736
937.675
937.621
937.572
937.528
937.488
937.452
933.891
933.891
933.891
933.891
933.891
933.891
933.891
933.891
933.891
933.895
934.09
934.243
934.377
934.501
934.619
934.731
934.84
934.945
935.047
935.147
935.245
935.341
935.434
935.526
935.616
935.704
935.791
935.876
935.958
936.039
936.117
936.194
936.27
936.347
936.424
936.5
936.576
936.651
936.724
936.798
936.87
936.943
937.016
937.089
937.162
937.234
937.306
937.378
937.45
937.521
937.591
937.661
937.729
937.797
937.864
937.931
937.996
938.062
938.127
938.187
938.008
937.893
937.806
937.734
937.672
937.618
937.569
937.525
937.485
937.449
933.891
933.891
933.891
933.891
933.891
933.891
933.891
933.891
933.891
933.895
934.09
934.243
934.377
934.501
934.618
934.73
934.838
934.943
935.046
935.146
935.243
935.339
935.432
935.524
935.614
935.702
935.789
935.874
935.956
936.037
936.115
936.191
936.267
936.343
936.419
936.495
936.571
936.646
936.72
936.794
936.867
936.941
937.014
937.087
937.16
937.232
937.304
937.376
937.448
937.518
937.589
937.658
937.727
937.795
937.862
937.929
937.994
938.06
938.125
938.185
938.006
937.891
937.804
937.732
937.67
937.616
937.567
937.523
937.483
937.446
933.891
933.891
933.891
933.891
933.891
933.891
933.891
933.891
933.891
933.895
934.09
934.242
934.376
934.5
934.617
934.729
934.837
934.942
935.044
935.144
935.241
935.337
935.43
935.522
935.612
935.7
935.786
935.871
935.954
936.034
936.112
936.188
936.263
936.339
936.415
936.49
936.566
936.641
936.716
936.791
936.865
936.938
937.012
937.085
937.158
937.23
937.303
937.374
937.446
937.517
937.587
937.656
937.725
937.793
937.86
937.927
937.992
938.058
938.123
938.184
938.004
937.889
937.802
937.73
937.668
937.614
937.565
937.521
937.48
937.444
933.891
933.891
933.891
933.891
933.891
933.891
933.891
933.891
933.891
933.895
934.089
934.242
934.376
934.499
934.616
934.728
934.836
934.94
935.042
935.142
935.239
935.334
935.428
935.519
935.609
935.697
935.784
935.868
935.951
936.031
936.109
936.184
936.259
936.335
936.411
936.487
936.563
936.638
936.713
936.788
936.863
936.937
937.01
937.084
937.157
937.229
937.301
937.373
937.444
937.515
937.585
937.655
937.723
937.791
937.859
937.925
937.991
938.057
938.122
938.182
938.003
937.888
937.8
937.728
937.667
937.612
937.563
937.519
937.478
937.442
933.891
933.891
933.891
933.891
933.891
933.891
933.891
933.891
933.891
933.895
934.09
934.242
934.375
934.499
934.615
934.726
934.834
934.939
935.04
935.14
935.237
935.332
935.425
935.517
935.606
935.694
935.781
935.865
935.948
936.028
936.105
936.181
936.256
936.331
936.407
936.483
936.56
936.636
936.711
936.787
936.861
936.936
937.01
937.083
937.156
937.229
937.301
937.373
937.444
937.515
937.585
937.654
937.723
937.791
937.859
937.925
937.991
938.057
938.123
938.183
938.003
937.888
937.801
937.729
937.667
937.613
937.564
937.52
937.479
937.443
933.891
933.891
933.891
933.891
933.891
933.891
933.891
933.891
933.891
933.895
934.09
934.242
934.375
934.498
934.614
934.725
934.833
934.937
935.039
935.138
935.235
935.33
935.423
935.514
935.604
935.692
935.778
935.863
935.945
936.025
936.102
936.178
936.253
936.329
936.405
936.482
936.559
936.635
936.712
936.787
936.862
936.937
937.011
937.085
937.158
937.231
937.303
937.375
937.447
937.517
937.588
937.658
937.727
937.795
937.863
937.93
937.996
938.062
938.128
938.189
938.009
937.894
937.807
937.735
937.673
937.619
937.57
937.526
937.486
937.45
933.891
933.891
933.891
933.891
933.891
933.891
933.891
933.891
933.891
933.895
934.089
934.242
934.375
934.497
934.613
934.724
934.831
934.935
935.037
935.136
935.233
935.328
935.421
935.512
935.602
935.69
935.776
935.861
935.943
936.023
936.101
936.177
936.253
936.33
936.407
936.485
936.562
936.639
936.716
936.792
936.868
936.943
937.018
937.092
937.166
937.24
937.313
937.385
937.457
937.529
937.6
937.67
937.74
937.809
937.877
937.945
938.012
938.079
938.146
938.208
938.028
937.913
937.826
937.755
937.693
937.639
937.591
937.547
937.507
937.472
933.891
933.891
933.891
933.891
933.891
933.891
933.891
933.891
933.891
933.895
934.09
934.242
934.375
934.498
934.613
934.724
934.831
934.936
935.037
935.136
935.233
935.329
935.422
935.514
935.604
935.693
935.78
935.865
935.948
936.028
936.107
936.185
936.262
936.34
936.419
936.497
936.576
936.655
936.733
936.81
936.888
936.964
937.04
937.116
937.191
937.266
937.34
937.414
937.488
937.561
937.633
937.705
937.776
937.847
937.917
937.987
938.056
938.125
938.194
938.257
938.077
937.963
937.877
937.806
937.745
937.692
937.645
937.602
937.564
937.53
933.891
933.891
933.891
933.891
933.891
933.891
933.891
933.891
933.891
933.895
934.09
934.242
934.376
934.498
934.615
934.726
934.834
934.939
935.041
935.141
935.24
935.336
935.431
935.524
935.616
935.706
935.795
935.882
935.967
936.049
936.13
936.211
936.291
936.372
936.453
936.535
936.617
936.698
936.779
936.86
936.94
937.019
937.098
937.177
937.256
937.334
937.411
937.488
937.565
937.642
937.717
937.793
937.868
937.943
938.017
938.09
938.163
938.236
938.309
938.376
938.196
938.083
937.998
937.929
937.87
937.82
937.775
937.736
937.701
937.67
933.891
933.891
933.891
933.891
933.891
933.891
933.891
933.891
933.891
933.895
934.092
934.246
934.38
934.505
934.623
934.737
934.847
934.955
935.061
935.164
935.266
935.366
935.465
935.562
935.658
935.753
935.846
935.938
936.028
936.116
936.202
936.288
936.375
936.462
936.549
936.637
936.724
936.812
936.899
936.986
937.072
937.158
937.244
937.33
937.415
937.499
937.584
937.667
937.751
937.834
937.917
938
938.082
938.164
938.246
938.327
938.408
938.489
938.57
938.646
938.464
938.353
938.271
938.205
938.151
938.106
938.067
938.035
938.008
937.986
933.891
933.891
933.891
933.891
933.891
933.891
933.891
933.891
933.891
933.895
934.098
934.256
934.397
934.527
934.652
934.773
934.891
935.007
935.121
935.234
935.345
935.455
935.563
935.671
935.777
935.883
935.987
936.089
936.19
936.29
936.388
936.487
936.585
936.684
936.784
936.884
936.984
937.083
937.183
937.282
937.381
937.479
937.577
937.674
937.772
937.868
937.965
938.061
938.157
938.253
938.348
938.443
938.538
938.632
938.727
938.822
938.917
939.012
939.108
939.198
939.011
938.899
938.82
938.759
938.711
938.675
938.648
938.629
938.619
938.616
933.891
933.891
933.891
933.891
933.891
933.891
933.891
933.891
933.891
933.896
934.117
934.295
934.452
934.602
934.745
934.885
935.023
935.159
935.293
935.426
935.557
935.688
935.818
935.946
936.074
936.2
936.325
936.449
936.57
936.69
936.809
936.928
937.046
937.165
937.284
937.404
937.522
937.641
937.759
937.876
937.992
938.108
938.223
938.337
938.451
938.564
938.676
938.788
938.899
939.01
939.121
939.232
939.343
939.454
939.567
939.679
939.794
939.91
940.028
940.138
939.919
939.79
939.7
939.636
939.591
939.563
939.551
939.553
939.571
939.6
933.891
933.891
933.891
933.891
933.891
933.891
933.891
933.891
933.892
933.899
934.191
934.415
934.612
934.797
934.974
935.146
935.316
935.481
935.645
935.807
935.967
936.125
936.281
936.436
936.588
936.739
936.887
937.033
937.176
937.317
937.456
937.594
937.732
937.868
938.005
938.14
938.275
938.408
938.54
938.67
938.799
938.927
939.053
939.178
939.302
939.425
939.547
939.668
939.789
939.91
940.031
940.153
940.275
940.399
940.525
940.654
940.786
940.921
941.062
941.186
940.833
940.636
940.507
940.424
940.375
940.355
940.361
940.393
940.448
940.518
933.891
933.891
933.891
933.891
933.891
933.891
933.891
933.891
933.891
933.896
934.119
934.325
934.517
934.699
934.874
935.045
935.213
935.378
935.54
935.701
935.86
936.017
936.172
936.326
936.479
936.631
936.78
936.929
937.076
937.221
937.365
937.507
937.648
937.786
937.922
938.056
938.188
938.318
938.446
938.573
938.7
938.826
938.953
939.08
939.206
939.331
939.455
939.578
939.701
939.823
939.946
940.068
940.191
940.315
940.44
940.567
940.697
940.83
940.968
941.094
940.813
940.627
940.501
940.418
940.368
940.347
940.353
940.383
940.437
940.506
933.891
933.891
933.891
933.891
933.891
933.891
933.891
933.891
933.891
933.894
934.053
934.209
934.358
934.501
934.641
934.778
934.912
935.045
935.177
935.308
935.437
935.566
935.693
935.82
935.946
936.072
936.197
936.321
936.445
936.568
936.69
936.811
936.932
937.052
937.17
937.288
937.404
937.519
937.633
937.747
937.861
937.976
938.091
938.206
938.32
938.434
938.548
938.661
938.774
938.886
938.997
939.109
939.22
939.331
939.442
939.553
939.666
939.779
939.895
940.003
939.858
939.748
939.666
939.606
939.563
939.535
939.523
939.524
939.54
939.568
933.891
933.891
933.891
933.891
933.891
933.891
933.891
933.891
933.891
933.894
934.037
934.176
934.307
934.433
934.554
934.671
934.786
934.899
935.011
935.121
935.229
935.337
935.444
935.549
935.654
935.758
935.862
935.965
936.067
936.169
936.27
936.371
936.471
936.57
936.669
936.766
936.863
936.959
937.055
937.15
937.246
937.343
937.441
937.539
937.636
937.734
937.831
937.928
938.024
938.12
938.216
938.311
938.405
938.499
938.593
938.686
938.779
938.872
938.963
939.051
938.935
938.843
938.772
938.716
938.671
938.636
938.61
938.592
938.582
938.579