/*--------------------------------*- C++ -*----------------------------------*\
  =========                 |
  \\      /  F ield         | OpenFOAM: The Open Source CFD Toolbox
   \\    /   O peration     | Website:  https://openfoam.org
    \\  /    A nd           | Version:  12
     \\/     M anipulation  |
\*---------------------------------------------------------------------------*/
FoamFile
{
    format      ascii;
    class       volScalarField;
    location    "600/porous";
    object      T;
}
// * * * * * * * * * * * * * * * * * * * * * * * * * * * * * * * * * * * * * //

dimensions      [0 0 0 1 0 0 0];

internalField   nonuniform List<scalar> 
140000
(
400
400
400
400
400
400
400
400
400
399.992
399.676
399.434
399.22
399.02
398.829
398.643
398.461
398.283
398.107
397.934
397.762
397.592
397.424
397.257
397.091
396.927
396.764
396.603
396.443
396.285
396.128
395.973
395.82
395.669
395.52
395.374
395.23
395.088
394.948
394.808
394.669
394.529
394.389
394.249
394.11
393.972
393.834
393.698
393.562
393.426
393.29
393.154
393.018
392.879
392.74
392.598
392.453
392.304
392.149
392.013
392.407
392.626
392.769
392.862
392.916
392.938
392.93
392.894
392.832
392.753
400
400
400
400
400
400
400
400
400
399.995
399.753
399.56
399.389
399.228
399.074
398.923
398.775
398.63
398.486
398.343
398.202
398.062
397.923
397.784
397.647
397.51
397.373
397.238
397.103
396.969
396.836
396.703
396.571
396.44
396.311
396.183
396.056
395.93
395.805
395.68
395.555
395.429
395.302
395.175
395.049
394.923
394.798
394.673
394.549
394.425
394.302
394.179
394.056
393.933
393.81
393.686
393.561
393.435
393.306
393.19
393.431
393.572
393.671
393.742
393.791
393.821
393.834
393.831
393.812
393.778
400
400
400
400
400
400
400
400
400
399.996
399.773
399.6
399.447
399.306
399.172
399.042
398.915
398.791
398.669
398.549
398.43
398.312
398.196
398.08
397.966
397.852
397.739
397.626
397.514
397.403
397.292
397.182
397.073
396.964
396.857
396.75
396.645
396.54
396.435
396.331
396.225
396.118
396.01
395.902
395.794
395.687
395.58
395.473
395.367
395.261
395.156
395.051
394.947
394.843
394.74
394.637
394.535
394.432
394.331
394.236
394.44
394.562
394.649
394.715
394.767
394.807
394.836
394.857
394.867
394.87
400
400
400
400
400
400
400
400
400
399.996
399.778
399.609
399.463
399.328
399.201
399.078
398.96
398.845
398.732
398.622
398.513
398.406
398.3
398.196
398.093
397.991
397.89
397.79
397.69
397.592
397.494
397.397
397.301
397.206
397.111
397.019
396.927
396.836
396.745
396.654
396.561
396.468
396.373
396.279
396.184
396.091
395.997
395.904
395.812
395.72
395.629
395.538
395.448
395.359
395.27
395.183
395.096
395.011
394.926
394.85
395.046
395.167
395.256
395.327
395.385
395.435
395.476
395.512
395.54
395.564
400
400
400
400
400
400
400
400
400
399.996
399.778
399.611
399.466
399.333
399.208
399.088
398.973
398.86
398.751
398.644
398.539
398.437
398.335
398.236
398.137
398.04
397.945
397.85
397.756
397.664
397.572
397.481
397.391
397.302
397.215
397.129
397.044
396.96
396.876
396.792
396.706
396.619
396.532
396.445
396.358
396.271
396.185
396.1
396.015
395.931
395.847
395.765
395.683
395.602
395.523
395.444
395.366
395.29
395.215
395.149
395.342
395.465
395.556
395.631
395.694
395.749
395.797
395.84
395.878
395.911
400
400
400
400
400
400
400
400
400
399.996
399.778
399.61
399.465
399.333
399.208
399.089
398.974
398.863
398.754
398.649
398.545
398.444
398.344
398.246
398.15
398.055
397.961
397.869
397.778
397.687
397.598
397.51
397.423
397.338
397.253
397.17
397.089
397.008
396.928
396.846
396.763
396.679
396.595
396.511
396.428
396.344
396.262
396.18
396.099
396.019
395.939
395.861
395.783
395.707
395.631
395.557
395.484
395.412
395.342
395.28
395.473
395.596
395.69
395.766
395.832
395.889
395.94
395.986
396.028
396.065
400
400
400
400
400
400
400
400
400
399.996
399.777
399.609
399.464
399.332
399.207
399.088
398.973
398.862
398.753
398.648
398.545
398.444
398.345
398.247
398.152
398.058
397.965
397.874
397.783
397.694
397.606
397.52
397.434
397.35
397.267
397.186
397.106
397.027
396.947
396.867
396.785
396.702
396.619
396.536
396.454
396.372
396.291
396.211
396.132
396.053
395.975
395.899
395.823
395.748
395.674
395.602
395.531
395.462
395.394
395.336
395.528
395.651
395.745
395.822
395.889
395.947
395.999
396.046
396.089
396.128
400
400
400
400
400
400
400
400
400
399.996
399.776
399.608
399.463
399.33
399.205
399.086
398.971
398.859
398.751
398.646
398.542
398.441
398.342
398.245
398.15
398.056
397.964
397.873
397.784
397.695
397.608
397.522
397.437
397.353
397.271
397.191
397.111
397.033
396.954
396.873
396.791
396.709
396.626
396.544
396.462
396.381
396.301
396.221
396.142
396.064
395.987
395.911
395.836
395.762
395.689
395.618
395.548
395.48
395.414
395.357
395.548
395.672
395.765
395.843
395.91
395.968
396.021
396.069
396.112
396.151
400
400
400
400
400
400
400
400
400
399.996
399.776
399.607
399.462
399.329
399.204
399.084
398.969
398.858
398.749
398.643
398.54
398.439
398.34
398.243
398.148
398.054
397.962
397.872
397.783
397.695
397.608
397.523
397.438
397.355
397.273
397.193
397.113
397.035
396.955
396.875
396.793
396.71
396.627
396.545
396.464
396.383
396.302
396.223
396.144
396.066
395.989
395.914
395.839
395.765
395.693
395.622
395.552
395.485
395.419
395.362
395.554
395.677
395.771
395.849
395.915
395.974
396.027
396.075
396.118
396.158
400
400
400
400
400
400
400
400
400
399.996
399.776
399.607
399.461
399.328
399.202
399.083
398.967
398.856
398.747
398.641
398.538
398.437
398.338
398.241
398.146
398.052
397.961
397.87
397.782
397.694
397.608
397.523
397.439
397.355
397.274
397.193
397.113
397.034
396.955
396.874
396.792
396.709
396.626
396.544
396.462
396.381
396.301
396.221
396.143
396.065
395.988
395.912
395.837
395.763
395.691
395.62
395.551
395.484
395.418
395.363
395.554
395.677
395.771
395.848
395.915
395.974
396.027
396.074
396.118
396.157
400
400
400
400
400
400
400
400
400
399.996
399.775
399.606
399.461
399.327
399.202
399.082
398.966
398.854
398.746
398.64
398.536
398.435
398.336
398.239
398.144
398.051
397.96
397.87
397.782
397.695
397.609
397.524
397.44
397.356
397.274
397.193
397.113
397.033
396.953
396.872
396.79
396.707
396.624
396.541
396.46
396.379
396.298
396.219
396.14
396.062
395.985
395.909
395.834
395.76
395.688
395.617
395.548
395.481
395.416
395.36
395.551
395.674
395.768
395.845
395.912
395.971
396.024
396.071
396.115
396.154
400
400
400
400
400
400
400
400
400
399.996
399.775
399.606
399.46
399.327
399.201
399.081
398.965
398.853
398.745
398.638
398.535
398.434
398.335
398.238
398.143
398.05
397.959
397.87
397.782
397.695
397.61
397.525
397.441
397.357
397.274
397.192
397.111
397.031
396.951
396.869
396.787
396.704
396.621
396.539
396.457
396.376
396.295
396.216
396.137
396.059
395.982
395.905
395.83
395.757
395.684
395.613
395.544
395.477
395.412
395.356
395.548
395.671
395.764
395.842
395.908
395.967
396.02
396.068
396.111
396.151
400
400
400
400
400
400
400
400
400
399.996
399.775
399.606
399.46
399.327
399.201
399.081
398.965
398.853
398.744
398.638
398.534
398.433
398.334
398.237
398.142
398.05
397.959
397.87
397.783
397.697
397.612
397.527
397.442
397.357
397.273
397.191
397.109
397.028
396.948
396.866
396.784
396.701
396.618
396.536
396.454
396.373
396.292
396.212
396.133
396.055
395.978
395.902
395.827
395.753
395.681
395.61
395.54
395.473
395.408
395.353
395.544
395.667
395.761
395.838
395.905
395.964
396.016
396.064
396.108
396.147
400
400
400
400
400
400
400
400
400
399.996
399.775
399.606
399.46
399.327
399.201
399.081
398.965
398.853
398.743
398.637
398.533
398.432
398.333
398.237
398.142
398.05
397.96
397.871
397.785
397.699
397.614
397.528
397.442
397.357
397.272
397.188
397.106
397.025
396.944
396.862
396.78
396.697
396.615
396.532
396.45
396.369
396.289
396.209
396.13
396.052
395.975
395.898
395.823
395.749
395.677
395.606
395.537
395.47
395.405
395.349
395.54
395.663
395.757
395.835
395.901
395.96
396.013
396.06
396.104
396.143
400
400
400
400
400
400
400
400
400
399.996
399.775
399.606
399.461
399.327
399.201
399.081
398.965
398.853
398.744
398.637
398.533
398.432
398.333
398.237
398.143
398.05
397.961
397.873
397.787
397.702
397.616
397.529
397.442
397.356
397.27
397.185
397.102
397.02
396.939
396.857
396.776
396.693
396.611
396.529
396.447
396.366
396.285
396.206
396.127
396.048
395.971
395.895
395.82
395.746
395.673
395.602
395.533
395.466
395.401
395.346
395.537
395.66
395.754
395.831
395.898
395.957
396.009
396.057
396.101
396.14
400
400
400
400
400
400
400
400
400
399.996
399.775
399.607
399.461
399.328
399.202
399.082
398.966
398.853
398.744
398.637
398.533
398.432
398.333
398.237
398.143
398.051
397.962
397.875
397.789
397.704
397.617
397.529
397.441
397.353
397.267
397.181
397.097
397.014
396.933
396.852
396.771
396.689
396.607
396.525
396.443
396.362
396.282
396.202
396.123
396.045
395.968
395.891
395.816
395.742
395.67
395.599
395.53
395.462
395.398
395.342
395.534
395.657
395.751
395.828
395.895
395.954
396.006
396.054
396.098
396.137
400
400
400
400
400
400
400
400
400
399.996
399.775
399.607
399.462
399.328
399.203
399.082
398.966
398.854
398.744
398.638
398.534
398.432
398.334
398.237
398.143
398.052
397.963
397.877
397.791
397.705
397.618
397.529
397.439
397.351
397.263
397.177
397.092
397.009
396.927
396.846
396.765
396.684
396.602
396.521
396.44
396.359
396.278
396.199
396.12
396.042
395.964
395.888
395.813
395.739
395.667
395.596
395.527
395.459
395.395
395.339
395.531
395.654
395.748
395.825
395.892
395.951
396.004
396.052
396.095
396.135
400
400
400
400
400
400
400
400
400
399.996
399.777
399.609
399.463
399.329
399.204
399.083
398.967
398.854
398.745
398.638
398.534
398.433
398.334
398.238
398.144
398.053
397.964
397.878
397.793
397.706
397.617
397.527
397.436
397.347
397.26
397.173
397.088
397.003
396.92
396.84
396.76
396.679
396.598
396.517
396.436
396.356
396.275
396.196
396.117
396.039
395.962
395.885
395.81
395.736
395.664
395.593
395.524
395.457
395.392
395.336
395.528
395.651
395.745
395.823
395.89
395.949
396.001
396.049
396.093
396.132
400
400
400
400
400
400
400
400
400
399.996
399.777
399.609
399.464
399.331
399.205
399.084
398.968
398.855
398.745
398.639
398.534
398.433
398.334
398.238
398.144
398.053
397.965
397.879
397.793
397.706
397.616
397.524
397.433
397.344
397.257
397.17
397.084
396.999
396.915
396.834
396.755
396.675
396.595
396.514
396.434
396.353
396.273
396.194
396.115
396.037
395.959
395.883
395.808
395.734
395.662
395.591
395.522
395.454
395.39
395.334
395.526
395.649
395.743
395.821
395.888
395.947
396
396.048
396.091
396.131
400
400
400
400
400
400
400
400
400
399.996
399.777
399.61
399.465
399.331
399.205
399.085
398.968
398.855
398.746
398.639
398.535
398.433
398.334
398.238
398.144
398.053
397.965
397.879
397.793
397.705
397.614
397.522
397.431
397.342
397.254
397.167
397.081
396.996
396.912
396.83
396.752
396.673
396.593
396.513
396.432
396.352
396.272
396.192
396.114
396.036
395.958
395.882
395.807
395.733
395.661
395.59
395.52
395.453
395.388
395.332
395.524
395.648
395.742
395.82
395.887
395.946
395.999
396.047
396.09
396.13
400
400
400
400
400
400
400
400
400
399.996
399.778
399.612
399.466
399.333
399.207
399.086
398.969
398.856
398.746
398.639
398.535
398.433
398.334
398.238
398.144
398.053
397.965
397.879
397.793
397.704
397.612
397.52
397.429
397.34
397.253
397.166
397.08
396.994
396.91
396.828
396.749
396.671
396.592
396.512
396.432
396.352
396.272
396.192
396.114
396.035
395.958
395.882
395.807
395.733
395.66
395.589
395.52
395.453
395.388
395.331
395.523
395.647
395.741
395.819
395.886
395.945
395.998
396.046
396.09
396.13
400
400
400
400
400
400
400
400
400
399.996
399.779
399.612
399.467
399.333
399.207
399.086
398.97
398.857
398.747
398.639
398.535
398.433
398.334
398.237
398.144
398.052
397.964
397.878
397.791
397.702
397.61
397.518
397.428
397.339
397.251
397.165
397.079
396.993
396.909
396.827
396.748
396.67
396.592
396.513
396.433
396.353
396.273
396.193
396.114
396.036
395.959
395.882
395.807
395.733
395.661
395.59
395.52
395.453
395.388
395.331
395.523
395.647
395.741
395.819
395.886
395.945
395.998
396.046
396.09
396.13
400
400
400
400
400
400
400
400
400
399.996
399.78
399.613
399.468
399.334
399.208
399.087
398.97
398.857
398.747
398.64
398.535
398.433
398.334
398.237
398.143
398.052
397.963
397.877
397.79
397.7
397.608
397.517
397.426
397.338
397.25
397.164
397.078
396.993
396.908
396.826
396.747
396.67
396.592
396.513
396.434
396.354
396.274
396.194
396.115
396.037
395.96
395.883
395.808
395.734
395.662
395.591
395.521
395.454
395.388
395.33
395.523
395.647
395.741
395.819
395.886
395.945
395.998
396.046
396.09
396.13
400
400
400
400
400
400
400
400
400
399.996
399.78
399.614
399.469
399.335
399.209
399.088
398.971
398.857
398.747
398.64
398.535
398.433
398.333
398.236
398.142
398.05
397.962
397.875
397.787
397.698
397.606
397.515
397.425
397.336
397.249
397.162
397.076
396.991
396.908
396.826
396.747
396.67
396.593
396.514
396.435
396.355
396.275
396.196
396.117
396.039
395.961
395.885
395.809
395.735
395.663
395.592
395.522
395.454
395.388
395.33
395.523
395.647
395.741
395.819
395.887
395.946
395.999
396.047
396.091
396.13
400
400
400
400
400
400
400
400
400
399.996
399.781
399.614
399.469
399.336
399.209
399.088
398.971
398.858
398.747
398.64
398.535
398.432
398.333
398.235
398.141
398.049
397.96
397.872
397.785
397.695
397.604
397.513
397.423
397.335
397.247
397.161
397.075
396.99
396.906
396.825
396.746
396.67
396.593
396.515
396.436
396.356
396.276
396.197
396.118
396.04
395.962
395.886
395.81
395.736
395.664
395.592
395.523
395.455
395.389
395.331
395.523
395.647
395.742
395.82
395.887
395.946
395.999
396.047
396.091
396.13
400
400
400
400
400
400
400
400
400
399.996
399.782
399.616
399.471
399.337
399.21
399.089
398.972
398.858
398.747
398.64
398.535
398.432
398.332
398.234
398.139
398.047
397.957
397.87
397.782
397.693
397.601
397.511
397.421
397.333
397.245
397.159
397.073
396.988
396.905
396.823
396.745
396.669
396.593
396.515
396.437
396.357
396.277
396.198
396.119
396.041
395.964
395.887
395.812
395.738
395.665
395.594
395.524
395.456
395.389
395.329
395.522
395.647
395.741
395.819
395.887
395.946
395.999
396.047
396.091
396.13
400
400
400
400
400
400
400
400
400
399.996
399.782
399.617
399.471
399.337
399.211
399.089
398.972
398.858
398.747
398.64
398.534
398.432
398.331
398.234
398.138
398.046
397.955
397.867
397.78
397.69
397.599
397.508
397.419
397.33
397.243
397.157
397.071
396.986
396.903
396.821
396.743
396.668
396.593
396.515
396.437
396.358
396.278
396.199
396.12
396.042
395.964
395.888
395.813
395.738
395.666
395.594
395.525
395.456
395.389
395.329
395.523
395.647
395.741
395.819
395.887
395.946
395.999
396.047
396.091
396.13
400
400
400
400
400
400
400
400
400
399.996
399.783
399.617
399.472
399.338
399.211
399.09
398.972
398.858
398.748
398.64
398.534
398.431
398.331
398.233
398.137
398.044
397.953
397.865
397.777
397.688
397.596
397.506
397.416
397.328
397.241
397.155
397.069
396.984
396.901
396.819
396.742
396.667
396.592
396.515
396.437
396.358
396.279
396.2
396.121
396.043
395.965
395.889
395.813
395.739
395.667
395.595
395.525
395.457
395.389
395.328
395.522
395.646
395.741
395.819
395.886
395.946
395.999
396.047
396.091
396.13
400
400
400
400
400
400
400
400
400
399.996
399.784
399.618
399.473
399.339
399.212
399.09
398.973
398.859
398.748
398.64
398.534
398.431
398.331
398.232
398.136
398.043
397.951
397.862
397.774
397.685
397.594
397.504
397.414
397.326
397.239
397.153
397.068
396.983
396.899
396.818
396.741
396.667
396.592
396.515
396.437
396.358
396.279
396.2
396.122
396.043
395.966
395.89
395.814
395.74
395.668
395.596
395.526
395.457
395.389
395.327
395.521
395.646
395.741
395.819
395.886
395.945
395.998
396.047
396.09
396.13
400
400
400
400
400
400
400
400
400
399.996
399.784
399.618
399.473
399.339
399.212
399.091
398.973
398.859
398.748
398.64
398.535
398.431
398.331
398.232
398.136
398.042
397.95
397.86
397.772
397.683
397.593
397.502
397.413
397.325
397.238
397.152
397.066
396.981
396.898
396.817
396.741
396.667
396.592
396.516
396.438
396.359
396.28
396.201
396.123
396.045
395.967
395.891
395.816
395.742
395.669
395.597
395.527
395.458
395.39
395.327
395.522
395.646
395.741
395.819
395.886
395.946
395.999
396.047
396.091
396.13
400
400
400
400
400
400
400
400
400
399.996
399.784
399.619
399.474
399.34
399.213
399.091
398.974
398.86
398.749
398.641
398.535
398.432
398.331
398.232
398.135
398.041
397.949
397.859
397.77
397.682
397.592
397.502
397.412
397.324
397.238
397.152
397.066
396.981
396.898
396.818
396.742
396.668
396.594
396.517
396.439
396.36
396.282
396.203
396.124
396.046
395.969
395.893
395.817
395.743
395.67
395.599
395.528
395.458
395.389
395.326
395.521
395.646
395.741
395.819
395.887
395.946
395.999
396.047
396.091
396.13
400
400
400
400
400
400
400
400
400
399.996
399.785
399.62
399.475
399.341
399.214
399.092
398.974
398.86
398.749
398.641
398.536
398.432
398.331
398.232
398.135
398.041
397.948
397.857
397.769
397.681
397.592
397.502
397.413
397.325
397.239
397.153
397.067
396.983
396.9
396.821
396.746
396.671
396.596
396.519
396.441
396.363
396.284
396.205
396.127
396.049
395.972
395.895
395.82
395.746
395.673
395.601
395.53
395.46
395.391
395.327
395.522
395.647
395.742
395.82
395.888
395.947
396
396.048
396.092
396.132
400
400
400
400
400
400
400
400
400
399.996
399.785
399.62
399.475
399.341
399.214
399.093
398.975
398.861
398.75
398.642
398.536
398.433
398.332
398.233
398.136
398.041
397.948
397.857
397.768
397.68
397.593
397.504
397.415
397.328
397.241
397.155
397.07
396.986
396.905
396.827
396.751
396.676
396.6
396.523
396.445
396.366
396.287
396.208
396.13
396.052
395.975
395.898
395.823
395.749
395.676
395.604
395.532
395.462
395.392
395.328
395.524
395.649
395.744
395.822
395.889
395.949
396.002
396.05
396.094
396.133
400
400
400
400
400
400
400
400
400
399.996
399.786
399.621
399.476
399.342
399.215
399.094
398.976
398.862
398.751
398.643
398.537
398.434
398.333
398.233
398.136
398.041
397.948
397.856
397.767
397.68
397.593
397.506
397.418
397.331
397.245
397.16
397.075
396.992
396.911
396.833
396.757
396.681
396.605
396.527
396.448
396.369
396.29
396.212
396.133
396.055
395.978
395.902
395.826
395.752
395.679
395.607
395.535
395.465
395.394
395.328
395.525
395.65
395.745
395.824
395.891
395.951
396.004
396.052
396.096
396.135
400
400
400
400
400
400
400
400
400
399.996
399.786
399.621
399.476
399.343
399.216
399.095
398.977
398.863
398.752
398.644
398.539
398.435
398.334
398.235
398.137
398.042
397.948
397.857
397.767
397.68
397.594
397.508
397.422
397.335
397.25
397.165
397.081
396.998
396.918
396.84
396.763
396.687
396.609
396.531
396.452
396.373
396.294
396.215
396.137
396.059
395.982
395.905
395.83
395.755
395.682
395.61
395.538
395.467
395.396
395.331
395.527
395.652
395.748
395.826
395.894
395.953
396.006
396.054
396.098
396.138
400
400
400
400
400
400
400
400
400
399.996
399.786
399.622
399.477
399.343
399.217
399.096
398.978
398.865
398.754
398.646
398.54
398.437
398.335
398.236
398.138
398.043
397.949
397.857
397.768
397.68
397.595
397.51
397.425
397.34
397.255
397.17
397.087
397.005
396.925
396.847
396.769
396.691
396.613
396.534
396.455
396.376
396.297
396.218
396.14
396.062
395.985
395.908
395.833
395.758
395.685
395.612
395.541
395.469
395.398
395.332
395.529
395.654
395.75
395.828
395.896
395.955
396.009
396.057
396.101
396.14
400
400
400
400
400
400
400
400
400
399.996
399.787
399.622
399.478
399.344
399.218
399.097
398.98
398.866
398.755
398.647
398.541
398.438
398.337
398.237
398.14
398.044
397.951
397.859
397.769
397.682
397.596
397.512
397.428
397.344
397.26
397.176
397.093
397.012
396.932
396.853
396.774
396.695
396.616
396.537
396.458
396.379
396.3
396.221
396.143
396.065
395.988
395.911
395.836
395.761
395.688
395.615
395.543
395.472
395.4
395.334
395.531
395.656
395.752
395.831
395.898
395.958
396.011
396.059
396.103
396.143
400
400
400
400
400
400
400
400
400
399.996
399.787
399.623
399.478
399.345
399.219
399.098
398.981
398.867
398.757
398.649
398.543
398.44
398.339
398.239
398.142
398.046
397.952
397.861
397.771
397.683
397.598
397.515
397.432
397.349
397.265
397.182
397.1
397.018
396.937
396.858
396.778
396.699
396.619
396.54
396.46
396.381
396.302
396.223
396.145
396.067
395.99
395.914
395.838
395.764
395.69
395.618
395.545
395.474
395.402
395.336
395.533
395.659
395.754
395.833
395.901
395.961
396.014
396.062
396.106
396.146
400
400
400
400
400
400
400
400
400
399.996
399.787
399.623
399.479
399.346
399.22
399.099
398.982
398.869
398.758
398.651
398.545
398.442
398.341
398.242
398.144
398.048
397.955
397.863
397.773
397.686
397.601
397.518
397.436
397.353
397.27
397.187
397.105
397.023
396.942
396.862
396.782
396.702
396.622
396.542
396.462
396.383
396.304
396.226
396.147
396.07
395.993
395.916
395.841
395.766
395.693
395.62
395.548
395.476
395.404
395.338
395.535
395.661
395.757
395.836
395.903
395.963
396.016
396.065
396.109
396.149
400
400
400
400
400
400
400
400
400
399.996
399.787
399.623
399.479
399.347
399.221
399.1
398.984
398.871
398.76
398.653
398.547
398.444
398.343
398.244
398.147
398.051
397.957
397.865
397.776
397.689
397.604
397.522
397.44
397.358
397.275
397.192
397.11
397.028
396.946
396.865
396.785
396.704
396.624
396.544
396.464
396.385
396.306
396.228
396.149
396.072
395.995
395.919
395.843
395.769
395.695
395.622
395.55
395.478
395.406
395.34
395.537
395.663
395.759
395.838
395.906
395.966
396.019
396.067
396.112
396.151
400
400
400
400
400
400
400
400
400
399.996
399.788
399.624
399.48
399.347
399.222
399.101
398.985
398.872
398.762
398.655
398.55
398.447
398.346
398.247
398.149
398.054
397.96
397.868
397.779
397.692
397.608
397.526
397.444
397.362
397.279
397.197
397.114
397.032
396.95
396.868
396.787
396.706
396.625
396.545
396.466
396.387
396.308
396.229
396.151
396.073
395.997
395.92
395.845
395.77
395.697
395.624
395.551
395.479
395.407
395.341
395.538
395.665
395.76
395.839
395.907
395.967
396.021
396.069
396.114
396.153
400
400
400
400
400
400
400
400
400
399.996
399.787
399.624
399.48
399.348
399.223
399.103
398.987
398.874
398.764
398.657
398.552
398.449
398.348
398.25
398.152
398.057
397.963
397.872
397.782
397.696
397.612
397.53
397.448
397.366
397.283
397.2
397.117
397.034
396.952
396.87
396.788
396.707
396.626
396.546
396.466
396.387
396.308
396.229
396.151
396.074
395.997
395.921
395.845
395.771
395.697
395.624
395.551
395.479
395.406
395.34
395.538
395.664
395.76
395.839
395.907
395.967
396.02
396.069
396.113
396.153
400
400
400
400
400
400
400
400
400
399.996
399.787
399.624
399.481
399.349
399.224
399.104
398.988
398.876
398.766
398.659
398.554
398.452
398.351
398.252
398.155
398.06
397.966
397.875
397.785
397.699
397.615
397.533
397.451
397.368
397.285
397.201
397.118
397.034
396.952
396.869
396.787
396.706
396.625
396.544
396.464
396.385
396.305
396.227
396.148
396.071
395.994
395.917
395.842
395.767
395.692
395.619
395.546
395.473
395.4
395.334
395.531
395.657
395.753
395.832
395.9
395.96
396.013
396.061
396.105
396.145
400
400
400
400
400
400
400
400
400
399.996
399.788
399.624
399.481
399.349
399.225
399.105
398.99
398.877
398.768
398.661
398.556
398.454
398.353
398.254
398.157
398.062
397.968
397.876
397.787
397.7
397.616
397.533
397.45
397.367
397.283
397.199
397.114
397.03
396.947
396.863
396.781
396.699
396.617
396.536
396.455
396.375
396.295
396.216
396.137
396.059
395.981
395.904
395.827
395.751
395.676
395.602
395.528
395.454
395.38
395.313
395.511
395.637
395.732
395.811
395.878
395.938
395.99
396.038
396.082
396.121
400
400
400
400
400
400
400
400
400
399.996
399.787
399.624
399.481
399.349
399.225
399.105
398.99
398.877
398.768
398.661
398.556
398.453
398.352
398.252
398.155
398.059
397.965
397.872
397.782
397.695
397.61
397.525
397.441
397.356
397.271
397.185
397.099
397.014
396.928
396.844
396.76
396.676
396.593
396.51
396.428
396.346
396.265
396.184
396.104
396.024
395.944
395.865
395.787
395.709
395.632
395.556
395.479
395.404
395.328
395.259
395.457
395.582
395.677
395.755
395.821
395.879
395.931
395.978
396.02
396.057
400
400
400
400
400
400
400
400
400
399.996
399.787
399.623
399.48
399.348
399.223
399.103
398.987
398.874
398.763
398.655
398.549
398.445
398.342
398.241
398.142
398.044
397.948
397.854
397.762
397.672
397.584
397.497
397.409
397.321
397.233
397.144
397.055
396.966
396.878
396.79
396.703
396.616
396.529
396.443
396.357
396.272
396.187
396.103
396.019
395.935
395.852
395.769
395.686
395.605
395.523
395.442
395.362
395.281
395.201
395.127
395.326
395.45
395.544
395.62
395.684
395.739
395.788
395.832
395.87
395.903
400
400
400
400
400
400
400
400
400
399.996
399.785
399.62
399.475
399.341
399.214
399.091
398.972
398.856
398.742
398.631
398.521
398.413
398.306
398.2
398.096
397.994
397.893
397.793
397.696
397.6
397.506
397.412
397.318
397.224
397.129
397.033
396.938
396.842
396.747
396.652
396.558
396.464
396.37
396.277
396.184
396.091
395.998
395.906
395.815
395.723
395.632
395.541
395.451
395.361
395.271
395.182
395.092
395.003
394.913
394.831
395.03
395.153
395.244
395.316
395.375
395.425
395.467
395.503
395.532
395.556
400
400
400
400
400
400
400
400
400
399.996
399.778
399.609
399.457
399.317
399.183
399.053
398.925
398.8
398.677
398.556
398.436
398.317
398.199
398.083
397.967
397.853
397.74
397.629
397.519
397.411
397.303
397.197
397.089
396.981
396.873
396.764
396.655
396.546
396.437
396.329
396.221
396.113
396.006
395.899
395.792
395.686
395.58
395.474
395.369
395.264
395.159
395.054
394.949
394.845
394.741
394.636
394.531
394.426
394.319
394.22
394.427
394.55
394.638
394.705
394.758
394.798
394.828
394.849
394.86
394.863
400
400
400
400
400
400
400
400
400
399.995
399.758
399.567
399.398
399.237
399.083
398.932
398.783
398.637
398.491
398.348
398.205
398.064
397.923
397.784
397.645
397.508
397.372
397.238
397.106
396.975
396.845
396.716
396.586
396.456
396.326
396.196
396.065
395.936
395.806
395.678
395.55
395.423
395.296
395.17
395.045
394.921
394.797
394.673
394.55
394.427
394.305
394.182
394.059
393.936
393.811
393.686
393.559
393.43
393.298
393.176
393.42
393.563
393.663
393.734
393.784
393.815
393.828
393.826
393.807
393.774
400
400
400
400
400
400
400
400
400
399.992
399.679
399.438
399.226
399.027
398.835
398.65
398.467
398.288
398.111
397.935
397.762
397.59
397.42
397.252
397.086
396.922
396.76
396.601
396.444
396.29
396.138
395.987
395.836
395.686
395.536
395.387
395.239
395.092
394.947
394.803
394.661
394.52
394.38
394.241
394.104
393.968
393.833
393.698
393.564
393.43
393.295
393.16
393.023
392.884
392.744
392.6
392.453
392.301
392.143
392.004
392.4
392.62
392.764
392.857
392.912
392.934
392.927
392.891
392.83
392.752
400
400
400
400
400
400
400
400
400
399.995
399.756
399.535
399.328
399.132
398.943
398.759
398.578
398.4
398.224
398.05
397.878
397.708
397.539
397.371
397.205
397.04
396.876
396.715
396.554
396.395
396.238
396.082
395.928
395.776
395.627
395.48
395.335
395.192
395.051
394.911
394.771
394.631
394.491
394.351
394.211
394.073
393.935
393.798
393.662
393.526
393.39
393.254
393.117
392.978
392.839
392.697
392.552
392.403
392.248
392.108
392.422
392.63
392.771
392.864
392.919
392.943
392.936
392.903
392.843
392.765
400
400
400
400
400
400
400
400
400
399.997
399.826
399.659
399.499
399.345
399.195
399.047
398.902
398.759
398.617
398.476
398.336
398.197
398.058
397.921
397.784
397.647
397.512
397.377
397.242
397.108
396.975
396.843
396.711
396.58
396.451
396.322
396.195
396.069
395.944
395.819
395.694
395.568
395.442
395.315
395.189
395.063
394.938
394.813
394.689
394.565
394.442
394.319
394.196
394.073
393.949
393.826
393.701
393.575
393.446
393.327
393.488
393.61
393.701
393.768
393.816
393.846
393.86
393.859
393.841
393.809
400
400
400
400
400
400
400
400
400
399.998
399.843
399.695
399.554
399.419
399.289
399.162
399.038
398.916
398.796
398.678
398.56
398.444
398.329
398.214
398.1
397.988
397.875
397.764
397.653
397.542
397.432
397.323
397.214
397.106
396.998
396.892
396.786
396.682
396.577
396.473
396.368
396.262
396.155
396.048
395.94
395.833
395.727
395.62
395.515
395.409
395.304
395.2
395.095
394.992
394.889
394.786
394.684
394.581
394.479
394.382
394.511
394.612
394.691
394.753
394.802
394.841
394.87
394.89
394.901
394.904
400
400
400
400
400
400
400
400
400
399.998
399.847
399.703
399.567
399.439
399.316
399.197
399.081
398.968
398.857
398.748
398.64
398.535
398.43
398.327
398.224
398.123
398.023
397.923
397.825
397.727
397.629
397.533
397.437
397.342
397.248
397.155
397.064
396.973
396.882
396.791
396.7
396.607
396.514
396.42
396.326
396.233
396.14
396.048
395.956
395.864
395.773
395.682
395.593
395.504
395.415
395.328
395.241
395.155
395.07
394.991
395.114
395.214
395.294
395.361
395.417
395.464
395.505
395.539
395.568
395.591
400
400
400
400
400
400
400
400
400
399.998
399.848
399.704
399.57
399.444
399.323
399.206
399.093
398.983
398.875
398.77
398.666
398.564
398.464
398.365
398.267
398.171
398.076
397.982
397.889
397.796
397.705
397.614
397.525
397.436
397.349
397.263
397.178
397.094
397.01
396.926
396.841
396.755
396.669
396.582
396.496
396.41
396.324
396.239
396.155
396.071
395.988
395.905
395.823
395.742
395.663
395.583
395.506
395.429
395.353
395.284
395.406
395.507
395.59
395.66
395.721
395.773
395.82
395.862
395.899
395.931
400
400
400
400
400
400
400
400
400
399.998
399.847
399.704
399.57
399.443
399.322
399.206
399.094
398.985
398.878
398.773
398.671
398.571
398.472
398.375
398.279
398.184
398.091
398
397.909
397.819
397.73
397.642
397.555
397.47
397.385
397.302
397.221
397.14
397.06
396.979
396.896
396.814
396.73
396.647
396.564
396.481
396.399
396.318
396.237
396.157
396.077
395.999
395.921
395.844
395.768
395.694
395.62
395.548
395.477
395.412
395.534
395.636
395.721
395.792
395.855
395.91
395.959
396.004
396.044
396.081
400
400
400
400
400
400
400
400
400
399.998
399.847
399.703
399.569
399.442
399.321
399.205
399.093
398.984
398.877
398.773
398.671
398.571
398.472
398.376
398.281
398.187
398.095
398.004
397.914
397.825
397.738
397.651
397.566
397.481
397.398
397.317
397.237
397.157
397.078
396.998
396.917
396.835
396.753
396.671
396.59
396.508
396.428
396.348
396.269
396.19