/*--------------------------------*- C++ -*----------------------------------*\
  =========                 |
  \\      /  F ield         | OpenFOAM: The Open Source CFD Toolbox
   \\    /   O peration     | Website:  https://openfoam.org
    \\  /    A nd           | Version:  12
     \\/     M anipulation  |
\*---------------------------------------------------------------------------*/
FoamFile
{
    format      ascii;
    class       volScalarField;
    location    "650/porous";
    object      rho;
}
// * * * * * * * * * * * * * * * * * * * * * * * * * * * * * * * * * * * * * //

dimensions      [1 -3 0 0 0 0 0];

internalField   nonuniform List<scalar> 
140000
(
933.891
933.891
933.891
933.891
933.891
933.891
933.891
933.891
933.892
933.899
934.192
934.417
934.616
934.802
934.98
935.152
935.32
935.485
935.648
935.809
935.967
936.124
936.279
936.433
936.585
936.736
936.885
937.032
937.178
937.323
937.466
937.607
937.746
937.883
938.019
938.152
938.283
938.412
938.54
938.667
938.793
938.92
939.047
939.173
939.298
939.422
939.545
939.666
939.786
939.905
940.023
940.139
940.255
940.37
940.483
940.596
940.709
940.822
940.937
941.03
940.645
940.41
940.239
940.106
940.001
939.92
939.859
939.815
939.789
939.778
933.891
933.891
933.891
933.891
933.891
933.891
933.891
933.891
933.891
933.896
934.121
934.3
934.459
934.609
934.752
934.892
935.03
935.165
935.298
935.43
935.561
935.691
935.819
935.947
936.074
936.2
936.326
936.45
936.574
936.697
936.819
936.94
937.061
937.18
937.299
937.416
937.532
937.647
937.761
937.875
937.99
938.105
938.22
938.335
938.45
938.564
938.677
938.789
938.901
939.011
939.121
939.23
939.337
939.444
939.55
939.655
939.76
939.863
939.967
940.057
939.825
939.678
939.567
939.477
939.402
939.341
939.29
939.25
939.22
939.2
933.891
933.891
933.891
933.891
933.891
933.891
933.891
933.891
933.891
933.895
934.102
934.263
934.405
934.536
934.662
934.782
934.9
935.016
935.129
935.24
935.351
935.46
935.567
935.674
935.78
935.885
935.99
936.093
936.196
936.298
936.4
936.501
936.601
936.701
936.8
936.897
936.994
937.09
937.186
937.282
937.38
937.478
937.576
937.675
937.773
937.871
937.968
938.065
938.161
938.256
938.351
938.446
938.539
938.632
938.723
938.815
938.904
938.994
939.081
939.161
938.971
938.854
938.767
938.697
938.639
938.589
938.547
938.511
938.481
938.457
933.891
933.891
933.891
933.891
933.891
933.891
933.891
933.891
933.891
933.895
934.098
934.255
934.391
934.516
934.635
934.749
934.859
934.966
935.07
935.173
935.274
935.373
935.471
935.568
935.663
935.757
935.851
935.943
936.035
936.125
936.215
936.304
936.393
936.48
936.567
936.652
936.736
936.82
936.903
936.987
937.072
937.158
937.245
937.331
937.417
937.503
937.588
937.672
937.756
937.84
937.923
938.005
938.086
938.167
938.246
938.325
938.403
938.479
938.554
938.621
938.442
938.33
938.247
938.179
938.122
938.073
938.03
937.992
937.958
937.929
933.891
933.891
933.891
933.891
933.891
933.891
933.891
933.891
933.891
933.895
934.097
934.253
934.388
934.511
934.628
934.739
934.847
934.951
935.053
935.152
935.249
935.345
935.439
935.531
935.622
935.712
935.8
935.888
935.974
936.06
936.144
936.228
936.31
936.392
936.472
936.551
936.629
936.706
936.783
936.861
936.94
937.02
937.1
937.179
937.259
937.338
937.416
937.494
937.571
937.648
937.723
937.798
937.872
937.946
938.018
938.089
938.159
938.228
938.294
938.353
938.177
938.065
937.981
937.912
937.854
937.802
937.757
937.716
937.679
937.646
933.891
933.891
933.891
933.891
933.891
933.891
933.891
933.891
933.891
933.895
934.098
934.253
934.388
934.512
934.628
934.739
934.846
934.949
935.05
935.148
935.244
935.338
935.431
935.522
935.611
935.699
935.786
935.871
935.955
936.038
936.12
936.201
936.281
936.36
936.437
936.513
936.588
936.662
936.736
936.812
936.888
936.965
937.042
937.119
937.195
937.271
937.346
937.42
937.494
937.567
937.639
937.711
937.781
937.85
937.919
937.986
938.052
938.116
938.179
938.234
938.058
937.946
937.861
937.791
937.731
937.678
937.631
937.588
937.549
937.514
933.891
933.891
933.891
933.891
933.891
933.891
933.891
933.891
933.891
933.895
934.098
934.254
934.389
934.513
934.629
934.74
934.847
934.95
935.051
935.149
935.245
935.338
935.43
935.521
935.61
935.697
935.783
935.867
935.95
936.033
936.114
936.193
936.272
936.349
936.425
936.5
936.573
936.646
936.719
936.793
936.868
936.944
937.02
937.096
937.17
937.245
937.319
937.392
937.464
937.535
937.606
937.676
937.745
937.812
937.879
937.944
938.008
938.07
938.131
938.182
938.007
937.895
937.81
937.739
937.679
937.625
937.577
937.534
937.494
937.458
933.891
933.891
933.891
933.891
933.891
933.891
933.891
933.891
933.891
933.895
934.099
934.255
934.39
934.514
934.631
934.742
934.849
934.952
935.053
935.151
935.247
935.341
935.433
935.523
935.611
935.698
935.784
935.868
935.951
936.033
936.113
936.192
936.27
936.346
936.421
936.495
936.568
936.64
936.713
936.787
936.862
936.938
937.013
937.088
937.163
937.236
937.31
937.382
937.454
937.525
937.595
937.664
937.732
937.799
937.864
937.929
937.992
938.053
938.112
938.162
937.988
937.876
937.791
937.72
937.659
937.605
937.557
937.513
937.473
937.436
933.891
933.891
933.891
933.891
933.891
933.891
933.891
933.891
933.891
933.895
934.099
934.256
934.391
934.515
934.632
934.743
934.85
934.954
935.055
935.153
935.249
935.343
935.435
935.525
935.614
935.7
935.786
935.87
935.952
936.034
936.113
936.192
936.269
936.345
936.42
936.494
936.566
936.638
936.711
936.785
936.86
936.936
937.012
937.087
937.161
937.235
937.308
937.38
937.451
937.522
937.592
937.661
937.729
937.795
937.861
937.925
937.987
938.048
938.106
938.156
937.982
937.87
937.785
937.714
937.653
937.599
937.55
937.506
937.466
937.43
933.891
933.891
933.891
933.891
933.891
933.891
933.891
933.891
933.891
933.895
934.1
934.256
934.392
934.516
934.633
934.744
934.852
934.956
935.057
935.155
935.251
935.345
935.437
935.527
935.616
935.703
935.788
935.872
935.954
936.035
936.114
936.192
936.269
936.345
936.42
936.493
936.566
936.638
936.711
936.785
936.861
936.937
937.012
937.087
937.162
937.235
937.308
937.381
937.452
937.523
937.593
937.662
937.729
937.796
937.861
937.925
937.988
938.048
938.106
938.155
937.981
937.87
937.784
937.713
937.652
937.598
937.55
937.506
937.465
937.429
933.891
933.891
933.891
933.891
933.891
933.891
933.891
933.891
933.891
933.895
934.1
934.257
934.392
934.517
934.633
934.745
934.853
934.957
935.058
935.157
935.253
935.347
935.439
935.529
935.617
935.704
935.789
935.873
935.955
936.035
936.114
936.192
936.269
936.344
936.419
936.493
936.566
936.638
936.712
936.786
936.862
936.938
937.014
937.089
937.163
937.237
937.31
937.383
937.454
937.525
937.595
937.664
937.732
937.798
937.864
937.928
937.99
938.05
938.108
938.157
937.983
937.871
937.786
937.715
937.654
937.6
937.552
937.508
937.467
937.431
933.891
933.891
933.891
933.891
933.891
933.891
933.891
933.891
933.891
933.895
934.1
934.257
934.393
934.517
934.634
934.746
934.854
934.958
935.059
935.158
935.254
935.348
935.44
935.53
935.619
935.705
935.79
935.873
935.955
936.035
936.113
936.191
936.267
936.343
936.419
936.493
936.566
936.639
936.713
936.788
936.864
936.94
937.016
937.091
937.165
937.239
937.312
937.385
937.457
937.527
937.597
937.667
937.734
937.801
937.867
937.931
937.993
938.053
938.111
938.159
937.986
937.874
937.789
937.718
937.657
937.603
937.555
937.511
937.47
937.434
933.891
933.891
933.891
933.891
933.891
933.891
933.891
933.891
933.891
933.895
934.1
934.257
934.393
934.517
934.634
934.746
934.854
934.958
935.06
935.158
935.255
935.349
935.441
935.531
935.619
935.706
935.79
935.873
935.954
936.034
936.112
936.189
936.266
936.342
936.418
936.493
936.568
936.641
936.715
936.79
936.866
936.942
937.018
937.093
937.167
937.241
937.315
937.387
937.459
937.53
937.6
937.669
937.737
937.804
937.87
937.934
937.996
938.056
938.114
938.162
937.989
937.877
937.792
937.721
937.66
937.606
937.558
937.514
937.473
937.437
933.891
933.891
933.891
933.891
933.891
933.891
933.891
933.891
933.891
933.895
934.1
934.257
934.393
934.517
934.634
934.746
934.854
934.958
935.06
935.159
935.255
935.349
935.441
935.531
935.619
935.706
935.79
935.872
935.953
936.032
936.11
936.187
936.265
936.342
936.419
936.495
936.57
936.644
936.718
936.793
936.868
936.944
937.02
937.095
937.17
937.244
937.317
937.39
937.462
937.533
937.603
937.672
937.74
937.807
937.873
937.937
937.999
938.059
938.117
938.165
937.992
937.88
937.795
937.724
937.663
937.609
937.561
937.517
937.476
937.44
933.891
933.891
933.891
933.891
933.891
933.891
933.891
933.891
933.891
933.895
934.1
934.256
934.392
934.516
934.634
934.746
934.854
934.958
935.06
935.159
935.255
935.349
935.441
935.531
935.619
935.705
935.789
935.871
935.951
936.03
936.107
936.185
936.264
936.342
936.42
936.497
936.572
936.647
936.721
936.796
936.872
936.947
937.023
937.098
937.172
937.246
937.32
937.392
937.464
937.536
937.606
937.675
937.743
937.811
937.876
937.94
938.002
938.063
938.12
938.169
937.995
937.883
937.798
937.727
937.666
937.612
937.564
937.52
937.479
937.443
933.891
933.891
933.891
933.891
933.891
933.891
933.891
933.891
933.891
933.895
934.099
934.256
934.391
934.516
934.633
934.745
934.853
934.958
935.06
935.159
935.255
935.349
935.441
935.531
935.619
935.704
935.788
935.869
935.949
936.027
936.105
936.184
936.264
936.343
936.422
936.499
936.576
936.651
936.726
936.8
936.875
936.951
937.026
937.101
937.175
937.249
937.323
937.395
937.467
937.539
937.609
937.678
937.747
937.814
937.879
937.943
938.006
938.066
938.124
938.172
937.998
937.887
937.801
937.73
937.669
937.615
937.567
937.523
937.482
937.446
933.891
933.891
933.891
933.891
933.891
933.891
933.891
933.891
933.891
933.895
934.099
934.256
934.391
934.515
934.632
934.745
934.853
934.958
935.059
935.158
935.255
935.349
935.441
935.531
935.618
935.703
935.787
935.867
935.946
936.025
936.103
936.184
936.265
936.345
936.424
936.503
936.58
936.656
936.731
936.805
936.879
936.954
937.029
937.104
937.178
937.252
937.326
937.398
937.47
937.542
937.612
937.681
937.75
937.817
937.882
937.947
938.009
938.069
938.127
938.175
938.002
937.89
937.804
937.733
937.672
937.618
937.569
937.525
937.485
937.448
933.891
933.891
933.891
933.891
933.891
933.891
933.891
933.891
933.891
933.895
934.098
934.254
934.39
934.514
934.632
934.744
934.852
934.957
935.059
935.158
935.254
935.349
935.44
935.53
935.617
935.703
935.785
935.866
935.944
936.023
936.103
936.184
936.266
936.347
936.427
936.506
936.584
936.661
936.736
936.81
936.884
936.958
937.032
937.107
937.181
937.255
937.328
937.401
937.473
937.544
937.615
937.684
937.752
937.82
937.885
937.949
938.012
938.072
938.13
938.179
938.005
937.892
937.807
937.736
937.675
937.62
937.572
937.528
937.487
937.451
933.891
933.891
933.891
933.891
933.891
933.891
933.891
933.891
933.891
933.895
934.098
934.254
934.389
934.513
934.631
934.743
934.851
934.956
935.058
935.157
935.254
935.348
935.44
935.53
935.617
935.702
935.784
935.864
935.943
936.022
936.103
936.186
936.269
936.35
936.43
936.509
936.587
936.665
936.741
936.814
936.888
936.961
937.035
937.109
937.183
937.257
937.33
937.403
937.475
937.546
937.617
937.686
937.754
937.822
937.887
937.951
938.014
938.074
938.132
938.181
938.007
937.895
937.809
937.738
937.677
937.622
937.574
937.53
937.489
937.452
933.891
933.891
933.891
933.891
933.891
933.891
933.891
933.891
933.891
933.895
934.098
934.253
934.388
934.513
934.63
934.742
934.851
934.956
935.058
935.157
935.254
935.348
935.44
935.53
935.617
935.702
935.784
935.864
935.942
936.022
936.104
936.188
936.271
936.352
936.432
936.511
936.589
936.667
936.744
936.818
936.89
936.963
937.037
937.111
937.184
937.258
937.331
937.404
937.476
937.547
937.618
937.687
937.756
937.823
937.889
937.953
938.015
938.076
938.133
938.183
938.009
937.896
937.81
937.739
937.678
937.624
937.575
937.531
937.49
937.454
933.891
933.891
933.891
933.891
933.891
933.891
933.891
933.891
933.891
933.895
934.097
934.252
934.387
934.511
934.629
934.741
934.85
934.955
935.057
935.157
935.254
935.348
935.44
935.53
935.617
935.702
935.784
935.863
935.942
936.022
936.105
936.189
936.272
936.353
936.433
936.512
936.591
936.668
936.745
936.82
936.892
936.964
937.037
937.111
937.184
937.258
937.331
937.404
937.476
937.547
937.618
937.687
937.756
937.823
937.889
937.953
938.016
938.076
938.134
938.184
938.01
937.897
937.811
937.74
937.679
937.625
937.576
937.532
937.491
937.454
933.891
933.891
933.891
933.891
933.891
933.891
933.891
933.891
933.891
933.895
934.097
934.252
934.386
934.511
934.628
934.741
934.849
934.955
935.057
935.157
935.254
935.348
935.44
935.53
935.617
935.702
935.784
935.864
935.943
936.024
936.107
936.191
936.273
936.354
936.434
936.513
936.592
936.669
936.746
936.821
936.893
936.964
937.037
937.11
937.184
937.257
937.33
937.403
937.475
937.547
937.617
937.687
937.755
937.823
937.889
937.953
938.015
938.076
938.134
938.184
938.01
937.897
937.811
937.74
937.679
937.625
937.576
937.532
937.491
937.454
933.891
933.891
933.891
933.891
933.891
933.891
933.891
933.891
933.891
933.895
934.095
934.25
934.385
934.51
934.627
934.74
934.849
934.954
935.057
935.156
935.253
935.348
935.44
935.53
935.618
935.703
935.785
935.865
935.944
936.025
936.108
936.192
936.274
936.355
936.435
936.514
936.592
936.67
936.746
936.821
936.893
936.964
937.036
937.109
937.182
937.256
937.329
937.402
937.474
937.545
937.616
937.686
937.754
937.822
937.888
937.952
938.015
938.076
938.134
938.185
938.01
937.898
937.812
937.74
937.679
937.625
937.576
937.532
937.491
937.454
933.891
933.891
933.891
933.891
933.891
933.891
933.891
933.891
933.891
933.895
934.095
934.249
934.384
934.509
934.627
934.739
934.848
934.954
935.056
935.156
935.253
935.348
935.441
935.531
935.619
935.704
935.786
935.867
935.946
936.027
936.11
936.193
936.275
936.356
936.436
936.515
936.593
936.671
936.747
936.821
936.893
936.964
937.035
937.108
937.181
937.255
937.328
937.401
937.473
937.544
937.615
937.685
937.753
937.821
937.887
937.951
938.014
938.075
938.134
938.185
938.01
937.898
937.812
937.74
937.679
937.625
937.576
937.532
937.491
937.454
933.891
933.891
933.891
933.891
933.891
933.891
933.891
933.891
933.891
933.895
934.095
934.249
934.384
934.508
934.626
934.739
934.848
934.954
935.056
935.156
935.254
935.349
935.441
935.532
935.619
935.705
935.788
935.868
935.948
936.029
936.112
936.195
936.277
936.358
936.438
936.517
936.595
936.672
936.748
936.822
936.894
936.964
937.035
937.107
937.18
937.254
937.327
937.399
937.472
937.543
937.614
937.684
937.752
937.82
937.886
937.951
938.013
938.074
938.134
938.185
938.01
937.897
937.811
937.74
937.679
937.624
937.576
937.531
937.491
937.454
933.891
933.891
933.891
933.891
933.891
933.891
933.891
933.891
933.891
933.895
934.093
934.247
934.382
934.507
934.625
934.738
934.847
934.953
935.056
935.156
935.253
935.349
935.442
935.532
935.62
935.706
935.79
935.871
935.951
936.032
936.114
936.197
936.279
936.36
936.439
936.518
936.596
936.674
936.75
936.824
936.895
936.965
937.035
937.107
937.18
937.253
937.326
937.398
937.471
937.542
937.613
937.683
937.751
937.819
937.885
937.95
938.013
938.074
938.134
938.187
938.011
937.898
937.812
937.741
937.679
937.625
937.576
937.532
937.491
937.454
933.891
933.891
933.891
933.891
933.891
933.891
933.891
933.891
933.891
933.895
934.093
934.247
934.382
934.507
934.625
934.738
934.847
934.953
935.056
935.156
935.253
935.349
935.442
935.533
935.621
935.707
935.791
935.873
935.953
936.034
936.117
936.199
936.281
936.362
936.441
936.52
936.598
936.675
936.752
936.825
936.896
936.965
937.035
937.107
937.18
937.252
937.325
937.398
937.47
937.541
937.612
937.682
937.751
937.818
937.884
937.949
938.012
938.074
938.134
938.187
938.011
937.898
937.812
937.741
937.679
937.625
937.576
937.532
937.491
937.454
933.891
933.891
933.891
933.891
933.891
933.891
933.891
933.891
933.891
933.895
934.092
934.246
934.381
934.506
934.624
934.737
934.846
934.952
935.055
935.156
935.253
935.349
935.442
935.533
935.622
935.709
935.793
935.875
935.955
936.036
936.119
936.202
936.283
936.364
936.443
936.522
936.6
936.677
936.754
936.827
936.897
936.966
937.036
937.107
937.18
937.252
937.325
937.398
937.47
937.541
937.612
937.681
937.75
937.818
937.884
937.949
938.012
938.074
938.134
938.188
938.012
937.899
937.812
937.741
937.679
937.625
937.576
937.532
937.491
937.454
933.891
933.891
933.891
933.891
933.891
933.891
933.891
933.891
933.891
933.895
934.091
934.245
934.38
934.505
934.623
934.736
934.846
934.952
935.055
935.155
935.253
935.349
935.442
935.533
935.622
935.709
935.794
935.877
935.958
936.039
936.121
936.204
936.285
936.366
936.445
936.524
936.602
936.679
936.755
936.829
936.899
936.967
937.037
937.108
937.18
937.252
937.325
937.397
937.469
937.54
937.611
937.681
937.749
937.817
937.883
937.948
938.011
938.074
938.134
938.189
938.013
937.899
937.813
937.741
937.68
937.625
937.576
937.532
937.491
937.455
933.891
933.891
933.891
933.891
933.891
933.891
933.891
933.891
933.891
933.895
934.091
934.245
934.38
934.505
934.623
934.736
934.845
934.951
935.054
935.155
935.253
935.348
935.442
935.533
935.623
935.71
935.795
935.878
935.96
936.04
936.122
936.205
936.287
936.367
936.446
936.525
936.603
936.68
936.757
936.83
936.899
936.967
937.037
937.108
937.18
937.252
937.324
937.397
937.469
937.54
937.61
937.68
937.749
937.816
937.883
937.947
938.011
938.073
938.134
938.189
938.013
937.899
937.813
937.741
937.679
937.625
937.576
937.532
937.491
937.454
933.891
933.891
933.891
933.891
933.891
933.891
933.891
933.891
933.891
933.895
934.091
934.244
934.379
934.504
934.622
934.735
934.844
934.95
935.054
935.154
935.252
935.348
935.442
935.533
935.623
935.71
935.796
935.879
935.961
936.042
936.123
936.206
936.287
936.368
936.447
936.525
936.603
936.681
936.757
936.829
936.898
936.966
937.036
937.107
937.179
937.251
937.324
937.396
937.467
937.539
937.609
937.679
937.747
937.815
937.881
937.946
938.01
938.073
938.135
938.19
938.013
937.899
937.813
937.741
937.679
937.625
937.576
937.531
937.491
937.454
933.891
933.891
933.891
933.891
933.891
933.891
933.891
933.891
933.891
933.895
934.09
934.243
934.378
934.503
934.621
934.734
934.844
934.95
935.053
935.153
935.251
935.347
935.441
935.533
935.623
935.711
935.796
935.88
935.962
936.043
936.124
936.205
936.287
936.367
936.446
936.524
936.602
936.679
936.754
936.826
936.895
936.964
937.034
937.105
937.177
937.25
937.322
937.394
937.466
937.537
937.607
937.677
937.746
937.813
937.88
937.945
938.009
938.071
938.133
938.19
938.012
937.899
937.812
937.74
937.678
937.624
937.575
937.53
937.49
937.453
933.891
933.891
933.891
933.891
933.891
933.891
933.891
933.891
933.891
933.895
934.09
934.243
934.378
934.502
934.62
934.734
934.843
934.949
935.052
935.152
935.25
935.346
935.44
935.532
935.622
935.71
935.796
935.881
935.963
936.044
936.124
936.204
936.285
936.365
936.444
936.522
936.599
936.676
936.75
936.821
936.89
936.96
937.031
937.103
937.175
937.247
937.32
937.392
937.463
937.534
937.605
937.674
937.743
937.811
937.877
937.943
938.007
938.07
938.132
938.189
938.011
937.897
937.81
937.739
937.677
937.622
937.573
937.529
937.488
937.451
933.891
933.891
933.891
933.891
933.891
933.891
933.891
933.891
933.891
933.895
934.089
934.242
934.377
934.502
934.62
934.733
934.842
934.948
935.051
935.151
935.249
935.345
935.439
935.531
935.621
935.71
935.796
935.881
935.963
936.044
936.123
936.203
936.282
936.362
936.44
936.518
936.595
936.67
936.744
936.815
936.885
936.956
937.028
937.1
937.172
937.245
937.317
937.389
937.461
937.532
937.602
937.672
937.74
937.808
937.875
937.94
938.004
938.068
938.131
938.189
938.01
937.896
937.809
937.737
937.675
937.621
937.572
937.527
937.486
937.449
933.891
933.891
933.891
933.891
933.891
933.891
933.891
933.891
933.891
933.895
934.089
934.242
934.376
934.501
934.619
934.732
934.841
934.947
935.05
935.15
935.248
935.344
935.438
935.53
935.62
935.709
935.795
935.88
935.963
936.044
936.123
936.201
936.28
936.358
936.436
936.513
936.59
936.664
936.737
936.809
936.88
936.952
937.024
937.097
937.17
937.242
937.314
937.386
937.458
937.529
937.599
937.669
937.738
937.805
937.872
937.938
938.002
938.066
938.129
938.187
938.008
937.894
937.807
937.735
937.673
937.618
937.569
937.525
937.484
937.447
933.891
933.891
933.891
933.891
933.891
933.891
933.891
933.891
933.891
933.895
934.089
934.242
934.376
934.5
934.618
934.731
934.84
934.945
935.048
935.149
935.247
935.343
935.437
935.529
935.619
935.708
935.794
935.879
935.962
936.043
936.122
936.2
936.277
936.354
936.432
936.508
936.584
936.658
936.732
936.804
936.876
936.949
937.021
937.094
937.167
937.24
937.312
937.384
937.455
937.526
937.597
937.666
937.735
937.803
937.87
937.935
938
938.064
938.128
938.186
938.007
937.892
937.805
937.733
937.671
937.617
937.567
937.523
937.482
937.445
933.891
933.891
933.891
933.891
933.891
933.891
933.891
933.891
933.891
933.895
934.089
934.241
934.375
934.499
934.617
934.73
934.839
934.944
935.047
935.147
935.245
935.341
935.435
935.527
935.617
935.706
935.793
935.878
935.961
936.042
936.121
936.198
936.274
936.351
936.427
936.503
936.579
936.653
936.726
936.799
936.872
936.946
937.019
937.092
937.165
937.238
937.31
937.382
937.453
937.524
937.595
937.664
937.733
937.801
937.867
937.933
937.998
938.062
938.126
938.185
938.006
937.891
937.804
937.731
937.669
937.615
937.565
937.521
937.48
937.443
933.891
933.891
933.891
933.891
933.891
933.891
933.891
933.891
933.891
933.895
934.088
934.241
934.375
934.499
934.616
934.729
934.837
934.943
935.045
935.146
935.244
935.339
935.433
935.525
935.616
935.704
935.791
935.876
935.959
936.04
936.119
936.195
936.271
936.347
936.423
936.499
936.574
936.648
936.722
936.796
936.869
936.943
937.017
937.09
937.163
937.236
937.308
937.38
937.451
937.522
937.592
937.662
937.731
937.798
937.865
937.931
937.996
938.061
938.125
938.183
938.004
937.889
937.802
937.729
937.667
937.613
937.563
937.519
937.478
937.441
933.891
933.891
933.891
933.891
933.891
933.891
933.891
933.891
933.891
933.895
934.088
934.241
934.374
934.498
934.615
934.728
934.836
934.941
935.044
935.144
935.242
935.338
935.431
935.523
935.614
935.702
935.789
935.874
935.957
936.038
936.116
936.193
936.268
936.343
936.419
936.494
936.569
936.644
936.719
936.793
936.867
936.941
937.015
937.088
937.162
937.234
937.306
937.378
937.45
937.52
937.59
937.66
937.729
937.796
937.863
937.929
937.994
938.059
938.123
938.182
938.002
937.887
937.8
937.728
937.665
937.611
937.561
937.517
937.476
937.439
933.891
933.891
933.891
933.891
933.891
933.891
933.891
933.891
933.891
933.895
934.088
934.24
934.374
934.497
934.614
934.726
934.835
934.94
935.042
935.142
935.24
935.335
935.429
935.521
935.611
935.7
935.787
935.872
935.955
936.035
936.114
936.189
936.264
936.339
936.415
936.49
936.566
936.641
936.716
936.79
936.865
936.939
937.013
937.087
937.16
937.232
937.305
937.376
937.448
937.518
937.589
937.658
937.727
937.794
937.861
937.927
937.993
938.057
938.122
938.18
938.001
937.886
937.798
937.726
937.664
937.609
937.559
937.515
937.474
937.437
933.891
933.891
933.891
933.891
933.891
933.891
933.891
933.891
933.891
933.895
934.088
934.24
934.373
934.497
934.613
934.725
934.833
934.938
935.041
935.14
935.238
935.333
935.427
935.519
935.609
935.697
935.784
935.869
935.952
936.032
936.11
936.186
936.261
936.336
936.411
936.487
936.563
936.638
936.714
936.789
936.864
936.938
937.012
937.086
937.159
937.231
937.303
937.375
937.446
937.517
937.587
937.656
937.725
937.793
937.86
937.926
937.992
938.056
938.121
938.179
938
937.885
937.797
937.725
937.663
937.608
937.558
937.514
937.473
937.436
933.891
933.891
933.891
933.891
933.891
933.891
933.891
933.891
933.891
933.895
934.088
934.24
934.373
934.496
934.613
934.724
934.832
934.937
935.039
935.138
935.236
935.331
935.424
935.516
935.606
935.694
935.781
935.866
935.949
936.029
936.107
936.182
936.257
936.333
936.408
936.484
936.56
936.636
936.712
936.788
936.863
936.937
937.011
937.085
937.158
937.231
937.303
937.375
937.446
937.517
937.587
937.656
937.725
937.793
937.86
937.926
937.992
938.057
938.122
938.18
938.001
937.886
937.798
937.726
937.664
937.609
937.56
937.515
937.474
937.437
933.891
933.891
933.891
933.891
933.891
933.891
933.891
933.891
933.891
933.895
934.088
934.24
934.373
934.496
934.612
934.723
934.831
934.935
935.037
935.136
935.233
935.329
935.422
935.514
935.604
935.692
935.778
935.863
935.946
936.026
936.104
936.18
936.255
936.331
936.407
936.484
936.56
936.636
936.713
936.788
936.864
936.938
937.013
937.087
937.16
937.233
937.305
937.377
937.449
937.519
937.59
937.659
937.728
937.797
937.864
937.931
937.997
938.063
938.127
938.187
938.007
937.892
937.805
937.732
937.67
937.616
937.566
937.522
937.481
937.444
933.891
933.891
933.891
933.891
933.891
933.891
933.891
933.891
933.891
933.895
934.088
934.24
934.373
934.495
934.611
934.722
934.83
934.934
935.035
935.135
935.232
935.327
935.42
935.512
935.602
935.69
935.777
935.862
935.944
936.025
936.103
936.179
936.256
936.332
936.409
936.486
936.564
936.641
936.717
936.794
936.87
936.945
937.02
937.094
937.168
937.242
937.315
937.387
937.459
937.531
937.601
937.672
937.741
937.811
937.879
937.947
938.013
938.08
938.146
938.206
938.026
937.911
937.824
937.752
937.69
937.636
937.587
937.543
937.503
937.466
933.891
933.891
933.891
933.891
933.891
933.891
933.891
933.891
933.891
933.895
934.089
934.24
934.373
934.496
934.611
934.723
934.83
934.934
935.036
935.135
935.232
935.328
935.422
935.514
935.604
935.693
935.78
935.865
935.949
936.03
936.109
936.187
936.264
936.342
936.421
936.499
936.578
936.656
936.734
936.812
936.889
936.966
937.042
937.117
937.193
937.268
937.342
937.416
937.489
937.562
937.635
937.707
937.778
937.849
937.919
937.989
938.057
938.126
938.193
938.255
938.075
937.961
937.874
937.803
937.742
937.688
937.641
937.597
937.558
937.522
933.891
933.891
933.891
933.891
933.891
933.891
933.891
933.891
933.891
933.895
934.089
934.241
934.374
934.497
934.613
934.725
934.833
934.938
935.04
935.14
935.239
935.336
935.431
935.524
935.616
935.707
935.796
935.883
935.968
936.051
936.133
936.213
936.294
936.375
936.456
936.537
936.619
936.7
936.781
936.861
936.941
937.021
937.1
937.179
937.257
937.335
937.413
937.49
937.567
937.643
937.719
937.795
937.87
937.944
938.018
938.092
938.164
938.236
938.308
938.374
938.193
938.08
937.994
937.924
937.864
937.812
937.766
937.725
937.687
937.654
933.891
933.891
933.891
933.891
933.891
933.891
933.891
933.891
933.891
933.895
934.091
934.245
934.379
934.504
934.622
934.736
934.846
934.954
935.06
935.163
935.265
935.366
935.465
935.562
935.658
935.753
935.847
935.939
936.029
936.118
936.205
936.291
936.377
936.464
936.551
936.639
936.726
936.814
936.901
936.987
937.074
937.16
937.246
937.331
937.416
937.501
937.585
937.669
937.753
937.836
937.919
938.001
938.084
938.165
938.246
938.327
938.407
938.487
938.566
938.639
938.456
938.343
938.258
938.19
938.132
938.082
938.038
938
937.966
937.937
933.891
933.891
933.891
933.891
933.891
933.891
933.891
933.891
933.891
933.895
934.097
934.255
934.396
934.526
934.651
934.772
934.89
935.006
935.12
935.233
935.344
935.454
935.563
935.671
935.778
935.883
935.988
936.091
936.192
936.292
936.391
936.489
936.588
936.687
936.786
936.886
936.985
937.085
937.184
937.283
937.382
937.48
937.578
937.675
937.773
937.87
937.966
938.062
938.158
938.253
938.348
938.443
938.537
938.63
938.723
938.816
938.908
939
939.092
939.176
938.983
938.865
938.777
938.706
938.647
938.597
938.554
938.518
938.488
938.463
933.891
933.891
933.891
933.891
933.891
933.891
933.891
933.891
933.891
933.896
934.116
934.294
934.451
934.601
934.744
934.884
935.022
935.158
935.292
935.425
935.557
935.688
935.818
935.947
936.074
936.201
936.326
936.45
936.572
936.692
936.811
936.93
937.049
937.167
937.286
937.405
937.524
937.642
937.759
937.876
937.993
938.108
938.223
938.337
938.451
938.564
938.676
938.787
938.898
939.008
939.117
939.226
939.334
939.442
939.549
939.656
939.763
939.869
939.976
940.07
939.835
939.687
939.575
939.484
939.409
939.347
939.296
939.256
939.225
939.205
933.891
933.891
933.891
933.891
933.891
933.891
933.891
933.891
933.892
933.899
934.19
934.414
934.611
934.796
934.973
935.145
935.314
935.48
935.644
935.806
935.966
936.124
936.281
936.436
936.589
936.74
936.889
937.035
937.178
937.319
937.458
937.596
937.733
937.87
938.006
938.141
938.275
938.408
938.54
938.67
938.799
938.926
939.053
939.177
939.301
939.423
939.544
939.664
939.783
939.901
940.018
940.134
940.25
940.366
940.481
940.596
940.711
940.827
940.943
941.038
940.652
940.416
940.244
940.111
940.006
939.925
939.863
939.819
939.793
939.781
933.891
933.891
933.891
933.891
933.891
933.891
933.891
933.891
933.891
933.896
934.118
934.324
934.515
934.698
934.873
935.044
935.212
935.377
935.54
935.701
935.86
936.017
936.173
936.327
936.48
936.632
936.782
936.93
937.077
937.222
937.366
937.507
937.648
937.786
937.922
938.056
938.188
938.318
938.446
938.574
938.701
938.828
938.955
939.081
939.207
939.331
939.454
939.576
939.696
939.815
939.934
940.051
940.166
940.282
940.395
940.509
940.623
940.736
940.851
940.948
940.635
940.411
940.242
940.11
940.005
939.923
939.86
939.816
939.789
939.776
933.891
933.891
933.891
933.891
933.891
933.891
933.891
933.891
933.891
933.894
934.053
934.208
934.357
934.5
934.64
934.777
934.912
935.045
935.177
935.308
935.437
935.566
935.694
935.821
935.948
936.073
936.198
936.323
936.446
936.569
936.691
936.812
936.933
937.052
937.171
937.288
937.404
937.52
937.634
937.748
937.863
937.978
938.093
938.208
938.322
938.436
938.55
938.662
938.774
938.885
938.995
939.104
939.212
939.319
939.426
939.531
939.636
939.74
939.845
939.939
939.778
939.65
939.547
939.461
939.389
939.329
939.279
939.239
939.209
939.188
933.891
933.891
933.891
933.891
933.891
933.891
933.891
933.891
933.891
933.894
934.037
934.175
934.306
934.432
934.553
934.671
934.786
934.899
935.011
935.121
935.23
935.338
935.444
935.55
935.656
935.76
935.864
935.967
936.069
936.171
936.272
936.372
936.472
936.571
936.67
936.768
936.864
936.96
937.056
937.152
937.249
937.346
937.444
937.541
937.639
937.737
937.834
937.93
938.026
938.122
938.217
938.311
938.405
938.498
938.589
938.681
938.771
938.861
938.948
939.031
938.91
938.812
938.733
938.667
938.612
938.564
938.524
938.488
938.459
938.435
933.891
933.891