/*--------------------------------*- C++ -*----------------------------------*\
  =========                 |
  \\      /  F ield         | OpenFOAM: The Open Source CFD Toolbox
   \\    /   O peration     | Website:  https://openfoam.org
    \\  /    A nd           | Version:  12
     \\/     M anipulation  |
\*---------------------------------------------------------------------------*/
FoamFile
{
    format      ascii;
    class       volScalarField;
    location    "650/porous";
    object      T;
}
// * * * * * * * * * * * * * * * * * * * * * * * * * * * * * * * * * * * * * //

dimensions      [0 0 0 1 0 0 0];

internalField   nonuniform List<scalar> 
140000
(
400
400
400
400
400
400
400
400
400
399.992
399.678
399.435
399.222
399.021
398.83
398.644
398.462
398.283
398.107
397.933
397.761
397.591
397.422
397.255
397.09
396.925
396.763
396.602
396.442
396.284
396.128
395.973
395.82
395.669
395.521
395.375
395.23
395.088
394.947
394.807
394.667
394.527
394.387
394.247
394.109
393.971
393.835
393.701
393.567
393.435
393.304
393.174
393.046
392.917
392.791
392.664
392.538
392.412
392.283
392.179
392.61
392.872
393.063
393.212
393.328
393.418
393.487
393.535
393.564
393.576
400
400
400
400
400
400
400
400
400
399.995
399.754
399.562
399.391
399.23
399.075
398.924
398.776
398.63
398.486
398.343
398.202
398.061
397.922
397.783
397.645
397.508
397.372
397.236
397.102
396.968
396.834
396.702
396.57
396.44
396.31
396.182
396.055
395.929
395.804
395.679
395.553
395.426
395.299
395.173
395.046
394.921
394.796
394.672
394.549
394.427
394.305
394.185
394.065
393.947
393.829
393.713
393.597
393.482
393.366
393.266
393.524
393.688
393.811
393.911
393.993
394.062
394.117
394.162
394.196
394.218
400
400
400
400
400
400
400
400
400
399.996
399.774
399.601
399.449
399.307
399.173
399.042
398.915
398.791
398.669
398.548
398.429
398.311
398.195
398.079
397.964
397.85
397.737
397.624
397.513
397.401
397.291
397.181
397.072
396.963
396.856
396.749
396.643
396.538
396.433
396.328
396.222
396.114
396.007
395.899
395.791
395.684
395.577
395.47
395.364
395.259
395.155
395.051
394.948
394.846
394.745
394.644
394.545
394.446
394.35
394.261
394.471
394.6
394.696
394.773
394.838
394.893
394.939
394.979
395.012
395.039
400
400
400
400
400
400
400
400
400
399.996
399.779
399.61
399.464
399.329
399.201
399.079
398.96
398.845
398.732
398.621
398.512
398.405
398.299
398.194
398.091
397.989
397.888
397.787
397.688
397.59
397.492
397.395
397.299
397.204
397.11
397.017
396.925
396.834
396.742
396.651
396.558
396.464
396.369
396.275
396.181
396.087
395.994
395.901
395.809
395.717
395.626
395.536
395.447
395.358
395.27
395.184
395.098
395.014
394.931
394.858
395.055
395.178
395.27
395.344
395.407
395.461
395.509
395.551
395.587
395.62
400
400
400
400
400
400
400
400
400
399.996
399.779
399.612
399.467
399.334
399.209
399.089
398.973
398.86
398.751
398.644
398.539
398.435
398.334
398.234
398.135
398.038
397.942
397.847
397.754
397.661
397.569
397.478
397.389
397.3
397.213
397.127
397.042
396.957
396.873
396.788
396.702
396.615
396.528
396.441
396.354
396.268
396.182
396.097
396.012
395.928
395.845
395.763
395.682
395.601
395.522
395.443
395.367
395.291
395.217
395.153
395.347
395.469
395.562
395.638
395.702
395.759
395.809
395.854
395.894
395.93
400
400
400
400
400
400
400
400
400
399.996
399.779
399.612
399.467
399.334
399.209
399.089
398.974
398.863
398.754
398.648
398.544
398.442
398.342
398.244
398.147
398.052
397.958
397.866
397.774
397.684
397.595
397.507
397.42
397.335
397.25
397.168
397.086
397.005
396.924
396.843
396.759
396.675
396.591
396.507
396.424
396.341
396.259
396.177
396.097
396.017
395.938
395.859
395.782
395.706
395.631
395.557
395.484
395.414
395.345
395.284
395.477
395.6
395.694
395.771
395.837
395.895
395.947
395.993
396.036
396.074
400
400
400
400
400
400
400
400
400
399.996
399.778
399.611
399.466
399.333
399.208
399.088
398.973
398.862
398.753
398.647
398.544
398.442
398.343
398.245
398.149
398.054
397.961
397.87
397.779
397.69
397.602
397.516
397.43
397.346
397.264
397.183
397.103
397.023
396.944
396.863
396.781
396.698
396.615
396.533
396.451
396.369
396.289
396.209
396.13
396.051
395.974
395.897
395.822
395.748
395.675
395.603
395.533
395.464
395.398
395.341
395.533
395.656
395.75
395.827
395.894
395.953
396.005
396.053
396.097
396.136
400
400
400
400
400
400
400
400
400
399.996
399.777
399.61
399.464
399.331
399.206
399.086
398.971
398.859
398.751
398.645
398.541
398.44
398.34
398.243
398.147
398.053
397.96
397.869
397.779
397.69
397.603
397.517
397.433
397.349
397.268
397.187
397.108
397.029
396.95
396.87
396.788
396.705
396.623
396.541
396.459
396.378
396.298
396.219
396.141
396.063
395.986
395.911
395.836
395.762
395.69
395.62
395.551
395.483
395.418
395.363
395.554
395.677
395.771
395.849
395.916
395.975
396.028
396.076
396.12
396.16
400
400
400
400
400
400
400
400
400
399.996
399.777
399.609
399.464
399.33
399.205
399.085
398.969
398.857
398.749
398.643
398.539
398.437
398.338
398.24
398.145
398.051
397.958
397.867
397.777
397.689
397.602
397.517
397.433
397.35
397.269
397.189
397.11
397.032
396.952
396.871
396.789
396.707
396.624
396.542
396.461
396.381
396.301
396.222
396.143
396.066
395.989
395.914
395.839
395.766
395.694
395.624
395.555
395.489
395.424
395.37
395.561
395.684
395.778
395.856
395.923
395.982
396.035
396.083
396.127
396.167
400
400
400
400
400
400
400
400
400
399.996
399.777
399.608
399.463
399.329
399.203
399.083
398.968
398.856
398.747
398.64
398.537
398.435
398.335
398.238
398.142
398.048
397.956
397.865
397.776
397.688
397.602
397.517
397.433
397.351
397.27
397.19
397.111
397.032
396.952
396.871
396.789
396.706
396.623
396.541
396.46
396.38
396.3
396.221
396.142
396.065
395.988
395.913
395.838
395.765
395.694
395.623
395.555
395.488
395.425
395.371
395.562
395.685
395.779
395.856
395.923
395.982
396.035
396.084
396.128
396.168
400
400
400
400
400
400
400
400
400
399.996
399.776
399.608
399.462
399.329
399.203
399.082
398.967
398.854
398.745
398.639
398.535
398.433
398.334
398.236
398.14
398.047
397.954
397.864
397.775
397.687
397.602
397.517
397.434
397.352
397.27
397.19
397.111
397.031
396.951
396.87
396.787
396.704
396.622
396.54
396.458
396.378
396.298
396.219
396.14
396.063
395.986
395.91
395.836
395.763
395.691
395.621
395.552
395.486
395.423
395.369
395.56
395.683
395.777
395.854
395.921
395.98
396.033
396.081
396.126
396.166
400
400
400
400
400
400
400
400
400
399.996
399.776
399.608
399.462
399.328
399.202
399.082
398.966
398.853
398.744
398.637
398.533
398.432
398.332
398.235
398.139
398.045
397.953
397.863
397.775
397.688
397.602
397.518
397.435
397.352
397.271
397.19
397.11
397.03
396.95
396.868
396.785
396.702
396.62
396.538
396.456
396.375
396.295
396.216
396.138
396.06
395.983
395.907
395.833
395.76
395.688
395.618
395.549
395.483
395.419
395.366
395.557
395.68
395.774
395.851
395.918
395.977
396.03
396.078
396.123
396.162
400
400
400
400
400
400
400
400
400
399.996
399.776
399.608
399.462
399.328
399.202
399.082
398.965
398.853
398.743
398.637
398.533
398.431
398.331
398.234
398.139
398.045
397.953
397.863
397.775
397.689
397.604
397.52
397.437
397.353
397.271
397.189
397.109
397.028
396.948
396.866
396.783
396.7
396.618
396.535
396.454
396.373
396.293
396.214
396.135
396.057
395.98
395.904
395.83
395.756
395.684
395.614
395.546
395.48
395.416
395.363
395.554
395.676
395.77
395.848
395.915
395.974
396.027
396.075
396.119
396.159
400
400
400
400
400
400
400
400
400
399.996
399.776
399.608
399.462
399.328
399.202
399.082
398.965
398.853
398.743
398.636
398.532
398.43
398.331
398.234
398.138
398.045
397.954
397.864
397.777
397.691
397.606
397.522
397.438
397.354
397.27
397.188
397.106
397.026
396.945
396.863
396.78
396.698
396.615
396.533
396.451
396.37
396.29
396.211
396.132
396.054
395.977
395.901
395.826
395.753
395.681
395.611
395.542
395.476
395.413
395.359
395.55
395.673
395.767
395.845
395.911
395.97
396.023
396.072
396.116
396.156
400
400
400
400
400
400
400
400
400
399.996
399.777
399.608
399.462
399.329
399.203
399.082
398.966
398.853
398.743
398.636
398.532
398.43
398.331
398.234
398.139
398.045
397.954
397.866
397.779
397.694
397.609
397.524
397.439
397.354
397.269
397.186
397.103
397.022
396.941
396.859
396.777
396.694
396.612
396.53
396.448
396.367
396.287
396.208
396.129
396.051
395.974
395.898
395.823
395.749
395.677
395.607
395.539
395.472
395.409
395.356
395.547
395.669
395.763
395.841
395.908
395.967
396.02
396.068
396.113
396.152
400
400
400
400
400
400
400
400
400
399.996
399.777
399.609
399.463
399.329
399.203
399.083
398.966
398.853
398.743
398.636
398.532
398.431
398.331
398.234
398.139
398.046
397.956
397.867
397.781
397.696
397.612
397.526
397.439
397.353
397.267
397.183
397.099
397.017
396.936
396.855
396.773
396.691
396.609
396.527
396.445
396.364
396.284
396.205
396.126
396.048
395.971
395.895
395.82
395.746
395.674
395.604
395.535
395.469
395.406
395.352
395.543
395.666
395.76
395.838
395.905
395.964
396.017
396.065
396.109
396.149
400
400
400
400
400
400
400
400
400
399.996
399.777
399.609
399.464
399.33
399.204
399.083
398.967
398.854
398.744
398.637
398.533
398.431
398.331
398.234
398.14
398.047
397.957
397.869
397.784
397.699
397.613
397.526
397.438
397.351
397.264
397.179
397.095
397.012
396.93
396.85
396.769
396.687
396.605
396.523
396.442
396.361
396.281
396.201
396.123
396.044
395.967
395.891
395.816
395.743
395.671
395.6
395.532
395.465
395.402
395.349
395.54
395.663
395.757
395.835
395.902
395.961
396.014
396.062
396.107
396.147
400
400
400
400
400
400
400
400
400
399.996
399.778
399.611
399.465
399.331
399.205
399.084
398.967
398.854
398.744
398.637
398.533
398.431
398.332
398.235
398.14
398.048
397.959
397.871
397.786
397.701
397.614
397.525
397.436
397.348
397.261
397.176
397.091
397.007
396.925
396.844
396.764
396.683
396.601
396.52
396.439
396.358
396.278
396.198
396.12
396.042
395.964
395.888
395.813
395.74
395.667
395.597
395.529
395.462
395.399
395.345
395.536
395.659
395.754
395.832
395.899
395.958
396.011
396.06
396.104
396.144
400
400
400
400
400
400
400
400
400
399.996
399.778
399.611
399.466
399.332
399.206
399.085
398.968
398.855
398.745
398.638
398.533
398.432
398.332
398.235
398.141
398.049
397.96
397.873
397.788
397.702
397.614
397.524
397.434
397.345
397.259
397.173
397.087
397.003
396.92
396.839
396.76
396.679
396.599
396.517
396.437
396.356
396.276
396.196
396.117
396.039
395.962
395.886
395.811
395.737
395.665
395.595
395.526
395.46
395.396
395.343
395.534
395.657
395.751
395.829
395.896
395.956
396.009
396.058
396.102
396.142
400
400
400
400
400
400
400
400
400
399.996
399.779
399.612
399.466
399.333
399.207
399.086
398.969
398.855
398.745
398.638
398.534
398.432
398.332
398.235
398.141
398.049
397.96
397.874
397.788
397.702
397.613
397.522
397.432
397.343
397.256
397.17
397.085
397
396.916
396.836
396.757
396.677
396.597
396.516
396.435
396.355
396.275
396.195
396.116
396.038
395.961
395.885
395.81
395.736
395.664
395.593
395.525
395.458
395.395
395.34
395.532
395.655
395.75
395.828
395.895
395.954
396.008
396.056
396.101
396.141
400
400
400
400
400
400
400
400
400
399.996
399.78
399.613
399.468
399.334
399.208
399.087
398.97
398.856
398.746
398.639
398.534
398.432
398.332
398.235
398.141
398.049
397.96
397.874
397.788
397.701
397.611
397.52
397.43
397.342
397.255
397.169
397.083
396.999
396.915
396.834
396.755
396.676
396.596
396.516
396.435
396.355
396.275
396.195
396.116
396.038
395.961
395.885
395.81
395.736
395.663
395.593
395.524
395.458
395.394
395.339
395.531
395.654
395.749
395.827
395.894
395.953
396.007
396.055
396.1
396.14
400
400
400
400
400
400
400
400
400
399.996
399.78
399.614
399.469
399.335
399.208
399.087
398.97
398.857
398.746
398.639
398.534
398.432
398.332
398.235
398.141
398.049
397.96
397.873
397.787
397.7
397.61
397.519
397.429
397.341
397.254
397.168
397.082
396.998
396.914
396.833
396.754
396.676
396.597
396.517
396.436
396.356
396.276
396.196
396.117
396.039
395.962
395.885
395.81
395.736
395.664
395.593
395.524
395.458
395.394
395.339
395.531
395.654
395.748
395.827
395.894
395.953
396.007
396.055
396.1
396.14
400
400
400
400
400
400
400
400
400
399.996
399.781
399.615
399.47
399.336
399.209
399.088
398.971
398.857
398.747
398.639
398.534
398.432
398.332
398.235
398.14
398.048
397.959
397.872
397.786
397.698
397.608
397.517
397.428
397.34
397.253
397.167
397.082
396.997
396.914
396.832
396.754
396.676
396.597
396.518
396.438
396.357
396.277
396.198
396.118
396.04
395.963
395.886
395.811
395.737
395.665
395.594
395.525
395.458
395.394
395.338
395.53
395.654
395.748
395.826
395.894
395.953
396.007
396.055
396.1
396.14
400
400
400
400
400
400
400
400
400
399.996
399.782
399.616
399.471
399.337
399.21
399.089
398.971
398.858
398.747
398.639
398.534
398.432
398.332
398.234
398.139
398.047
397.957
397.87
397.784
397.696
397.606
397.516
397.427
397.339
397.252
397.166
397.08
396.996
396.913
396.832
396.753
396.676
396.598
396.519
396.439
396.359
396.279
396.199
396.12
396.042
395.964
395.888
395.812
395.738
395.666
395.595
395.526
395.459
395.394
395.337
395.53
395.654
395.748
395.826
395.894
395.953
396.007
396.055
396.1
396.14
400
400
400
400
400
400
400
400
400
399.996
399.782
399.616
399.471
399.337
399.211
399.089
398.972
398.858
398.747
398.639
398.534
398.431
398.331
398.233
398.138
398.046
397.956
397.868
397.782
397.694
397.604
397.514
397.425
397.337
397.25
397.164
397.079
396.995
396.912
396.831
396.753
396.676
396.599
396.52
396.44
396.36
396.28
396.2
396.121
396.043
395.965
395.889
395.813
395.739
395.667
395.596
395.527
395.46
395.395
395.338
395.53
395.654
395.749
395.827
395.894
395.954
396.007
396.056
396.1
396.14
400
400
400
400
400
400
400
400
400
399.996
399.784
399.618
399.473
399.339
399.212
399.09
398.973
398.858
398.748
398.639
398.534
398.431
398.331
398.233
398.137
398.044
397.954
397.866
397.779
397.691
397.601
397.512
397.423
397.335
397.248
397.162
397.077
396.993
396.91
396.829
396.752
396.676
396.599
396.52
396.441
396.361
396.281
396.201
396.122
396.044
395.966
395.89
395.814
395.74
395.668
395.597
395.527
395.46
395.394
395.336
395.529
395.653
395.748
395.826
395.894
395.953
396.007
396.055
396.1
396.14
400
400
400
400
400
400
400
400
400
399.996
399.784
399.618
399.473
399.339
399.212
399.091
398.973
398.859
398.748
398.64
398.534
398.431
398.33
398.232
398.136
398.043
397.952
397.864
397.777
397.689
397.599
397.509
397.42
397.333
397.246
397.16
397.075
396.991
396.908
396.827
396.75
396.675
396.598
396.52
396.441
396.361
396.281
396.202
396.123
396.045
395.967
395.891
395.815
395.741
395.668
395.597
395.528
395.46
395.394
395.336
395.529
395.653
395.748
395.826
395.894
395.953
396.007
396.055
396.1
396.14
400
400
400
400
400
400
400
400
400
399.996
399.784
399.619
399.474
399.34
399.213
399.091
398.973
398.859
398.748
398.64
398.534
398.431
398.33
398.232
398.135
398.042
397.95
397.861
397.774
397.686
397.596
397.507
397.418
397.33
397.244
397.158
397.073
396.989
396.906
396.825
396.749
396.674
396.597
396.52
396.441
396.361
396.282
396.202
396.123
396.045
395.968
395.891
395.816
395.742
395.669
395.598
395.528
395.46
395.394
395.335
395.528
395.653
395.747
395.826
395.893
395.953
396.007
396.055
396.1
396.14
400
400
400
400
400
400
400
400
400
399.996
399.786
399.62
399.475
399.341
399.214
399.092
398.974
398.86
398.749
398.64
398.535
398.431
398.33
398.231
398.135
398.041
397.949
397.859
397.772
397.684
397.594
397.504
397.416
397.328
397.242
397.156
397.071
396.987
396.904
396.824
396.748
396.673
396.597
396.519
396.44
396.361
396.282
396.203
396.124
396.046
395.968
395.892
395.816
395.742
395.67
395.598
395.529
395.461
395.394
395.333
395.527
395.652
395.747
395.825
395.893
395.953
396.006
396.055
396.1
396.14
400
400
400
400
400
400
400
400
400
399.996
399.786
399.621
399.476
399.342
399.214
399.093
398.975
398.86
398.749
398.641
398.535
398.432
398.33
398.231
398.135
398.04
397.948
397.858
397.77
397.682
397.593
397.503
397.414
397.327
397.24
397.155
397.07
396.985
396.902
396.823
396.747
396.673
396.597
396.519
396.441
396.361
396.282
396.203
396.124
396.046
395.969
395.893
395.817
395.743
395.67
395.599
395.529
395.461
395.394
395.333
395.528
395.652
395.747
395.826
395.893
395.953
396.007
396.055
396.1
396.14
400
400
400
400
400
400
400
400
400
399.996
399.786
399.622
399.477
399.342
399.215
399.093
398.976
398.861
398.75
398.642
398.536
398.432
398.331
398.232
398.135
398.04
397.947
397.856
397.768
397.68
397.592
397.502
397.413
397.326
397.24
397.155
397.07
396.985
396.902
396.824
396.749
396.674
396.598
396.52
396.441
396.362
396.283
396.204
396.126
396.048
395.97
395.894
395.819
395.745
395.672
395.6
395.53
395.461
395.393
395.332
395.527
395.652
395.747
395.826
395.893
395.953
396.007
396.056
396.1
396.141
400
400
400
400
400
400
400
400
400
399.996
399.787
399.622
399.477
399.343
399.216
399.094
398.976
398.862
398.751
398.642
398.536
398.433
398.331
398.232
398.135
398.04
397.946
397.855
397.767
397.679
397.591
397.503
397.414
397.327
397.241
397.156
397.071
396.987
396.905
396.827
396.752
396.677
396.6
396.522
396.443
396.364
396.285
396.206
396.128
396.05
395.972
395.896
395.821
395.747
395.674
395.602
395.532
395.463
395.395
395.332
395.528
395.653
395.748
395.827
395.895
395.954
396.008
396.057
396.101
396.142
400
400
400
400
400
400
400
400
400
399.996
399.787
399.623
399.478
399.344
399.217
399.095
398.977
398.863
398.752
398.643
398.537
398.434
398.332
398.233
398.135
398.04
397.946
397.855
397.766
397.678
397.591
397.504
397.416
397.329
397.243
397.158
397.074
396.991
396.91
396.833
396.757
396.681
396.603
396.525
396.446
396.367
396.287
396.209
396.13
396.052
395.975
395.899
395.823
395.749
395.676
395.605
395.534
395.464
395.396
395.334
395.529
395.654
395.75
395.828
395.896
395.956
396.01
396.058
396.103
396.143
400
400
400
400
400
400
400
400
400
399.996
399.788
399.623
399.479
399.345
399.218
399.096
398.978
398.864
398.753
398.645
398.539
398.435
398.333
398.234
398.136
398.04
397.947
397.855
397.766
397.678
397.592
397.505
397.419
397.333
397.247
397.163
397.079
396.996
396.917
396.839
396.762
396.685
396.607
396.528
396.449
396.369
396.29
396.212
396.133
396.055
395.978
395.902
395.826
395.752
395.679
395.607
395.537
395.467
395.397
395.334
395.53
395.656
395.751
395.83
395.898
395.958
396.012
396.06
396.105
396.145
400
400
400
400
400
400
400
400
400
399.996
399.788
399.624
399.479
399.345
399.219
399.097
398.979
398.865
398.754
398.646
398.54
398.436
398.335
398.235
398.137
398.041
397.947
397.856
397.766
397.678
397.592
397.507
397.422
397.337
397.252
397.168
397.084
397.003
396.923
396.845
396.768
396.689
396.61
396.531
396.452
396.372
396.293
396.214
396.136
396.058
395.981
395.905
395.829
395.755
395.682
395.61
395.539
395.469
395.4
395.336
395.532
395.658
395.753
395.832
395.9
395.96
396.014
396.063
396.107
396.148
400
400
400
400
400
400
400
400
400
399.996
399.788
399.624
399.48
399.346
399.22
399.098
398.981
398.867
398.756
398.647
398.541
398.438
398.336
398.236
398.139
398.043
397.949
397.857
397.766
397.679
397.593
397.509
397.425
397.34
397.256
397.173
397.091
397.009
396.93
396.851
396.772
396.693
396.613
396.534
396.454
396.375
396.296
396.217
396.139
396.061
395.984
395.908
395.832
395.758
395.684
395.612
395.541
395.471
395.401
395.337
395.534
395.659
395.755
395.834
395.902
395.962
396.016
396.065
396.11
396.15
400
400
400
400
400
400
400
400
400
399.996
399.789
399.625
399.481
399.347
399.221
399.099
398.982
398.868
398.757
398.649
398.543
398.439
398.338
398.238
398.14
398.044
397.95
397.858
397.768
397.68
397.594
397.511
397.428
397.344
397.261
397.178
397.096
397.015
396.935
396.856
396.776
396.696
396.616
396.536
396.456
396.377
396.298
396.219
396.141
396.063
395.986
395.91
395.835
395.76
395.687
395.615
395.543
395.473
395.403
395.338
395.535
395.661
395.757
395.836
395.904
395.964
396.018
396.067
396.112
396.153
400
400
400
400
400
400
400
400
400
399.996
399.789
399.625
399.481
399.348
399.222
399.1
398.983
398.869
398.759
398.651
398.545
398.441
398.34
398.24
398.142
398.046
397.952
397.86
397.77
397.682
397.597
397.513
397.431
397.349
397.266
397.184
397.102
397.021
396.94
396.86
396.779
396.699
396.618
396.538
396.459
396.379
396.3
396.221
396.143
396.066
395.989
395.913
395.837
395.763
395.689
395.617
395.545
395.474
395.404
395.34
395.537
395.663
395.759
395.838
395.907
395.967
396.021
396.07
396.114
396.155
400
400
400
400
400
400
400
400
400
399.996
399.789
399.625
399.482
399.349
399.222
399.101
398.985
398.871
398.76
398.652
398.547
398.443
398.342
398.242
398.145
398.049
397.954
397.862
397.772
397.684
397.599
397.516
397.435
397.353
397.271
397.188
397.107
397.025
396.944
396.863
396.782
396.701
396.62
396.54
396.46
396.381
396.302
396.223
396.145
396.068
395.991
395.915
395.839
395.765
395.692
395.619
395.547
395.477
395.406
395.342
395.539
395.665
395.761
395.84
395.909
395.969
396.023
396.072
396.117
396.157
400
400
400
400
400
400
400
400
400
399.996
399.789
399.626
399.482
399.349
399.223
399.103
398.986
398.873
398.762
398.654
398.549
398.446
398.344
398.245
398.147
398.051
397.957
397.865
397.775
397.687
397.602
397.52
397.439
397.357
397.275
397.193
397.111
397.029
396.947
396.866
396.784
396.703
396.622
396.542
396.462
396.383
396.304
396.225
396.147
396.07
395.993
395.917
395.842
395.767
395.694
395.621
395.549
395.478
395.408
395.343
395.54
395.667
395.763
395.842
395.911
395.971
396.025
396.074
396.119
396.159
400
400
400
400
400
400
400
400
400
399.996
399.789
399.626
399.483
399.35
399.224
399.104
398.987
398.874
398.764
398.656
398.551
398.448
398.347
398.247
398.15
398.054
397.96
397.868
397.778
397.69
397.606
397.524
397.442
397.361
397.279
397.196
397.114
397.032
396.949
396.867
396.786
396.705
396.624
396.543
396.464
396.384
396.305
396.227
396.149
396.071
395.995
395.919
395.843
395.769
395.695
395.622
395.551
395.479
395.409
395.344
395.542
395.668
395.764
395.843
395.912
395.972
396.026
396.075
396.12
396.161
400
400
400
400
400
400
400
400
400
399.996
399.789
399.626
399.483
399.351
399.225
399.105
398.989
398.876
398.766
398.659
398.554
398.45
398.349
398.25
398.153
398.057
397.963
397.871
397.781
397.694
397.61
397.528
397.446
397.364
397.282
397.199
397.116
397.034
396.951
396.869
396.787
396.705
396.625
396.544
396.464
396.385
396.306
396.227
396.149
396.072
395.995
395.919
395.844
395.769
395.695
395.622
395.55
395.479
395.408
395.343
395.541
395.667
395.763
395.842
395.911
395.971
396.025
396.074
396.119
396.159
400
400
400
400
400
400
400
400
400
399.996
399.789
399.626
399.483
399.351
399.226
399.106
398.99
398.878
398.768
398.661
398.556
398.453
398.352
398.253
398.155
398.06
397.966
397.874
397.784
397.697
397.613
397.53
397.448
397.366
397.283
397.2
397.117
397.033
396.95
396.868
396.786
396.704
396.623
396.542
396.462
396.382
396.303
396.224
396.146
396.069
395.992
395.915
395.84
395.765
395.691
395.617
395.545
395.473
395.401
395.336
395.534
395.66
395.756
395.835
395.903
395.963
396.017
396.066
396.111
396.151
400
400
400
400
400
400
400
400
400
399.996
399.789
399.626
399.483
399.352
399.227
399.107
398.992
398.879
398.77
398.662
398.558
398.455
398.354
398.255
398.157
398.062
397.968
397.876
397.786
397.699
397.614
397.531
397.448
397.365
397.281
397.197
397.113
397.029
396.945
396.862
396.779
396.697
396.615
396.534
396.453
396.373
396.293
396.214
396.135
396.057
395.979
395.902
395.825
395.749
395.674
395.6
395.527
395.454
395.381
395.315
395.513
395.639
395.735
395.814
395.881
395.941
395.994
396.043
396.087
396.127
400
400
400
400
400
400
400
400
400
399.996
399.788
399.626
399.483
399.351
399.227
399.107
398.991
398.879
398.769
398.662
398.557
398.454
398.352
398.253
398.155
398.059
397.964
397.872
397.781
397.693
397.607
397.523
397.438
397.354
397.268
397.183
397.097
397.012
396.927
396.842
396.758
396.674
396.591
396.509
396.426
396.344
396.263
396.182
396.102
396.022
395.942
395.863
395.785
395.707
395.63
395.554
395.478
395.403
395.329
395.261
395.459
395.584
395.679
395.758
395.825
395.883
395.936
395.983
396.027
396.065
400
400
400
400
400
400
400
400
400
399.996
399.788
399.625
399.482
399.35
399.225
399.105
398.988
398.875
398.764
398.656
398.55
398.445
398.343
398.241
398.142
398.044
397.947
397.853
397.76
397.67
397.581
397.494
397.407
397.319
397.23
397.142
397.053
396.964
396.876
396.788
396.701
396.614
396.528
396.441
396.356
396.27
396.185
396.101
396.017
395.933
395.85
395.767
395.684
395.603
395.521
395.441
395.361
395.281
395.202
395.13
395.329
395.454
395.548
395.625
395.69
395.748
395.798
395.844
395.885
395.921
400
400
400
400
400
400
400
400
400
399.996
399.786
399.621
399.477
399.342
399.215
399.093
398.974
398.857
398.743
398.631
398.521
398.413
398.306
398.2
398.096
397.993
397.892
397.792
397.694
397.598
397.503
397.41
397.316
397.221
397.126
397.031
396.936
396.84
396.745
396.651
396.556
396.462
396.369
396.275
396.182
396.089
395.997
395.905
395.813
395.721
395.63
395.54
395.449
395.36
395.27
395.182
395.093
395.005
394.918
394.838
395.039
395.164
395.257
395.333
395.396
395.451
395.499
395.541
395.578
395.611
400
400
400
400
400
400
400
400
400
399.996
399.779
399.61
399.459
399.318
399.184
399.054
398.926
398.801
398.678
398.556
398.436
398.317
398.199
398.082
397.967
397.852
397.739
397.627
397.517
397.408
397.301
397.194
397.087
396.979
396.87
396.762
396.653
396.544
396.436
396.328
396.22
396.112
396.005
395.898
395.791
395.685
395.579
395.473
395.368
395.263
395.158
395.054
394.951
394.847
394.745
394.642
394.54
394.438
394.337
394.244
394.457
394.588
394.685
394.764
394.829
394.884
394.931
394.971
395.005
395.032
400
400
400
400
400
400
400
400
400
399.995
399.759
399.568
399.399
399.238
399.084
398.933
398.784
398.637
398.492
398.348
398.206
398.064
397.923
397.784
397.645
397.507
397.371
397.237
397.104
396.973
396.843
396.713
396.584
396.454
396.324
396.194
396.064
395.935
395.806
395.677
395.549
395.422
395.296
395.17
395.045
394.921
394.797
394.674
394.552
394.43
394.309
394.189
394.069
393.949
393.83
393.712
393.593
393.475
393.357
393.251
393.513
393.678
393.802
393.903
393.986
394.055
394.111
394.156
394.19
394.212
400
400
400
400
400
400
400
400
400
399.992
399.68
399.439
399.227
399.028
398.837
398.651
398.468
398.289
398.111
397.936
397.762
397.59
397.42
397.252
397.085
396.921
396.758
396.599
396.442
396.288
396.136
395.985
395.834
395.684
395.535
395.386
395.239
395.092
394.947
394.803
394.661
394.52
394.381
394.243
394.106
393.97
393.836
393.703
393.571
393.44
393.309
393.18
393.051
392.922
392.794
392.665
392.536
392.407
392.277
392.17
392.602
392.865
393.057
393.206
393.322
393.413
393.482
393.53
393.56
393.573
400
400
400
400
400
400
400
400
400
399.995
399.757
399.536
399.33
399.134
398.944
398.76
398.579
398.4
398.224
398.05
397.878
397.707
397.538
397.37
397.203
397.039
396.875
396.713
396.553
396.394
396.237
396.082
395.928
395.777
395.627
395.48
395.335
395.192
395.05
394.91
394.769
394.629
394.489
394.349
394.21
394.072
393.936
393.801
393.667
393.535
393.403
393.273
393.144
393.015
392.889
392.762
392.635
392.508
392.379
392.27
392.621
392.871
393.059
393.207
393.324
393.415
393.485
393.534
393.564
393.578
400
400
400
400
400
400
400
400
400
399.997
399.827
399.66
399.5
399.346
399.196
399.048
398.903
398.759
398.617
398.475
398.335
398.196
398.057
397.92
397.782
397.646
397.51
397.375
397.241
397.107
396.974
396.842
396.71
396.58
396.45
396.322
396.195
396.069
395.943
395.818
395.692
395.566
395.439
395.313
395.187
395.061
394.936
394.812
394.689
394.567
394.445
394.324
394.204
394.086
393.967
393.851
393.734
393.618
393.502
393.397
393.576
393.718
393.833
393.928
394.008
394.075
394.13
394.174
394.208
394.231
400
400
400
400
400
400
400
400
400
399.998
399.844
399.696
399.555
399.42
399.29
399.163
399.039
398.917
398.796
398.677
398.56
398.443
398.328
398.213
398.099
397.986
397.874
397.762
397.651
397.54
397.43
397.321
397.212
397.104
396.997
396.89
396.785
396.68
396.576
396.471
396.365
396.259
396.152
396.045
395.937
395.831
395.724
395.618
395.512
395.407
395.303
395.199
395.096
394.994
394.892
394.792
394.692
394.593
394.496
394.404
394.539
394.647
394.734
394.806
394.868
394.92
394.965
395.004
395.036
395.062
400
400
400
400
400
400
400
400
400
399.998
399.848
399.704
399.569
399.44
399.317
399.197
399.081
398.968
398.857
398.747
398.64
398.534
398.429
398.325
398.223
398.121
398.021
397.921
397.822
397.724
397.627
397.531
397.435
397.34
397.246
397.154
397.062
396.971
396.88
396.789
396.696
396.604
396.51
396.417
396.323
396.23
396.137
396.045
395.953
395.861
395.771
395.681
395.591
395.503
395.415
395.328
395.242
395.158
395.074
394.998
395.122
395.224
395.307
395.377
395.436
395.488
395.534
395.575
395.61
395.642
400
400
400
400
400
400
400
400
400
399.998
399.848
399.706
399.571
399.445
399.323
399.207
399.093
398.983
398.875
398.769
398.665
398.563
398.463
398.363
398.266
398.169
398.074
397.979
397.886
397.794
397.702
397.612
397.522
397.434
397.346
397.26
397.175
397.091
397.007
396.923
396.838
396.752
396.665
396.579
396.492
396.407
396.321
396.236
396.152
396.068
395.985
395.903
395.822
395.741
395.662
395.583
395.506
395.43
395.355
395.287
395.41
395.512
395.595
395.666
395.728
395.782
395.83
395.874
395.913
395.949
400
400
400
400
400
400
400
400
400
399.998
399.848
399.705
399.571
399.444
399.323
399.207
399.094
398.985
398.878
398.773
398.67
398.57
398.47
398.373
398.277
398.182
398.089
397.997
397.906
397.816
397.727
397.639
397.552
397.467
397.383
397.3
397.218
397.137
397.056
396.975
396.893
396.81
396.727
396.643
396.56
396.478
396.396
396.315
396.234
396.155
396.075
395.997
395.92
395.843
395.768
395.694
395.621
395.549
395.48
395.416
395.538
395.64
395.725
395.797
395.86
395.915
395.965
396.011
396.052
396.09
400
400
400
400
400
400
400
400
400
399.998
399.848
399.704
399.57
399.443
399.322
399.206
399.093
398.984
398.877
398.772
398.67
398.569
398.471
398.374
398.278
398.184
398.092
398
397.91
397.822
397.734
397.647
397.562
397.478
397.395
397.314
397.234
397.154
397.075
396.995
396.914
396.832
396.75
396.668
396.586
396.505
396.425
396.345
396.266
396.188
396.111