/*--------------------------------*- C++ -*----------------------------------*\
  =========                 |
  \\      /  F ield         | OpenFOAM: The Open Source CFD Toolbox
   \\    /   O peration     | Website:  https://openfoam.org
    \\  /    A nd           | Version:  12
     \\/     M anipulation  |
\*---------------------------------------------------------------------------*/
FoamFile
{
    format      ascii;
    class       volScalarField;
    location    "200/air";
    object      alphat;
}
// * * * * * * * * * * * * * * * * * * * * * * * * * * * * * * * * * * * * * //

dimensions      [1 -1 -1 0 0 0 0];

internalField   nonuniform List<scalar> 
243000
(
0.000153483
0.000153587
0.000150752
0.000146297
0.000140617
0.000134036
0.000126782
0.000119392
0.000112053
0.000105706
0.000101074
0.000106474
0.000118148
0.000128859
0.000138238
0.000146347
0.00015231
0.000156199
0.000155325
0.000153356
0.000149754
0.000146594
0.000143191
0.000139763
0.000136677
0.0001344
0.000133654
0.000134225
0.000138128
0.000143746
0.000625009
0.000609957
0.000590304
0.00056681
0.000541339
0.000514405
0.000487051
0.000461405
0.000438492
0.000422967
0.000416356
0.000442753
0.000476485
0.000510278
0.000541282
0.000569204
0.000590993
0.000607327
0.000606754
0.000600291
0.000587983
0.000576407
0.000563973
0.000552419
0.00054267
0.00053659
0.000536026
0.000540625
0.000555378
0.000578707
0.000829978
0.000843211
0.000847652
0.000844344
0.000835682
0.000822047
0.000804907
0.000787481
0.000772362
0.000767956
0.000780354
0.000839874
0.000904367
0.000967795
0.00102471
0.00107238
0.00110529
0.00112459
0.00111172
0.00108361
0.00104349
0.00100172
0.000957228
0.00091347
0.000872278
0.00083646
0.000808191
0.000787169
0.000778041
0.000780167
0.000891484
0.000907277
0.000912615
0.000909528
0.000900768
0.000887009
0.000870047
0.000853166
0.000839846
0.000838592
0.000858436
0.000918871
0.000981619
0.00104366
0.00110008
0.00114715
0.00117932
0.00119807
0.00118593
0.0011575
0.00111731
0.00107475
0.00102945
0.000984829
0.000942815
0.000906215
0.000877079
0.00085566
0.000845728
0.000848187
0.00094131
0.000959088
0.000965054
0.000962072
0.000953164
0.000939293
0.000922561
0.000906273
0.000894659
0.00089617
0.000921892
0.000981245
0.00104161
0.00110176
0.00115701
0.00120321
0.0012344
0.0012525
0.00124148
0.00121345
0.00117385
0.00113128
0.00108593
0.00104116
0.000998983
0.000962183
0.00093271
0.000911187
0.000900733
0.000903199
0.000986242
0.00100548
0.00101158
0.00100836
0.000998992
0.000984762
0.000968064
0.000952241
0.000942107
0.000946064
0.000976248
0.00103361
0.00109143
0.00114958
0.00120358
0.001249
0.00127933
0.00129699
0.0012874
0.00126032
0.00122172
0.0011796
0.00113459
0.00108999
0.00104791
0.00101114
0.000981555
0.000960069
0.000949399
0.000951793
0.00102997
0.00105014
0.00105582
0.00105192
0.00104166
0.00102671
0.00100975
0.000994177
0.000985216
0.000991368
0.00102462
0.00107968
0.00113499
0.00119129
0.00124414
0.00128899
0.00131874
0.00133624
0.00132835
0.00130266
0.00126535
0.00122403
0.00117966
0.00113546
0.00109365
0.00105704
0.00102748
0.00100616
0.000995518
0.000997865
0.00107459
0.00109518
0.00109986
0.00109479
0.00108317
0.00106708
0.00104953
0.00103396
0.00102582
0.001034
0.00106893
0.0011217
0.00117461
0.0012292
0.00128105
0.00132559
0.0013551
0.00137278
0.00136682
0.00134294
0.00130723
0.00126705
0.00122357
0.00118001
0.0011386
0.00110226
0.0010729
0.00105187
0.00104145
0.00104382
0.00112125
0.0011417
0.00114483
0.0011381
0.00112465
0.00110705
0.00108857
0.00107273
0.001065
0.00107493
0.00111051
0.00116092
0.00121152
0.00126452
0.00131549
0.00135998
0.00138962
0.00140783
0.001404
0.00138235
0.00134859
0.0013099
0.00126765
0.00122497
0.00118416
0.00114826
0.00111925
0.00109867
0.00108861
0.00109109
0.00117036
0.00119003
0.00119113
0.0011823
0.00116664
0.00114715
0.00112745
0.00111106
0.00110332
0.00111458
0.00114995
0.0011979
0.00124628
0.00129778
0.00134791
0.00139251
0.00142266
0.0014418
0.00144026
0.00142128
0.00138983
0.00135305
0.0013124
0.00127094
0.00123101
0.00119576
0.00116732
0.00114734
0.00113779
0.00114042
0.00122175
0.00123992
0.00123866
0.00122732
0.00120911
0.00118749
0.00116629
0.00114902
0.00114083
0.00115291
0.00118734
0.00123274
0.00127892
0.00132897
0.00137827
0.00142303
0.00145401
0.00147445
0.00147539
0.00145949
0.00143077
0.00139632
0.00135769
0.00131788
0.00127921
0.00124492
0.00121728
0.0011981
0.00118919
0.00119199
0.00127483
0.00129073
0.00128687
0.00127266
0.00125165
0.0012277
0.00120475
0.00118627
0.0011772
0.00118952
0.00122241
0.00126514
0.00130918
0.00135774
0.00140617
0.00145103
0.00148301
0.00150514
0.00150871
0.00149628
0.00147072
0.00143905
0.00140291
0.00136522
0.00132826
0.00129534
0.00126881
0.00125063
0.00124248
0.00124547
0.00132857
0.00134149
0.00133481
0.00131753
0.00129354
0.00126711
0.00124218
0.0012221
0.00121176
0.00122371
0.00125461
0.00129461
0.00133647
0.0013835
0.00143095
0.00147578
0.00150885
0.00153287
0.00153925
0.00153063
0.00150864
0.00148018
0.00144701
0.00141196
0.00137724
0.00134613
0.00132108
0.00130413
0.00129683
0.00129999
0.0013816
0.00139095
0.00138129
0.00136083
0.00133382
0.0013048
0.00127759
0.00125554
0.00124362
0.00125464
0.00128321
0.00132045
0.00136009
0.00140548
0.00145183
0.00149654
0.00153065
0.00155661
0.00156585
0.00156123
0.00154323
0.00151841
0.00148863
0.00145673
0.0014248
0.001396
0.00137284
0.00135735
0.00135102
0.00135427
0.00143225
0.00143761
0.00142489
0.00140128
0.00137131
0.00133954
0.00130982
0.0012855
0.00127177
0.00128136
0.00130736
0.00134188
0.00137922
0.00142289
0.001468
0.00151252
0.00154758
0.00157552
0.00158741
0.00158677
0.00157299
0.00155216
0.00152622
0.00149793
0.00146931
0.00144333
0.00142245
0.0014087
0.00140344
0.00140669
0.00147865
0.00147985
0.00146413
0.00143751
0.00140464
0.00137009
0.00133768
0.00131084
0.00129514
0.00130293
0.00132626
0.00135808
0.00139313
0.00143496
0.00147871
0.00152292
0.00155881
0.00158871
0.00160314
0.00160626
0.00159667
0.00157996
0.00155814
0.00153386
0.001509
0.00148632
0.0014681
0.00145633
0.00145227
0.00145543
0.00151881
0.00151618
0.00149755
0.00146812
0.00143249
0.00139517
0.00135999
0.00133058
0.00131306
0.0013189
0.00133957
0.00136867
0.00140141
0.0014412
0.00148336
0.00152708
0.00156362
0.00159519
0.00161229
0.00161882
0.00161331
0.00160068
0.00158306
0.00156293
0.00154209
0.00152311
0.00150793
0.00149835
0.00149557
0.00149857
0.00155108
0.00154502
0.00152371
0.00149177
0.00145352
0.00141355
0.00137598
0.00134547
0.00132852
0.00133302
0.00135092
0.00137677
0.00140672
0.00144345
0.00148278
0.00152496
0.00156184
0.00159482
0.00161404
0.00162374
0.00162205
0.00161338
0.00159989
0.00158393
0.00156724
0.00155208
0.00154012
0.00153289
0.00153148
0.00153426
0.00157405
0.00156497
0.00154129
0.001507
0.00146688
0.00142572
0.00138911
0.00135915
0.00134249
0.00134546
0.00136078
0.00138368
0.00141102
0.00144493
0.00148172
0.00152132
0.00155602
0.00158726
0.00160831
0.00162067
0.00162213
0.00161726
0.00160783
0.00159588
0.00158327
0.00157194
0.00156328
0.00155845
0.00155835
0.00156083
0.00158662
0.00157482
0.00154952
0.00151408
0.00147589
0.00143619
0.00140036
0.00137099
0.00135445
0.00135574
0.0013687
0.00138894
0.00141394
0.00144498
0.00147963
0.00151671
0.00154947
0.00157943
0.00159972
0.00161206
0.00161444
0.00161209
0.00160625
0.00159815
0.00158943
0.00158168
0.00157618
0.00157377
0.00157479
0.00157697
0.00158829
0.00157496
0.00155138
0.00151904
0.00148265
0.00144444
0.00140935
0.00138054
0.00136392
0.00136358
0.00137436
0.00139232
0.00141487
0.00144356
0.00147605
0.00151072
0.00154173
0.0015704
0.00159005
0.00160241
0.00160586
0.00160496
0.00160076
0.00159454
0.00158766
0.00158135
0.0015782
0.00157789
0.00157977
0.00158167
0.00158257
0.0015715
0.00155051
0.00152096
0.00148639
0.00144974
0.00141544
0.00138713
0.00137054
0.00136878
0.00137763
0.00139327
0.00141374
0.00144028
0.00147065
0.00150304
0.00153246
0.0015598
0.00157881
0.00159118
0.00159561
0.00159582
0.00159311
0.00158866
0.00158358
0.00157891
0.00157662
0.0015761
0.00157703
0.00157763
0.00157381
0.00156427
0.00154602
0.00151938
0.00148695
0.00145186
0.00141844
0.00139077
0.00137412
0.00137121
0.00137807
0.00139187
0.00141046
0.00143488
0.00146317
0.00149343
0.00152135
0.00154731
0.00156568
0.00157792
0.00158306
0.00158415
0.00158269
0.00157982
0.0015764
0.00157328
0.00157159
0.00157087
0.00157088
0.00157033
0.00156096
0.001553
0.00153725
0.00151373
0.00148375
0.00145062
0.00141846
0.00139156
0.00137491
0.00137076
0.00137595
0.00138799
0.00140477
0.00142714
0.0014534
0.00148165
0.00150812
0.00153266
0.0015503
0.00156226
0.00156776
0.00156949
0.00156899
0.00156744
0.00156544
0.00156363
0.00156236
0.00156136
0.00156038
0.0015588
0.00154324
0.00153705
0.00152404
0.00150347
0.00147623
0.00144538
0.00141482
0.00138899
0.00137244
0.00136731
0.00137109
0.00138146
0.00139651
0.0014169
0.00144115
0.00146745
0.00149248
0.00151555
0.00153238
0.00154381
0.00154935
0.00155141
0.00155157
0.00155097
0.00155008
0.00154923
0.00154821
0.00154678
0.00154476
0.00154218
0.00151966
0.00151556
0.00150569
0.00148826
0.00146393
0.00143555
0.00140704
0.00138277
0.00136674
0.0013609
0.00136347
0.00137224
0.0013856
0.00140401
0.0014262
0.00145055
0.00147413
0.00149566
0.00151151
0.00152218
0.00152739
0.00152947
0.00152994
0.00152989
0.00152966
0.00152932
0.00152827
0.00152619
0.00152302
0.00151941
0.00148923
0.0014876
0.00148129
0.00146745
0.00144651
0.00142121
0.00139534
0.00137316
0.00135811
0.00135192
0.00135351
0.0013608
0.0013724
0.00138873
0.00140877
0.00143106
0.001453
0.00147278
0.00148735
0.00149697
0.00150156
0.00150329
0.00150364
0.0015036
0.00150354
0.00150321
0.00150179
0.00149877
0.0014942
0.00148945
0.0014506
0.00145215
0.00145025
0.00144082
0.00142427
0.00140324
0.00138123
0.00136231
0.00134925
0.00134364
0.00134474
0.00135103
0.00136105
0.00137514
0.00139241
0.00141214
0.00143172
0.00144897
0.00146154
0.00146948
0.00147286
0.00147363
0.00147318
0.00147245
0.00147171
0.00147055
0.00146803
0.00146354
0.00145715
0.00145092
0.00141637
0.00142247
0.00142571
0.00142242
0.00141309
0.00139957
0.00138512
0.00137255
0.00136418
0.00136106
0.00136268
0.00136805
0.00137578
0.00138611
0.00139847
0.0014128
0.00142761
0.00144037
0.00144934
0.00145456
0.00145609
0.00145531
0.00145327
0.00145082
0.00144823
0.00144504
0.0014404
0.00143376
0.00142498
0.00141648
0.00151048
0.00151935
0.00152645
0.00152978
0.00152946
0.00152595
0.00152069
0.00151424
0.00150766
0.00150188
0.00149725
0.00149401
0.00149127
0.00148905
0.00148678
0.00148748
0.00149097
0.00149553
0.00149983
0.00150398
0.00150755
0.00151091
0.00151398
0.00151695
0.00151946
0.00152083
0.00152062
0.00151858
0.00151434
0.00150926
0.000208966
0.000207678
0.000202658
0.000195631
0.000187182
0.000177901
0.000168419
0.000159914
0.000153215
0.000150845
0.000152483
0.000158792
0.000166918
0.000176898
0.000186869
0.000196159
0.000203652
0.000209715
0.000209129
0.000206648
0.000202712
0.000199094
0.000195248
0.000191524
0.00018833
0.000186235
0.000185846
0.000187044
0.000191147
0.000197945
0.00128889
0.00129063
0.00123701
0.00115747
0.00107407
0.000991813
0.000921444
0.000872247
0.000848045
0.00085899
0.000876432
0.00091301
0.000957639
0.00102206
0.00109147
0.00115346
0.00119767
0.00124486
0.00125412
0.00123658
0.00120186
0.00116047
0.00111257
0.00107021
0.00103683
0.00101702
0.00101078
0.00101399
0.00102422
0.00105939
0.00240817
0.00248653
0.00242156
0.00228713
0.00213759
0.00198601
0.00185474
0.00176302
0.00172514
0.0017556
0.00179831
0.00187769
0.00196971
0.00209763
0.00223801
0.00235194
0.00242938
0.00251829
0.0025458
0.00251283
0.00244011
0.00235212
0.00225018
0.00215582
0.00207871
0.00202856
0.0020061
0.0020061
0.00202469
0.00209407
0.00340178
0.00354041
0.00347379
0.0033136
0.00312845
0.00293531
0.00276559
0.00264683
0.00260741
0.0026584
0.00273057
0.00284833
0.00297972
0.00315804
0.0033557
0.00350776
0.00360869
0.00372918
0.00377452
0.00373103
0.00362836
0.00350248
0.00335656
0.00321523
0.00309488
0.00301097
0.00296634
0.00296026
0.00298606
0.00308174
0.00427394
0.00443571
0.0043654
0.00419775
0.0040039
0.00379791
0.00361866
0.0034941
0.00346907
0.0035368
0.00362726
0.00377012
0.00392705
0.00413857
0.00437347
0.00454936
0.00466734
0.0048044
0.00486483
0.0048142
0.004693
0.00454208
0.00436703
0.00420172
0.00406014
0.0039582
0.00389853
0.00387911
0.00388889
0.00398416
0.00502638
0.00518427
0.00511046
0.00495137
0.00476616
0.00456619
0.00439329
0.00427682
0.00426883
0.0043518
0.00446038
0.00461992
0.00479498
0.00501064
0.0052614
0.00544707
0.00557705
0.00571634
0.00579206
0.00575647
0.00562958
0.00546273
0.00527086
0.00508299
0.00491686
0.00479205
0.0047144
0.00468213
0.00469217
0.00478165
0.0056815
0.00582061
0.00574142
0.00559959
0.00542939
0.00524513
0.00508998
0.00499165
0.00500095
0.00509398
0.00521247
0.00537571
0.00554895
0.00576092
0.00601151
0.00619723
0.00633469
0.00646956
0.00655442
0.00652519
0.00640315
0.00623567
0.0060412
0.00584586
0.0056693
0.00553176
0.00544047
0.00539778
0.00540608
0.00548056
0.00626297
0.00637689
0.006291
0.00616749
0.00601121
0.00584688
0.00571329
0.00563669
0.00565985
0.00575634
0.00587599
0.00603336
0.00619726
0.00639395
0.00663241
0.00681333
0.00695349
0.00708336
0.00717513
0.00715862
0.00704825
0.00688883
0.00670057
0.00650733
0.00632867
0.00618505
0.00608574
0.00603574
0.00604098
0.0060981
0.0067911
0.00687735
0.00678586
0.00667354
0.00652994
0.0063848
0.00627227
0.00621432
0.00624611
0.0063395
0.00645252
0.0065969
0.00674507
0.0069227
0.00714166
0.0073161
0.00745612
0.00758412
0.00768131
0.00768204
0.00758849
0.00744337
0.00726781
0.00708365
0.00690961
0.00676601
0.00666402
0.0066102
0.00661184
0.00665408
0.00727916
0.0073361
0.00724029
0.00713311
0.0069993
0.00686996
0.00677477
0.0067304
0.00676413
0.0068483
0.00694867
0.00707529
0.00720427
0.00736107
0.00755789
0.00772507
0.00786532
0.00799608
0.008097
0.00811865
0.00804566
0.00791941
0.00776129
0.00759139
0.00742737
0.00728901
0.0071889
0.00713449
0.0071327
0.00716436
0.007733
0.00775751
0.00766174
0.0075542
0.00742671
0.00730917
0.0072263
0.00718982
0.00721852
0.00728843
0.00737176
0.00747774
0.00758584
0.00772137
0.00789581
0.00805547
0.00819709
0.00833446
0.00844054
0.00848425
0.00843473
0.00833058
0.00819351
0.00804202
0.00789255
0.00776384
0.00766931
0.00761712
0.00761314
0.00763711
0.00815195
0.00814213
0.00804941
0.00793773
0.00781367
0.00770411
0.00762849
0.00759426
0.0076116
0.00766306
0.00772692
0.00781061
0.0078976
0.00801203
0.00816486
0.00831604
0.00845997
0.00860607
0.00872172
0.00878634
0.00876266
0.00868306
0.00856976
0.00844003
0.00830889
0.00819368
0.00810797
0.00806029
0.00805538
0.00807355
0.00853032
0.00848796
0.00839558
0.00827929
0.00815689
0.00805203
0.00797865
0.00794115
0.00794264
0.00797287
0.00801592
0.00807696
0.00814309
0.00823717
0.00836883
0.00851065
0.00865765
0.00881244
0.00894137
0.00902455
0.00902948
0.00897659
0.00888904
0.00878367
0.00867403
0.00857567
0.0085016
0.00846039
0.00845523
0.00846889
0.00885875
0.00878741
0.0086912
0.00857122
0.00844949
0.00834626
0.00827016
0.00822501
0.00820998
0.00821726
0.00823858
0.00827708
0.00832288
0.00839714
0.00850817
0.00864154
0.00879068
0.0089526
0.00909541
0.00919431
0.00922904
0.0092057
0.00914577
0.00906684
0.00898129
0.00890248
0.00884248
0.00880946
0.008805
0.00881371
0.00912507
0.00902928
0.00892756
0.00880409
0.0086822
0.00857731
0.00849707
0.00844168
0.00840881
0.00839297
0.00839195
0.00840874
0.00843559
0.00849028
0.00858143
0.00870677
0.00885694
0.00902858
0.00917986
0.00929381
0.00935237
0.00936018
0.00933032
0.00928012
0.00922104
0.00916429
0.00912023
0.00909687
0.00909468
0.00909685
0.00931493
0.00920415
0.00909498
0.00896784
0.00884537
0.00873923
0.00865272
0.00858444
0.00853174
0.00849522
0.00847227
0.00846905
0.00847959
0.00851343
0.00858663
0.00870365
0.00885385
0.00903408
0.0091951
0.00932252
0.00939856
0.00943286
0.00943199
0.00941168
0.00938104
0.00934928
0.00932307
0.00931067
0.0093119
0.00930754
0.00941526
0.00930429
0.00918409
0.00905514
0.00893307
0.00882465
0.00872975
0.0086462
0.00857271
0.00851642
0.00847565
0.00845505
0.0084515
0.00846459
0.00852233
0.00862986
0.00877912
0.00896153
0.00913707
0.00927583
0.00936975
0.00942347
0.00944886
0.00945503
0.00945041
0.00944323
0.00943795
0.0094389
0.00944469
0.00943465
0.00942561
0.0093143
0.0091883
0.00906015
0.00893896
0.00882655
0.00872077
0.00861818
0.00851676
0.0084365
0.00838126
0.00834774
0.00833097
0.00832851
0.00837823
0.00848425
0.00863176
0.00881216
0.00899545
0.00914954
0.00926067
0.00933329
0.00937796
0.00941029
0.00942989
0.00944317
0.0094551
0.00946829
0.00948166
0.00946931
0.00934543
0.00923134
0.00910343
0.00897834
0.00885696
0.00873593
0.00860197
0.00847105
0.0083473
0.00824641
0.00817736
0.00813442
0.00809855
0.00807881
0.00811726
0.00822851
0.00839782
0.00860345
0.00879576
0.00895644
0.00907262
0.00915958
0.00922161
0.00927557
0.00931786
0.00934901
0.00937629
0.00940045
0.0094206
0.00940725
0.00917762
0.00905784
0.0089347
0.00881236
0.00867256
0.00852739
0.00837178
0.00821968
0.0080776
0.00795418
0.00787028
0.00781346
0.00776214
0.00772934
0.0077554
0.00786378
0.00803568
0.0082512
0.00846004
0.00864528
0.0087878
0.00889555
0.0089878
0.00905672
0.00911506
0.00916107
0.00920184
0.00923606
0.00926355
0.00925586
0.00894929
0.00883014
0.00869876
0.00855743
0.00840342
0.00824249
0.00807036
0.00788454
0.00770703
0.00756525
0.00747293
0.00740909
0.0073442
0.00729795
0.00731246
0.00741347
0.00758128
0.0077932
0.0080041
0.00819963
0.0083559
0.00848759
0.00861006
0.00871498
0.00880428
0.00886886
0.00891922
0.00896312
0.00899626
0.00900874
0.00858293
0.00842905
0.00828868
0.00814439
0.00799102
0.0078211
0.00763196
0.00743366
0.00724939
0.00709957
0.00700292
0.00693225
0.0068601
0.00680669
0.00681267
0.00690538
0.0070647
0.00726327
0.00746435
0.00765382
0.00780948
0.00795085
0.00808995
0.00822044
0.00833701
0.00842614
0.00849501
0.00855918
0.00861493
0.00865556
0.00803938
0.00788541
0.00776063
0.00762623
0.00747448
0.00730287
0.00711137
0.00691195
0.00672745
0.00657803
0.00647951
0.00640448
0.00633273
0.00628153
0.00628424
0.00637097
0.00652015
0.00670008
0.00688207
0.00704989
0.00719018
0.00732452
0.00746352
0.00760449
0.0077381
0.00784716
0.0079273
0.00800129
0.00806718
0.00812066
0.00736419
0.00723443
0.00713756
0.00702592
0.0068835
0.00671752
0.00653176
0.00633938
0.00616317
0.00602269
0.00592514
0.00585296
0.00579041
0.00575117
0.00575893
0.0058452
0.00598534
0.00614603
0.0063026
0.00643734
0.00654792
0.00665693
0.00677684
0.00690956
0.00704402
0.00716134
0.00724587
0.00732203
0.00738967
0.00744698
0.00660493
0.00651149
0.00644592
0.00636396
0.00623941
0.00608661
0.00591552
0.00573791
0.00558285
0.00545875
0.00536866
0.00531065
0.00526703
0.00524948
0.00527332
0.00536722
0.00550197
0.00564703
0.00577614
0.00587166
0.00594198
0.00600743
0.00608672
0.00618824
0.00630115
0.00640724
0.00648738
0.00655914
0.00662299
0.00667926
0.00580304
0.00574969
0.00570834
0.00566187
0.00556597
0.00543489
0.00529317
0.00515176
0.00502187
0.00492142
0.00485148
0.00481948
0.00480472
0.0048155
0.00486711
0.00498174
0.00512862
0.00527194
0.00537947
0.00543234
0.00544359
0.00544633
0.00546559
0.00551158
0.00557268
0.00563985
0.00569971
0.00575598
0.00580812
0.00585805
0.00501062
0.00498681
0.00497273
0.00495558
0.00490545
0.00481701
0.00471282
0.00461214
0.00452575
0.00446261
0.00442597
0.00442491
0.00444809
0.00450759
0.00460514
0.00474677
0.00490677
0.00505273
0.00514752
0.00517728
0.00515229
0.00509625
0.00503136
0.00497612
0.00495375
0.00495364
0.00496877
0.00498741
0.00500739
0.00503761
0.00429216
0.00430444
0.0043247
0.00433731
0.00432732
0.00429089
0.00423737
0.0041862
0.00415015
0.00413925
0.00415513
0.00419531
0.00425512
0.00434778
0.00447343
0.00463136
0.0048059
0.00495479
0.00504824
0.00507299
0.00503676
0.00495813
0.00485426
0.00474
0.00462997
0.00452861
0.00444062
0.00437918
0.00433175
0.00430695
0.00395148
0.00395815
0.00397261
0.00398412
0.00398906
0.00398679
0.00398238
0.00397987
0.00398562
0.00400664
0.00404469
0.00410411
0.00418542
0.00430075
0.00445405
0.00463539
0.00482939
0.00499324
0.00509493
0.00512763
0.00509291
0.00501033
0.00489316
0.00475486
0.0046086
0.00446318
0.00432541
0.00420306
0.00409575
0.00399933
0.00424121
0.00420645
0.0041714
0.00413902
0.00411536
0.0041023
0.00410194
0.00411184
0.00413256
0.0041674
0.00422
0.00429844
0.00440888
0.00456519
0.00476994
0.00500791
0.00525084
0.00545764
0.00559418
0.00565482
0.00563693
0.00556104
0.00543779
0.00528281
0.00511108
0.00493568
0.00476612
0.00460896
0.00446359
0.00432212
0.000247209
0.000245366
0.000239242
0.000230776
0.000220847
0.000210215
0.000199833
0.000191082
0.000184764
0.000183563
0.000185451
0.000190965
0.000198159
0.000207993
0.000218269
0.000228027
0.00023641
0.000243895
0.000242476
0.000239027
0.000234591
0.000231395
0.00022816
0.000225081
0.000222441
0.000220797
0.000220707
0.000222196
0.000226233
0.000233723
0.0017904
0.001868
0.00180694
0.00170301
0.00159253
0.00148497
0.00139283
0.00133111
0.00130371
0.00132515
0.00135887
0.00141138
0.0014676
0.00155752
0.00165403
0.00173031
0.00176153
0.00179816
0.00180719
0.00179147
0.00175696
0.00169902
0.00163262
0.00157571
0.00153222
0.00150716
0.00149771
0.00150081
0.00150656
0.00154764
0.00344979
0.0036183
0.00354276
0.00337034
0.00318288
0.00299791
0.00284329
0.00274409
0.00271708
0.00277511
0.00285004
0.00295463
0.00306253
0.00322254
0.00339681
0.00350604
0.00354683
0.00362125
0.00366085
0.00364332
0.00357758
0.00347161
0.00334047
0.00321843
0.0031189
0.00305472
0.00302512
0.00302401
0.00303951
0.00312327
0.00490849
0.00511683
0.00503641
0.00483286
0.00461412
0.00439389
0.00421367
0.00410295
0.00409222
0.00418194
0.00429177
0.00443444
0.00457708
0.00477592
0.00499553
0.0051129
0.00515792
0.00526996
0.00534524
0.00533742
0.00525427
0.00511995
0.00494433
0.00477195
0.00462341
0.00451654
0.00445972
0.0044461
0.00447158
0.00458441
0.00618419
0.00638749
0.00628007
0.00607061
0.00584705
0.00562541
0.00544778
0.00534735
0.0053585
0.00547062
0.00560555
0.00577011
0.0059266
0.00613663
0.00637022
0.00648345
0.0065357
0.00667104
0.00678297
0.00679255
0.00670296
0.00655626
0.00635712
0.00615412
0.00597652
0.00585313
0.00578552
0.00576666
0.00577427
0.00587182
0.00723119
0.00739935
0.00728555
0.00709778
0.00689619
0.00669055
0.00653152
0.00645153
0.00648647
0.00661328
0.00676245
0.00693344
0.0070988
0.007288
0.00750343
0.00760593
0.00766953
0.00780707
0.00795524
0.00800377
0.00794355
0.0077957
0.00758052
0.00735178
0.0071483
0.00699912
0.00690751
0.00687045
0.00688116
0.0069671
0.00811353
0.00824558
0.00812733
0.00796859
0.00778713
0.00760562
0.00747149
0.00741304
0.00746559
0.00759856
0.00775148
0.00791877
0.00806711
0.00822482
0.00841481
0.00850451
0.00857826
0.00870928
0.00888787
0.00896048
0.0089128
0.0087757
0.0085736
0.00834853
0.00813995
0.00797727
0.00786982
0.00781956
0.00782909
0.00789711
0.00887859
0.00897596
0.00885442
0.00871866
0.0085543
0.00839638
0.00828586
0.00824496
0.00830739
0.00843843
0.00858586
0.00873876
0.00886485
0.00898665
0.009144
0.00922292
0.00930122
0.0094285
0.00962681
0.00972211
0.00969442
0.00957619
0.00939405
0.00918243
0.00897909
0.00881403
0.00870026
0.00864327
0.00864973
0.0087014
0.00956321
0.00962723
0.0095038
0.00937954
0.00922881
0.00908972
0.00899743
0.00896828
0.00903256
0.00915488
0.00928948
0.00942139
0.00952103
0.00960896
0.00973509
0.0098065
0.00988694
0.0100134
0.0102241
0.0103404
0.0103358
0.0102406
0.0100828
0.00989123
0.00970103
0.00954206
0.00942998
0.00937238
0.00937629
0.0094166
0.0101898
0.0102198
0.0100958
0.00997526
0.00983306
0.00970683
0.00962658
0.00960353
0.00966262
0.00977078
0.00988736
0.00999472
0.0100673
0.0101245
0.0102265
0.0102938
0.0103768
0.0105051
0.0107231
0.0108582
0.0108768
0.0108063
0.0106746
0.0105072
0.0103355
0.0101886
0.010084
0.0100304
0.0100339
0.0100673
0.0107669
0.0107593
0.0106407
0.0105166
0.0103784
0.0102602
0.0101866
0.0101651
0.010213
0.0103032
0.0103987
0.0104807
0.0105279
0.0105598
0.0106449
0.0107115
0.0107989
0.0109312
0.0111527
0.0113038
0.0113437
0.0112971
0.0111914
0.0110503
0.0109005
0.0107696
0.0106762
0.01063
0.0106349
0.0106656
0.0112931
0.0112481
0.0111345
0.0110035
0.0108661
0.0107527
0.010682
0.0106587
0.0106911
0.0107615
0.0108351
0.0108926
0.0109177
0.0109305
0.0110052
0.0110744
0.0111681
0.0113066
0.011528
0.0116922
0.0117499
0.0117249
0.0116431
0.0115283
0.0114019
0.0112897
0.0112099
0.0111731
0.0111806
0.0112114
0.0117593
0.0116802
0.0115671
0.0114291
0.0112909
0.0111804
0.0111099
0.011083
0.0110976
0.0111481
0.0112006
0.0112362
0.0112431
0.0112433
0.0113116
0.0113869
0.0114895
0.0116362
0.0118545
0.0120282
0.0120987
0.0120913
0.0120302
0.0119394
0.0118369
0.0117444
0.0116798
0.0116537
0.0116659
0.0116951
0.0121514
0.012044
0.0119256
0.0117819
0.0116433
0.0115344
0.0114626
0.0114297
0.01143
0.0114602
0.0114936
0.0115108
0.0115041
0.0114979
0.0115626
0.0116473
0.0117612
0.0119174
0.0121322
0.0123105
0.0123876
0.0123914
0.0123463
0.0122762
0.0121964
0.0121239
0.0120751
0.0120604
0.0120784
0.0121043
0.0124499
0.0123244
0.0121972
0.0120487
0.0119108
0.0118032
0.0117296
0.0116907
0.0116798
0.0116921
0.0117095
0.0117123
0.0116972
0.0116898
0.0117532
0.0118501
0.0119781
0.0121443
0.012356
0.0125342
0.0126113
0.0126184
0.0125817
0.0125254
0.0124661
0.0124135
0.0123807
0.0123777
0.0124023
0.0124246
0.0126329
0.0125095
0.0123677
0.0122162
0.0120809
0.0119752
0.0119006
0.0118578
0.0118389
0.0118349
0.0118383
0.0118317
0.0118135
0.01181
0.0118747
0.0119859
0.0121324
0.0123093
0.0125184
0.0126925
0.0127635
0.0127655
0.0127287
0.0126776
0.0126317
0.0125959
0.0125779
0.0125864
0.0126185
0.0126387
0.0126996
0.0125736
0.0124228
0.0122722
0.012142
0.0120415
0.011967
0.0119174
0.0118887
0.0118703
0.0118622
0.0118526
0.0118366
0.0118404
0.0119114
0.0120409
0.0122141
0.0124044
0.0126115
0.0127779
0.0128376
0.0128271
0.0127816
0.0127264
0.012684
0.0126588
0.0126519
0.0126705
0.012711
0.0127312
0.0126413
0.0125064
0.0123523
0.0122073
0.012086
0.0119876
0.0119059
0.0118457
0.0118087
0.0117824
0.0117692
0.0117636
0.0117529
0.0117664
0.0118482
0.0119973
0.0122036
0.0124176
0.0126274
0.0127837
0.0128287
0.0128002
0.0127386
0.0126697
0.0126198
0.0125954
0.0125934
0.0126191
0.0126679
0.0126914
0.0124562
0.012303
0.0121489
0.0120099
0.0118899
0.011787
0.0116978
0.0116329
0.0115944
0.011568
0.0115586
0.0115619
0.011557
0.0115874
0.0116852
0.0118563
0.01209
0.0123319
0.0125456
0.0126914
0.0127233
0.0126782
0.0125991
0.0125125
0.012444
0.0124055
0.0123991
0.0124266
0.0124828
0.0125163
0.0121478
0.0119647
0.0118209
0.0116962
0.0115844
0.0114749
0.0113704
0.0112847
0.0112457
0.011231
0.011229
0.0112443
0.0112537
0.0113065
0.0114262
0.011623
0.0118825
0.012149
0.0123691
0.0124896
0.0125016
0.0124311
0.0123199
0.0122135
0.0121305
0.0120764
0.0120602
0.0120902
0.0121514
0.0122001
0.0116477
0.0114475
0.0113094
0.0111983
0.0110947
0.0109857
0.0108777
0.0107937
0.0107722
0.0107745
0.0107798
0.0108124
0.0108521
0.0109325
0.0110809
0.0113088
0.0115944
0.0118846
0.0121091
0.0121998
0.0121853
0.0120869
0.0119465
0.0118027
0.011681
0.0115966
0.0115595
0.0115883
0.0116582
0.0117192
0.0109536
0.0107646
0.0106414
0.0105517
0.0104641
0.0103625
0.0102592
0.010184
0.0101887
0.0102135
0.0102425
0.0103001
0.0103683
0.0104816
0.0106673
0.0109335
0.0112486
0.0115627
0.0117868
0.0118499
0.0118019
0.0116639
0.0114796
0.0112873
0.0111184
0.0109924
0.0109189
0.0109155
0.0109775
0.0110433
0.0101026
0.00994139
0.00983943
0.00977452
0.00971173
0.00962469
0.00953871
0.00949582
0.00952383
0.00957448
0.0096366
0.00972318
0.00982643
0.00997913
0.0102121
0.0105263
0.0108757
0.0112149
0.0114369
0.0114727
0.0113851
0.0111985
0.0109602
0.0107115
0.0104877
0.0103093
0.0101857
0.0101349
0.0101548
0.0102022
0.00918161
0.00904604
0.00895759
0.00891143
0.00888432
0.00883011
0.00878017
0.00877077
0.00882077
0.00889934
0.00899554
0.00911711
0.00926093
0.00946032
0.00975203
0.0101254
0.0105169
0.0108824
0.0111052
0.0111154
0.0109894
0.0107467
0.0104462
0.0101351
0.00984786
0.00960762
0.00942259
0.00931222
0.00927785
0.00928055
0.00827564
0.00816818
0.008101
0.0080741
0.00807508
0.00805387
0.00803814
0.00806013
0.0081333
0.00823747
0.00836697
0.00852488
0.00871502
0.00897011
0.00933312
0.00977911
0.0102225
0.0106188
0.0108497
0.0108384
0.0106731
0.010377
0.0100137
0.00963342
0.00927108
0.0089585
0.00870818
0.00853036
0.00843062
0.00837706
0.00747198
0.00738935
0.00734692
0.00733684
0.00734844
0.00735636
0.00737258
0.00742389
0.00751907
0.00764602
0.00780499
0.00800036
0.0082405
0.00856324
0.00901357
0.00954807
0.010056
0.0104928
0.0107456
0.0107221
0.0105246
0.0101768
0.00974615
0.009289
0.00884795
0.00845553
0.00812834
0.00787865
0.00770628
0.00758522
0.00686757
0.0067988
0.00676947
0.00676759
0.00677686
0.00679952
0.00684205
0.00691801
0.00703805
0.00719031
0.00737757
0.00761247
0.00791043
0.00831455
0.00887011
0.00950937
0.010094
0.0105833
0.0108776
0.0108616
0.0106524
0.0102655
0.00976867
0.0092261
0.00869289
0.00820747
0.00779126
0.00745702
0.00720287
0.00700477
0.00660694
0.00652381
0.00647721
0.00645918
0.00646076
0.00648702
0.00654842
0.00664685
0.00678958
0.00697251
0.00719543
0.00747583
0.00783791
0.00833024
0.00900136
0.00976021
0.0104323
0.0109887
0.0113491
0.0113726
0.0111871
0.0107942
0.0102592
0.00964992
0.00902233
0.00842564
0.00789104
0.00744348
0.00708186
0.00678501
0.00708717
0.00693367
0.00681517
0.00673365
0.00669182
0.00669462
0.00675602
0.00686477
0.0070197
0.00721469
0.00745551
0.00777012
0.00819155
0.00877442
0.00956434
0.0104484
0.0112133
0.0118517
0.0123027
0.0124162
0.01231
0.0119718
0.0114604
0.0108387
0.0101656
0.00948748
0.00884677
0.00827413
0.00777836
0.00734702
0.00918409
0.00887268
0.00859216
0.00835765
0.00818344
0.0080763
0.00805234
0.00809184
0.00818636
0.00833151
0.00853994
0.00884896
0.00929508
0.00994515
0.010821
0.0117854
0.0126255
0.0133506
0.0139082
0.0141875
0.0142391
0.0140658
0.0137027
0.0132012
0.0126061
0.0119626
0.0113118
0.0106858
0.0101022
0.00955604
0.000277519
0.000276144
0.000267738
0.000257576
0.000246087
0.000234033
0.000222967
0.000213717
0.000206802
0.00020463
0.000204981
0.000209157