/*--------------------------------*- C++ -*----------------------------------*\
  =========                 |
  \\      /  F ield         | OpenFOAM: The Open Source CFD Toolbox
   \\    /   O peration     | Website:  https://openfoam.org
    \\  /    A nd           | Version:  12
     \\/     M anipulation  |
\*---------------------------------------------------------------------------*/
FoamFile
{
    format      ascii;
    class       volScalarField;
    location    "200/air";
    object      epsilon;
}
// * * * * * * * * * * * * * * * * * * * * * * * * * * * * * * * * * * * * * //

dimensions      [0 2 -3 0 0 0 0];

internalField   nonuniform List<scalar> 
243000
(
2.62814
3.06679
3.36745
3.55633
3.62627
3.5803
3.42612
3.20761
2.94536
2.72314
2.61194
3.32632
4.70686
6.24638
7.78501
9.19009
10.1485
10.5656
9.85913
8.89451
7.66997
6.56998
5.5253
4.5884
3.79757
3.16994
2.71813
2.38687
2.24129
2.16938
2.18261
2.36362
2.48874
2.54612
2.54703
2.49133
2.39128
2.27926
2.17394
2.14958
2.24771
2.89351
3.75763
4.7371
5.7181
6.62457
7.27291
7.62341
7.21871
6.5503
5.69461
4.89885
4.1407
3.4754
2.91574
2.47455
2.15059
1.91273
1.78774
1.73791
2.63161
2.76321
2.81155
2.78152
2.69811
2.56861
2.41209
2.26135
2.14057
2.11734
2.25101
2.8068
3.48449
4.24834
5.02114
5.73717
6.26664
6.58904
6.34512
5.86671
5.23491
4.62867
4.03767
3.5091
3.05658
2.6966
2.43353
2.24982
2.17233
2.18994
3.2626
3.44428
3.51049
3.47799
3.37988
3.2278
3.04722
2.87659
2.75309
2.75807
2.99251
3.66362
4.445
5.31929
6.20653
7.01905
7.61021
7.96671
7.70445
7.15268
6.42786
5.71753
5.02299
4.39773
3.85965
3.42876
3.10979
2.88877
2.78941
2.81311
3.84404
4.07241
4.15419
4.11875
4.00658
3.83445
3.63435
3.44931
3.3296
3.36761
3.70093
4.45136
5.30229
6.25204
7.21781
8.0984
8.72795
9.10479
8.84265
8.24538
7.45796
6.67156
5.89894
5.19882
4.59331
4.10557
3.74101
3.48911
3.37073
3.39749
4.42689
4.69835
4.78969
4.74668
4.61625
4.42166
4.20176
4.00388
3.89056
3.96514
4.38934
5.19545
6.09516
7.10029
8.1261
9.06202
9.72116
10.1157
9.86835
9.24598
8.41525
7.56987
6.7338
5.97024
5.30611
4.76841
4.36338
4.08437
3.95042
3.97917
5.05081
5.36159
5.45381
5.39549
5.23902
5.01598
4.77276
4.56104
4.45385
4.56838
5.07029
5.91816
6.85359
7.90368
8.98072
9.9687
10.6574
11.073
10.8528
10.2216
9.361
8.4687
7.57826
6.7576
6.0391
5.45428
5.01112
4.70726
4.56067
4.59174
5.74829
6.09362
6.17602
6.09194
5.89885
5.63879
5.36647
5.13791
5.03446
5.19114
5.75636
6.63641
7.59932
8.688
9.81249
10.8543
11.5781
12.0223
11.8408
11.2166
10.338
9.40876
8.47066
7.59726
6.82606
6.19491
5.71485
5.38758
5.23081
5.26541
6.54603
6.91918
6.97918
6.85654
6.61427
6.30677
5.99793
5.74787
5.64371
5.84202
6.45693
7.36049
8.34436
9.46762
10.6376
11.7365
12.5042
12.9876
12.8566
12.256
11.3726
10.417
9.43862
8.51674
7.69453
7.01746
6.50139
6.15206
5.98719
6.02703
7.46425
7.85515
7.87844
7.70283
7.39753
7.03108
6.67713
6.39922
6.28807
6.5242
7.17488
8.09301
9.09242
10.2466
11.4598
12.6181
13.4391
13.9749
13.9061
13.3484
12.4755
11.507
10.4984
9.53455
8.66499
7.94388
7.39326
7.02365
6.85289
6.8995
8.51559
8.9084
8.88102
8.63604
8.25312
7.81601
7.40737
7.09363
6.96738
7.23425
7.90602
8.82947
9.83831
11.0188
12.2714
13.4886
14.3716
14.9735
14.9796
14.4857
13.6426
12.6777
11.653
10.658
9.74881
8.98836
8.40637
8.01946
7.84568
7.90037
9.70263
10.076
9.98407
9.65234
9.17682
8.65729
8.18391
7.82474
7.67387
7.96072
8.6389
9.55721
10.5686
11.7684
13.0542
14.3257
15.2763
15.9581
16.0517
15.6444
14.8533
13.9125
12.8902
11.8805
10.9443
10.1539
9.54705
9.14748
8.97434
9.03856
11.0143
11.3431
11.1714
10.7367
10.1547
9.54151
8.99264
8.5767
8.39107
8.68408
9.35382
10.2563
11.2615
12.4715
13.7805
15.0986
16.1183
16.8888
17.0824
16.7844
16.0702
15.1777
14.181
13.1784
12.2342
11.4285
10.8076
10.4027
10.2345
10.3092
12.4219
12.679
12.4122
11.8611
11.1616
10.4447
9.80818
9.32349
9.0939
9.37758
10.0243
10.9004
11.8889
13.0975
14.4172
15.7726
16.8573
17.7183
18.0198
17.85
17.2397
16.4222
15.4781
14.5094
13.5824
12.7819
12.1626
11.7627
11.6052
11.69
13.8764
14.0349
13.6605
12.9843
12.1602
11.3296
10.5952
10.0316
9.74992
10.0086
10.6186
11.4582
12.4182
13.6125
14.9291
16.3106
17.4525
18.4036
18.8097
18.7785
18.2943
17.5792
16.7177
15.8125
14.9325
14.1635
13.566
13.1847
13.0452
13.1379
15.3074
15.3465
14.8573
14.0519
13.1
12.1507
11.3118
10.6615
10.3215
10.5413
11.1031
11.8968
12.8173
13.983
15.2813
16.6752
17.8635
18.8995
19.4073
19.5143
19.1677
18.5753
17.8234
17.0127
16.2109
15.5037
14.9514
14.6045
14.4917
14.5895
16.6265
16.5419
15.9334
15.0016
13.9244
12.8573
11.9121
11.1731
10.7768
10.9491
11.4551
12.1925
13.0632
14.1835
15.4454
16.8347
18.0532
19.1599
19.7706
20.0068
19.8045
19.347
18.7235
18.0297
17.333
16.717
16.2366
15.9417
15.8639
15.9634
17.7441
17.5373
16.8149
15.7683
14.5739
13.3958
12.3582
11.5613
11.1637
11.299
11.7434
12.406
13.209
14.2482
15.4293
16.7811
18.0117
19.1673
19.8604
20.2161
20.1547
19.8382
19.3543
18.7936
18.2224
17.7181
17.3292
17.1015
17.0676
17.1664
18.5734
18.2537
17.431
16.281
14.9995
13.7533
12.7207
11.9262
11.5213
11.6132
11.9973
12.5899
13.3278
14.291
15.3972
16.6545
17.8048
18.9117
19.667
20.1203
20.1789
20.0034
19.6661
19.2438
18.8101
18.4303
18.1477
17.9986
18.0097
18.104
19.0442
18.6232
17.7303
16.5283
15.2801
14.0656
13.0374
12.2472
11.8326
11.8769
12.2027
12.7305
13.4079
14.2908
15.3298
16.4973
17.5761
18.6228
19.3434
19.792
19.8928
19.8261
19.6218
19.3422
19.0456
18.7914
18.6198
18.5555
18.6077
18.6952
19.119
18.642
17.7892
16.6872
15.4926
14.3142
13.2933
12.5077
12.0816
12.0784
12.349
12.8195
13.4303
14.246
15.2145
16.297
17.3102
18.2967
18.9859
19.4316
19.5731
19.5515
19.409
19.1997
18.9723
18.778
18.7027
18.7135
18.7981
18.8782
18.8944
18.5021
17.7527
16.7461
15.6098
14.4736
13.4672
12.6876
12.2549
12.2103
12.4306
12.8397
13.3943
14.1448
15.0426
16.0448
16.9959
17.9209
18.5791
19.0199
19.1925
19.2078
19.1201
18.9766
18.8165
18.6843
18.6316
18.6343
18.6838
18.7171
18.5644
18.2323
17.59
16.6875
15.6249
14.5358
13.5517
12.7846
12.3448
12.2669
12.4353
12.7952
13.2959
13.9806
14.8085
15.7342
16.625
17.4873
18.1129
18.5429
18.7337
18.7779
18.735
18.649
18.5502
18.4728
18.4391
18.4339
18.4499
18.4421
18.0951
17.8243
17.2813
16.4928
15.5189
14.4937
13.5479
12.8012
12.3579
12.2442
12.3698
12.681
13.129
13.7497
14.5083
15.3601
16.1911
16.9896
17.5795
17.9907
18.1864
18.2499
18.2404
18.2003
18.1526
18.1192
18.1003
18.0841
18.0652
18.0213
17.4655
17.2617
16.8253
16.1476
15.2748
14.3285
13.4362
12.7211
12.28
12.1403
12.2298
12.4945
12.8916
13.4495
14.1392
14.9185
15.6889
16.4225
16.9725
17.356
17.5448
17.6164
17.6277
17.6189
17.6082
17.6053
17.5944
17.5627
17.5084
17.4312
16.6539
16.5256
16.2065
15.6469
14.8838
14.0274
13.2054
12.5393
12.1145
11.9571
12.0161
12.2371
12.5839
13.079
13.6984
14.4053
15.1136
15.7808
16.2854
16.6326
16.8035
16.8713
16.89
16.8972
16.9063
16.9162
16.9024
16.8489
16.757
16.6474
15.6475
15.6031
15.409
14.9804
14.3426
13.5962
12.8658
12.2656
11.8703
11.7058
11.7406
11.9217
12.2176
12.6491
13.1961
13.8276
14.4686
15.0638
15.5137
15.816
15.9603
16.0137
16.0256
16.0304
16.0401
16.0452
16.0164
15.9334
15.7991
15.6563
14.4312
14.484
14.4319
14.153
13.6665
13.0641
12.4564
11.9543
11.6159
11.4691
11.4928
11.6477
11.9006
12.2677
12.7312
13.2777
13.835
14.3395
14.7156
14.9558
15.0569
15.078
15.0639
15.0446
15.0291
15.004
14.9388
14.8118
14.6262
14.444
13.3981
13.5749
13.6694
13.5728
13.3016
12.9157
12.5163
12.176
11.9547
11.8708
11.9098
12.0467
12.2485
12.526
12.8659
13.2707
13.6951
14.0685
14.3347
14.4904
14.5346
14.509
14.4465
14.3744
14.3002
14.2116
14.083
13.8944
13.6456
13.4058
16.1247
16.4045
16.6255
16.7209
16.6963
16.5664
16.383
16.1674
15.9546
15.7712
15.6264
15.5278
15.4481
15.3897
15.3359
15.3816
15.5076
15.661
15.8039
15.9391
16.0539
16.1595
16.2539
16.343
16.4192
16.4622
16.4542
16.3858
16.2498
16.0887
6.6695
7.62396
8.228
8.5521
8.60156
8.41937
8.08263
7.76618
7.60523
7.99998
8.98133
10.8199
13.1689
16.1226
19.2296
22.1551
24.2926
25.5973
24.1063
21.8301
19.0725
16.492
14.0304
11.8209
9.94071
8.43495
7.30914
6.46336
5.95266
5.68388
4.03211
4.37386
4.71315
4.95283
5.07658
5.10572
5.07222
5.04347
5.09501
5.41777
6.03675
6.98524
8.12707
9.45673
10.8102
12.0388
12.9661
13.4462
12.7111
11.6745
10.4695
9.31354
8.20519
7.16469
6.23464
5.44695
4.83453
4.36339
4.10862
3.97206
3.56378
3.74275
3.99539
4.18989
4.31511
4.38534
4.42534
4.47287
4.58546
4.89094
5.38096
6.06386
6.86262
7.75198
8.63599
9.43659
10.0431
10.3016
9.78552
9.0727
8.26642
7.4779
6.71984
5.9974
5.33494
4.7553
4.29107
3.92624
3.72253
3.61099
3.46671
3.61955
3.83783
3.99561
4.09836
4.16456
4.21975
4.28963
4.42729
4.71691
5.12679
5.67541
6.30758
6.99668
7.68086
8.29985
8.76137
8.93059
8.5391
7.98104
7.35018
6.72052
6.11131
5.53132
4.99349
4.51407
4.11979
3.80193
3.6081
3.50683
3.55697
3.73708
3.93944
4.06701
4.13597
4.17573
4.21471
4.27893
4.41745
4.69113
5.06068
5.53758
6.07898
6.66741
7.2631
7.80263
8.19184
8.33302
8.02626
7.56111
7.01961
6.4658
5.92319
5.39432
4.89873
4.45611
4.09149
3.8038
3.63205
3.55698
3.80993
4.03654
4.22693
4.32059
4.34842
4.35158
4.36402
4.41199
4.54844
4.80629
5.14398
5.57577
6.06239
6.62124
7.19007
7.70862
8.06757
8.21379
7.9679
7.53888
7.04026
6.52637
6.01192
5.50908
5.03641
4.61394
4.26091
3.98615
3.81349
3.75682
4.21519
4.49374
4.67217
4.72709
4.70989
4.67035
4.64839
4.67341
4.80375
5.04868
5.3668
5.7784
6.24735
6.80281
7.37985
7.91256
8.26843
8.43591
8.24353
7.85552
7.3797
6.87739
6.36404
5.8574
5.37796
4.94953
4.59237
4.31802
4.14284
4.10601
4.77019
5.09802
5.26094
5.27355
5.21028
5.12343
5.06373
5.06275
5.18378
5.41825
5.7259
6.12991
6.59428
7.1684
7.77523
8.3478
8.72281
8.92128
8.77889
8.42361
7.96119
7.46048
6.93695
6.41253
5.91121
5.46257
5.08887
4.80511
4.62511
4.60649
5.47182
5.83985
5.97995
5.95168
5.84049
5.70492
5.60601
5.57955
5.68684
5.91169
6.21071
6.61172
7.0788
7.67994
8.32796
8.95658
9.37151
9.6093
9.51678
9.19366
8.74431
8.24371
7.70801
7.16077
6.62969
6.1512
5.75167
5.4506
5.26269
5.25808
6.31249
6.70666
6.81598
6.74779
6.58864
6.40573
6.26839
6.21649
6.30467
6.51669
6.80298
7.20069
7.67297
8.30275
8.99298
9.68041
10.1542
10.4425
10.4037
10.1179
9.68709
9.19146
8.64879
8.08149
7.52028
7.00816
6.57705
6.25246
6.05315
6.05632
7.27899
7.68123
7.75218
7.64388
7.43806
7.21108
7.03674
6.95787
7.01922
7.21135
7.47814
7.86827
8.3446
8.99847
9.72444
10.4617
11.0044
11.3606
11.3838
11.1459
10.7443
10.2629
9.72282
9.14548
8.56108
8.01763
7.55339
7.20134
6.98641
6.99145
8.351
8.74056
8.76683
8.61781
8.36697
8.09955
7.8884
7.77746
7.80127
7.96126
8.20463
8.58031
9.05879
9.7276
10.4801
11.2442
11.8482
12.2906
12.394
12.2237
11.8666
11.4123
10.8882
10.3145
9.71969
9.15347
8.65956
8.27883
8.04393
8.04495
9.49967
9.85335
9.83271
9.64148
9.34808
9.04271
8.79001
8.63465
8.61178
8.72874
8.94563
9.30138
9.77688
10.4521
11.215
11.9829
12.6279
13.1479
13.3502
13.2848
12.9982
12.5902
12.0981
11.5443
10.9545
10.3792
9.86389
9.45674
9.19851
9.18778
10.6877
10.9823
10.9153
10.6806
10.3476
10.0016
9.69279
9.48832
9.41842
9.48845
9.67383
10.0021
10.4642
11.1354
11.8937
12.6624
13.3222
13.8746
14.1749
14.226
14.0587
13.7356
13.3005
12.7869
12.2196
11.6498
11.125
10.6969
10.4144
10.3822
11.8709
12.0875
11.9738
11.6946
11.3221
10.9201
10.566
10.3146
10.195
10.2127
10.3587
10.6534
11.0952
11.7519
12.4941
13.2576
13.929
14.5013
14.8477
14.9845
14.9544
14.748
14.4186
13.9831
13.4636
12.9186
12.3952
11.9531
11.6472
11.5843
13.0003
13.1279
12.9655
12.6375
12.2207
11.7796
11.3824
11.0831
10.9123
10.8797
10.9816
11.2403
11.6595
12.2937
13.0133
13.7631
14.4364
15.0205
15.4085
15.6194
15.6723
15.5707
15.3576
15.0385
14.6103
14.1287
13.624
13.1762
12.8468
12.7452
14.0259
14.065
13.845
13.4793
13.0289
12.5548
12.1194
11.7755
11.5583
11.4836
11.5449
11.7714
12.1712
12.782
13.4773
14.2012
14.8617
15.4426
15.861
16.1321
16.2586
16.2554
16.1415
15.913
15.5716
15.1751
14.7394
14.3148
13.9635
13.8162
14.9001
14.8478
14.5928
14.203
13.7316
13.2347
12.7733
12.3966
12.1412
12.0332
12.0645
12.2706
12.6612
13.2592
13.9394
14.6354
15.2605
15.8101
16.2392
16.5482
16.7325
16.8066
16.7827
16.6444
16.3887
16.0577
15.6693
15.2703
14.9295
14.7529
15.6003
15.4866
15.2096
14.8111
14.3371
13.8356
13.3582
12.9559
12.6734
12.5448
12.5627
12.7658
13.1628
13.7644
14.4455
15.1182
15.7009
16.2023
16.617
16.929
17.14
17.2636
17.3037
17.2441
17.0667
16.7971
16.4525
16.0755
15.7355
15.5153
16.1496
16.001
15.7231
15.3389
14.8795
14.3826
13.8982
13.481
13.1855
13.0525
13.0774
13.2987
13.719
14.3403
15.0376
15.6951
16.2371
16.6889
17.0733
17.3599
17.5621
17.6978
17.7675
17.7569
17.6389
17.4179
17.1077
16.7441
16.3923
16.1231
16.6045
16.4498
16.1966
15.843
15.405
14.919
14.4367
14.0174
13.7258
13.6066
13.662
13.9225
14.3805
15.033
15.7569
16.4044
16.9072
17.3166
17.665
17.9128
18.0817
18.1946
18.2581
18.2594
18.1727
17.9811
17.6899
17.3246
16.9448
16.6213
17.0533
16.915
16.701
16.386
15.9754
15.5067
15.0359
14.6298
14.3612
14.2755
14.3848
14.701
15.2048
15.8902
16.6409
17.275
17.7388
18.1113
18.423
18.629
18.7519
18.8207
18.8507
18.8348
18.7493
18.5668
18.2778
17.897
17.4766
17.0945
17.5849
17.4773
17.3166
17.0504
16.6753
16.2328
15.7851
15.4077
15.1819
15.1484
15.3282
15.7079
16.2572
16.96
17.7193
18.3215
18.741
19.0768
19.3508
19.5196
19.598
19.619
19.6059
19.5548
19.448
19.254
18.9502
18.5413
18.0732
17.6333
18.2765
18.2194
18.1328
17.9316
17.6051
17.201
16.7935
16.466
16.302
16.338
16.595
17.0322
17.6074
18.2883
19.0081
19.5354
19.896
20.1878
20.4217
20.5611
20.6072
20.5964
20.5501
20.4682
20.3338
20.1134
19.7812
19.334
18.8116
18.3174
19.1963
19.2207
19.2425
19.133
18.8817
18.5411
18.2014
17.9517
17.8665
17.9855
18.3072
18.773
19.3207
19.9071
20.4953
20.8645
21.1269
21.3535
21.5393
21.6655
21.7126
21.7077
21.6581
21.5672
21.4205
21.1799
20.8201
20.333
19.7572
19.2187
20.3448
20.5263
20.7341
20.7744
20.6523
20.424
20.1944
20.0529
20.0544
20.2429
20.586
21.0057
21.4069
21.7437
22.0052
22.0703
22.1453
22.245
22.3656
22.5174
22.655
22.7541
22.7999
22.7805
22.6632
22.4219
22.0438
21.5218
20.9029
20.3405
21.822
22.2843
22.7775
23.0848
23.1796
23.1329
23.0536
23.0141
23.0436
23.1412
23.2821
23.3974
23.3741
23.1602
22.8193
22.48
22.3587
22.31
22.3545
22.5202
22.7566
23.0524
23.3795
23.673
23.8114
23.7626
23.4878
22.971
22.3293
21.7641
23.2909
24.1714
25.0919
25.7807
26.1673
26.2516
26.1147
25.8329
25.4453
24.9822
24.4769
23.9894
23.4064
22.7076
21.8872
21.2736
20.9936
20.823
20.7943
20.9345
21.1987
21.5783
22.0528
22.5876
23.1307
23.5618
23.7591
23.6245
23.2917
23.0279
20.7912
21.8722
23.0327
23.9803
24.5505
24.6682
24.3324
23.6967
22.9295
22.1824
21.4966
20.8418
20.1216
19.3179
18.4036
17.7731
17.4586
17.2718
17.1946
17.2618
17.4311
17.7044
18.0757
18.5344
19.0464
19.5357
19.9059
20.1217
20.1994
20.3678
14.554
15.1956
15.8875
16.4754
16.8547
16.9645
16.8017
16.4349
15.9704
15.4983
15.0452
14.6069
14.131
13.6204
13.0545
12.7097
12.5573
12.487
12.4626
12.4933
12.5548
12.6557
12.8042
13.0032
13.2461
13.5037
13.7368
13.9266
14.0724
14.2733
11.089
12.6096
13.57
14.0698
14.1577
13.9229
13.5341
13.2817
13.3615
14.4121
16.0966
18.7434
21.9644
26.1479
30.5879
34.7982
37.9706
40.2032
37.5716
33.8406
29.6409
25.9377
22.4236
19.2105
16.3964
14.0714
12.2606
10.8583
9.89765
9.3873
5.58823
6.10303
6.60507
6.94899
7.1178
7.15421
7.11989
7.11067
7.22178
7.67129
8.37831
9.42096
10.6903
12.2065
13.8147
15.3189
16.5412
17.2191
16.0552
14.6179
13.1249
11.8201
10.6072
9.44395
8.36463
7.40871
6.62744
5.99961
5.63045
5.43314
4.63549
4.95787
5.31117
5.56211
5.69821
5.74898
5.75657
5.78041
5.89219
6.21209
6.71207
7.41638
8.26616
9.25724
10.3093
11.3229
12.1163
12.4139
11.601
10.6345
9.66774
8.80828
8.02699
7.2833
6.58505
5.9519
5.41969
4.98492
4.72353
4.59362
4.40254
4.68634
4.97395
5.16346
5.25311
5.28205
5.28588
5.31116
5.42382
5.6953
6.1076
6.66677
7.33885
8.11857
8.95189
9.75783
10.3491
10.4846
9.84404
9.08029
8.3292
7.64998
7.03775
6.46195
5.92291
5.4356
5.01728
4.67314
4.45129
4.35085
4.46616
4.76278
5.02674
5.1688
5.21792
5.21255
5.19742
5.21203
5.32458
5.57349
5.9377
6.41927
7.00297
7.68273
8.42197
9.12548
9.60041
9.66808
9.12591
8.47144
7.83413
7.24851
6.71585
6.21679
5.7472
5.31418
4.94153
4.63947
4.45682
4.39986
4.78818
5.11941
5.35355
5.44424
5.4419
5.39991
5.36088
5.3626
5.47179
5.70682
6.04112
6.47841
7.00339
7.65334
8.36738
9.02685
9.43274
9.48468
9.00066
8.39316
7.79614
7.26213
6.77953
6.32828
5.89986
5.50267
5.15998
4.88634
4.71448
4.67828
5.3121
5.67507
5.87936
5.91935
5.87283
5.79286
5.72826
5.71782
5.82313
6.04775
6.36224
6.7729
7.28045
7.92725
8.64433
9.29335
9.66331
9.72061
9.27647
8.70889
8.15103
7.6493
7.18255
6.74248
6.32304
5.93711
5.6045
5.34225
5.17501
5.15647
6.01467
6.40199
6.57419
6.56858
6.48184
6.36536
6.27602
6.25416
6.35325
6.56758
6.86755
7.26416
7.76714
8.43016
9.1712
9.82779
10.1861
10.2541
9.84608
9.30851
8.77543
8.29469
7.8393
7.40192
6.98036
6.59128
6.255
5.9916
5.82329
5.81657
6.87434
7.27476
7.41169
7.36917
7.24581
7.09669
6.98477
6.95154
7.04005
7.24177
7.52907
7.91877
8.42647
9.11511
9.88734
10.559
10.9186
10.9998
10.6282
10.1173
9.605
9.14314
8.70195
8.26666
7.83996
7.44093
7.09233
6.81851
6.64296
6.64074
7.86501
8.26445
8.3645
8.29164
8.13822
7.96261
7.83088
7.78508
7.85701
8.04176
8.31511
8.70029
9.22044
9.9375
10.738
11.4239
11.788
11.8832
11.5498
11.0671
10.5783
10.1386
9.71941
9.29252
8.86504
8.45635
8.09176
7.80111
7.61201
7.6068
8.956
9.3377
9.3992
9.30084
9.12482
8.93128
8.78268
8.72124
8.76803
8.92776
9.18358
9.56553
10.1041
10.8487
11.6713
12.3636
12.7292
12.8369
12.5433
12.0921
11.6334
11.2223
10.8345
10.4293
10.0115
9.59944
9.22021
8.90975
8.70165
8.68623
10.1117
10.4579
10.4796
10.3579
10.1622
9.96041
9.79541
9.71211
9.7262
9.85425
10.0912
10.4707
11.0277
11.7949
12.6396
13.324
13.6863
13.8035
13.5495
13.1324
12.7089
12.3345
11.9871
11.6212
11.2275
10.8237
10.4366
10.1071
9.87622
9.84363
11.2921
11.5836
11.5661
11.4208
11.2078
11.0005
10.8175
10.7055
10.6843
10.7758
10.9953
11.3748
11.9503
12.7339
13.5871
14.259
14.615
14.7374
14.5214
14.1385
13.7498
13.4167
13.1198
12.8102
12.4576
12.0776
11.6941
11.3507
11.0956
11.0379
12.4525
12.6686
12.6133
12.4438
12.2182
12.0031
11.7972
11.6514
11.596
11.652
11.8601
12.2461
12.8399
13.6373
14.4868
15.141
15.4859
15.6077
15.4259
15.0757
14.7166
14.4168
14.1731
13.9391
13.6462
13.3064
12.9421
12.5941
12.3168
12.2253
13.5409
13.6641
13.5723
13.3845
13.1529
12.9213
12.689
12.5103
12.4268
12.458
12.6676
13.0718
13.6883
14.497
15.3356
15.9597
16.2836
16.398
16.2444
15.9239
15.5878
15.3085
15.1012
14.9244
14.7106
14.4392
14.1156
13.7775
13.4838
13.3559
14.4969
14.5265
14.4084
14.2127
13.9782
13.724
13.4681
13.2676
13.1692
13.1915
13.4175
13.851
14.4962
15.3138
16.1344
16.716
17.0056
17.1036
16.9708
16.6765
16.357
16.0866
15.8981
15.7583
15.6003
15.3947
15.1265
14.8161
14.5231
14.3636
15.273
15.2378
15.1051
14.9105
14.6744
14.408
14.1411
13.9312
13.8288
13.8585
14.1138
14.5768
15.2497
16.0579
16.8507
17.3884
17.6509
17.7287
17.6086
17.3356
17.0292
16.7589
16.5742
16.4525
16.3341
16.1691
15.9462
15.6707
15.3894
15.2046
15.8715
15.7976
15.662
15.4785
15.2507
14.986
14.7184
14.5088
14.4136
14.4666
14.7591
15.2482
15.9387
16.7176
17.4676
17.95
18.1903
18.2611
18.1616
17.9082
17.6141
17.34
17.1493
17.0311
16.9324
16.792
16.5963
16.344
16.0716
15.8665
16.3212
16.2276
16.1031
15.9442
15.7363
15.4834
15.2273
15.0315
14.9544
15.0424
15.3689
15.8801
16.5731
17.3057
17.9978
18.4118
18.6229
18.6837
18.6086
18.3843
18.1111
17.8395
17.642
17.5195
17.4267
17.3015
17.1128
16.8668
16.5921
16.3682
16.6694
16.573
16.4792
16.3569
16.1802
15.9513
15.7166
15.5435
15.4932
15.6196
15.9721
16.4943
17.1693
17.8383
18.4569
18.79
18.9653
19.013
18.9566
18.7611
18.5149
18.2585
18.0646
17.9425
17.8541
17.7376
17.5462
17.2845
16.9942
16.752
16.9831
16.9055
16.8604
16.7873
16.6499
16.4525
16.2457
16.1014
16.0822
16.2334
16.601
17.1149
17.7453
18.3313
18.8599
19.1003
19.2336
19.2641
19.2186
19.0511
18.8358
18.6064
18.4299
18.3203
18.2456
18.1422
17.9588
17.6718
17.3465
17.0788
17.3444
17.3081
17.3353
17.3195
17.2266
17.0653
16.8881
16.7718
16.765
16.9225
17.2823
17.7611
18.3138
18.7923
19.2115
19.3483
19.4353
19.4456
19.403
19.261
19.0782
18.8845
18.7402
18.6604
18.6172
18.5453
18.3862
18.0998
17.7338
17.4304
17.8347
17.8672
17.9899
18.0467
17.9985
17.8726
17.7158
17.5947
17.5748
17.7094
18.0251
18.4316
18.8709
19.21
19.4959
19.5187
19.5567
19.5455
19.5007
19.3826
19.2354
19.0848
18.9863
18.955
18.9623
18.9446
18.8366
18.5834
18.2195
17.8977
18.4677
18.6256
18.8745
19.0252
19.0176
18.9009
18.7237
18.5669
18.5038
18.5746
18.7999
19.089
19.373
19.5374
19.6618
19.5639
19.5524
19.5232
19.474
19.3745
19.2579
19.1623
19.1238
19.1573
19.2397
19.3018
19.2785
19.0983
18.7827
18.5019
19.173
19.4812
19.8603
20.1105
20.1473
20.0314
19.8185
19.5982
19.4512
19.4143
19.4971
19.6214
19.7089
19.6671
19.605
19.3921
19.3386
19.2997
19.2465
19.1601
19.0736
19.0221
19.041
19.1511
19.3321
19.5053
19.5924
19.533
19.327
19.1502
19.7039
20.1612
20.6618
21.0107
21.1092
20.9962
20.7357
20.4266
20.1578
19.9738
19.8748
19.7971
19.665
19.4078
19.1569
18.8628
18.7897
18.7554
18.6998
18.6182
18.5475
18.5232
18.5875
18.762
19.0249
19.3098
19.5375
19.627
19.5869
19.58
19.5704
20.1481
20.7499
21.1856
21.3672
21.2833
20.9747
20.5688
20.1572
19.8017
19.5124
19.2365
18.9068
18.4827
18.1003
17.8026
17.7558
17.7554
17.7024
17.6144
17.5343
17.5045
17.5729
17.7649
18.0656
18.4207
18.7547
18.9861
19.1228
19.3261
18.0821
18.7159
19.372
19.8674
20.1041
20.0551
19.7253
19.2521
18.7438
18.2705
17.8557
17.4675
17.0551
16.6091
16.2461
16.0708
16.1222
16.1981
16.1613
16.0578
15.9356
15.846
15.8407
15.9526
16.187
16.5049
16.8417
17.1321
17.389
17.76
14.665
15.1817
15.7409
16.1904
16.4337
16.4363
16.1768
15.7768
15.3442
14.9478
14.6087
14.3049
14.0133
13.7515
13.608
13.6971
13.9238
14.1203
14.1256
14.0087
13.8223
13.6237
13.4714
13.4009
13.4227
13.5301
13.6862
13.8606
14.0591
14.391
10.2587
10.501
10.7915
11.045
11.2036
11.2406
11.1433
10.967
10.7729
10.6026
10.4747
10.3927
10.3629
10.4241
10.6218
11.0481
11.4812
11.8125
11.8946
11.7877
11.5551
11.2565
10.9519
10.6795
10.4603
10.2973
10.1827
10.1103
10.0856
10.162
15.7117
18.0021
19.0423
19.5802
19.607
19.2289
18.7994
18.5756
18.702
19.8948
21.6354
24.5422
28.1181
33.2699
38.8629
44.3961
48.4062
51.5618
47.5414
42.3874
37.3858
33.1038
29.0527
25.3012
21.8873
18.9849
16.6751
14.853
13.509
12.8184
7.20196
7.99267
8.55419
8.89032
9.00839
8.96125
8.87384
8.81851
8.87712
9.25898
9.91249
10.9973
12.427
14.3414
16.4901
18.6433
20.3039
21.2488
19.3922
17.2693
15.3785
13.8128
12.4429
11.1769
9.99707
8.94521
8.07379
7.35159
6.91572
6.73183
5.82974
6.3383
6.7579
7.00683
7.09627
7.06373
6.98614
6.94157
6.99348
7.25836
7.73811
8.49
9.48966
10.7902
12.2785
13.7891
14.926
15.309
13.9187
12.3888
11.0766
10.0226
9.14659
8.35658
7.62482
6.95963
6.3975
5.93073
5.64441
5.55473
5.50414
5.93041
6.27579
6.4544
6.50175
6.45084
6.36484
6.32107
6.37572
6.6047
7.00674
7.61619
8.43525
9.49987
10.7471
12.0091
12.8898
13.0035
11.8055
10.5141
9.43529
8.59459
7.92169
7.32855
6.7844
6.2934
5.87169
5.52447
5.29545
5.24387
5.51158
5.93941
6.26273
6.41308
6.41431
6.33885
6.24332
6.19476
6.24809
6.45401
6.80474
7.33665
8.06746
9.03828
10.1955
11.3537
12.0794
12.0571
10.9316
9.7435
8.77639
8.04869
7.4874
7.00344
6.55884
6.15118
5.7904
5.49805
5.33079
5.31499
5.87708
6.31521
6.59061
6.67352
6.63246
6.53068
6.42275
6.36903
6.41408
6.59669
6.90885
7.38375
8.06782
9.0324
10.1936
11.3284
11.9584
11.8716
10.749
9.58213
8.64971
7.97081
7.46013
7.0576
6.69548
6.35167
6.04722
5.80009
5.65065
5.652
6.45422
6.89714
7.12563
7.1527
7.07604
6.9488
6.82739
6.76774
6.80221
6.96304
7.24696
7.69966
8.38745
9.38675
10.5916
11.7391
12.3093
12.1844
11.0405
9.85484
8.92155
8.26812
7.80186
7.4389
7.1136
6.81026
6.54098
6.32192
6.18881
6.20137
7.20283
7.64146
7.8227
7.80632
7.69887
7.54918
7.41544
7.34913
7.37196
7.5133
7.77909
8.23053
8.94398
10.0152
11.2976
12.4764
13.0087
12.8449
11.6746
10.4501
9.49001
8.83525
8.3886
8.05123
7.75378
7.47788
7.23121
7.02934
6.90709
6.92611
8.08384
8.50741
8.64301
8.59458
8.46198
8.29501
8.15199
8.07934
8.09163
8.21801
8.47699
8.94603
9.7092
10.8726
12.2474
13.4564
13.9606
13.7511
12.5627
11.291
10.2877
9.61116
9.1657
8.84318
8.56673
8.31102
8.07973
7.88766
7.77042
7.79036
9.05468
9.45225
9.54653
9.4751
9.32535
9.14799
9.00054
8.92364
8.92914
9.04816
9.3138
9.81825
10.6524
11.9166
13.3809
14.6033
15.0771
14.8167
13.624
12.3094
11.2555
10.5417
10.0813
9.76328
9.50203
9.26257
9.04316
8.85674
8.73941
8.75524
10.0704
10.4307
10.489
10.4031
10.2458
10.0668
9.92122
9.84454
9.84947
9.9729
10.2608
10.8175
11.7386
13.1029
14.6382
15.8448
16.2772
15.9632
14.7836
13.4402
12.3371
11.5746
11.0845
10.7595
10.5072
10.281
10.0722
9.89002
9.76956
9.77724
11.0858
11.3974
11.4253
11.3332
11.1785
11.0082
10.8724
10.8027
10.8171
10.9604
11.288
11.9113
12.9282
14.3815
15.9622
17.1161
17.4895
17.1216
15.9734
14.6219
13.4777
12.6603
12.1269
11.7821
11.5302
11.3138
11.115
10.9374
10.8136
10.8112
12.0572
12.3096
12.3137
12.223
12.0812
11.9305
11.8139
11.7603
11.7985
11.979
12.3639
13.0646
14.1766
15.6916
17.2848
18.3629
18.6574
18.2343
17.1346
15.798
14.6264
13.7528
13.1651
12.7866
12.5243
12.312
12.1216
11.9497
11.8249
11.8115
12.9433
13.129
13.118
13.0363
12.9181
12.7982
12.711
12.6847
12.764
12.9991
13.4565
14.2404
15.4373
16.9729
18.5384
19.5207
19.7395
19.2591
18.2194
16.9199
15.7376
14.8109
14.1617
13.736
13.4509
13.2344
13.0485
12.8823
12.7585
12.7355
13.7072
13.8263
13.8087
13.746
13.6634
13.5855
13.5372
13.5517
13.6886
13.9931
14.5339
15.4005
16.6605
18.169
19.6646
20.5303
20.6846
20.1702
19.193
17.9488
16.7725
15.7999
15.0863
14.6014
14.2803
14.0495
13.8615
13.6986
13.5764
13.5439
14.3236
14.3826
14.3693
14.3388
14.3055
14.2776
14.2758
14.3464
14.5526
14.9385
15.57
16.5123
17.8049
19.2386
20.6231
21.35
21.4464
20.935
20.0358
18.857
17.7006
16.6931
15.9168
15.3648
14.9944
14.737
14.5376
14.3719
14.2501
14.2076
14.782
14.795
14.8008
14.8196
14.8451
14.8713
14.9254
15.063
15.3482
15.8221
16.5449
17.5498
18.8389
20.159
21.4045
21.9757
22.0065
21.5205
20.7129
19.6181
18.4968
17.4691
16.6384
16.0183
15.5889
15.2916
15.0692
14.8916
14.7661
14.7139
15.0918
15.0819
15.1273
15.2076
15.2954
15.3789
15.4945
15.7041
16.071
16.6321
17.4399
18.4875
19.7317
20.9108
22.0024
22.419
22.3856
21.9308
21.2065
20.2049
19.1364
18.1089
17.2412
16.5631
16.0754
15.7309
15.4744
15.2709
15.1306
15.0695
15.2922
15.2859
15.3868
15.5316
15.679
15.8188
15.9956
16.2751
16.718
17.3575
18.2351
19.295
20.4594
21.4794
22.4145
22.6911
22.6081
22.1888
21.5362
20.6148
19.6097
18.6039
17.7206
17.0037
16.4688
16.079
15.7848
15.5475
15.382
15.3065
15.4363
15.4583
15.6174
15.8223
16.022
16.2118
16.4422
16.7805
17.2852
17.9865
18.9093
19.9412
21.0016
21.853
22.6407
22.803
22.6949
22.3146
21.7202
20.8646
19.9194
18.9475
18.072
17.3398
16.7757
16.3528
16.0303
15.7653
15.5704
15.4761
15.569
15.6336
15.8493
16.1057
16.3474
16.5743
16.8424
17.2204
17.7654
18.5035
19.43
20.4031
21.3391
22.0221
22.6822
22.7682
22.6593
22.3142
21.7613
20.9506
20.0544
19.1293
18.2834
17.5583
16.9877
16.5556
16.2227
15.9458
15.7312
15.6235
15.7139
15.8308
16.0981
16.3943
16.6631
16.9096
17.1925
17.5854
18.1409
18.8761
19.7709
20.6581
21.4514
21.9772
22.5386
22.5965
22.5123
22.2152
21.686
20.8843
20.0023
19.1023
18.2897
17.5996
17.0597
16.6569
16.3516
16.088
15.8777
15.7699
15.869
16.0421
16.3534
16.6744
16.9517
17.195
17.4666
17.8428
18.3765
19.0715
19.8776
20.6488
21.3156
21.7067
22.2052
22.2916
22.2573
22.0131
21.5106
20.7238
19.8493
18.97
18.1864
17.5235
17.0114
16.6391
16.3715
16.1618
15.9947
15.9103
15.9862
16.213
16.5614
16.8936
17.1569
17.372
17.5991
17.9117
18.3825
19.0196
19.7453
20.3879
20.8996
21.19
21.6705
21.8465
21.8947
21.7065
21.2243
20.4355
19.5621
18.7003
17.9473
17.3203
16.8419
16.5095
16.2906
16.1329
16.0224
15.9958
15.9476
16.2088
16.5707
16.902
17.146
17.3256
17.5006
17.754
18.148
18.6783
19.2715
19.7778
20.1591
20.395
20.9149
21.2494
21.4132
21.2879
20.823
20.018
19.123
18.2543
17.5133
16.9136
16.4642
16.1647
15.992
15.8982
15.8565
15.9103
15.5718
15.8651
16.2212
16.5316
16.7478
16.886
17.0058
17.1875
17.4915
17.9004
18.3638
18.7499
19.0362
19.2801
19.9154
20.4868
20.7935
20.75
20.2992
19.4684
18.532
17.6307
16.8757
16.2709
15.8251
15.5342
15.3834
15.3315
15.3488
15.4885
14.658
14.9422
15.2696
15.5506
15.7424
15.8523
15.9294
16.0507
16.2698
16.5721
16.9278
17.2341
17.4859
17.8212
18.6602
19.5474
20.0265
20.0914
19.6501
18.7897
17.7976
16.8391
16.0312
15.3827
14.9
14.5734
14.3937
14.3323
14.3673
14.5494
13.0829
13.307
13.574
13.8113
13.9767
14.0731
14.1363
14.2349
14.4038
14.641
14.9361
15.2252
15.5263
16.0482
17.1731
18.4416
19.118
19.3138
18.8859
18.0022
16.95
15.9152
15.0195
14.2851
13.7173
13.3002
13.0274
12.884
12.86
12.9943
10.9583
11.0644
11.2325
11.407
11.5492
11.6506
11.7329
11.8445
12.0102
12.2356
12.5273
12.8653
13.3035
14.0854
15.5366
17.2183
18.1014
18.4371
18.0419
17.151
16.0489
14.9376
13.9397
13.0925
12.404
11.8537
11.4355
11.1428
10.98
10.9599
8.81472
8.78905
8.84355
8.92988
9.0236
9.11602
9.21489
9.34545
9.52171
9.75464
10.0652
10.4804
11.0886
12.1583
13.9081
15.9679
17.0423
17.5089
17.1767
16.3038
15.1766
14.0103
12.9327
11.9843
11.1771
10.4997
9.94075
9.49133
9.15727
8.949
19.4253
22.1948
23.3439
23.9054
23.8898
23.4518
22.7555
22.1869
21.8349
22.3839
23.3694
25.5658
28.5805
34.1075
40.7533
48.785
55.6704
61.5737
55.0912
46.9178
40.4211
35.857
32.1473
28.7921
25.5696
22.6074
20.0772
17.9988
16.2917
15.4175
8.56868
9.56599
10.1939
10.5537
10.6499
10.5335
10.287
10.053
9.89732
10.0482
10.4566
11.3236
12.7125
14.9624
17.7969
21.0829
24.0564
26.032
22.9884
19.3776
16.606
14.7075
13.3412
12.2121
11.1552
10.1393
9.22765
8.44593
7.92308
7.75725
6.88601
7.52474
7.9921
8.25643
8.31981
8.20856
8.00061
7.80593
7.68912
7.78502
8.08601
8.7212
9.80474
11.5021
13.6866
16.1863
18.3481
19.3747
16.9857
14.1951
12.045
10.6123
9.66478
8.95227
8.32418
7.72871
7.19139
6.73261
6.43991
6.38582
6.43505
6.94633
7.32607
7.51954
7.53865
7.40458
7.19775
7.01267
6.91241
6.98353
7.23299
7.78052
8.76493
10.3153
12.3529
14.631
16.4136
16.9492
14.7457
12.2205
10.2683
9.00403
8.22548
7.69564
7.26414
6.8676
6.51286
6.21133
6.02214