/*--------------------------------*- C++ -*----------------------------------*\
  =========                 |
  \\      /  F ield         | OpenFOAM: The Open Source CFD Toolbox
   \\    /   O peration     | Website:  https://openfoam.org
    \\  /    A nd           | Version:  12
     \\/     M anipulation  |
\*---------------------------------------------------------------------------*/
FoamFile
{
    format      ascii;
    class       volScalarField;
    location    "200/air";
    object      k;
}
// * * * * * * * * * * * * * * * * * * * * * * * * * * * * * * * * * * * * * //

dimensions      [0 2 -2 0 0 0 0];

internalField   nonuniform List<scalar> 
243000
(
0.0621932
0.0672064
0.0697681
0.0706284
0.0699209
0.0678315
0.0645342
0.0605916
0.0562418
0.0525087
0.0502475
0.0581147
0.072877
0.0877293
0.101484
0.113484
0.121689
0.125761
0.121169
0.114362
0.104938
0.0960911
0.0870914
0.0784077
0.0705376
0.0639037
0.0590074
0.0554103
0.0544709
0.0546705
0.114366
0.117567
0.118671
0.117612
0.114958
0.110828
0.105651
0.100387
0.0955578
0.0932909
0.0945849
0.110599
0.130814
0.152057
0.172113
0.190014
0.202904
0.210613
0.204889
0.194147
0.179158
0.164528
0.149624
0.135665
0.123159
0.112819
0.105117
0.0995552
0.097554
0.0981849
0.144713
0.149456
0.151143
0.150034
0.147003
0.142255
0.136404
0.130625
0.125839
0.124753
0.129571
0.150082
0.173582
0.198337
0.221929
0.242724
0.257576
0.266442
0.260009
0.246854
0.228834
0.21083
0.192492
0.175301
0.159875
0.147047
0.137308
0.130292
0.127286
0.127978
0.166991
0.17308
0.175238
0.174123
0.170817
0.165647
0.159395
0.153345
0.148813
0.148784
0.156697
0.179385
0.204284
0.230489
0.255666
0.277686
0.293204
0.302396
0.295914
0.281704
0.262385
0.24271
0.22265
0.203768
0.186777
0.17259
0.1617
0.153931
0.150383
0.151244
0.186251
0.193493
0.196022
0.194876
0.191308
0.185784
0.179247
0.173061
0.168905
0.169951
0.180597
0.204362
0.229857
0.256759
0.282764
0.305479
0.321248
0.330533
0.324351
0.309673
0.289684
0.26898
0.247809
0.227794
0.209735
0.194599
0.18289
0.174574
0.170602
0.171517
0.204575
0.212786
0.215485
0.214169
0.210219
0.204268
0.197421
0.191118
0.187352
0.18947
0.202406
0.226619
0.252285
0.279506
0.306009
0.329231
0.345143
0.354524
0.348912
0.334185
0.313913
0.292561
0.270621
0.249759
0.230868
0.214982
0.202616
0.193874
0.189607
0.190541
0.223289
0.232284
0.234898
0.233202
0.228671
0.222137
0.214879
0.208415
0.20498
0.208171
0.222876
0.247212
0.272813
0.300197
0.327067
0.350781
0.36689
0.376473
0.371658
0.357208
0.336924
0.315198
0.292717
0.271188
0.251601
0.23507
0.222144
0.213057
0.208602
0.209565
0.243288
0.252863
0.255104
0.252775
0.247414
0.240094
0.232282
0.225569
0.222362
0.22661
0.242562
0.266831
0.292241
0.319699
0.346897
0.371171
0.387624
0.397583
0.393759
0.379904
0.359854
0.337993
0.315155
0.293105
0.272911
0.255805
0.242397
0.233034
0.228478
0.229499
0.265165
0.275079
0.276644
0.273396
0.266934
0.258606
0.250071
0.242993
0.239865
0.245086
0.261844
0.285878
0.310997
0.338482
0.36599
0.390909
0.407896
0.418448
0.41581
0.402867
0.383321
0.361571
0.338581
0.316162
0.295464
0.277852
0.264038
0.254472
0.249886
0.251007
0.289247
0.299196
0.299777
0.29532
0.287488
0.277927
0.268494
0.260903
0.257675
0.263708
0.280867
0.304494
0.329247
0.356712
0.384498
0.410114
0.427835
0.439229
0.437954
0.426274
0.407528
0.386184
0.36329
0.3407
0.319647
0.301641
0.287514
0.277824
0.273279
0.274531
0.315612
0.325191
0.324529
0.318558
0.309102
0.298103
0.28759
0.279314
0.275776
0.282393
0.299572
0.322623
0.346923
0.374304
0.402307
0.428613
0.447239
0.459729
0.460006
0.449943
0.432345
0.411734
0.389247
0.366758
0.345578
0.327345
0.313032
0.303321
0.298895
0.300296
0.344082
0.352812
0.35068
0.342905
0.331586
0.318965
0.307195
0.298034
0.29396
0.300869
0.317722
0.340019
0.363773
0.390965
0.419085
0.446001
0.465639
0.479474
0.48148
0.473397
0.45732
0.437812
0.416096
0.394061
0.373058
0.354846
0.340533
0.330929
0.326708
0.328276
0.374195
0.381578
0.377744
0.367927
0.354551
0.340148
0.326938
0.316664
0.311829
0.318693
0.334911
0.35629
0.379377
0.406243
0.434327
0.461723
0.482406
0.497736
0.50165
0.495883
0.481723
0.463717
0.443179
0.422016
0.40158
0.383716
0.369652
0.360319
0.35639
0.358129
0.405182
0.410737
0.404989
0.392966
0.377407
0.36109
0.34623
0.334606
0.328824
0.3353
0.350611
0.370928
0.393202
0.419576
0.447443
0.475187
0.496852
0.513702
0.519612
0.516413
0.504573
0.488487
0.469557
0.449721
0.430312
0.413191
0.399691
0.390833
0.387294
0.38918
0.435967
0.439274
0.431466
0.417165
0.399377
0.381003
0.364319
0.351155
0.344267
0.350033
0.364207
0.383347
0.404645
0.430356
0.457812
0.485758
0.508295
0.526671
0.534476
0.533938
0.524714
0.510935
0.494067
0.476019
0.458128
0.442202
0.429622
0.42148
0.418454
0.420427
0.465195
0.465985
0.456071
0.4395
0.419481
0.398997
0.380378
0.365521
0.357413
0.362209
0.375081
0.392938
0.413134
0.437988
0.464833
0.492808
0.516073
0.535911
0.54554
0.547584
0.541075
0.529846
0.515401
0.499589
0.483687
0.469435
0.458151
0.450974
0.448594
0.450597
0.491312
0.489643
0.477604
0.458868
0.4367
0.414131
0.393544
0.37696
0.367695
0.371382
0.382867
0.399318
0.418294
0.442051
0.468033
0.495805
0.519573
0.540654
0.552156
0.556575
0.552808
0.544235
0.532422
0.519113
0.505558
0.493404
0.483818
0.477865
0.476245
0.478216
0.512873
0.508886
0.494859
0.474178
0.449995
0.425455
0.403162
0.385584
0.376433
0.379299
0.389308
0.404001
0.421428
0.443413
0.467705
0.494651
0.518655
0.540669
0.553677
0.560298
0.55915
0.553249
0.544152
0.533511
0.522539
0.512732
0.505096
0.50057
0.49983
0.501729
0.528553
0.52248
0.506704
0.484244
0.458582
0.43294
0.410974
0.393597
0.38442
0.386338
0.394941
0.408016
0.423974
0.444315
0.467056
0.492209
0.514722
0.535759
0.549976
0.558417
0.559476
0.556188
0.549851
0.541871
0.533579
0.526241
0.520725
0.517758
0.517887
0.519651
0.537312
0.529368
0.512373
0.489028
0.464269
0.439426
0.417735
0.400584
0.391311
0.392205
0.399479
0.411078
0.425696
0.444326
0.465709
0.489151
0.510341
0.530359
0.543996
0.55239
0.554197
0.552818
0.548946
0.543623
0.537936
0.532997
0.529602
0.528258
0.529156
0.530759
0.538633
0.529642
0.513542
0.492188
0.468558
0.444556
0.423163
0.406224
0.396791
0.396674
0.402712
0.413025
0.426202
0.443419
0.463399
0.485225
0.505213
0.52421
0.53733
0.545716
0.548273
0.547785
0.545051
0.541026
0.536622
0.532772
0.531107
0.531181
0.532679
0.534124
0.534528
0.527102
0.512887
0.493377
0.470925
0.447844
0.426843
0.410112
0.400604
0.399611
0.404536
0.413506
0.425471
0.441349
0.45994
0.480244
0.499108
0.517061
0.529679
0.538022
0.541192
0.541424
0.53971
0.536906
0.533749
0.531045
0.529861
0.529785
0.530626
0.531192
0.528404
0.522067
0.509808
0.492271
0.471249
0.449136
0.428637
0.412221
0.402608
0.40091
0.404696
0.412595
0.423426
0.437967
0.455198
0.474062
0.491849
0.508734
0.520824
0.529028
0.532592
0.53339
0.532521
0.530791
0.528777
0.527105
0.526303
0.526082
0.526294
0.526084
0.51958
0.514358
0.503901
0.488495
0.469153
0.448302
0.428588
0.412617
0.402952
0.400493
0.403336
0.410193
0.419925
0.433175
0.449067
0.466553
0.483283
0.499076
0.510586
0.518511
0.522229
0.523421
0.523189
0.522333
0.521283
0.520458
0.519941
0.519518
0.519068
0.518167
0.50759
0.503603
0.495092
0.481738
0.464283
0.44495
0.426285
0.41096
0.401342
0.398313
0.400357
0.406224
0.414901
0.426895
0.441458
0.457599
0.473266
0.487941
0.498795
0.506278
0.50993
0.511305
0.511486
0.511241
0.51091
0.510686
0.510328
0.509611
0.508475
0.506921
0.491895
0.489328
0.482998
0.471833
0.456412
0.438769
0.421464
0.40712
0.397824
0.394397
0.395763
0.400693
0.408333
0.419069
0.432276
0.447074
0.461651
0.475173
0.485265
0.492138
0.495506
0.496841
0.497188
0.497273
0.497343
0.497397
0.496995
0.495852
0.49397
0.491762
0.472047
0.47111
0.46717
0.458469
0.445391
0.429837
0.414299
0.401277
0.392581
0.388973
0.389797
0.39387
0.400446
0.409893
0.42169
0.435076
0.448455
0.460697
0.469835
0.475922
0.478823
0.479902
0.480134
0.480192
0.480308
0.480303
0.479623
0.477882
0.475127
0.472217
0.447464
0.448514
0.447405
0.441612
0.431455
0.41871
0.405632
0.394627
0.38713
0.383885
0.384451
0.387955
0.393612
0.401713
0.411804
0.423522
0.435313
0.445845
0.453611
0.458539
0.460617
0.461066
0.460782
0.460367
0.460004
0.45942
0.458011
0.455352
0.451494
0.447713
0.426091
0.429814
0.431795
0.429769
0.424056
0.415859
0.407251
0.399851
0.394992
0.39316
0.394051
0.397099
0.401549
0.407596
0.414925
0.423548
0.432507
0.440316
0.44584
0.449063
0.449985
0.449475
0.448196
0.446701
0.445145
0.443265
0.440537
0.436562
0.431309
0.426227
0.482858
0.488474
0.492918
0.494887
0.494484
0.492006
0.488439
0.484196
0.479957
0.476277
0.473355
0.471345
0.469692
0.468439
0.467243
0.468014
0.470429
0.473453
0.47628
0.478968
0.481261
0.483384
0.485308
0.487127
0.48867
0.489533
0.48939
0.488049
0.485341
0.482118
0.11557
0.123185
0.126407
0.126615
0.124207
0.119798
0.114201
0.109066
0.105616
0.10744
0.114418
0.128145
0.144959
0.165163
0.185442
0.203986
0.21769
0.226801
0.219825
0.207938
0.192499
0.1774
0.162041
0.147312
0.13396
0.122707
0.1141
0.107633
0.104414
0.103825
0.222998
0.232369
0.236087
0.234089
0.228311
0.22004
0.211388
0.205067
0.203165
0.210796
0.224751
0.246682
0.272468
0.303649
0.335545
0.364112
0.385057
0.399806
0.390296
0.371507
0.3469
0.321515
0.29551
0.270846
0.248691
0.230212
0.216203
0.205699
0.200584
0.200568
0.286532
0.298347
0.304154
0.302686
0.296966
0.288569
0.280117
0.274533
0.274852
0.286289
0.30388
0.329548
0.359029
0.393798
0.429389
0.460207
0.482513
0.49758
0.487776
0.466754
0.439137
0.4101
0.380274
0.351659
0.325694
0.303757
0.286936
0.274433
0.268423
0.268864
0.335879
0.350126
0.357104
0.355859
0.350171
0.341894
0.33402
0.329415
0.33201
0.345956
0.365475
0.392665
0.423367
0.459075
0.495883
0.527078
0.549261
0.563769
0.554826
0.533425
0.504924
0.474413
0.44291
0.412433
0.384479
0.360574
0.341897
0.328063
0.320937
0.321461
0.381415
0.398301
0.405681
0.404173
0.39802
0.389476
0.381871
0.378
0.38253
0.397968
0.418536
0.446272
0.477216
0.513095
0.550577
0.582057
0.60408
0.618208
0.610772
0.589848
0.561199
0.529933
0.497369
0.465581
0.436153
0.410758
0.390608
0.375724
0.367582
0.368192
0.42815
0.4476
0.454754
0.452505
0.445334
0.435996
0.428181
0.424677
0.430625
0.446879
0.46798
0.495842
0.526696
0.562709
0.600958
0.633168
0.655432
0.669631
0.664072
0.644154
0.615766
0.584087
0.550682
0.517669
0.486801
0.459961
0.43842
0.422619
0.413789
0.414627
0.478858
0.50048
0.506825
0.503398
0.49473
0.484143
0.475699
0.47223
0.479054
0.495601
0.516833
0.544599
0.575306
0.611725
0.650928
0.684376
0.707331
0.722114
0.718697
0.700205
0.672426
0.640667
0.606631
0.572499
0.540217
0.511921
0.489026
0.472345
0.463006
0.46415
0.53489
0.558005
0.563003
0.558054
0.547561
0.535416
0.526052
0.522343
0.529484
0.545869
0.566911
0.594359
0.624777
0.661688
0.701936
0.737205
0.761328
0.777188
0.776129
0.759564
0.732831
0.701418
0.667084
0.632064
0.598464
0.568741
0.544523
0.526956
0.51721
0.518646
0.59657
0.620236
0.623414
0.616716
0.604249
0.590421
0.579976
0.575808
0.582669
0.598457
0.618817
0.645576
0.675449
0.712773
0.753956
0.791422
0.817301
0.834772
0.836212
0.822105
0.796984
0.766475
0.732395
0.696927
0.662298
0.631287
0.605828
0.587379
0.577237
0.57886
0.663389
0.686479
0.687482
0.678901
0.664448
0.648973
0.637391
0.632553
0.638501
0.65314
0.672179
0.697814
0.726869
0.764318
0.806088
0.84558
0.873901
0.893647
0.897735
0.886663
0.863786
0.834844
0.801739
0.766481
0.73136
0.699413
0.672893
0.653595
0.643019
0.644638
0.734221
0.755442
0.754185
0.74357
0.727193
0.710214
0.697466
0.691691
0.696021
0.708865
0.725951
0.749974
0.777902
0.815016
0.856836
0.897724
0.928836
0.951703
0.958839
0.95137
0.93145
0.904773
0.87341
0.83923
0.804396
0.772074
0.744813
0.724773
0.713694
0.715094
0.807417
0.82554
0.822018
0.809269
0.791062
0.772732
0.758725
0.751585
0.753516
0.763749
0.778541
0.800462
0.827046
0.863248
0.904584
0.945677
0.979182
1.00595
1.01704
1.0139
0.997726
0.974049
0.945229
0.913018
0.879395
0.847459
0.819955
0.799367
0.787708
0.788662
0.880868
0.894876
0.889019
0.874148
0.854267
0.834671
0.81906
0.809796
0.808739
0.815738
0.828024
0.847536
0.872487
0.90734
0.947413
0.987638
1.02266
1.05287
1.06877
1.07121
1.05997
1.0402
1.01471
0.98534
0.953837
0.923174
0.89607
0.875252
0.862953
0.863163
0.952085
0.961203
0.95296
0.93606
0.91469
0.893656
0.87563
0.863905
0.859886
0.863441
0.872956
0.889718
0.912568
0.945606
0.98377
1.02305
1.05846
1.09016
1.11073
1.11886
1.11444
1.10023
1.07915
1.05355
1.02505
0.996465
0.970471
0.949835
0.936969
0.935987
1.01831
1.02213
1.01151
0.992635
0.969823
0.94658
0.926648
0.912504
0.905402
0.905319
0.911708
0.925515
0.946035
0.976823
1.01264
1.05078
1.08638
1.11924
1.14205
1.15447
1.15702
1.14953
1.13483
1.11456
1.09017
1.06459
1.04029
1.02026
1.00699
1.00438
1.0766
1.07541
1.06232
1.04137
1.01695
0.992318
0.970526
0.953837
0.943531
0.940097
0.943206
0.954082
0.972336
1.00046
1.0338
1.07044
1.1058
1.13944
1.16437
1.18048
1.18735
1.1857
1.17752
1.16398
1.14542
1.12447
1.10264
1.08365
1.07008
1.06558
1.12422
1.11912
1.10308
1.08068
1.05519
1.02941
1.00588
0.986698
0.973386
0.967054
0.967287
0.975565
0.991803
1.01721
1.04813
1.08273
1.11723
1.15069
1.1776
1.19668
1.20749
1.21086
1.20826
1.20008
1.18684
1.17117
1.15391
1.13721
1.1235
1.11695
1.15935
1.15044
1.13272
1.10959
1.0836
1.05701
1.03212
1.01071
0.994315
0.98522
0.983243
0.989649
1.00428
1.02761
1.05684
1.08983
1.12256
1.15458
1.18228
1.20373
1.21781
1.22529
1.22738
1.22443
1.21625
1.20475
1.19083
1.17638
1.16398
1.15628
1.18123
1.16968
1.15104
1.12794
1.10213
1.07514
1.04823
1.02438
1.0057
0.994549
0.991067
0.996429
1.00959
1.03116
1.05892
1.09074
1.12301
1.15484
1.18257
1.20456
1.21996
1.23024
1.23585
1.23735
1.23377
1.22603
1.21515
1.20269
1.19116
1.18191
1.19106
1.17776
1.15945
1.13723
1.111
1.08301
1.05479
1.02928
1.00908
0.996317
0.992051
0.996742
1.00903
1.02948
1.05602
1.08639
1.11706
1.14767
1.17547
1.19829
1.21527
1.22755
1.23632
1.24069
1.24057
1.2359
1.22756
1.21671
1.20563
1.19516
1.19266
1.1791
1.16109
1.13887
1.11274
1.08442
1.05549
1.02804
1.00576
0.992151
0.988132
0.993141
1.00491
1.02423
1.04964
1.07836
1.10712
1.13605
1.1629
1.18535
1.20237
1.2157
1.22662
1.2341
1.23746
1.23545
1.22899
1.21923
1.20802
1.19724
1.18363
1.16813
1.15089
1.12996
1.10509
1.07707
1.04766
1.01988
0.997867
0.984588
0.981618
0.98721
0.998731
1.01698
1.04115
1.06796
1.09464
1.12154
1.14675
1.16782
1.18368
1.19667
1.20814
1.21734
1.22316
1.22364
1.21913
1.21093
1.20052
1.1901
1.16332
1.1485
1.13404
1.11542
1.09201
1.06496
1.0363
1.00937
0.988495
0.97641
0.974779
0.980918
0.992268
1.00931
1.0318
1.05633
1.08079
1.10538
1.12836
1.14716
1.16103
1.17264
1.18345
1.19309
1.20026
1.20257
1.19919
1.19173
1.18144
1.17083
1.13521
1.12331
1.11302
1.09804
1.07689
1.05155
1.02455
0.999441
0.980572
0.970397
0.969946
0.976529
0.987442
1.00281
1.0229
1.04462
1.06673
1.08884
1.10904
1.12483
1.13597
1.14532
1.15452
1.1636
1.17107
1.1743
1.17147
1.16427
1.15374
1.14291
1.10202
1.09479
1.08979
1.07965
1.06193
1.03936
1.01518
0.992939
0.977164
0.969376
0.96971
0.976458
0.986406
0.999416
1.01613
1.03419
1.05357
1.07302
1.08998
1.10237
1.11044
1.11669
1.12311
1.13034
1.13688
1.13997
1.13737
1.13024
1.11957
1.10892
1.06363
1.06336
1.0648
1.06135
1.0491
1.03093
1.01172
0.994512
0.981865
0.976386
0.977334
0.983732
0.991379
0.999999
1.01106
1.02406
1.04066
1.05741
1.07106
1.08011
1.08484
1.08801
1.09154
1.09603
1.09958
1.10047
1.09711
1.08948
1.07863
1.06864
1.02374
1.032
1.04178
1.04684
1.04344
1.033
1.01986
1.00789
0.998891
0.993814
0.992345
0.994325
0.996098
0.997748
1.00076
1.00822
1.02218
1.03608
1.04681
1.05379
1.05693
1.0583
1.05936
1.06073
1.06209
1.06143
1.05722
1.04765
1.03518
1.02521
0.978644
0.998353
1.01951
1.03478
1.04106
1.03824
1.0288
1.01667
1.00432
0.993417
0.984948
0.979544
0.974193
0.969706
0.965473
0.968344
0.9798
0.990747
0.999342
1.0052
1.00801
1.0092
1.00973
1.01012
1.01065
1.00916
1.00399
0.994682
0.98269
0.974632
0.885524
0.909087
0.93464
0.955054
0.966886
0.968857
0.96154
0.948408
0.933393
0.920245
0.910033
0.902457
0.895291
0.889073
0.882958
0.885048
0.895245
0.905354
0.912459
0.917199
0.918636
0.918363
0.917157
0.915675
0.914054
0.911215
0.905752
0.897947
0.888339
0.881641
0.76632
0.779857
0.794121
0.80555
0.812432
0.81376
0.809744
0.801749
0.792238
0.783637
0.776871
0.772456
0.769347
0.768487
0.768971
0.777332
0.791108
0.804233
0.813428
0.81885
0.819609
0.817381
0.813064
0.807676
0.801921
0.795775
0.78883
0.781182
0.772885
0.766033
0.162046
0.172172
0.176356
0.176365
0.173066
0.167442
0.160947
0.155887
0.153712
0.159077
0.16896
0.185002
0.204017
0.228106
0.252801
0.275639
0.293253
0.306557
0.295514
0.278415
0.258149
0.239821
0.221425
0.203567
0.186965
0.172558
0.161028
0.152034
0.146452
0.144959
0.309297
0.33015
0.337721
0.336277
0.329137
0.318641
0.307809
0.300669
0.299765
0.311406
0.329522
0.356084
0.386717
0.425667
0.466695
0.50301
0.527389
0.543688
0.52638
0.500175
0.469378
0.438051
0.406844
0.377192
0.350071
0.326721
0.308005
0.293308
0.28463
0.28336
0.391058
0.414178
0.424136
0.423324
0.416391
0.405885
0.395461
0.389227
0.390879
0.405539
0.427153
0.457109
0.49122
0.533207
0.577735
0.615385
0.640237
0.65482
0.636595
0.608217
0.574805
0.540507
0.50623
0.47338
0.443136
0.416924
0.395873
0.379547
0.370343
0.370223
0.454627
0.478954
0.489495
0.488514
0.481459
0.471069
0.461371
0.456252
0.460292
0.476745
0.500084
0.531012
0.565917
0.608
0.652971
0.689856
0.713513
0.725924
0.708567
0.68025
0.646604
0.611759
0.576723
0.542977
0.511744
0.484544
0.462562
0.445713
0.436144
0.436663
0.51415
0.539702
0.549758
0.548016
0.540267
0.529579
0.520273
0.516052
0.521969
0.539521
0.563631
0.594493
0.62918
0.670606
0.715374
0.751327
0.773667
0.784386
0.76862
0.741335
0.708415
0.673945
0.638884
0.604862
0.573175
0.545452
0.522913
0.505882
0.496177
0.497139
0.575782
0.602331
0.611168
0.608231
0.599313
0.587927
0.578661
0.575064
0.582296
0.600385
0.624583
0.654846
0.688889
0.729569
0.774136
0.80952
0.83091
0.840647
0.826823
0.801085
0.76941
0.73592
0.701259
0.66726
0.635271
0.60709
0.58403
0.566839
0.557216
0.558564
0.64251
0.669551
0.676551
0.672089
0.661689
0.649347
0.639856
0.636631
0.644587
0.662655
0.686406
0.715741
0.748922
0.789006
0.833476
0.868749
0.889655
0.899088
0.887434
0.863608
0.83354
0.801466
0.767721
0.734055
0.701934
0.673362
0.649825
0.632441
0.622847
0.624473
0.715274
0.742036
0.746785
0.740641
0.728671
0.715272
0.705401
0.702299
0.710374
0.72786
0.750708
0.778855
0.811082
0.850693
0.895132
0.93056
0.951364
0.961046
0.951736
0.9302
0.90215
0.871933
0.839659
0.80672
0.774719
0.745889
0.721929
0.704274
0.694586
0.696301
0.793671
0.819231
0.821523
0.813716
0.800267
0.78587
0.775537
0.772311
0.779861
0.796224
0.817748
0.844511
0.875683
0.914881
0.959186
0.994816
1.01575
1.02603
1.01923
1.00029
0.974667
0.946755
0.916595
0.884919
0.853492
0.824672
0.800401
0.78242
0.772467
0.774034
0.876324
0.899654
0.899512
0.890151
0.875465
0.860263
0.849444
0.845824
0.852209
0.866918
0.886713
0.911865
0.94206
0.980724
1.02468
1.06035
1.08146
1.09252
1.08831
1.0722
1.04937
1.02419
0.996781
0.967044
0.936833
0.908487
0.884131
0.865822
0.855433
0.856604
0.961244
0.981183
0.978911
0.968001
0.952367
0.936704
0.925409
0.921081
0.925608
0.938058
0.955744
0.979191
1.00858
1.04663
1.09004
1.12541
1.14662
1.1585
1.1568
1.14363
1.12389
1.10176
1.07761
1.05065
1.02243
0.995178
0.971103
0.952566
0.941607
0.942178
1.04602
1.06165
1.05732
1.04488
1.02837
1.01266
1.00079
0.995337
0.997468
1.00725
1.02272
1.04447
1.07308
1.1104
1.15349
1.18805
1.20923
1.22193
1.22249
1.21219
1.19558
1.17674
1.15613
1.13279
1.10737
1.08194
1.05868
1.04014
1.02855
1.0283
1.12794
1.13854
1.13211
1.11815
1.10086
1.08515
1.07256
1.06559
1.06515
1.07207
1.08542
1.10569
1.13362
1.17021
1.21253
1.24632
1.26752
1.28096
1.28346
1.27577
1.26192
1.24629
1.22943
1.21033
1.18847
1.16566
1.14387
1.12571
1.11358
1.1121
1.204
1.20901
1.20038
1.18499
1.16716
1.15128
1.13769
1.1289
1.12615
1.1303
1.14194
1.16119
1.18864
1.22466
1.26586
1.29892
1.32012
1.33412
1.33826
1.33277
1.32102
1.30781
1.29446
1.28018
1.26259
1.2431
1.22352
1.20625
1.19379
1.19064
1.27078
1.2701
1.25922
1.24276
1.22476
1.2083
1.19353
1.18302
1.17844
1.18048
1.19119
1.21014
1.23751
1.27315
1.31305
1.34509
1.36609
1.38042
1.38589
1.38212
1.37176
1.3599
1.34881
1.33799
1.32528
1.31026
1.29381
1.27809
1.26566
1.26078
1.32447
1.31933
1.30643
1.28947
1.27155
1.25429
1.23854
1.22696
1.22134
1.2221
1.23262
1.25196
1.27974
1.31515
1.35366
1.38435
1.40492
1.41927
1.42573
1.42323
1.41358
1.40207
1.39195
1.38314
1.37377
1.36279
1.34994
1.33649
1.32491
1.31867
1.36304
1.35469
1.34062
1.32375
1.30611
1.2887
1.27263
1.26042
1.25416
1.25443
1.26542
1.28538
1.31375
1.34831
1.38534
1.41498
1.43597
1.45039
1.45752
1.45581
1.44638
1.43442
1.42411
1.41594
1.4086
1.40013
1.39011
1.3791
1.36886
1.36169
1.38633
1.37569
1.36123
1.34515
1.32844
1.31136
1.29502
1.28239
1.27606
1.27685
1.28884
1.30959
1.33818
1.37123
1.4065
1.43478
1.45684
1.47254
1.48093
1.47978
1.47032
1.4574
1.44605
1.43733
1.43049
1.42328
1.41492
1.4056
1.39656
1.38888
1.39553
1.38292
1.36886
1.35415
1.33847
1.32178
1.30569
1.29353
1.28792
1.29006
1.30326
1.32478
1.35293
1.38423
1.41754
1.44422
1.46682
1.484
1.49387
1.49358
1.4845
1.47097
1.45845
1.44859
1.44099
1.43379
1.42571
1.41708
1.40871
1.40104
1.39304
1.37845
1.36611
1.35369
1.33971
1.32373
1.30779
1.29549
1.29101
1.29513
1.30935
1.33128
1.3586
1.38792
1.41915
1.44418
1.46713
1.48547
1.49676
1.49639
1.48748
1.47324
1.4591
1.44812
1.43985
1.43216
1.42374
1.41495
1.40665
1.39944
1.37697
1.36186
1.35169
1.34197
1.33009
1.31548
1.30055
1.28951
1.28723
1.29301
1.30762
1.32948
1.35599
1.3831
1.41227
1.43576
1.45895
1.47839
1.49069
1.48987
1.48079
1.46611
1.45094
1.43819
1.42813
1.41921
1.41007
1.40083
1.39216
1.38508
1.34963
1.33639
1.32964
1.32326
1.31403
1.30127
1.28778
1.27828
1.27791
1.28507
1.30019
1.3215
1.34606
1.37071
1.39798
1.42031
1.44397
1.46451
1.4772
1.47587
1.46614
1.45047
1.43381
1.41908
1.40716
1.39679
1.38649
1.37583
1.36608
1.35849
1.31438
1.30502
1.30268
1.30019
1.29407
1.28344
1.27162
1.26388
1.26464
1.27244
1.28753
1.30748
1.32967
1.35166
1.3773
1.39908
1.42361
1.44536
1.45812
1.45612
1.4453
1.42817
1.40963
1.39282
1.37887
1.36684
1.35515
1.34307
1.33156
1.32325
1.27475
1.27064
1.27274
1.27434
1.27185
1.26372
1.25376
1.24731
1.24834
1.25586
1.26987
1.28786
1.30727
1.32656
1.35093
1.37304
1.39905
1.42223
1.43509
1.43224
1.42006
1.40117
1.3805
1.36143
1.34533
1.33142
1.31817
1.30474
1.29194
1.28281
1.23265
1.23434
1.24101
1.24651
1.24746
1.24188
1.23359
1.22787
1.22836
1.2346
1.2465
1.26185
1.27836
1.29526
1.31892
1.34264
1.37097
1.39604
1.40938
1.40562
1.39194
1.37101
1.34791
1.32632
1.30776
1.29176
1.27692
1.26233
1.24872
1.23942
1.18669
1.19356
1.20466
1.21377
1.21734
1.21437
1.20766
1.20225
1.20153
1.20565
1.21466
1.22702
1.24083
1.25634
1.2804
1.3076
1.33949
1.36722
1.38171
1.37729
1.36213
1.3389
1.31292
1.28818
1.26647
1.2478
1.23111
1.2153
1.20108
1.19179
1.13281
1.14363
1.15791
1.16962
1.17521
1.17449
1.16911
1.16363
1.16135
1.16308
1.16911
1.17883
1.19106
1.20715
1.23378
1.26694
1.30382
1.33529
1.35186
1.34758
1.33159
1.30628
1.27703
1.24813
1.22216
1.19961
1.17982
1.16178
1.14633
1.13678
1.06656
1.07823
1.09296
1.10515
1.11163
1.11218
1.10773
1.10206
1.09857
1.0988
1.10323
1.11204
1.12502
1.14452
1.17674
1.21888
1.26251
1.29909
1.31889
1.31607
1.3003
1.27376
1.24168
1.20858
1.17738
1.14914
1.12369
1.10112
1.08244
1.07104
0.992828
0.999095
1.0085
1.01653
1.02078
1.0208
1.01703
1.01213
1.00911
1.00964
1.01459
1.02496
1.0417
1.06817
1.10967
1.16398
1.2162
1.2595
1.28368
1.28428
1.27021
1.24361
1.20985
1.17342
1.13729
1.10305
1.07132
1.04274
1.01835
1.00139
0.944232
0.938737
0.93625
0.933934
0.93054
0.925753
0.920183
0.915017
0.912139
0.912977
0.918866
0.931877
0.954
0.990022
1.0429
1.11055
1.1722
1.22304
1.25286
1.25976
1.24956
1.22578
1.19323
1.15638
1.11818
1.08055
1.04471
1.01163
0.982296
0.958771
0.20435
0.218212
0.220982
0.219788
0.214974
0.207635
0.200365
0.194968
0.192408
0.197372
0.205991
0.221581
0.240727
0.268139
0.296988
0.324978
0.345619
0.362768
0.346411
0.323905
0.301509
0.28216
0.263106
0.244548
0.226622
0.210669
0.197638
0.187296
0.180131
0.178347
0.389394
0.41752
0.427879
0.427781
0.420939
0.410029
0.397821
0.389752
0.387546
0.397774
0.414018
0.438424
0.468325
0.509833
0.55613
0.597843
0.625524
0.64343
0.615172
0.57984
0.544965
0.514431
0.485387
0.45747
0.430899
0.406645
0.385765
0.369346
0.359247
0.358967
0.488305
0.519527
0.532421
0.53242
0.525064
0.513449
0.501204
0.493658
0.493214
0.505595
0.524259
0.551478
0.585141
0.630564
0.682043
0.726958
0.75468
0.768588
0.737265
0.698966
0.661144
0.627359
0.595445
0.564701
0.535621
0.509543
0.487276
0.469982
0.460028
0.46177
0.563193
0.595097
0.608314
0.607723
0.599846
0.587916
0.576151
0.569425
0.570614
0.583685
0.603426
0.631365
0.666008
0.712176
0.765285
0.810732
0.83662
0.846037
0.813813
0.775098
0.737166
0.703071
0.671023
0.640088
0.61084
0.584735
0.562885
0.545822
0.536224
0.538729
0.631624
0.663463
0.675757
0.674172
0.665521
0.65323
0.641891
0.635916
0.638073
0.651216
0.671113
0.698692
0.733188
0.779313
0.833279
0.878796
0.902692
0.908331
0.875657
0.837094
0.799909
0.766719
0.735773
0.705809
0.67738
0.651961
0.630767
0.614528
0.605405
0.608119
0.700536
0.731859
0.742399
0.739542
0.729864
0.717087
0.705898
0.700428
0.702982
0.715754
0.735053
0.761722
0.795748
0.841986
0.897059
0.942854
0.96509
0.967871
0.934752
0.896208
0.859885
0.828059
0.798812
0.770517
0.743472
0.719104
0.698666
0.683174
0.674913
0.677603
0.773331
0.803546
0.811655
0.80726
0.796413
0.783066
0.771866
0.766631
0.769078
0.780995
0.799212
0.824798
0.858494
0.905416
0.962236
1.00861
1.02958
1.03024
0.996627
0.957772
0.922043
0.891627
0.864315
0.838104
0.812826
0.789779
0.770278
0.755494
0.747923
0.750709
0.850703
0.879073
0.884408
0.87843
0.866435
0.852535
0.841264
0.836049
0.838017
0.848754
0.865695
0.890364
0.92419
0.97245
1.03154
1.07861
1.09858
1.0976
1.0636
1.02416
0.988616
0.959398
0.934033
0.910046
0.886719
0.865169
0.846726
0.832666
0.825528
0.828247
0.931795
0.957577
0.960119
0.952686
0.939707
0.925398
0.914098
0.908789
0.910109
0.919595
0.93536
0.959531
0.994088
1.04426
1.1058
1.15334
1.17242
1.17005
1.136
1.09584
1.06007
1.03157
1.00785
0.986006
0.964715
0.944776
0.927478
0.914135
0.907277
0.9097
1.01472
1.03723
1.03727
1.02861
1.01496
1.0005
0.989346
0.98397
0.984728
0.993163
1.00816
1.03243
1.0684
1.12078
1.1845
1.23189
1.24996
1.2464
1.21283
1.17208
1.13571
1.10727
1.08459
1.06453
1.04519
1.0269
1.01081
0.998196
0.991512
0.993464
1.09702
1.11558
1.1137
1.10406
1.09017
1.076
1.06528
1.06004
1.06057
1.06848
1.08336
1.10845
1.14648
1.20102
1.26613
1.3124
1.32924
1.32464
1.29228
1.2513
1.21413
1.18498
1.16246
1.14354
1.12584
1.1091
1.09422
1.08236
1.07581
1.07718
1.17602
1.19015
1.18672
1.17652
1.16295
1.14962
1.1398
1.13509
1.13595
1.14412
1.15981
1.18647
1.22701
1.28327
1.34867
1.39261
1.40785
1.4025
1.37212
1.33153
1.29349
1.26292
1.23953
1.22081
1.20413
1.18864
1.17487
1.16375
1.15737
1.15814
1.24895
1.25839
1.25374
1.24345
1.23082
1.21902
1.21067
1.20701
1.20905
1.21849
1.23599
1.26492
1.30813
1.36526
1.42951
1.47013
1.48342
1.47762
1.45005
1.41058
1.37181
1.33923
1.31391
1.29424
1.27768
1.26288
1.2499
1.23944
1.23329
1.23351
1.31313
1.31788
1.31237
1.30255
1.29157
1.28202
1.27575
1.27385
1.27813
1.28989
1.31016
1.34192
1.3876
1.44436
1.50587
1.54234
1.55377
1.54792
1.52386
1.48629
1.4471
1.4121
1.3839
1.36203
1.34448
1.32954
1.31681
1.30674
1.30078
1.3005
1.36599
1.36657
1.36061
1.35195
1.34341
1.33677
1.33322
1.334
1.34152
1.35657
1.38043
1.41534
1.46286
1.51781
1.57502
1.60674
1.61669
1.61167
1.59162
1.55665
1.51747
1.47987
1.44804
1.42274
1.40294
1.38685
1.3736
1.36339
1.35741
1.35652
1.40557
1.40309
1.39713
1.3904
1.38505
1.38186
1.38165
1.38613
1.39767
1.41698
1.44515
1.48325
1.53176
1.58334
1.63482
1.66122
1.67018
1.66717
1.65177
1.6199
1.5812
1.54109
1.50519
1.47544
1.45208
1.43361
1.41883
1.40772
1.40132
1.39958
1.43115
1.42659
1.42143
1.41732
1.4157
1.41633
1.42031
1.4294
1.44587
1.47016
1.50302
1.5441
1.59257
1.6395
1.68446
1.70519
1.71314
1.71289
1.70262
1.67438
1.63668
1.5944
1.55441
1.51963
1.49157
1.46946
1.45196
1.43892
1.43148
1.42868
1.44318
1.43725
1.43376
1.43266
1.43521
1.44033
1.44926
1.46359
1.48553
1.51514
1.55275
1.59628
1.64363
1.68492
1.72327
1.73877
1.74627
1.7487
1.74313
1.71858
1.68234
1.63851
1.5948
1.55496
1.52157
1.49481
1.47347
1.45739
1.44809
1.44403
1.44417
1.43627
1.43502
1.43749
1.44462
1.45448
1.46881
1.48861
1.51618
1.55107
1.59305
1.63821
1.68343
1.71856
1.75092
1.76227
1.7703
1.77556
1.77411
1.75259
1.71772
1.67275
1.62579
1.58118
1.54231
1.51036
1.48432
1.46435
1.45251
1.44702
1.43277
1.42526
1.42719
1.43383
1.444
1.45963
1.47953
1.5045
1.53741
1.57719
1.62267
1.66843
1.71054
1.7398
1.76735
1.77621
1.78608
1.79456
1.7964
1.77717
1.74334
1.69766
1.64798
1.59923
1.55483
1.515
1.48261
1.4597
1.44617
1.43859
1.41268
1.40694
1.41199
1.42282
1.43743
1.45585
1.47918
1.51048
1.54897
1.59276
1.64046
1.68567
1.72439
1.7484
1.77285
1.7814
1.7945
1.80687
1.81103
1.7933
1.76028
1.71427
1.66243
1.60832
1.5562
1.51122
1.4749
1.44827
1.43092
1.42093
1.38661
1.38326
1.3913
1.40586
1.42441
1.44635
1.47271
1.50603
1.54706
1.59473
1.64472
1.68892
1.72376
1.74446
1.768
1.77893
1.79664
1.81356
1.81935
1.80264
1.7699
1.72284
1.66687
1.60735
1.55141
1.50237
1.46199
1.43066
1.40931
1.39682
1.35687
1.35607
1.36674
1.38423
1.4057
1.4302
1.45919
1.49483
1.53774
1.58663
1.63661
1.67865
1.71012
1.72851
1.75365
1.77007
1.79391
1.81569
1.82305
1.80675
1.77221
1.72203
1.66366
1.60166
1.54216
1.48915
1.44474
1.40881
1.38356
1.36851
1.32533
1.32667
1.33938
1.35874
1.3818
1.40771
1.43784
1.47447
1.51825
1.56686
1.61483
1.65411
1.68272
1.70112
1.73083
1.75615
1.78751
1.81502
1.82367
1.80632
1.76947
1.71734
1.65681
1.59238
1.52957
1.47277
1.42427
1.38442
1.35535
1.33791
1.29276
1.29571
1.30947
1.3293
1.35246
1.37832
1.4084
1.44457
1.48731
1.53384
1.57881
1.61528
1.64211
1.66301
1.70062
1.73845
1.77874
1.81234
1.82264
1.80416
1.76506
1.71055
1.64773
1.58103
1.51531
1.45487
1.40235
1.35883
1.32602
1.30614
1.2597
1.26319