/*--------------------------------*- C++ -*----------------------------------*\
  =========                 |
  \\      /  F ield         | OpenFOAM: The Open Source CFD Toolbox
   \\    /   O peration     | Website:  https://openfoam.org
    \\  /    A nd           | Version:  12
     \\/     M anipulation  |
\*---------------------------------------------------------------------------*/
FoamFile
{
    format      ascii;
    class       volScalarField;
    location    "200/air";
    object      nut;
}
// * * * * * * * * * * * * * * * * * * * * * * * * * * * * * * * * * * * * * //

dimensions      [0 2 -1 0 0 0 0];

internalField   nonuniform List<scalar> 
243000
(
0.000132459
0.00013255
0.000130093
0.000126241
0.000121338
0.000115661
0.000109401
0.000103011
9.66547e-05
9.11246e-05
8.69976e-05
9.13799e-05
0.000101553
0.000110893
0.000119063
0.000126123
0.000131325
0.000134722
0.000134026
0.000132338
0.000129216
0.000126487
0.000123548
0.000120587
0.000117918
0.000115943
0.000115288
0.00011577
0.000119144
0.000123998
0.000539334
0.000526305
0.000509272
0.000488957
0.000466964
0.000443724
0.000420107
0.000397926
0.00037803
0.00036439
0.000358217
0.000380466
0.00040986
0.000439279
0.00046625
0.000490521
0.000509469
0.000523677
0.000523382
0.000517895
0.000507284
0.00049731
0.000486596
0.000476624
0.000468196
0.000462926
0.000462414
0.000466354
0.000479101
0.000499235
0.0007162
0.000727541
0.000731266
0.000728346
0.00072084
0.000709059
0.000694229
0.000679092
0.000665797
0.00066154
0.000671246
0.000722254
0.000778242
0.000833354
0.000882808
0.000924213
0.000952837
0.000969674
0.000958915
0.000934822
0.000900277
0.00086427
0.000825917
0.000788164
0.000752604
0.000721673
0.000697259
0.000679096
0.000671244
0.000673105
0.000769247
0.000782779
0.000787281
0.000784557
0.000776965
0.000765072
0.000750388
0.000735709
0.000723938
0.000722353
0.000738464
0.000790504
0.00084497
0.000898854
0.00094785
0.000988716
0.00101669
0.00103304
0.0010229
0.00099853
0.000963947
0.000927278
0.000888232
0.000849737
0.000813472
0.000781872
0.000756716
0.000738218
0.000729669
0.000731831
0.00081218
0.000827413
0.000832465
0.000829838
0.000822123
0.000810135
0.000795646
0.000781466
0.000771145
0.000771913
0.000793151
0.000844402
0.000896799
0.00094901
0.000996979
0.00103707
0.00106417
0.00107995
0.00107076
0.00104674
0.00101268
0.000976015
0.000936922
0.000898301
0.000861904
0.000830137
0.000804694
0.000786119
0.000777116
0.000779291
0.000850843
0.000867324
0.000872511
0.00086969
0.000861586
0.000849293
0.00083483
0.000821043
0.00081198
0.000814829
0.000840017
0.000889637
0.000939812
0.000990262
0.00103712
0.00107651
0.00110286
0.00111824
0.00111027
0.00108709
0.00105389
0.00101762
0.000978826
0.000940361
0.000904051
0.000872312
0.000846776
0.000828236
0.000819042
0.000821161
0.000888414
0.000905707
0.000910541
0.000907146
0.000898288
0.000885375
0.000870685
0.000857111
0.000849046
0.000853731
0.000881733
0.000929383
0.000977359
0.00102618
0.00107202
0.0011109
0.00113674
0.00115199
0.00114547
0.00112348
0.0010914
0.00105583
0.00101758
0.000979469
0.000943395
0.000911799
0.000886295
0.000867897
0.000858718
0.000860797
0.000926712
0.000944363
0.000948351
0.000943967
0.000933947
0.000920068
0.000904865
0.000891284
0.000883912
0.000890304
0.000919902
0.000965569
0.00101146
0.00105878
0.00110374
0.00114232
0.00116795
0.00118334
0.00117848
0.00115805
0.00112735
0.00109276
0.0010553
0.00101773
0.000982009
0.000950658
0.000925316
0.00090717
0.000898175
0.000900271
0.000966712
0.000984241
0.000986916
0.000981123
0.000969548
0.000954362
0.00093836
0.000924535
0.000917512
0.000925375
0.000955658
0.000999303
0.00104319
0.00108911
0.00113328
0.0011718
0.00119753
0.00121338
0.00121034
0.00119183
0.00116281
0.00112951
0.0010931
0.0010563
0.0010211
0.000990125
0.000965095
0.00094733
0.000938649
0.000940832
0.00100877
0.00102565
0.00102659
0.00101901
0.00100553
0.000988738
0.000971675
0.000957357
0.000950319
0.000959313
0.000989534
0.00103107
0.00107302
0.00111763
0.00116106
0.00119966
0.00122581
0.00124244
0.00124135
0.00122516
0.00119812
0.00116646
0.00113143
0.00109569
0.00106125
0.00103084
0.0010063
0.000989055
0.000980805
0.000983119
0.00105277
0.00106837
0.0010673
0.00105756
0.00104191
0.00102327
0.00100491
0.000989828
0.000982393
0.000992105
0.00102161
0.00106096
0.001101
0.00114435
0.00118703
0.00122577
0.00125261
0.00127035
0.00127136
0.00125782
0.00123312
0.00120347
0.00117019
0.00113586
0.00110251
0.00107293
0.00104909
0.00103253
0.00102483
0.00102729
0.00109819
0.00111184
0.00110855
0.00109637
0.00107831
0.00105766
0.00103779
0.00102166
0.00101346
0.0010234
0.00105167
0.00108872
0.0011269
0.00116896
0.00121087
0.00124967
0.00127739
0.00129655
0.0012998
0.00128924
0.00126725
0.00123997
0.00120884
0.00117635
0.00114448
0.00111607
0.00109318
0.00107749
0.00107043
0.00107306
0.00114415
0.00115525
0.00114956
0.00113474
0.00111412
0.00109134
0.00106976
0.00105225
0.00104294
0.0010526
0.00107922
0.00111393
0.00115024
0.00119095
0.00123201
0.00127078
0.00129942
0.00132021
0.00132585
0.00131855
0.00129961
0.0012751
0.00124651
0.00121629
0.00118634
0.00115951
0.00113789
0.00112324
0.00111693
0.00111969
0.00118948
0.00119753
0.00118927
0.00117173
0.00114852
0.00112352
0.00109998
0.00108077
0.00107009
0.00107899
0.00110367
0.00113601
0.00117039
0.0012097
0.00124979
0.00128845
0.00131798
0.00134042
0.0013485
0.00134462
0.00132911
0.00130772
0.00128204
0.00125453
0.00122697
0.00120213
0.00118213
0.00116874
0.00116325
0.00116609
0.00123275
0.00123738
0.00122651
0.00120626
0.0011805
0.00115315
0.00112745
0.00110629
0.00109404
0.00110177
0.00112428
0.00115428
0.00118668
0.0012245
0.00126352
0.001302
0.00133234
0.0013565
0.00136683
0.00136635
0.00135448
0.00133652
0.00131413
0.00128971
0.00126498
0.00124255
0.00122452
0.00121263
0.00120805
0.00121087
0.00127236
0.00127344
0.00125999
0.00123715
0.00120892
0.00117918
0.00115118
0.00112784
0.00111389
0.00112013
0.00114038
0.00116805
0.00119847
0.00123471
0.00127256
0.00131077
0.00134183
0.00136766
0.00138017
0.0013829
0.00137463
0.00136021
0.00134135
0.00132037
0.00129887
0.00127926
0.0012635
0.00125331
0.00124977
0.0012525
0.00130664
0.00130442
0.00128846
0.00126322
0.00123263
0.00120052
0.00117015
0.00114461
0.00112908
0.00113371
0.0011517
0.00117703
0.00120547
0.00123995
0.00127642
0.00131419
0.00134581
0.00137305
0.00138786
0.00139352
0.00138876
0.00137785
0.0013626
0.00134517
0.00132712
0.00131066
0.00129751
0.00128919
0.00128675
0.00128933
0.00133416
0.00132898
0.00131073
0.00128334
0.00125049
0.00121613
0.00118371
0.00115737
0.00114237
0.00114594
0.00116154
0.00118406
0.0012101
0.00124194
0.00127597
0.00131226
0.00134414
0.0013726
0.00138921
0.0013976
0.00139612
0.00138861
0.00137691
0.00136308
0.00134857
0.00133539
0.00132499
0.00131867
0.00131739
0.00131978
0.00135371
0.00134596
0.00132565
0.00129625
0.00126183
0.00122657
0.00119498
0.00116908
0.00115439
0.00115672
0.0011701
0.00119007
0.00121385
0.00124326
0.00127509
0.00130921
0.00133921
0.001366
0.00138418
0.00139484
0.00139607
0.00139182
0.00138361
0.00137323
0.00136223
0.00135232
0.00134473
0.00134047
0.00134031
0.00134243
0.00136437
0.00135427
0.0013326
0.00130221
0.00126957
0.00123553
0.00120463
0.00117921
0.00116468
0.00116564
0.001177
0.00119466
0.00121641
0.00124334
0.00127331
0.00130532
0.00133365
0.00135937
0.00137689
0.00138754
0.00138956
0.0013873
0.00138218
0.00137509
0.00136744
0.00136061
0.00135571
0.00135351
0.00135431
0.00135615
0.00136572
0.0013543
0.00133426
0.00130653
0.00127539
0.00124259
0.00121234
0.0011874
0.00117285
0.00117247
0.00118195
0.00119764
0.00121727
0.00124216
0.00127027
0.00130023
0.00132705
0.0013517
0.00136866
0.00137932
0.00138222
0.00138128
0.00137757
0.0013721
0.00136602
0.00136043
0.00135738
0.00135698
0.0013585
0.00136009
0.00136098
0.00135148
0.00133359
0.00130824
0.00127864
0.00124715
0.00121759
0.00119307
0.00117859
0.00117704
0.00118486
0.00119854
0.00121637
0.0012394
0.00126568
0.0012937
0.00131913
0.00134266
0.00135907
0.00136973
0.00137345
0.00137353
0.00137111
0.00136716
0.00136263
0.0013584
0.00135618
0.00135559
0.0013563
0.00135677
0.00135361
0.0013454
0.00132981
0.00130695
0.00127916
0.00124899
0.00122019
0.00119624
0.00118174
0.00117924
0.00118534
0.00119741
0.00121362
0.00123481
0.00125931
0.00128549
0.00130962
0.00133199
0.00134784
0.00135839
0.00136272
0.0013636
0.00136226
0.00135967
0.00135656
0.00135365
0.00135199
0.00135124
0.00135116
0.00135065
0.00134273
0.00133586
0.00132238
0.00130218
0.00127647
0.00124797
0.00122026
0.00119697
0.00118251
0.00117897
0.00118363
0.00119417
0.0012088
0.00122823
0.00125097
0.00127541
0.00129828
0.00131944
0.00133467
0.00134496
0.00134964
0.00135108
0.00135059
0.00134914
0.00134726
0.00134547
0.0013442
0.00134322
0.00134229
0.0013409
0.00132767
0.00132231
0.00131115
0.00129347
0.00127009
0.00124355
0.00121721
0.00119486
0.00118052
0.00117615
0.00117955
0.00118865
0.00120178
0.00121949
0.0012405
0.00126325
0.00128487
0.00130478
0.0013193
0.00132914
0.00133387
0.00133563
0.00133572
0.00133511
0.00133419
0.00133323
0.00133219
0.00133084
0.00132903
0.00132677
0.00130759
0.00130402
0.00129552
0.00128053
0.00125963
0.0012352
0.00121063
0.00118963
0.00117576
0.0011708
0.00117314
0.00118083
0.0011925
0.00120848
0.00122771
0.00124876
0.00126912
0.00128771
0.00130137
0.00131056
0.00131504
0.00131683
0.00131721
0.00131709
0.00131676
0.00131627
0.00131522
0.00131333
0.00131053
0.00130739
0.00128165
0.0012802
0.00127473
0.00126281
0.00124479
0.00122301
0.0012007
0.00118153
0.00116853
0.00116327
0.00116474
0.00117114
0.00118126
0.00119543
0.00121279
0.00123204
0.00125099
0.00126806
0.00128061
0.0012889
0.00129286
0.00129437
0.00129465
0.00129458
0.00129442
0.00129398
0.00129264
0.00128996
0.00128597
0.00128185
0.00124869
0.00124999
0.00124831
0.00124015
0.0012259
0.00120779
0.00118882
0.00117244
0.00116118
0.00115642
0.00115744
0.00116296
0.00117168
0.00118389
0.00119882
0.00121583
0.00123273
0.00124761
0.00125843
0.00126528
0.0012682
0.00126889
0.00126852
0.00126786
0.00126716
0.00126606
0.0012638
0.00125988
0.00125434
0.00124897
0.00121956
0.0012248
0.00122758
0.00122474
0.0012167
0.00120508
0.00119259
0.00118177
0.00117457
0.00117193
0.00117339
0.00117807
0.00118478
0.00119369
0.00120432
0.00121662
0.00122932
0.00124029
0.00124799
0.00125249
0.00125382
0.00125318
0.00125146
0.00124936
0.0012471
0.00124431
0.00124026
0.00123451
0.00122695
0.00121964
0.00130133
0.00130907
0.00131528
0.00131824
0.00131804
0.00131509
0.0013106
0.0013051
0.00129945
0.00129448
0.0012905
0.00128768
0.00128527
0.00128327
0.0012812
0.00128161
0.00128436
0.00128818
0.00129182
0.00129537
0.00129844
0.00130136
0.00130413
0.00130675
0.00130895
0.00131014
0.00131002
0.00130828
0.00130463
0.00130026
0.000180236
0.000179133
0.000174781
0.000168709
0.00016142
0.000153414
0.000145221
0.000137851
0.000132005
0.000129863
0.000131187
0.000136592
0.000143609
0.000152276
0.000160949
0.000169032
0.000175568
0.000180858
0.000180413
0.00017826
0.00017486
0.000171742
0.00016843
0.000165223
0.000162471
0.000160657
0.000160306
0.000161314
0.000164836
0.000170687
0.00110998
0.00111105
0.00106433
0.000995752
0.000924113
0.000853474
0.000792879
0.000750418
0.000729116
0.000738151
0.000753085
0.000784039
0.00082213
0.000877497
0.000937371
0.000991132
0.00102916
0.00106989
0.00107857
0.00106399
0.00103448
0.000998921
0.000957853
0.000921491
0.000892791
0.000875682
0.000870186
0.000872734
0.000881331
0.000911488
0.00207337
0.0021404
0.00208386
0.001968
0.00183935
0.00170898
0.00159578
0.00151652
0.00148271
0.0015082
0.0015445
0.00161187
0.00169048
0.00180043
0.00192146
0.00201992
0.00208637
0.00216304
0.00218826
0.00216114
0.00209955
0.00202415
0.00193676
0.00185576
0.0017895
0.0017463
0.00172682
0.00172639
0.00174198
0.00180169
0.00292881
0.00304814
0.00299052
0.00285243
0.00269272
0.00252614
0.00237959
0.00227671
0.00224082
0.00228364
0.00234484
0.00244506
0.00255749
0.00271093
0.00288132
0.00301247
0.00309904
0.00320306
0.00324447
0.00320871
0.00312174
0.00301406
0.00288895
0.00276771
0.0026643
0.00259217
0.00255364
0.00254773
0.00256923
0.00265207
0.00368092
0.0038206
0.0037599
0.00361494
0.00344728
0.00326942
0.00311392
0.00300533
0.00298128
0.00303851
0.00311529
0.00323685
0.00337165
0.0035537
0.00375628
0.0039078
0.00400912
0.00412771
0.004183
0.00414131
0.00403798
0.00390897
0.00375876
0.00361656
0.00349491
0.00340768
0.00335617
0.00334012
0.00334811
0.00343013
0.00433029
0.00446697
0.00440323
0.00426526
0.0041047
0.00393152
0.00378104
0.00367897
0.00366926
0.00373949
0.00383175
0.00396848
0.00411831
0.00430398
0.00452062
0.00468062
0.00479242
0.00491326
0.00498114
0.00495353
0.00484713
0.00470464
0.00453974
0.00437793
0.00423471
0.00412679
0.00405995
0.00403261
0.0040409
0.00411849
0.00489598
0.00501659
0.00494813
0.00482473
0.00467701
0.00451689
0.0043813
0.00429454
0.00429963
0.00437855
0.00447948
0.00461943
0.00476809
0.00495071
0.00516727
0.0053274
0.00544583
0.00556316
0.00563924
0.00561717
0.00551434
0.00537135
0.00520425
0.00503601
0.00488383
0.00476524
0.00468672
0.00465024
0.00465712
0.00472215
0.00539803
0.00549689
0.0054225
0.00531485
0.00517901
0.00503575
0.00491847
0.00485029
0.00486746
0.00494949
0.0050516
0.00518664
0.00532752
0.00549702
0.00570327
0.00585932
0.0059804
0.00609351
0.00617548
0.00616415
0.00607117
0.00593512
0.00577345
0.00560706
0.00545309
0.00532935
0.0052439
0.00520102
0.0052054
0.00525551
0.00585374
0.00592864
0.00584922
0.00575141
0.00562633
0.00549942
0.00540019
0.0053481
0.00537298
0.00545252
0.00554914
0.00567313
0.00580054
0.0059537
0.00614322
0.00629385
0.00641501
0.00652659
0.00661279
0.0066162
0.00653758
0.0064138
0.00626313
0.0061046
0.00595464
0.00583092
0.00574311
0.00569686
0.00569828
0.00573539
0.0062745
0.00632398
0.00624074
0.00614742
0.00603071
0.00591736
0.00583308
0.00579283
0.00581973
0.00589154
0.00597742
0.00608621
0.00619714
0.00633241
0.00650285
0.0066475
0.00676895
0.00688286
0.00697189
0.00699311
0.00693204
0.00682446
0.00668887
0.00654265
0.00640133
0.00628213
0.00619589
0.00614907
0.00614764
0.0061754
0.00666538
0.00668673
0.0066035
0.00650987
0.00639856
0.00629537
0.00622182
0.00618857
0.00621153
0.00627123
0.00634254
0.00643363
0.0065266
0.00664363
0.00679476
0.00693311
0.0070559
0.00717537
0.00726854
0.00730847
0.00726745
0.00717882
0.00706134
0.00693104
0.00680227
0.00669136
0.00660991
0.00656497
0.00656165
0.00658266
0.00702587
0.00701745
0.00693685
0.00683962
0.00673124
0.00663497
0.00656784
0.00653674
0.00655032
0.00659419
0.00664885
0.0067208
0.00679567
0.00689458
0.00702707
0.00715816
0.00728312
0.00741006
0.00751116
0.00756878
0.00754985
0.00748225
0.0073852
0.00727367
0.00716074
0.00706145
0.00698758
0.0069465
0.00694232
0.00695826
0.00735116
0.00731449
0.00723421
0.00713295
0.00702598
0.00693385
0.00686885
0.00683515
0.00683544
0.00686108
0.00689791
0.00695042
0.00700744
0.0070889
0.00720313
0.00732616
0.00745379
0.00758816
0.00770058
0.00777385
0.00777938
0.00773469
0.00765972
0.00756917
0.00747479
0.00739004
0.00732618
0.00729066
0.00728617
0.00729822
0.00763325
0.00757146
0.00748786
0.00738337
0.007277
0.00718642
0.00711927
0.00707922
0.00706556
0.00707152
0.00708972
0.0071229
0.00716251
0.00722698
0.0073234
0.00743913
0.00756861
0.00770904
0.00783324
0.00791973
0.00795087
0.00793155
0.00788026
0.00781245
0.00773879
0.0076709
0.00761919
0.00759071
0.00758682
0.00759438
0.0078617
0.00777881
0.00769042
0.00758289
0.00747652
0.00738464
0.00731411
0.00726542
0.00723665
0.00722278
0.00722182
0.00723638
0.00725974
0.00730744
0.00738672
0.00749546
0.00762575
0.00777463
0.00790592
0.0080051
0.00805662
0.00806405
0.00803862
0.00799557
0.00794459
0.00789567
0.00785768
0.00783754
0.00783558
0.00783738
0.00802417
0.00792863
0.00783368
0.00772312
0.00761627
0.00752342
0.00744769
0.00738806
0.00734239
0.0073109
0.00729103
0.00728845
0.00729785
0.00732756
0.00739142
0.00749288
0.00762317
0.00777933
0.00791896
0.00802964
0.008096
0.00812617
0.00812564
0.00810832
0.00808188
0.00805437
0.00803169
0.00802097
0.00802193
0.00801801
0.00810987
0.00801411
0.00790982
0.00779769
0.00769122
0.00759652
0.00751376
0.007441
0.00737765
0.00732935
0.00729392
0.00727655
0.0072738
0.00728563
0.00733625
0.00742943
0.00755883
0.00771688
0.00786881
0.00798931
0.00807096
0.0081177
0.00813985
0.00814534
0.00814131
0.00813493
0.00813026
0.00813094
0.0081357
0.0081268
0.00811855
0.00802241
0.00791308
0.00780159
0.00769593
0.00759783
0.00750593
0.00741638
0.00732872
0.00725985
0.00721198
0.00718356
0.00716927
0.00716767
0.00721137
0.00730393
0.00743184
0.00758847
0.00774673
0.00788046
0.007977
0.00803979
0.00807866
0.0081067
0.00812354
0.00813485
0.00814499
0.00815625
0.00816747
0.00815631
0.00804969
0.007951
0.00783985
0.00773094
0.00762506
0.00751922
0.007403
0.00728946
0.00718273
0.00709631
0.00703664
0.00699983
0.00696914
0.00695238
0.00698614
0.00708252
0.00722908
0.0074081
0.0075743
0.00771374
0.00781488
0.00789029
0.00794389
0.00799076
0.00802714
0.00805395
0.00807735
0.00809811
0.0081152
0.00810316
0.00790582
0.00780201
0.00769497
0.00758833
0.00746593
0.00733963
0.00720474
0.00707275
0.00695015
0.00684456
0.00677311
0.00672356
0.0066792
0.00665156
0.00667432
0.00676786
0.00691648
0.00710315
0.00728361
0.00744425
0.00756858
0.007663
0.00774243
0.0078019
0.0078526
0.00789252
0.00792755
0.00795706
0.00798053
0.0079734
0.00770995
0.00760645
0.00749119
0.00736809
0.00723382
0.00709412
0.0069452
0.00678573
0.0066328
0.00651101
0.00643219
0.006376
0.00632012
0.00628047
0.00629291
0.00637981
0.00652471
0.00670775
0.00688994
0.0070595
0.00719583
0.00731064
0.00741663
0.0075068
0.00758379
0.00763965
0.00768452
0.00772241
0.00775095
0.00776141
0.00739382
0.00726031
0.00713783
0.00701289
0.00687992
0.00673306
0.00656986
0.00639883
0.00624017
0.00611166
0.00602871
0.00596643
0.00590415
0.00585787
0.0058626
0.00594202
0.00607938
0.00625058
0.00642422
0.00658873
0.00672459
0.00684792
0.00696866
0.00708114
0.0071817
0.00725797
0.00731838
0.00737396
0.00742201
0.00745683
0.00692624
0.00679256
0.00668395
0.00656723
0.00643614
0.00628811
0.00612303
0.00595118
0.00579248
0.00566423
0.00557908
0.00551301
0.00545073
0.00540587
0.00540736
0.00548127
0.00560958
0.00576445
0.00592159
0.00606761
0.00619043
0.00630805
0.00642918
0.00655142
0.0066668
0.00675991
0.0068297
0.00689384
0.00695071
0.00699682
0.00634606
0.00623313
0.00614871
0.00605148
0.00592851
0.00578557
0.00562554
0.00545969
0.00530835
0.00518731
0.00510224
0.00503898
0.00498391
0.00494886
0.00495415
0.00502732
0.00514741
0.00528542
0.00542059
0.00553827
0.00563581
0.00573197
0.00583755
0.00595346
0.00607
0.00617045
0.00624385
0.00630993
0.00636842
0.00641798
0.00569377
0.0056122
0.00555481
0.00548311
0.00537523
0.00524371
0.00509596
0.00494291
0.00480992
0.00470224
0.0046228
0.00457106
0.00453242
0.00451572
0.00453402
0.00461359
0.00472863
0.0048528
0.00496415
0.00504814
0.00511118
0.00517007
0.00524166
0.00533169
0.00543051
0.00552211
0.00559193
0.00565438
0.00570976
0.00575858
0.00500462
0.00495783
0.00492142
0.00488013
0.00479635
0.00468337
0.00456179
0.00443901
0.00432648
0.00423851
0.00417597
0.00414629
0.00413208
0.00413912
0.0041809
0.0042765
0.00440131
0.00452373
0.00461624
0.0046629
0.00467527
0.00468216
0.0047032
0.00474591
0.00480147
0.00486104
0.00491422
0.00496368
0.00500932
0.00505294
0.00432244
0.00430129
0.00428834
0.00427243
0.00422738
0.00415161
0.00406052
0.00397259
0.00389699
0.0038412
0.00380667
0.00380305
0.00382042
0.0038685
0.00395004
0.00406963
0.00420583
0.00433041
0.00441173
0.00443787
0.00441803
0.00437265
0.00432012
0.00427755
0.00426363
0.00426712
0.00428285
0.00430026
0.00431916
0.00434634
0.00370088
0.00371115
0.00372811
0.00373806
0.00372763
0.00369555
0.0036477
0.00360108
0.00356761
0.00355529
0.00356708
0.00359974
0.00364921
0.00372694
0.00383294
0.00396698
0.00411557
0.00424252
0.00432242
0.00434397
0.0043138
0.00424798
0.00416089
0.00406552
0.00397423
0.00389007
0.00381828
0.00376919
0.00373143
0.00371254
0.0033944
0.00340064
0.0034134
0.00342329
0.00342714
0.00342472
0.00341974
0.00341622
0.00341961
0.0034359
0.00346726
0.0035169
0.00358516
0.00368262
0.00381258
0.00396654
0.00413158
0.00427113
0.00435789
0.00438614
0.00435716
0.00428736
0.00418828
0.00407142
0.00394796
0.00382521
0.0037092
0.00360645
0.00351609
0.00343465
0.00363146
0.00360209
0.00357239
0.0035448
0.00352448
0.00351312
0.00351224
0.00352007
0.00353703
0.00356605
0.00361029
0.00367649
0.00376978
0.00390236
0.00407663
0.00427877
0.00448557
0.00466173
0.00477828
0.0048303
0.00481556
0.00475122
0.00464663
0.00451509
0.00436934
0.00422056
0.00407685
0.00394367
0.00382036
0.0037001
0.000213123
0.000211576
0.000206275
0.000198966
0.000190403
0.000181234
0.000172258
0.000164668
0.000159148
0.000158027
0.000159615
0.000164342
0.000170551
0.000179093
0.00018804
0.000196502
0.000203836
0.00021038
0.000209189
0.000206154
0.000202345
0.000199565
0.000196784
0.000194143
0.000191873
0.000190448
0.000190343
0.000191586
0.00019503
0.000201463
0.00154071
0.00160738
0.00155411
0.00146458
0.00136978
0.00127727
0.00119765
0.00114422
0.00111985
0.0011377
0.00116642
0.0012113
0.00125904
0.00133596
0.00141895
0.00148651
0.00151335
0.00154501
0.00155319
0.00154029
0.00151075
0.00146107
0.00140442
0.00135586
0.00131858
0.00129675
0.00128829
0.00129053
0.00129497
0.00133006
0.00296913
0.00311402
0.00304833
0.00289966
0.00273846
0.00257903
0.00244504
0.00235879
0.00233373
0.0023827
0.00244654
0.00253565
0.00262719
0.0027641
0.00291387
0.00301008
0.00304477
0.0031087
0.00314394
0.00313072
0.00307581
0.00298506
0.00287333
0.00276907
0.00268385
0.00262845
0.00260244
0.00260085
0.00261326
0.00268543
0.00422523
0.00440551
0.00433549
0.00415964
0.00397141
0.00378103
0.00362432
0.00352747
0.00351564
0.00359168
0.00368517
0.00380659
0.00392754
0.00409798
0.00428663
0.00438941
0.00442735
0.00452347
0.00459019
0.00458649
0.00451768
0.00440294
0.00425347
0.00410622
0.00397936
0.00388742
0.00383808
0.003826
0.00384606
0.00394421
0.00532706
0.00550415
0.00541126
0.00522925
0.00503457
0.00484232
0.00468724
0.00459856
0.00460517
0.00470036
0.0048152
0.00495507
0.00508757
0.00526819
0.00546883
0.0055673
0.00561126
0.00572746
0.00582626
0.00583867
0.00576537
0.00563953
0.00546997
0.00529651
0.0051447
0.00503872
0.00498012
0.00496447
0.00497153
0.00505544
0.00623143
0.00637812
0.00627946
0.00611565
0.00594017
0.00576107
0.00562153
0.00555008
0.00557701
0.00568471
0.00581173
0.00595733
0.00609863
0.00625928
0.00644595
0.00653374
0.00658738
0.00670575
0.00683586
0.00688136
0.00683406
0.00671181
0.00652829
0.00633209
0.00615629
0.00602803
0.00594928
0.00591805
0.00592729
0.00600208
0.00699418
0.00710949
0.0070067
0.00686787
0.00670969
0.00655094
0.00643255
0.00637951
0.00642169
0.00653466
0.00666492
0.00680737
0.00693357
0.00706774
0.00723265
0.00730901
0.00737157
0.00748433
0.00764068
0.00770749
0.00767155
0.00755773
0.00738535
0.00719249
0.00701309
0.00687328
0.00678108
0.00673843
0.00674674
0.0068064
0.00765553
0.00774066
0.00763469
0.007516
0.00737236
0.00723373
0.00713559
0.0070977
0.00714859
0.00725994
0.00738554
0.00751572
0.00762274
0.00772595
0.00786305
0.00793004
0.007997
0.0081065
0.00827965
0.00836595
0.00834701
0.00824915
0.00809414
0.00791305
0.00773844
0.00759663
0.00749901
0.00745045
0.00745633
0.00750186
0.00824694
0.00830302
0.00819531
0.00808668
0.00795473
0.00783227
0.0077499
0.00772229
0.00777502
0.00787895
0.00799356
0.00810578
0.00819013
0.00826438
0.0083747
0.00843541
0.00850457
0.00861346
0.00879693
0.00890086
0.00890139
0.00882313
0.00868922
0.0085255
0.00836234
0.00822579
0.00812959
0.00808041
0.00808426
0.00811982
0.00878766
0.00881412
0.00870596
0.00860062
0.00847599
0.00836468
0.00829281
0.00827064
0.00831912
0.008411
0.00851022
0.00860141
0.00866258
0.00871083
0.00880023
0.00885775
0.00892946
0.00904005
0.00922938
0.00934892
0.0093688
0.00931151
0.0092003
0.00905736
0.00891017
0.00878409
0.00869427
0.00864854
0.00865198
0.00868163
0.00928529
0.00927904
0.00917569
0.00906718
0.00894596
0.00884165
0.00877573
0.00875509
0.00879417
0.00887073
0.00895186
0.00902129
0.00906083
0.00908766
0.00916243
0.00921984
0.00929555
0.0094097
0.00960171
0.00973446
0.00977206
0.00973505
0.00964625
0.0095259
0.00939757
0.00928535
0.00920518
0.00916573
0.00917023
0.00919765
0.00973857
0.00969978
0.00960095
0.00948648
0.00936595
0.00926592
0.00920259
0.00918056
0.00920656
0.00926612
0.00932842
0.00937693
0.00939761
0.0094083
0.00947404
0.00953404
0.00961555
0.00973521
0.00992682
0.0100703
0.0101226
0.0101038
0.0100355
0.00993784
0.00982979
0.0097336
0.00966522
0.00963386
0.00964062
0.00966786
0.0101399
0.0100715
0.00997315
0.00985261
0.00973155
0.00963397
0.009571
0.00954587
0.0095569
0.00959927
0.00964341
0.00967314
0.00967839
0.00967852
0.00973864
0.00980421
0.00989362
0.0100206
0.0102093
0.0103606
0.0104234
0.0104192
0.0103687
0.0102919
0.0102043
0.0101253
0.01007
0.0100479
0.0100586
0.0100842
0.0104771
0.0103843
0.0102814
0.0101559
0.0100344
0.00993832
0.00987432
0.00984407
0.00984292
0.00986789
0.00989559
0.00990952
0.00990323
0.00989802
0.00995491
0.0100289
0.0101282
0.0102635
0.010449
0.0106041
0.0106723
0.0106774
0.0106404
0.0105815
0.0105137
0.0104518
0.0104102
0.0103979
0.0104137
0.0104362
0.0107334
0.0106253
0.0105146
0.0103852
0.0102643
0.0101692
0.0101037
0.0100684
0.0100577
0.0100672
0.0100811
0.0100827
0.010069
0.0100628
0.0101183
0.0102029
0.0103146
0.0104587
0.0106414
0.0107965
0.0108646
0.0108724
0.0108426
0.0107956
0.0107455
0.0107008
0.010673
0.0106708
0.0106921
0.0107115
0.0108907
0.0107842
0.0106611
0.010529
0.0104102
0.010317
0.0102507
0.0102121
0.0101943
0.0101897
0.0101913
0.0101845
0.0101679
0.0101651
0.0102214
0.0103182
0.0104461
0.0105995
0.0107799
0.0109317
0.0109945
0.0109982
0.0109684
0.0109262
0.0108877
0.0108575
0.0108425
0.0108502
0.0108782
0.0108956
0.010948
0.0108393
0.0107085
0.0105769
0.0104626
0.010374
0.0103077
0.0102632
0.0102367
0.0102193
0.0102109
0.010201
0.010186
0.010189
0.0102503
0.0103629
0.010514
0.0106791
0.0108579
0.011003
0.0110564
0.0110497
0.0110127
0.0109674
0.0109326
0.0109117
0.0109065
0.0109231
0.0109582
0.0109754
0.0108982
0.0107818
0.0106477
0.0105209
0.0104145
0.0103276
0.0102551
0.0102012
0.0101675
0.0101428
0.0101293
0.0101226
0.0101116
0.0101225
0.0101927
0.0103216
0.0105009
0.0106868
0.0108682
0.0110048
0.0110459
0.0110243
0.010974
0.0109172
0.0108765
0.0108573
0.0108566
0.0108795
0.0109219
0.0109419
0.0107391
0.0106068
0.0104725
0.0103508
0.0102461
0.0101554
0.0100763
0.0100182
0.00998273
0.00995739
0.00994633
0.00994665
0.00994008
0.00996487
0.0100483
0.0101956
0.010398
0.0106084
0.0107933
0.0109208
0.0109511
0.0109161
0.0108512
0.0107798
0.0107239
0.0106937
0.0106901
0.0107151
0.0107643
0.010793
0.0104773
0.0103186
0.0101924
0.0100828
0.00998341
0.00988657
0.00979399
0.00971757
0.00968194
0.00966501
0.00966032
0.00967043
0.00967546
0.00971889
0.00982059
0.00998989
0.0102147
0.0104452
0.0106362
0.0107417
0.0107553
0.0106984
0.0106067
0.0105188
0.0104505
0.0104071
0.0103973
0.0104248
0.0104788
0.0105217
0.0100479
0.00987364
0.00975284
0.00965482
0.00956301
0.00946628
0.00937033
0.00929449
0.00927269
0.00926912
0.00926988
0.00929463
0.00932549
0.00939198
0.00951786
0.00971322
0.00996008
0.0102111
0.0104063
0.0104863
0.0104772
0.0103971
0.0102807
0.0101612
0.0100605
0.00999178
0.00996434
0.00999379
0.0100557
0.0101096
0.00945179
0.00928658
0.00917871
0.00909902
0.00902093
0.00893026
0.00883781
0.00876821
0.00876671
0.00878274
0.00880348
0.00884922
0.00890413
0.00899817
0.00915555
0.00938349
0.00965532
0.00992677
0.0101217
0.010178
0.0101403
0.0100266
0.00987301
0.0097126
0.0095722
0.00946825
0.00940992
0.00941241
0.00947092
0.00952904
0.00871804
0.0085787
0.00848964
0.00843054
0.00837382
0.00829483
0.00821485
0.00817091
0.00819009
0.00822834
0.00827711
0.00834741
0.00843219
0.00855949
0.00875701
0.00902563
0.00932676
0.00961933
0.00981243
0.00984517
0.00977365
0.00961871
0.00941919
0.00921099
0.009024
0.00887549
0.00877437
0.00873599
0.00875843
0.00880498
0.00791923
0.00780147
0.007724
0.0076821
0.00765527
0.0076043
0.00755576
0.00754144
0.00757963
0.00764191
0.00771974
0.00781977
0.00793923
0.00810637
0.00835384
0.00867273
0.00900965
0.00932456
0.00951804
0.0095289
0.00942423
0.00922101
0.00896899
0.00870765
0.00846652
0.00826561
0.00811171
0.0080222
0.00799774
0.00800479
0.00713237
0.00703881
0.00697923
0.00695359
0.00695144
0.00692937
0.00691061
0.00692353
0.00698154
0.00706603
0.00717228
0.00730345
0.00746256
0.00767738
0.00798566
0.00836632
0.00874728
0.00908846
0.00928853
0.00928072
0.00914224
0.00889332
0.00858766
0.00826694
0.00796192
0.00769938
0.00749005
0.00734206
0.00726118
0.00721947
0.00643232
0.00635935
0.00632129
0.00631068
0.00631819
0.0063213
0.00633016
0.00636844
0.00644564
0.0065497
0.0066811
0.00684452
0.00704647
0.00731946
0.00770201
0.00815805
0.00859408
0.00897005
0.00918837
0.0091697
0.00900319
0.00871006
0.00834639
0.00795999
0.00758768
0.00725698
0.00698178
0.00677261
0.00662862
0.00652875
0.00590147
0.00584221
0.00581536
0.00581154
0.00581738
0.00583315
0.00586485
0.00592464
0.00602198
0.0061484
0.00630442
0.00650153
0.00675298
0.00709574
0.00756883
0.00811468
0.00861665
0.00903787
0.00929129
0.00927862
0.00910107
0.00877341
0.00835224
0.00789223
0.0074412
0.00703101
0.00667975
0.00639814
0.00618455
0.00601803
0.00566189
0.00559051
0.00554978
0.00553279
0.00553191
0.00555094
0.00559873
0.00567777
0.0057948
0.00594741
0.00613479
0.00637168
0.00667895
0.00709809
0.00767105
0.00832006
0.00889791
0.0093769
0.00968689
0.00970759
0.00954909
0.00921506
0.00875972
0.0082406
0.00770748
0.00720073
0.00674761
0.00636947
0.00606423
0.00581313
0.00604934
0.00591746
0.00581523
0.00574413
0.00570652
0.00570591
0.00575459
0.00584381
0.0059728
0.00613758
0.00634182
0.00660955
0.00696926
0.00746749
0.008144
0.00890234
0.00956084
0.0101109
0.0104989
0.0105966
0.0105053
0.0102167
0.00977904
0.00924726
0.00867251
0.00809336
0.00754736
0.00706008
0.00663862
0.00627127
0.00782179
0.00755265
0.00731047
0.00710737
0.00695595
0.00686188
0.00683876
0.00687088
0.00695076
0.00707541
0.00725449
0.00752025