/*--------------------------------*- C++ -*----------------------------------*\
  =========                 |
  \\      /  F ield         | OpenFOAM: The Open Source CFD Toolbox
   \\    /   O peration     | Website:  https://openfoam.org
    \\  /    A nd           | Version:  12
     \\/     M anipulation  |
\*---------------------------------------------------------------------------*/
FoamFile
{
    format      ascii;
    class       volScalarField;
    location    "200/air";
    object      p_rgh;
}
// * * * * * * * * * * * * * * * * * * * * * * * * * * * * * * * * * * * * * //

dimensions      [1 -1 -2 0 0 0 0];

internalField   nonuniform List<scalar> 
243000
(
32.9456
32.7704
32.6683
32.5473
32.433
32.3244
32.2216
32.1294
32.0356
31.9581
31.8848
31.8222
31.7235
31.6855
31.6927
31.8003
31.96
32.155
32.2943
32.4488
32.5346
32.6091
32.654
32.6976
32.7333
32.7644
32.7938
32.8115
32.8372
32.8292
32.9322
32.7708
32.6747
32.5556
32.4436
32.3366
32.2351
32.1437
32.0504
31.9742
31.9011
31.8428
31.7491
31.7166
31.725
31.8291
31.9817
32.1718
32.3104
32.465
32.5504
32.6255
32.6708
32.714
32.7492
32.7793
32.8092
32.8256
32.856
32.8505
32.8861
32.7312
32.6401
32.5213
32.4119
32.3075
32.2097
32.1234
32.0346
31.9685
31.8957
31.834
31.7355
31.701
31.705
31.802
31.9461
32.1314
32.268
32.4251
32.5135
32.5925
32.641
32.6873
32.7251
32.7567
32.7887
32.8032
32.8351
32.8283
32.8161
32.6594
32.5725
32.4548
32.3496
32.2492
32.1562
32.0738
31.989
31.9281
31.8535
31.7833
31.6772
31.6365
31.6309
31.7159
31.8485
32.0301
32.1658
32.327
32.4233
32.5108
32.5672
32.6206
32.6646
32.7008
32.7365
32.7517
32.7824
32.7744
32.729
32.5737
32.4899
32.3732
32.2713
32.1739
32.0847
32.0052
31.9236
31.8657
31.7863
31.7045
31.5902
31.5405
31.5222
31.5938
31.7143
31.8913
32.0281
32.1947
32.3014
32.3998
32.4667
32.5295
32.5814
32.6238
32.6642
32.6814
32.7107
32.7032
32.6256
32.4754
32.3942
32.2785
32.1797
32.0849
31.999
31.922
31.8434
31.787
31.7011
31.6075
31.4846
31.4247
31.3927
31.4516
31.5601
31.7317
31.8699
32.0421
32.1592
32.2691
32.3474
32.4201
32.4805
32.5294
32.5747
32.5948
32.6229
32.616
32.5064
32.3637
32.2843
32.1697
32.0738
31.9812
31.898
31.823
31.7469
31.69
31.5962
31.4907
31.3585
31.2873
31.2406
31.2877
31.3844
31.5502
31.6901
31.8678
31.9954
32.1173
32.2075
32.2909
32.3604
32.4164
32.4673
32.4913
32.5184
32.5119
32.3721
32.2379
32.1596
32.0464
31.9529
31.8622
31.7815
31.7081
31.6338
31.5744
31.4711
31.3543
31.2128
31.1297
31.0676
31.1028
31.1879
31.3477
31.4889
31.6718
31.8097
31.9441
32.047
32.1415
32.2209
32.285
32.342
32.3705
32.397
32.3913
32.2226
32.0971
32.0193
31.9076
31.8166
31.7278
31.6496
31.5771
31.5041
31.4404
31.3268
31.1997
31.0496
30.9536
30.8764
30.8987
30.9723
31.1252
31.267
31.4542
31.6022
31.7495
31.8654
31.9718
32.0618
32.1346
32.1977
32.2316
32.2587
32.2542
32.0569
31.9398
31.8621
31.7525
31.6641
31.5778
31.5017
31.43
31.3577
31.2887
31.165
31.0286
30.8701
30.7608
30.6691
30.6776
30.739
30.884
31.0249
31.2158
31.3734
31.5328
31.6623
31.7812
31.8818
31.9637
32.0336
32.0737
32.1026
32.0997
31.8737
31.7643
31.6868
31.5802
31.495
31.4115
31.3379
31.267
31.1952
31.1199
30.9869
30.8425
30.6759
30.5535
30.4482
30.4421
30.4895
30.6249
30.7639
30.9573
31.1234
31.2943
31.4369
31.5683
31.6801
31.7714
31.8486
31.8955
31.9272
31.9266
31.6713
31.5693
31.4921
31.3898
31.3087
31.229
31.1585
31.0886
31.0175
30.9356
30.7945
30.6434
30.4691
30.3344
30.2162
30.1953
30.2272
30.3501
30.4849
30.6796
30.8528
31.0339
31.1888
31.3324
31.4554
31.5566
31.6411
31.6953
31.7306
31.7336
31.4484
31.3533
31.2774
31.1812
31.1056
31.0311
30.9643
30.8967
30.8272
30.7397
30.5913
30.4347
30.2529
30.1068
29.9762
29.9415
29.9573
30.0635
30.1906
30.3837
30.5624
30.7523
30.9183
31.0735
31.2073
31.3181
31.4101
31.4717
31.5112
31.5194
31.2041
31.1158
31.0431
30.955
30.8868
30.8186
30.7579
30.6949
30.628
30.5361
30.3816
30.2205
30.0317
29.8751
29.7328
29.6855
29.6855
29.7733
29.8873
30.0739
30.2548
30.4506
30.6264
30.792
30.9358
31.0559
31.155
31.2241
31.268
31.2828
30.9385
30.8578
30.7906
30.7131
30.6543
30.5956
30.5437
30.4869
30.4237
30.3283
30.1697
30.0054
29.8109
29.6455
29.4927
29.4324
29.4174
29.4857
29.5839
29.7603
29.9374
30.1342
30.3162
30.4898
30.6424
30.7711
30.8766
30.9528
31.0012
31.0242
30.6536
30.582
30.5232
30.4597
30.4132
30.3675
30.3259
30.2775
30.2193
30.1226
29.9625
29.7964
29.5983
29.4263
29.2645
29.1905
29.1591
29.2063
29.2877
29.4511
29.6201
29.8139
29.997
30.1734
30.3309
30.4655
30.5772
30.6603
30.7129
30.7454
30.3537
30.2932
30.2473
30.2009
30.1701
30.1399
30.1111
30.074
30.0233
29.9277
29.7689
29.6036
29.4046
29.2286
29.0587
28.9698
28.9211
28.945
29.0061
29.1528
29.3117
29.499
29.6789
29.8536
30.0119
30.1482
30.2624
30.3499
30.4066
30.4505
30.0465
30.0002
29.9711
29.9454
29.9331
29.9219
29.9099
29.8862
29.8427
29.75
29.5954
29.4339
29.2377
29.0629
28.8887
28.7862
28.718
28.7145
28.7529
28.879
29.0223
29.1976
29.3706
29.5408
29.6963
29.8308
29.9431
30.0327
30.0919
30.1469
29.7435
29.7156
29.7065
29.7056
29.7159
29.7253
29.7302
29.7187
29.6806
29.5919
29.4444
29.2889
29.0999
28.9301
28.7563
28.6449
28.5596
28.5349
28.5479
28.6463
28.7674
28.9252
29.0864
29.2466
29.3946
29.5237
29.6322
29.7217
29.7801
29.8453
29.4605
29.4558
29.4714
29.4966
29.5292
29.5574
29.5759
29.5753
29.5433
29.4597
29.3209
29.1732
28.9937
28.8305
28.6585
28.5418
28.4451
28.4067
28.3994
28.4714
28.5704
28.7056
28.8469
28.99
29.1246
29.2426
29.3429
29.4293
29.4856
29.5612
29.2205
29.2388
29.2785
29.328
29.3795
29.4248
29.457
29.4663
29.4406
29.3626
29.2341
29.0967
28.9265
28.77
28.6004
28.4794
28.3726
28.3214
28.3017
28.3541
28.4343
28.5467
28.6657
28.7887
28.9071
29.0119
29.0996
29.1782
29.2304
29.3148
29.0375
29.0753
29.1355
29.2066
29.2767
29.3401
29.386
29.4031
29.381
29.3097
29.1939
29.0664
28.9053
28.7553
28.5885
28.464
28.3481
28.2837
28.2538
28.29
28.3522
28.4442
28.5431
28.6463
28.7488
28.8411
28.9163
28.9866
29.0342
29.1233
28.9142
28.9695
29.0501
29.1445
29.2343
29.317
29.3755
29.3964
29.3776
29.3166
29.2086
29.0867
28.9341
28.7905
28.6275
28.5006
28.3768
28.3017
28.2626
28.2867
28.332
28.404
28.4831
28.5659
28.6519
28.7317
28.7966
28.86
28.9038
28.9917
28.852
28.9295
29.0301
29.1427
29.2626
29.3676
29.4331
29.4533
29.4328
29.3746
29.2746
29.1592
29.0142
28.8765
28.7178
28.5903
28.4613
28.3782
28.3329
28.3481
28.3819
28.4382
28.5016
28.5718
28.6356
28.6987
28.7519
28.8067
28.8479
28.9227
28.8697
28.9788
29.106
29.2447
29.3821
29.4954
29.5615
29.5785
29.5543
29.495
29.397
29.2839
29.1455
29.0128
28.8586
28.7321
28.6007
28.5139
28.4659
28.4763
28.5033
28.5495
28.6007
28.6571
28.708
28.7582
28.8002
28.8457
28.8803
28.941
28.9894
29.1234
29.2751
29.4348
29.584
29.7018
29.7636
29.7733
29.7421
29.6772
29.5762
29.4612
29.325
29.1944
29.0426
28.9164
28.7855
28.7002
28.654
28.6637
28.6888
28.7329
28.7807
28.831
28.8737
28.9141
28.9456
28.9812
29.008
29.0598
29.2399
29.3871
29.5546
29.7276
29.8824
29.9982
30.0493
30.0461
30.0011
29.9225
29.8104
29.6871
29.5463
29.4146
29.2645
29.1397
29.0127
28.9333
28.893
28.9094
28.9425
28.9934
29.046
29.0984
29.143
29.1823
29.2105
29.2393
29.2608
29.3072
29.4999
29.67
29.8626
30.0562
30.22
30.3321
30.3685
30.3492
30.2833
30.1846
30.0594
29.9275
29.7808
29.6458
29.4951
29.3732
29.2524
29.1809
29.1474
29.172
29.2156
29.2782
29.3422
29.4028
29.4491
29.482
29.4991
29.5153
29.5259
29.5659
30.2619
30.4078
30.5781
30.7434
30.875
30.9548
30.9602
30.9105
30.8062
30.6664
30.5045
30.3472
30.1832
30.038
29.8809
29.7632
29.6596
29.6061
29.5918
29.6419
29.7178
29.8188
29.9245
30.0275
30.1147
30.1838
30.2289
30.2596
30.2729
30.321
29.3046
29.5459
29.8449
30.1228
30.3386
30.4658
30.4908
30.4451
30.3417
30.202
30.0418
29.8888
29.7294
29.5869
29.4248
29.2977
29.1765
29.0992
29.055
29.0749
29.1203
29.192
29.2708
29.3478
29.4094
29.4474
29.4509
29.4193
29.3617
29.3643
32.6737
32.4735
32.375
32.2419
32.121
32.0068
31.9014
31.809
31.7116
31.6169
31.501
31.355
31.1661
31.0198
30.9039
30.896
30.9623
31.1116
31.2924
31.529
31.7159
31.8932
32.0365
32.1687
32.279
32.3685
32.4423
32.4868
32.5336
32.5365
32.6598
32.4732
32.3824
32.2524
32.1351
32.0239
31.9213
31.8301
31.7333
31.6395
31.5227
31.3756
31.1881
31.0429
30.9244
30.9089
30.9658
31.1125
31.2946
31.5334
31.7235
31.9039
32.0497
32.1836
32.2949
32.3849
32.4593
32.5038
32.5545
32.5587
32.6184
32.4432
32.365
32.2386
32.125
32.0176
31.9193
31.831
31.7355
31.6426
31.5246
31.3739
31.1805
31.0318
30.9103
30.8877
30.9335
31.072
31.2498
31.4904
31.6856
31.8768
32.0302
32.1698
32.2843
32.3756
32.4506
32.4927
32.5445
32.5468
32.5556
32.3872
32.3116
32.1876
32.0789
31.9763
31.8831
31.7981
31.7038
31.611
31.4886
31.3334
31.1385
30.9884
30.8628
30.8329
30.8679
31.0003
31.1756
31.4187
31.619
31.8162
31.9749
32.1192
32.2378
32.3322
32.4107
32.4539
32.5063
32.5082
32.4748
32.3133
32.2412
32.1189
32.0147
31.9162
31.8271
31.7442
31.6502
31.5562
31.4286
31.268
31.069
30.9152
30.7846
30.7486
30.7744
30.9015
31.0748
31.3205
31.5266
31.7305
31.8961
32.0462
32.1701
32.2684
32.3506
32.3955
32.4467
32.4491
32.378
32.2259
32.1553
32.0344
31.9338
31.8381
31.7519
31.6699
31.5755
31.4793
31.3444
31.1774
30.9721
30.8126
30.6758
30.6356
30.6547
30.7774
30.9487
31.1969
31.4094
31.6207
31.7943
31.9512
32.0812
32.1842
32.2704
32.318
32.3676
32.371
32.2658
32.1243
32.054
31.9344
31.8367
31.7429
31.6584
31.5761
31.4801
31.3802
31.2353
31.0611
30.8504
30.6849
30.5408
30.4951
30.5085
30.6284
30.798
31.0485
31.2677
31.4872
31.6695
31.8342
31.9713
32.0799
32.1707
32.2219
32.2701
32.2749
32.1383
32.0072
31.9366
31.8185
31.7231
31.6306
31.5468
31.4629
31.3642
31.2586
31.1039
30.9234
30.7093
30.5373
30.3848
30.329
30.3372
30.4534
30.6217
30.8746
31.1008
31.3295
31.5217
31.6952
31.8404
31.9558
32.0517
32.1074
32.1548
32.1615
31.9949
31.8734
31.8022
31.6858
31.5924
31.501
31.4169
31.3301
31.228
31.1161
30.9536
30.7675
30.5499
30.3706
30.2082
30.1402
30.1425
30.2529
30.4189
30.6739
30.9075
31.1463
31.3499
31.5335
31.6874
31.8104
31.9122
31.9734
32.0212
32.03
31.8338
31.7209
31.649
31.535
31.4439
31.3534
31.2682
31.178
31.0718
30.9531
30.7838
30.5919
30.3703
30.1836
30.0121
29.9339
29.9251
30.0276
30.1907
30.4469
30.6874
30.9362
31.152
31.3471
31.5109
31.6423
31.7509
31.8186
31.868
31.8793
31.6528
31.5478
31.4751
31.3644
31.2758
31.1865
31.1001
31.0062
30.8963
30.771
30.5939
30.3969
30.1695
29.9758
29.7976
29.713
29.6913
29.7799
29.9364
30.1935
30.4403
30.6985
30.9264
31.1338
31.3091
31.4501
31.566
31.641
31.6934
31.7079
31.4501
31.352
31.279
31.1729
31.0876
30.9994
30.9116
30.8155
30.704
30.5739
30.3868
30.1851
29.9495
29.7485
29.563
29.4773
29.4474
29.5186
29.6613
29.9134
30.165
30.4323
30.6722
30.8919
31.0797
31.2317
31.3556
31.4385
31.4951
31.5141
31.2235
31.132
31.0596
30.9597
30.8787
30.7917
30.7053
30.6096
30.4973
30.3622
30.165
29.9585
29.7154
29.5063
29.3119
29.2258
29.1919
29.2517
29.3781
29.6159
29.8657
30.137
30.3872
30.6206
30.821
30.9852
31.1181
31.2094
31.2708
31.2959
30.9718
30.8872
30.8169
30.7245
30.649
30.5668
30.4848
30.3894
30.276
30.1348
29.9309
29.7207
29.4722
29.2553
29.0533
28.962
28.9226
28.9754
29.0898
29.3162
29.5564
29.8227
30.0763
30.318
30.5301
30.7078
30.8515
30.9525
31.0189
31.0524
30.6948
30.6183
30.5517
30.4696
30.4026
30.3299
30.2508
30.1563
30.0433
29.8982
29.6914
29.4791
29.2275
29.0067
28.7978
28.6967
28.6471
28.6863
28.7913
29.0105
29.2422
29.504
29.7545
29.9939
30.2113
30.398
30.553
30.6662
30.7394
30.7834
30.3939
30.3266
30.2671
30.2005
30.1463
30.0825
30.0086
29.9188
29.8089
29.664
29.4581
29.2457
28.9931
28.7711
28.5559
28.4425
28.3802
28.4
28.4883
28.6926
28.9189
29.1782
29.4275
29.6647
29.8804
30.0679
30.2295
30.3513
30.4335
30.4913
30.0733
30.019
29.9733
29.9239
29.8843
29.8318
29.7689
29.6881
29.5819
29.4376
29.2342
29.0241
28.773
28.553
28.3361
28.2169
28.1389
28.136
28.2009
28.3824
28.5952
28.8442
29.0902
29.3284
29.5455
29.7349
29.8945
30.0193
30.1082
30.1804
29.7431
29.7105
29.6788
29.6495
29.6275
29.5921
29.539
29.4652
29.3623
29.219
29.0186
28.8117
28.5639
28.3481
28.1309
28.0113
27.9243
27.9114
27.9533
28.1064
28.2953
28.5251
28.7593
28.9914
29.2055
29.396
29.5564
29.6868
29.7745
29.8581
29.4182
29.4108
29.3982
29.3943
29.3878
29.3659
29.3219
29.2549
29.1571
29.0176
28.8237
28.6211
28.3797
28.168
27.9487
27.8226
27.7271
27.7098
27.7393
27.8723
28.0422
28.2531
28.4668
28.6813
28.8819
29.064
29.2229
29.3561
29.442
29.5404
29.1222
29.1402
29.1483
29.1614
29.1672
29.1586
29.1289
29.0732
28.9819
28.8488
28.6646
28.4697
28.2386
28.0336
27.815
27.6795
27.5668
27.5347
27.5522
27.6682
27.8207
28.0166
28.2136
28.4129
28.6009
28.7735
28.9221
29.0503
29.1333
29.2455
28.8733
28.9078
28.9302
28.9582
28.9803
28.9905
28.977
28.9328
28.8482
28.7243
28.5532
28.3704
28.151
27.9543
27.7388
27.5964
27.468
27.4209
27.4211
27.5125
27.6399
27.8148
27.996
28.1806
28.3563
28.5204
28.6617
28.7879
28.8701
28.9933
28.6692
28.7182
28.7597
28.8103
28.8514
28.8791
28.8804
28.8464
28.7694
28.6585
28.503
28.3326
28.1251
27.938
27.727
27.5802
27.4392
27.3774
27.3665
27.4361
27.5383
27.6868
27.845
28.008
28.1635
28.3115
28.4452
28.5688
28.6517
28.7829
28.5268
28.5975
28.6633
28.7371
28.7971
28.8419
28.8526
28.8296
28.7713
28.6709
28.5251
28.3635
28.1673
27.9903
27.785
27.6356
27.4848
27.4108
27.3921
27.4474
27.5323
27.6529
27.7864
27.9255
28.059
28.1868
28.307
28.422
28.4993
28.6268
28.4719
28.5664
28.6521
28.7463
28.8359
28.8956
28.9136
28.8965
28.8437
28.7521
28.6181
28.4667
28.2814
28.1132
27.9145
27.7654
27.6079
27.5265
27.5025
27.5473
27.6166
27.7191
27.8328
27.9547
28.0744
28.1868
28.282
28.3792
28.4489
28.5584
28.5366
28.6559
28.7664
28.8775
28.9779
29.0458
29.0681
29.0538
29.0029
28.915
28.7875
28.6416
28.467
28.3082
28.1186
27.971
27.8045
27.7182
27.6912
27.7338
27.8009
27.8916
27.9888
28.0922
28.195
28.2922
28.3759
28.4615
28.5241
28.6128
28.7374
28.8704
28.9979
29.1193
29.2255
29.2957
29.3169
29.3008
29.2475
29.1602
29.0377
28.8962
28.7275
28.5657
28.3733
28.2177
28.0446
27.9561
27.9276
27.973
28.0466
28.145
28.2505
28.3564
28.447
28.5287
28.5973
28.672
28.7284
28.8066
29.1155
29.2479
29.3781
29.4985
29.6003
29.664
29.6777
29.6545
29.5926
29.4938
29.3533
29.1971
29.0188
28.8467
28.6455
28.4824
28.3113
28.2243
28.1951
28.2427
28.321
28.4345
28.5604
28.6887
28.8015
28.9036
28.9876
29.0601
29.1131
29.1805
29.5586
29.698
29.8354
29.9561
30.0478
30.0904
30.0787
30.0289
29.9397
29.8174
29.658
29.4881
29.3007
29.1327
28.9367
28.7779
28.6101
28.5308
28.4985
28.5423
28.6181
28.7294
28.8572
28.9962
29.1335
29.2612
29.3693
29.4609
29.5317
29.6106
30.1623
30.2954
30.4225
30.5312
30.6055
30.6243
30.5911
30.5191
30.4102
30.277
30.123
29.9638
29.7906
29.6417
29.4744
29.3385
29.1841
29.1298
29.1101
29.15
29.2171
29.3148
29.4278
29.5515
29.674
29.7918
29.8994
30.008
30.1007
30.1978
31.4226
31.472
31.5284
31.5737
31.5926
31.5723
31.5138
31.426
31.3105
31.1751
31.0216
30.8695
30.7131
30.5932
30.4707
30.3909
30.2947
30.3031
30.3419
30.424
30.5219
30.6393
30.7605
30.8824
30.9955
31.1009
31.1971
31.2938
31.3816
31.4784
32.7088
32.5446
32.4565
32.3143
32.1774
32.0429
31.9152
31.8044
31.6914
31.5874
31.4611
31.3578
31.2311
31.1833
31.1651
31.2653
31.4015
31.5697
31.7086
31.8965
31.9799
32.0798
32.1483
32.2299
32.3069
32.3767
32.4404
32.4754
32.5291
32.5279
32.6853
32.5129
32.4415
32.3087
32.1806
32.0512
31.9282
31.8197
31.7065
31.6016
31.4734
31.3676
31.2358
31.1773
31.1473
31.233
31.3572
31.5185
31.6604
31.8552
31.9493
32.0594
32.1452
32.2346
32.3154
32.3876
32.4533
32.4893
32.5471
32.5468
32.6423
32.4711
32.4115
32.2853
32.166
32.0447
31.9288
31.8224
31.7093
31.603
31.469
31.3547
31.2174
31.1532
31.1123
31.1857
31.2977
31.4522
31.5941
31.7989
31.905
32.0246
32.1178
32.2189
32.3088
32.3865
32.4545
32.4902
32.5497
32.5479
32.5785
32.4126
32.3566
32.2302
32.1168
32.0009
31.8906
31.7874
31.6738
31.5656
31.4286
31.3119
31.1688
31.0997
31.0485
31.1113
31.2132
31.3658
31.5093
31.7209
31.8383
31.9671
32.0675
32.1742
32.2691
32.3501
32.4223
32.4587
32.5186
32.5161
32.4992
32.3422
32.2867
32.1601
32.051
31.9384
31.8318
31.7295
31.614
31.5033
31.3629
31.2432
31.0941
31.0209
30.9601
31.0146
31.1081
31.2609
31.4066
31.6239
31.7514
31.8891
31.9962
32.1085
32.2086
32.2936
32.3697
32.408
32.4661
32.4643
32.4057
32.2594
32.2023
32.0754
31.969
31.8581
31.7531
31.6499
31.5316
31.4181
31.2735
31.1506
30.9959
30.9194
30.8498
30.8977
30.983
31.1374
31.2855
31.5077
31.6446
31.7909
31.9043
32.0223
32.1279
32.2172
32.2974
32.3386
32.3944
32.3941
32.2979
32.1626
32.1023
31.9755
31.8706
31.76
31.655
31.5496
31.4278
31.311
31.1617
31.0358
30.8763
30.7977
30.7195
30.7619
30.8387
30.9949
31.1456
31.372
31.5178
31.6722
31.792
31.9157
32.0273
32.1217
32.206
32.251
32.3047
32.3065
32.1776
32.05
31.9864
31.8582
31.7547
31.6439
31.5373
31.4285
31.303
31.1825
31.0292
30.901
30.7358
30.6562
30.5695
30.6077
30.6758
30.833
30.9857
31.2159
31.3701
31.5325
31.6586
31.7888
31.9055
32.0052
32.0943
32.1441
32.1966
32.2012
32.0435
31.9227
31.8564
31.7263
31.6207
31.508
31.3993
31.2867
31.158
31.0348
30.8788
30.749
30.5764
30.4954
30.3993
30.4352
30.4937
30.6514
30.8049
31.0384
31.2003
31.3702
31.5034
31.6366
31.7588
31.8649
31.9598
32.0157
32.0681
32.0759
31.8877
31.775
31.7053
31.5764
31.4695
31.3531
31.2413
31.1256
30.9948
30.8702
30.7112
30.5796
30.402
30.3187
30.2084
30.2435
30.2922
30.4498
30.6026
30.8386
31.0074
31.1844
31.324
31.4579
31.5863
31.7002
31.8017
31.8649
31.919
31.9281
31.708
31.6014
31.5272
31.4001
31.2951
31.1788
31.0642
30.946
30.813
30.6866
30.5233
30.3898
30.2102
30.1247
30.0004
30.0323
30.0718
30.2284
30.3789
30.6159
30.7905
30.9738
31.121
31.257
31.3895
31.5101
31.6184
31.6896
31.7473
31.7577
31.5037
31.4022
31.3239
31.1986
31.0936
30.981
30.8654
30.7452
30.6101
30.4818
30.3141
30.1792
29.9969
29.9086
29.7782
29.8028
29.833
29.9888
30.1358
30.3714
30.5497
30.7378
30.8936
31.0332
31.1673
31.2926
31.4066
31.4861
31.5488
31.5627
31.2729
31.1757
31.0933
30.9708
30.8656
30.7577
30.6427
30.5216
30.385
30.2552
30.0847
29.9497
29.7648
29.6735
29.5369
29.5557
29.5765
29.7331
29.8752
30.1083
30.2875
30.4779
30.6391
30.7922
30.9242
31.05
31.1662
31.2522
31.3203
31.3394
31.0135
30.9205
30.8342
30.7146
30.6135
30.5107
30.3965
30.2759
30.1393
30.0097
29.8388
29.7064
29.5186
29.422
29.2776
29.2961
29.3053
29.4616
29.5988
29.8295
30.0079
30.1987
30.3606
30.5255
30.6655
30.7875
30.9022
30.9905
31.0609
31.0852
30.7219
30.6326
30.544
30.4344
30.341
30.2416
30.1305
30.0138
29.88
29.7504
29.5791
29.4506
29.2592
29.1587
29.0108
29.0339
29.0279
29.1797
29.3092
29.5347
29.713
29.9044
30.0635
30.2251
30.3739
30.5035
30.6172
30.7038
30.7729
30.8019
30.3976
30.3171
30.2332
30.1369
30.0534
29.9596
29.8553
29.7414
29.6082
29.4769
29.3052
29.179
28.9839
28.8869
28.7365
28.7667
28.7533
28.8994
29.0155
29.2314
29.407
29.5965
29.7533
29.9086
30.0523
30.1866
30.3032
30.3921
30.4611
30.4983
30.0555
29.9874
29.9135
29.8323
29.7611
29.6738
29.5716
29.4551
29.3217
29.1935
29.026
28.9004
28.7021
28.6072
28.451
28.4833
28.4704
28.6213
28.7304
28.9348
29.1029
29.2863
29.4385
29.5886
29.7255
29.8485
29.963
30.0559
30.125
30.1774
29.7063
29.6563
29.5958
29.5308
29.4645
29.3769
29.2758
29.1634
29.0369
28.9182
28.7565
28.6321
28.433
28.3383
28.1773
28.207
28.1849
28.3341
28.4403
28.64
28.8049
28.9853
29.1335
29.2793
29.4091
29.5227
29.6227
29.7093
29.7727
29.8402
29.3673
29.3408
29.2862
29.2261
29.1601
29.079
28.988
28.8876
28.7732
28.6655
28.5085
28.3874
28.1913
28.1006
27.939
27.9694
27.9317
28.0653
28.1569
28.3454
28.5011
28.6771
28.8251
28.9714
29.0999
29.213
29.3042
29.3832
29.4347
29.511
29.0513
29.0343
28.9784
28.9267
28.8728
28.8073
28.7296
28.6439
28.5448
28.4442
28.2936
28.1771
27.9874
27.9034
27.7446
27.7791
27.7295
27.8503
27.9224
28.0884
28.2244
28.3856
28.5242
28.6629
28.7872
28.8997
28.9941
29.0734
29.1185
29.2039
28.7511
28.7416
28.6998
28.6684
28.6303
28.5805
28.518
28.4499
28.3614
28.2652
28.1231
28.0127
27.8328
27.757
27.6037
27.6453
27.5861
27.6953
27.7519
27.8972
28.0135
28.1556
28.277
28.3991
28.51
28.612
28.7019
28.7803
28.819
28.9097
28.5067
28.5129
28.491
28.4771
28.4539
28.4205
28.3736
28.3156
28.2316
28.1403
28.0076
27.9042
27.7367
27.6702
27.5244
27.5755
27.5095
27.6088
27.654
27.7792
27.8766
27.9989
28.1022
28.2084
28.3048
28.3945
28.4728
28.5455
28.5768
28.6632
28.3562
28.3749
28.3747
28.3767
28.3652
28.341
28.3011
28.2454
28.166
28.0793
27.9567
27.8612
27.7054
27.6487
27.5114
27.5739
27.5049
27.5985
27.6353
27.7439
27.8241
27.9261
28.0108
28.1005
28.1835
28.2601
28.3273
28.3933
28.4229
28.506
28.3009
28.3352
28.3535
28.3664
28.3612
28.3431
28.3066
28.2543
28.1775
28.0938
27.9754
27.8862
27.7412
27.6951
27.5666
27.6429
27.5754
27.667
27.7011
27.7967
27.863
27.9481
28.0206
28.0926
28.158
28.2224
28.2783
28.3362
28.3653
28.4365
28.3516
28.3974
28.4269
28.4438
28.4402
28.4226
28.3862
28.3332
28.2571
28.175
28.063
27.9782
27.8454
27.8099
27.6931
27.7881
27.7283
27.8241
27.8582
27.9457
27.9986
28.067
28.1229
28.1795
28.2326
28.2873
28.3349
28.3858
28.4141
28.4699
28.5095
28.5546
28.5894
28.6054
28.6007
28.5804
28.541
28.4847
28.4077
28.3265
28.2199
28.1415
28.0228
28.0022
27.9017
28.0194
27.97
28.0742
28.1116
28.1999
28.2499
28.3044
28.3403
28.3757
28.4114
28.4522
28.4901
28.5355
28.5634
28.6129
28.7697
28.8056
28.8387
28.8491
28.8413
28.8167
28.7732
28.714
28.6374
28.5601
28.4631
28.3952
28.2913
28.2804
28.1875
28.3264
28.2926
28.4112
28.4562
28.5514
28.6054
28.6634
28.6991
28.726
28.7391
28.7547
28.7702
28.8008
28.8226
28.8637
29.1781
29.1907
29.2095
29.2065
29.1902
29.159
29.1113
29.0516
28.9768
28.8995
28.7979
28.7274
28.6257
28.6238
28.5398
28.7076
28.6955
28.8358
28.8944
29.002
29.0658
29.1327
29.1752
29.2083
29.2267
29.2423
29.2516
29.2608
29.2608
29.2774
29.8568
29.8394
29.8239
29.7896
29.7421
29.6805
29.6042
29.5184
29.42
29.3237
29.2116
29.1369
29.0372
29.0494
28.9806
29.1924
29.209
29.3807
29.4637
29.5923
29.6736
29.7564
29.8129
29.8586
29.8878
29.9109
29.9266
29.9431
29.9489
29.9646
30.8566
30.7897
30.7181
30.6285
30.5266
30.4134
30.2891
30.1606
30.025
29.8979
29.7642
29.6783
29.577
29.6069
29.5611
29.8322
29.8891
30.1073
30.227
30.3952
30.5123
30.6314
30.7219
30.7997
30.8576
30.9045
30.9394
30.969
30.9827
30.9953
32.9474
32.8242
32.7817
32.6564
32.5217
32.3819
32.249
32.1452
32.0476
31.9775
31.8837
31.8476
31.7782
31.8173
31.8732
32.0482
32.2371
32.4324
32.5353
32.691
32.6522
32.6485
32.6176
32.6167
32.628
32.6535
32.6857
32.6945
32.7433
32.7146
32.8917
32.7441
32.7145
32.5907
32.4668
32.3395
32.2197
32.1224
32.0259
31.9538
31.8586
31.8178
31.7399
31.7632
31.7988
31.9492
32.1176
32.2955
32.4089
32.5843
32.5716
32.588
32.5733
32.5839
32.6033
32.6336
32.6726
32.682
32.7418
32.7174
32.8237
32.6709
32.6503
32.5268
32.413
32.2949
32.1851
32.094
31.9988
31.9238
31.8245
31.777
31.6896
31.7
31.7165
31.8426
31.9904
32.1536
32.2728
32.469
32.4823
32.5197
32.5215
32.5453
32.5736
32.6091
32.6534
32.6621
32.7263
32.7008
32.7462
32.6001
32.5796
32.4559
32.3496
32.238
32.1351
32.0475
31.9519
31.8749
31.7722
31.7194
31.6228
31.6235
31.6231
31.7288
31.8582
32.0125
32.1376
32.3481
32.3845
32.4407
32.4578
32.4927
32.5286
32.5683
32.6164
32.6253
32.6865
32.6634
32.6628
32.5269
32.5029
32.379
32.2779
32.1702
32.072
31.9858
31.8891
31.8114
31.7055
31.6484
31.5435
31.5381
31.5225
31.6126
31.7246
31.8735
32.0037
32.2257
32.2822
32.3549
32.3852
32.4294
32.4716
32.5146
32.5656
32.5759
32.6319
32.6116
32.5736
32.448
32.4184
32.2942
32.1963
32.091
31.9957
31.9098
31.8121
31.7342
31.6254
31.5645
31.4523
31.4426
31.4134
31.4912
31.5869
31.7328
31.8671
32.0992
32.1732
32.2608
32.3025
32.3547
32.4022
32.4481
32.5012
32.514
32.5649
32.5471
32.4774
32.36
32.3239
32.1994
32.1034
31.9995
31.9057
31.8197
31.7216
31.6441
31.5328
31.4685
31.3502
31.3365
31.2946
31.3623
31.4426
31.5869
31.725
31.9661
32.0562
32.1573
32.2091
32.2679
32.3196
32.3681
32.4231
32.4389
32.4854
32.4695
32.3713
32.2597
32.2163
32.0924
31.9975
31.8945
31.8019
31.7157
31.6179
31.5409
31.4273
31.3601
31.2363
31.2188
31.1644
31.2224
31.2887
31.4317
31.5736
31.8232
31.9285
32.0421
32.103
32.1672
32.2224
32.273
32.3297
32.3488
32.3918
32.3769
32.2526
32.1448
32.094
31.971
31.8768
31.7748
31.683
31.5969
31.5005
31.4239
31.309
31.2391
31.1094
31.0879
31.021
31.0696
31.1221
31.2639
31.4095
31.6672
31.787
31.9124
31.9817
32.0503
32.1086
32.1611
32.2195
32.242
32.2831
32.2693
32.1187
32.012
31.9541
31.8328
31.7391
31.6385
31.548
31.4627
31.3689
31.2936
31.1782
31.106
30.9697
30.9434
30.8632
30.9029
30.9407
31.0816
31.2303
31.4955
31.629
31.7656
31.8429
31.9162
31.9768
32.0307
32.0908
32.1171
32.1576
32.1453
31.966
31.859
31.7945
31.6752
31.5828
31.4845
31.3966
31.3132
31.2221
31.1488
31.0327
30.9589
30.8173
30.7868
30.6908
30.7218
30.744
30.8841
31.0343
31.3065
31.4527
31.6
31.6852
31.7624
31.825
31.8802
31.9415
31.9716
32.0122
32.0016
31.7902
31.6835
31.6132
31.4965
31.4064
31.3126
31.2278
31.1463
31.0573
30.9861
30.8695
30.795
30.6486
30.6158
30.505
30.5281
30.5335
30.6721
30.8215
31.0995
31.2569
31.4143
31.5065
31.5873
31.6513
31.708
31.7692
31.8031
31.8432
31.8348
31.5876
31.4837
31.4084
31.2955
31.2095
31.1215
31.0383
30.9587
30.8724
30.8039
30.6866
30.6127
30.4615
30.4273
30.3044
30.3217
30.3125
30.4482
30.5936
30.8756
31.0419
31.208
31.3068
31.3896
31.4541
31.5123
31.572
31.6093
31.6483
31.6427
31.3575
31.258
31.1796
31.073
30.9926
30.9083
30.826
30.7493
30.6659
30.6003
30.4822
30.4102
30.2545
30.2207
30.0857
30.0996
30.0812
30.2174
30.3537
30.6374
30.8096
30.9824
31.0872
31.1722
31.2361
31.2933
31.3498
31.3898
31.4274
31.4243
31.1013
31.0071
30.9288
30.8317
30.7538
30.671
30.5898
30.5161
30.4353
30.3749
30.259
30.1908
30.0309
29.9963
29.8486
29.8611
29.8353
29.9811
30.1081
30.3898
30.5638
30.7412
30.85
30.9377
30.9991
31.0537
31.1057
31.1461
31.1812
31.1824
30.8212
30.7372
30.6622
30.5696
30.4902
30.4074
30.3277
30.2629
30.1888
30.1369
30.0263
29.9637
29.8004
29.7669
29.6075
29.6168
29.576
29.7337
29.8558
30.1358
30.309
30.4887
30.5988
30.6862
30.7457
30.7973
30.8438
30.8808
30.9108
30.9197
30.5272
30.454
30.3753
30.2818
30.2006
30.1231
30.053
30.0034
29.9405
29.8981
29.7948
29.7389
29.5735
29.5467
29.3779
29.3843
29.3221
29.4827
29.5922
29.8709
30.0427
30.223
30.333
30.4183
30.474
30.5213
30.5649
30.5992
30.6242
30.6424
30.2202
30.1511
30.062
29.9722
29.8997
29.8374
29.7843
29.7492
29.6982
29.6672
29.5729
29.5244
29.3584
29.3411
29.1646
29.1728
29.0915
29.2503
29.3395
29.6083
29.7734
29.9477
30.0521
30.1302
30.1806
30.2218
30.2637
30.2991
30.3224
30.3529
29.8909
29.8226
29.7379
29.6651
29.6113
29.5668
29.5311
29.5092
29.4715
29.4538
29.3679
29.3281
29.1637
29.1583
28.9755
28.9898
28.8891
29.0492
29.1196
29.3742
29.527
29.6905
29.7846
29.8502
29.8878
29.9169
29.946
29.9748
29.996
30.0421
29.5572
29.5028
29.4366
29.3865
29.3508
29.3244
29.3058
29.2956
29.2725
29.2678
29.1893
29.1591
28.9984
29.0063
28.8179
28.8428
28.7233
28.8852
28.9387
29.1798
29.3191
29.4722
29.5552
29.6091
29.6294
29.6413
29.6498
29.6616
29.6684
29.7204
29.2639
29.2305
29.1816
29.1514
29.1337
29.1253
29.1213
29.1232
29.1154
29.1196
29.0472
29.0269
28.8721
28.8934
28.6991
28.7387
28.601
28.7665
28.8057
29.0317
29.1573
29.3001
29.372
29.4156
29.4208
29.4166
29.4076
29.4015
29.3868
29.4316
29.0418
29.0223
28.9904
28.9789
28.978
28.9844
28.9919
29.0072
29.0098
29.0195
28.9516
28.9411
28.7918
28.8265
28.625
28.6827
28.5283
28.6997
28.7272
28.9397
29.0522
29.1838
29.2478
29.2826
29.2759
29.2567
29.2313
29.2115
29.1798
29.209
28.9132
28.9025
28.8869
28.8903
28.9006
28.9173
28.9339
28.9578
28.9641
28.9758
28.9129
28.9085
28.7631
28.8115
28.6002
28.6787
28.5096
28.6901
28.708
28.9126
29.0145
29.1355
29.1934
29.2238
29.2098
29.1783
29.1389
29.1051
29.0624
29.0752
28.8897
28.8873
28.8868
28.8989
28.9153
28.9358
28.9563
28.9856
28.9882
28.9987
28.9381
28.9335
28.7904
28.8498
28.6259
28.7285
28.548
28.7406
28.7538
28.9526
29.0484
29.1641
29.2188
29.2494
29.237
29.1983
29.1387
29.0942
29.0382
29.0417
28.9851
28.9832
28.9921
29.0064
29.0252
29.0471
29.0685
29.0942
29.0905
29.0906
29.0254
29.0172
28.874
28.9416
28.7016
28.8325
28.6453
28.8481
28.8671
29.0585
29.1535
29.2692
29.3267
29.3616
29.3555
29.3188
29.255
29.2017
29.1335
29.1235
29.2045
29.1978
29.2107
29.2241
29.2418
29.2604
29.2742
29.2823
29.2635
29.245
29.1718
29.1596
29.0111
29.0841
28.8246
28.9886
28.786
29.0039
29.0382
29.2316
29.3303
29.4538
29.5193
29.5635
29.5685
29.542
29.483
29.4269
29.3549
29.3323
29.5539
29.5413
29.5524
29.5567
29.5609
29.5615
29.5539
29.5377
29.4967
29.4626
29.3767
29.36
29.1981
29.2731
28.9901
29.1953
28.9722
29.2191
29.2667
29.4719
29.5784
29.7169
29.7981
29.8592
29.8802
29.8705
29.8251
29.7747
29.7052
29.6742
30.0345
30.0063
29.9991
29.9836
29.9638
29.9379
29.901
29.8605
29.7965
29.7465
29.6392
29.6108
29.426
29.5015
29.1943
29.4488
29.219
29.502
29.5546
29.7746
29.895
30.0539
30.1583
30.245
30.2924
30.308
30.2864
30.2502
30.1914
30.1556
30.6642
30.6136
30.5733
30.522
30.4686
30.4088
30.3362
30.2608
30.1634
30.0828
29.9472
29.8977
29.6826
29.7605
29.4304
29.7407
29.5141
29.8354
29.8886
30.1317
30.2727
30.4615
30.5994
30.7225
30.808
30.8591
30.8702
30.8613
30.8281
30.7987
31.4768
31.3971
31.3101
31.207
31.1004
30.9857
30.8573
30.7259
30.5761
30.4484
30.2733
30.1938
29.9401
30.0206
29.6716
30.0486
29.8318
30.1931
30.2474
30.5196
30.6846
30.9106
31.0931
31.2675
31.4086
31.5181
31.5814
31.6192
31.633
31.6321
33.4284
33.3362
33.314
33.202
33.0738
32.9351
32.799
32.6996
32.6058
32.5679
32.4891
32.5131
32.4727
32.587
32.7253
33.1401
33.5919
33.9798
33.9903
34.0118
33.8051
33.6531
33.4784
33.3609
33.2758
33.2241
33.196
33.1678
33.1861
33.142
33.3405
33.2222
33.2139
33.1039
32.9884
32.8626
32.7398
32.6489
32.5614
32.5234
32.446
32.4679
32.4229
32.5219
32.6346
33.0104
33.4246
33.7904
33.8269
33.882
33.7101
33.5828
33.4275
33.3218
33.2448
33.197
33.1734
33.1426
33.1686
33.1137
33.2449
33.1184
33.1192
33.0089
32.9038
32.7876
32.6756
32.5923
32.5078
32.4694
32.3899
32.4091
32.3554
32.4427
32.5311
32.8759
33.259
33.6107
33.667
33.7565
33.6152
33.5089
33.371
33.2779
33.2092
33.1656
33.1457
33.1133
33.1438
33.0848
33.1527
33.0295
33.029
32.9172
32.8195
32.7102
32.606
32.5274
32.4441
32.4068
32.3249
32.3427
32.2787
32.3569
32.4215
32.7407
33.0976
33.4452
33.5232
33.6363
33.5193
33.4308
33.3079
33.2252