/*--------------------------------*- C++ -*----------------------------------*\
  =========                 |
  \\      /  F ield         | OpenFOAM: The Open Source CFD Toolbox
   \\    /   O peration     | Website:  https://openfoam.org
    \\  /    A nd           | Version:  12
     \\/     M anipulation  |
\*---------------------------------------------------------------------------*/
FoamFile
{
    format      ascii;
    class       volScalarField;
    location    "700/porous";
    object      rho;
}
// * * * * * * * * * * * * * * * * * * * * * * * * * * * * * * * * * * * * * //

dimensions      [1 -3 0 0 0 0 0];

internalField   nonuniform List<scalar> 
140000
(
933.891
933.891
933.891
933.891
933.891
933.891
933.891
933.891
933.892
933.899
934.191
934.416
934.615
934.801
934.979
935.151
935.32
935.485
935.648
935.809
935.968
936.125
936.28
936.434
936.586
936.737
936.886
937.034
937.18
937.325
937.467
937.608
937.747
937.884
938.02
938.152
938.284
938.413
938.541
938.668
938.796
938.923
939.05
939.176
939.302
939.425
939.548
939.669
939.788
939.906
940.023
940.138
940.252
940.364
940.474
940.583
940.691
940.796
940.903
940.985
940.589
940.34
940.152
939.999
939.871
939.762
939.67
939.591
939.525
939.473
933.891
933.891
933.891
933.891
933.891
933.891
933.891
933.891
933.891
933.896
934.12
934.299
934.458
934.608
934.752
934.892
935.029
935.165
935.298
935.43
935.561
935.691
935.82
935.948
936.075
936.202
936.327
936.452
936.576
936.699
936.821
936.942
937.063
937.182
937.3
937.417
937.533
937.648
937.763
937.877
937.992
938.108
938.223
938.339
938.453
938.567
938.68
938.792
938.904
939.014
939.123
939.231
939.338
939.444
939.548
939.651
939.753
939.853
939.954
940.038
939.801
939.647
939.528
939.428
939.342
939.266
939.2
939.14
939.089
939.045
933.891
933.891
933.891
933.891
933.891
933.891
933.891
933.891
933.891
933.895
934.101
934.262
934.404
934.535
934.661
934.782
934.9
935.015
935.129
935.241
935.351
935.46
935.568
935.675
935.782
935.887
935.991
936.095
936.198
936.301
936.402
936.503
936.604
936.703
936.802
936.9
936.997
937.093
937.189
937.286
937.383
937.482
937.58
937.679
937.777
937.875
937.972
938.068
938.165
938.26
938.355
938.449
938.542
938.634
938.725
938.815
938.904
938.992
939.077
939.155
938.964
938.845
938.755
938.682
938.619
938.564
938.516
938.472
938.434
938.401
933.891
933.891
933.891
933.891
933.891
933.891
933.891
933.891
933.891
933.895
934.097
934.253
934.39
934.515
934.634
934.748
934.858
934.966
935.071
935.173
935.274
935.374
935.472
935.569
935.665
935.759
935.853
935.945
936.037
936.128
936.218
936.307
936.395
936.483
936.569
936.655
936.739
936.823
936.907
936.991
937.077
937.163
937.249
937.336
937.421
937.507
937.592
937.677
937.76
937.844
937.926
938.008
938.089
938.17
938.249
938.327
938.404
938.479
938.554
938.619
938.44
938.328
938.243
938.175
938.117
938.066
938.021
937.98
937.944
937.912
933.891
933.891
933.891
933.891
933.891
933.891
933.891
933.891
933.891
933.895
934.096
934.252
934.387
934.511
934.627
934.739
934.847
934.951
935.053
935.153
935.25
935.346
935.44
935.533
935.624
935.714
935.803
935.89
935.977
936.063
936.147
936.231
936.314
936.395
936.475
936.555
936.633
936.71
936.788
936.866
936.945
937.025
937.105
937.185
937.264
937.343
937.421
937.498
937.575
937.652
937.727
937.802
937.876
937.949
938.02
938.091
938.161
938.229
938.295
938.352
938.176
938.064
937.98
937.911
937.852
937.8
937.754
937.712
937.674
937.64
933.891
933.891
933.891
933.891
933.891
933.891
933.891
933.891
933.891
933.895
934.097
934.252
934.387
934.511
934.627
934.739
934.846
934.949
935.05
935.149
935.245
935.34
935.432
935.523
935.613
935.701
935.788
935.874
935.958
936.042
936.124
936.205
936.285
936.364
936.441
936.517
936.592
936.667
936.741
936.817
936.893
936.97
937.047
937.124
937.2
937.276
937.351
937.425
937.498
937.571
937.643
937.714
937.784
937.853
937.921
937.988
938.053
938.117
938.179
938.232
938.057
937.945
937.86
937.79
937.729
937.676
937.629
937.586
937.546
937.511
933.891
933.891
933.891
933.891
933.891
933.891
933.891
933.891
933.891
933.895
934.097
934.253
934.388
934.512
934.628
934.74
934.847
934.95
935.051
935.149
935.245
935.34
935.432
935.523
935.612
935.699
935.785
935.87
935.954
936.037
936.118
936.198
936.276
936.354
936.43
936.504
936.578
936.651
936.724
936.799
936.874
936.95
937.026
937.101
937.176
937.25
937.324
937.396
937.468
937.54
937.61
937.679
937.748
937.815
937.881
937.946
938.009
938.071
938.13
938.18
938.006
937.894
937.808
937.738
937.677
937.623
937.575
937.531
937.491
937.455
933.891
933.891
933.891
933.891
933.891
933.891
933.891
933.891
933.891
933.895
934.098
934.254
934.389
934.513
934.63
934.741
934.849
934.952
935.053
935.152
935.248
935.342
935.434
935.525
935.614
935.701
935.787
935.872
935.955
936.037
936.118
936.197
936.275
936.352
936.427
936.501
936.573
936.646
936.719
936.793
936.868
936.944
937.019
937.094
937.168
937.242
937.315
937.387
937.458
937.529
937.598
937.667
937.735
937.801
937.867
937.93
937.993
938.053
938.111
938.16
937.986
937.874
937.788
937.717
937.656
937.602
937.554
937.509
937.469
937.432
933.891
933.891
933.891
933.891
933.891
933.891
933.891
933.891
933.891
933.895
934.098
934.254
934.39
934.514
934.631
934.743
934.85
934.954
935.055
935.154
935.25
935.344
935.437
935.527
935.616
935.703
935.789
935.874
935.957
936.039
936.119
936.198
936.275
936.351
936.426
936.499
936.572
936.644
936.717
936.791
936.867
936.942
937.018
937.092
937.166
937.24
937.312
937.384
937.456
937.526
937.596
937.664
937.731
937.798
937.863
937.926
937.988
938.047
938.105
938.153
937.979
937.867
937.781
937.71
937.649
937.595
937.546
937.502
937.462
937.425
933.891
933.891
933.891
933.891
933.891
933.891
933.891
933.891
933.891
933.895
934.099
934.255
934.391
934.515
934.632
934.744
934.852
934.956
935.057
935.156
935.252
935.347
935.439
935.53
935.618
935.706
935.792
935.876
935.959
936.041
936.121
936.199
936.276
936.352
936.426
936.499
936.571
936.644
936.717
936.792
936.867
936.943
937.018
937.093
937.167
937.24
937.313
937.385
937.456
937.527
937.596
937.665
937.732
937.798
937.863
937.926
937.988
938.047
938.104
938.151
937.978
937.866
937.78
937.709
937.648
937.594
937.545
937.501
937.46
937.424
933.891
933.891
933.891
933.891
933.891
933.891
933.891
933.891
933.891
933.895
934.099
934.255
934.391
934.516
934.633
934.745
934.853
934.957
935.058
935.157
935.254
935.348
935.441
935.531
935.62
935.707
935.793
935.878
935.96
936.042
936.121
936.199
936.276
936.351
936.425
936.499
936.571
936.644
936.717
936.792
936.868
936.944
937.019
937.094
937.168
937.242
937.314
937.386
937.458
937.528
937.598
937.666
937.734
937.8
937.865
937.928
937.989
938.049
938.105
938.153
937.979
937.867
937.782
937.711
937.649
937.595
937.547
937.502
937.462
937.425
933.891
933.891
933.891
933.891
933.891
933.891
933.891
933.891
933.891
933.895
934.099
934.256
934.391
934.516
934.633
934.745
934.853
934.958
935.06
935.159
935.255
935.35
935.442
935.533
935.622
935.709
935.794
935.879
935.961
936.042
936.121
936.199
936.275
936.35
936.425
936.498
936.571
936.644
936.718
936.793
936.869
936.945
937.021
937.096
937.17
937.243
937.316
937.388
937.46
937.53
937.6
937.668
937.736
937.802
937.867
937.93
937.992
938.051
938.108
938.155
937.982
937.87
937.784
937.713
937.652
937.598
937.549
937.505
937.464
937.427
933.891
933.891
933.891
933.891
933.891
933.891
933.891
933.891
933.891
933.895
934.099
934.255
934.391
934.516
934.633
934.746
934.854
934.958
935.06
935.159
935.256
935.35
935.443
935.533
935.622
935.709
935.795
935.879
935.961
936.041
936.12
936.198
936.274
936.349
936.424
936.498
936.572
936.645
936.719
936.795
936.87
936.946
937.022
937.097
937.171
937.245
937.318
937.39
937.461
937.532
937.602
937.671
937.738
937.805
937.87
937.933
937.995
938.054
938.11
938.157
937.984
937.872
937.786
937.716
937.654
937.6
937.552
937.507
937.467
937.43
933.891
933.891
933.891
933.891
933.891
933.891
933.891
933.891
933.891
933.895
934.099
934.256
934.391
934.516
934.633
934.746
934.854
934.959
935.06
935.16
935.256
935.351
935.443
935.534
935.622
935.709
935.795
935.878
935.96
936.04
936.118
936.196
936.272
936.348
936.424
936.499
936.573
936.647
936.721
936.796
936.872
936.948
937.024
937.099
937.173
937.247
937.32
937.392
937.463
937.534
937.604
937.673
937.741
937.807
937.872
937.936
937.997
938.057
938.113
938.16
937.987
937.875
937.789
937.718
937.657
937.603
937.555
937.51
937.47
937.433
933.891
933.891
933.891
933.891
933.891
933.891
933.891
933.891
933.891
933.895
934.098
934.255
934.391
934.515
934.633
934.745
934.854
934.958
935.06
935.16
935.256
935.351
935.443
935.534
935.622
935.709
935.794
935.877
935.959
936.038
936.116
936.193
936.27
936.347
936.424
936.499
936.574
936.649
936.723
936.798
936.874
936.95
937.025
937.1
937.175
937.248
937.322
937.394
937.466
937.537
937.607
937.676
937.743
937.81
937.875
937.939
938
938.06
938.116
938.163
937.99
937.878
937.792
937.721
937.66
937.606
937.558
937.513
937.473
937.436
933.891
933.891
933.891
933.891
933.891
933.891
933.891
933.891
933.891
933.895
934.098
934.254
934.39
934.515
934.632
934.745
934.853
934.958
935.06
935.159
935.256
935.351
935.443
935.533
935.622
935.708
935.793
935.876
935.956
936.035
936.113
936.191
936.269
936.347
936.424
936.501
936.577
936.652
936.726
936.801
936.877
936.952
937.027
937.102
937.177
937.251
937.324
937.396
937.468
937.539
937.609
937.678
937.746
937.813
937.878
937.942
938.003
938.063
938.119
938.166
937.993
937.881
937.795
937.724
937.663
937.609
937.561
937.516
937.476
937.439
933.891
933.891
933.891
933.891
933.891
933.891
933.891
933.891
933.891
933.895
934.098
934.254
934.39
934.514
934.632
934.744
934.853
934.958
935.06
935.159
935.256
935.35
935.443
935.533
935.621
935.707
935.791
935.874
935.954
936.032
936.11
936.189
936.268
936.347
936.426
936.503
936.58
936.655
936.73
936.805
936.879
936.955
937.03
937.105
937.179
937.253
937.326
937.399
937.47
937.541
937.612
937.681
937.749
937.816
937.881
937.945
938.006
938.066
938.122
938.169
937.996
937.884
937.798
937.727
937.666
937.612
937.563
937.519
937.479
937.442
933.891
933.891
933.891
933.891
933.891
933.891
933.891
933.891
933.891
933.895
934.097
934.253
934.388
934.513
934.631
934.743
934.852
934.957
935.059
935.158
935.255
935.35
935.442
935.532
935.62
935.706
935.79
935.872
935.951
936.03
936.108
936.188
936.269
936.349
936.428
936.506
936.583
936.659
936.734
936.808
936.883
936.957
937.032
937.107
937.181
937.255
937.328
937.401
937.473
937.544
937.614
937.683
937.751
937.818
937.884
937.947
938.009
938.069
938.125
938.172
937.999
937.887
937.801
937.73
937.669
937.615
937.566
937.522
937.481
937.444
933.891
933.891
933.891
933.891
933.891
933.891
933.891
933.891
933.891
933.895
934.097
934.252
934.387
934.512
934.63
934.742
934.851
934.956
935.058
935.158
935.255
935.349
935.442
935.532
935.619
935.705
935.789
935.87
935.949
936.027
936.107
936.188
936.27
936.35
936.429
936.508
936.585
936.662
936.738
936.812
936.886
936.96
937.034
937.109
937.183
937.256
937.33
937.402
937.474
937.545
937.616
937.685
937.753
937.82
937.886
937.95
938.011
938.071
938.128
938.175
938.001
937.889
937.804
937.733
937.671
937.617
937.568
937.524
937.483
937.446
933.891
933.891
933.891
933.891
933.891
933.891
933.891
933.891
933.891
933.895
934.096
934.252
934.387
934.511
934.629
934.742
934.85
934.956
935.058
935.157
935.254
935.349
935.441
935.531
935.619
935.705
935.788
935.869
935.948
936.026
936.107
936.189
936.271
936.352
936.431
936.509
936.587
936.664
936.74
936.814
936.888
936.961
937.035
937.109
937.183
937.257
937.33
937.403
937.475
937.546
937.617
937.686
937.754
937.821
937.887
937.951
938.013
938.072
938.129
938.177
938.003
937.891
937.805
937.734
937.673
937.619
937.57
937.525
937.485
937.448
933.891
933.891
933.891
933.891
933.891
933.891
933.891
933.891
933.891
933.895
934.096
934.25
934.385
934.51
934.628
934.741
934.849
934.955
935.057
935.157
935.254
935.349
935.441
935.531
935.619
935.704
935.787
935.868
935.947
936.026
936.107
936.19
936.272
936.352
936.432
936.51
936.588
936.665
936.741
936.816
936.888
936.961
937.035
937.109
937.183
937.257
937.33
937.403
937.475
937.546
937.616
937.686
937.754
937.821
937.887
937.951
938.013
938.073
938.13
938.179
938.005
937.892
937.806
937.735
937.674
937.62
937.571
937.526
937.486
937.449
933.891
933.891
933.891
933.891
933.891
933.891
933.891
933.891
933.891
933.895
934.095
934.25
934.385
934.509
934.627
934.74
934.849
934.954
935.057
935.157
935.254
935.349
935.441
935.531
935.619
935.705
935.788
935.868
935.947
936.027
936.108
936.191
936.272
936.353
936.432
936.511
936.589
936.666
936.742
936.816
936.888
936.961
937.034
937.108
937.182
937.256
937.329
937.402
937.474
937.545
937.616
937.685
937.754
937.821
937.887
937.951
938.013
938.073
938.13
938.179
938.005
937.893
937.807
937.736
937.674
937.62
937.571
937.527
937.486
937.449
933.891
933.891
933.891
933.891
933.891
933.891
933.891
933.891
933.891
933.895
934.094
934.249
934.384
934.508
934.626
934.739
934.848
934.954
935.056
935.156
935.254
935.349
935.441
935.532
935.62
935.705
935.788
935.869
935.948
936.028
936.109
936.192
936.273
936.354
936.433
936.511
936.589
936.666
936.742
936.816
936.888
936.96
937.033
937.107
937.18
937.254
937.327
937.4
937.472
937.544
937.614
937.684
937.753
937.82
937.886
937.95
938.012
938.073
938.13
938.18
938.006
937.893
937.807
937.736
937.674
937.62
937.571
937.527
937.486
937.449
933.891
933.891
933.891
933.891
933.891
933.891
933.891
933.891
933.891
933.895
934.094
934.248
934.383
934.507
934.625
934.738
934.847
934.953
935.056
935.156
935.254
935.349
935.441
935.532
935.62
935.706
935.789
935.87
935.949
936.029
936.111
936.193
936.274
936.355
936.434
936.512
936.59
936.667
936.743
936.816
936.888
936.96
937.032
937.105
937.179
937.253
937.326
937.399
937.471
937.543
937.613
937.683
937.752
937.819
937.885
937.949
938.012
938.072
938.13
938.181
938.006
937.893
937.807
937.736
937.674
937.62
937.571
937.527
937.486
937.449
933.891
933.891
933.891
933.891
933.891
933.891
933.891
933.891
933.891
933.895
934.094
934.248
934.382
934.507
934.625
934.738
934.847
934.953
935.056
935.156
935.254
935.349
935.442
935.532
935.621
935.707
935.79
935.872
935.951
936.031
936.113
936.195
936.276
936.356
936.435
936.514
936.591
936.668
936.743
936.817
936.889
936.96
937.032
937.105
937.178
937.251
937.325
937.398
937.47
937.541
937.612
937.682
937.751
937.818
937.884
937.949
938.011
938.072
938.13
938.18
938.006
937.893
937.807
937.736
937.674
937.62
937.571
937.527
937.486
937.449
933.891
933.891
933.891
933.891
933.891
933.891
933.891
933.891
933.891
933.895
934.092
934.246
934.38
934.505
934.623
934.737
934.846
934.952
935.055
935.155
935.253
935.349
935.442
935.533
935.621
935.708
935.792
935.873
935.953
936.034
936.115
936.197
936.278
936.358
936.437
936.515
936.593
936.669
936.745
936.818
936.889
936.96
937.031
937.104
937.177
937.251
937.324
937.397
937.469
937.54
937.611
937.681
937.75
937.817
937.883
937.948
938.011
938.072
938.131
938.183
938.007
937.894
937.808
937.736
937.675
937.62
937.571
937.527
937.486
937.449
933.891
933.891
933.891
933.891
933.891
933.891
933.891
933.891
933.891
933.895
934.092
934.245
934.38
934.505
934.623
934.736
934.846
934.952
935.055
935.155
935.253
935.349
935.442
935.533
935.622
935.709
935.793
935.875
935.956
936.036
936.117
936.199
936.28
936.36
936.439
936.517
936.595
936.671
936.747
936.82
936.891
936.961
937.032
937.104
937.177
937.25
937.324
937.396
937.468
937.54
937.611
937.681
937.749
937.817
937.883
937.948
938.01
938.071
938.131
938.183
938.007
937.894
937.808
937.737
937.675
937.621
937.572
937.527
937.486
937.449
933.891
933.891
933.891
933.891
933.891
933.891
933.891
933.891
933.891
933.895
934.091
934.244
934.379
934.504
934.622
934.736
934.845
934.951
935.054
935.155
935.253
935.349
935.442
935.533
935.623
935.71
935.794
935.877
935.958
936.038
936.12
936.201
936.282
936.362
936.441
936.519
936.597
936.673
936.749
936.822
936.892
936.962
937.033
937.105
937.178
937.251
937.324
937.396
937.468
937.54
937.61
937.68
937.749
937.817
937.883
937.947
938.01
938.072
938.131
938.184
938.008
937.895
937.809
937.737
937.675
937.621
937.572
937.527
937.487
937.45
933.891
933.891
933.891
933.891
933.891
933.891
933.891
933.891
933.891
933.895
934.09
934.243
934.378
934.503
934.621
934.735
934.844
934.95
935.054
935.154
935.252
935.348
935.442
935.533
935.623
935.71
935.796
935.879
935.96
936.04
936.122
936.203
936.284
936.364
936.443
936.521
936.598
936.675
936.751
936.823
936.893
936.963
937.034
937.105
937.178
937.251
937.324
937.396
937.468
937.54
937.61
937.68
937.749
937.816
937.883
937.947
938.01
938.072
938.132
938.186
938.009
937.896
937.809
937.738
937.676
937.621
937.572
937.528
937.487
937.45
933.891
933.891
933.891
933.891
933.891
933.891
933.891
933.891
933.891
933.895
934.09
934.243
934.378
934.502
934.621
934.734
934.844
934.95
935.053
935.154
935.252
935.348
935.442
935.533
935.623
935.711
935.796
935.88
935.962
936.042
936.123
936.205
936.286
936.365
936.444
936.522
936.6
936.676
936.752
936.824
936.894
936.963
937.034
937.106
937.178
937.251
937.324
937.396
937.468
937.539
937.61
937.68
937.748
937.816
937.882
937.947
938.01
938.072
938.132
938.186
938.01
937.896
937.81
937.738
937.676
937.621
937.572
937.528
937.487
937.45
933.891
933.891
933.891
933.891
933.891
933.891
933.891
933.891
933.891
933.895
934.089
934.242
934.377
934.501
934.62
934.733
934.843
934.949
935.052
935.153
935.251
935.347
935.441
935.533
935.623
935.711
935.797
935.881
935.963
936.044
936.124
936.206
936.286
936.366
936.444
936.522
936.6
936.677
936.752
936.823
936.893
936.963
937.034
937.106
937.178
937.251
937.323
937.396
937.467
937.539
937.609
937.679
937.748
937.815
937.881
937.946
938.01
938.072
938.133
938.187
938.01
937.897
937.81
937.738
937.676
937.621
937.572
937.528
937.487
937.45
933.891
933.891
933.891
933.891
933.891
933.891
933.891
933.891
933.891
933.895
934.088
934.241
934.376
934.501
934.619
934.732
934.842
934.948
935.051
935.152
935.25
935.346
935.44
935.532
935.623
935.711
935.797
935.882
935.964
936.045
936.125
936.206
936.286
936.365
936.444
936.522
936.599
936.675
936.75
936.821
936.891
936.961
937.033
937.105
937.178
937.25
937.323
937.395
937.466
937.537
937.608
937.677
937.746
937.814
937.88
937.945
938.009
938.071
938.132
938.187
938.01
937.896
937.809
937.737
937.675
937.621
937.571
937.527
937.486
937.449
933.891
933.891
933.891
933.891
933.891
933.891
933.891
933.891
933.891
933.895
934.088
934.241
934.375
934.5
934.618
934.731
934.841
934.947
935.05
935.151
935.249
935.345
935.44
935.532
935.622
935.71
935.797
935.882
935.965
936.045
936.125
936.205
936.285
936.364
936.442
936.519
936.596
936.672
936.745
936.816
936.887
936.959
937.031
937.103
937.176
937.249
937.321
937.393
937.465
937.536
937.606
937.676
937.744
937.812
937.878
937.943
938.007
938.07
938.131
938.186
938.009
937.895
937.808
937.736
937.674
937.619
937.57
937.525
937.484
937.447
933.891
933.891
933.891
933.891
933.891
933.891
933.891
933.891
933.891
933.895
934.088
934.24
934.375
934.499
934.617
934.73
934.84
934.946
935.049
935.15
935.248
935.344
935.438
935.531
935.621
935.71
935.797
935.882
935.965
936.046
936.125
936.204
936.283
936.361
936.439
936.516
936.592
936.667
936.74
936.812
936.883
936.956
937.029
937.101
937.174
937.247
937.319
937.391
937.463
937.534
937.604
937.673
937.742
937.81
937.876
937.942
938.005
938.068
938.131
938.187
938.009
937.894
937.807
937.735
937.673
937.618
937.569
937.524
937.483
937.445
933.891
933.891
933.891
933.891
933.891
933.891
933.891
933.891
933.891
933.895
934.087
934.24
934.374
934.498
934.616
934.729
934.839
934.945
935.048
935.149
935.247
935.343
935.437
935.529
935.62
935.709
935.796
935.881
935.964
936.046
936.125
936.203
936.281
936.358
936.435
936.512
936.587
936.662
936.735
936.807
936.88
936.953
937.026
937.099
937.172
937.245
937.317
937.389
937.461
937.531
937.602
937.671
937.74
937.808
937.874
937.94
938.004
938.067
938.129
938.185
938.007
937.893
937.805
937.733
937.671
937.616
937.567
937.522
937.481
937.443
933.891
933.891
933.891
933.891
933.891
933.891
933.891
933.891
933.891
933.895
934.087
934.239
934.374
934.498
934.616
934.728
934.838
934.944
935.047
935.147
935.245
935.342
935.436
935.528
935.619
935.707
935.795
935.88
935.963
936.045
936.124
936.202
936.278
936.355
936.431
936.507
936.582
936.656
936.73
936.803
936.877
936.95
937.024
937.098
937.171
937.243
937.316
937.387
937.459
937.53
937.6
937.669
937.738
937.806
937.872
937.938
938.002
938.066
938.128
938.184
938.006
937.891
937.804
937.731
937.669
937.614
937.565
937.52
937.479
937.442
933.891
933.891
933.891
933.891
933.891
933.891
933.891
933.891
933.891
933.895
934.087
934.239
934.373
934.497
934.615
934.727
934.836
934.942
935.045
935.146
935.244
935.34
935.434
935.526
935.617
935.706
935.793
935.879
935.962
936.044
936.123
936.2
936.276
936.352
936.427
936.503
936.578
936.652
936.726
936.8
936.874
936.948
937.022
937.096
937.169
937.242
937.314
937.386
937.457
937.528
937.598
937.667
937.736
937.804
937.87
937.936
938.001
938.064
938.127
938.184
938.005
937.89
937.802
937.73
937.668
937.613
937.563
937.518
937.477
937.44
933.891
933.891
933.891
933.891
933.891
933.891
933.891
933.891
933.891
933.895
934.087
934.239
934.372
934.496
934.614
934.726
934.835
934.941
935.044
935.144
935.242
935.338
935.432
935.525
935.615
935.704
935.791
935.877
935.96
936.042
936.121
936.198
936.273
936.348
936.424
936.499
936.574
936.648
936.723
936.797
936.872
936.947
937.021
937.094
937.168
937.24
937.312
937.384
937.455
937.526
937.596
937.666
937.734
937.802
937.869
937.934
937.999
938.063
938.125
938.182
938.003
937.888
937.801
937.728
937.666
937.611
937.561
937.516
937.475
937.438
933.891
933.891
933.891
933.891
933.891
933.891
933.891
933.891
933.891
933.895
934.087
934.239
934.372
934.496
934.613
934.725
934.834
934.94
935.042
935.142
935.24
935.336
935.43
935.523
935.613
935.702
935.789
935.875
935.958
936.04
936.119
936.195
936.27
936.345
936.42
936.495
936.57
936.645
936.72
936.795
936.87
936.945
937.019
937.093
937.166
937.239
937.311
937.383
937.454
937.524
937.594
937.664
937.732
937.8
937.867
937.933
937.997
938.061
938.124
938.181
938.002
937.887
937.799
937.727
937.664
937.609
937.56
937.514
937.473
937.436
933.891
933.891
933.891
933.891
933.891
933.891
933.891
933.891
933.891
933.895
934.087
934.238
934.372
934.495
934.612
934.724
934.833
934.938
935.041
935.141
935.238
935.334
935.428
935.52
935.611
935.7
935.787
935.872
935.956
936.037
936.116
936.192
936.267
936.341
936.417
936.492
936.567
936.643
936.718
936.794
936.869
936.943
937.018
937.091
937.165
937.237
937.309
937.381
937.452
937.523
937.593
937.662
937.73
937.798
937.865
937.931
937.996
938.06
938.123
938.18
938.001
937.886
937.798
937.725
937.663
937.607
937.558
937.513
937.471
937.434
933.891
933.891
933.891
933.891
933.891
933.891
933.891
933.891
933.891
933.895
934.086
934.238
934.371
934.494
934.611
934.723
934.832
934.937
935.039
935.139
935.237
935.332
935.426
935.518
935.608
935.697
935.784
935.869
935.953
936.034
936.112
936.189
936.263
936.338
936.414
936.489
936.565
936.641
936.717
936.792
936.867
936.942
937.016
937.09
937.163
937.236
937.308
937.38
937.451
937.521
937.591
937.66
937.729
937.797
937.863
937.929
937.994
938.059
938.122
938.179
938
937.885
937.797
937.724
937.662
937.607
937.557
937.512
937.471
937.433
933.891
933.891
933.891
933.891
933.891
933.891
933.891
933.891
933.891
933.895
934.087
934.238
934.371
934.494
934.611
934.722
934.83
934.935
935.037
935.137
935.234
935.33
935.424
935.515
935.606
935.694
935.781
935.866
935.95
936.031
936.109
936.185
936.26
936.335
936.411
936.487
936.563
936.64
936.716
936.791
936.867
936.941
937.016
937.089
937.162
937.235
937.307
937.379
937.45
937.521
937.591
937.66
937.729
937.796
937.863
937.93
937.995
938.059
938.123
938.18
938.001
937.886
937.798
937.725
937.663
937.608
937.558
937.513
937.472
937.435
933.891
933.891
933.891
933.891
933.891
933.891
933.891
933.891
933.891
933.895
934.087
934.238
934.371
934.494
934.61
934.721
934.829
934.934
935.036
935.135
935.232
935.328
935.421
935.513
935.603
935.692
935.779
935.864
935.947
936.028
936.106
936.183
936.258
936.334
936.41
936.487
936.563
936.64
936.716
936.792
936.868
936.943
937.017
937.091
937.164
937.237
937.309
937.381
937.453
937.523
937.594
937.663
937.732
937.8
937.868
937.934
938
938.065
938.129
938.187
938.007
937.892
937.804
937.732
937.67
937.615
937.565
937.521
937.48
937.443
933.891
933.891
933.891
933.891
933.891
933.891
933.891
933.891
933.891
933.895
934.086
934.238
934.371
934.493
934.609
934.721
934.828
934.932
935.034
935.133
935.231
935.326
935.42
935.512
935.602
935.69
935.777
935.862
935.946
936.027
936.106
936.183
936.259
936.335
936.412
936.49
936.567
936.644
936.721
936.797
936.873
936.949
937.024
937.098
937.172
937.246
937.319
937.391
937.463
937.534
937.605
937.675
937.745
937.814
937.882
937.95
938.016
938.082
938.147
938.206
938.026
937.911
937.824
937.752
937.69
937.635
937.586
937.542
937.501
937.465
933.891
933.891
933.891
933.891
933.891
933.891
933.891
933.891
933.891
933.895
934.088
934.239
934.371
934.494
934.61
934.721
934.828
934.933
935.035
935.134
935.232
935.327
935.421
935.513
935.604
935.693
935.781
935.866
935.95
936.032
936.112
936.19
936.268
936.346
936.424
936.503
936.581
936.66
936.738
936.815
936.893
936.969
937.045
937.121
937.196
937.271
937.346
937.42
937.493
937.566
937.638
937.71
937.781
937.852
937.922
937.992
938.06
938.128
938.195
938.255
938.076
937.961
937.874
937.803
937.742
937.688
937.64
937.596
937.556
937.521
933.891
933.891
933.891
933.891
933.891
933.891
933.891
933.891
933.891
933.895
934.088
934.239
934.373
934.495
934.612
934.723
934.831
934.936
935.039
935.14
935.238
935.335
935.43
935.524
935.616
935.707
935.796
935.884
935.97
936.054
936.136
936.216
936.297
936.378
936.459
936.541
936.622
936.703
936.784
936.864
936.945
937.024
937.103
937.182
937.261
937.339
937.416
937.494
937.57
937.647
937.723
937.798
937.873
937.947
938.021
938.094
938.167
938.239
938.309
938.374
938.193
938.079
937.993
937.923
937.863
937.811
937.764
937.722
937.684
937.649
933.891
933.891
933.891
933.891
933.891
933.891
933.891
933.891
933.891
933.895
934.09
934.243
934.377
934.502
934.62
934.734
934.845
934.953
935.059
935.163
935.265
935.365
935.464
935.562
935.659
935.754
935.848
935.94
936.031
936.12
936.207
936.294
936.381
936.468
936.555
936.642
936.729
936.817
936.904
936.99
937.077
937.163
937.249
937.334
937.419
937.504
937.588
937.672
937.756
937.839
937.922
938.004
938.086
938.168
938.249
938.33
938.409
938.488
938.567
938.638
938.455
938.341
938.256
938.186
938.127
938.075
938.03
937.989
937.953
937.92
933.891
933.891
933.891
933.891
933.891
933.891
933.891
933.891
933.891
933.895
934.096
934.254
934.394
934.525
934.65
934.771
934.889
935.005
935.12
935.232
935.344
935.454
935.563
935.671
935.778
935.884
935.989
936.092
936.194
936.295
936.394
936.492
936.591
936.69
936.789
936.889
936.988
937.088
937.187
937.286
937.384
937.483
937.58
937.678
937.775
937.872
937.969
938.065
938.16
938.256
938.35
938.445
938.539
938.632
938.725
938.817
938.909
938.999
939.089
939.171
938.976
938.856
938.765
938.691
938.628
938.572
938.524
938.48
938.441
938.407
933.891
933.891
933.891
933.891
933.891
933.891
933.891
933.891
933.891
933.896
934.115
934.293
934.45
934.599
934.743
934.883
935.021
935.157
935.291
935.425
935.557
935.688
935.818
935.947
936.075
936.202
936.327
936.452
936.574
936.695
936.814
936.933
937.052
937.17
937.289
937.408
937.526
937.644
937.762
937.879
937.995
938.11
938.225
938.339
938.453
938.566
938.678
938.789
938.9
939.009
939.118
939.227
939.335
939.441
939.547
939.652
939.757
939.86
939.962
940.052
939.811
939.656
939.536
939.436
939.349
939.273
939.206
939.146
939.094
939.051
933.891
933.891
933.891
933.891
933.891
933.891
933.891
933.891
933.892
933.899
934.189
934.412
934.609
934.794
934.972
935.144
935.313
935.479
935.643
935.806
935.966
936.124
936.281
936.436
936.59
936.741
936.89
937.037
937.181
937.322
937.462
937.599
937.737
937.873
938.008
938.143
938.277
938.41
938.541
938.672
938.8
938.928
939.054
939.179
939.302
939.424
939.545
939.665
939.783
939.901
940.017
940.132
940.247
940.36
940.472
940.583
940.694
940.802
940.91
940.994
940.597
940.347
940.158
940.005
939.876
939.768
939.675
939.596
939.53
939.477
933.891
933.891
933.891
933.891
933.891
933.891
933.891
933.891
933.891
933.896
934.117
934.323
934.514
934.696
934.872
935.044
935.212
935.377
935.54
935.701
935.86
936.018
936.174
936.329
936.482
936.633
936.783
936.932
937.079
937.224
937.367
937.509
937.649
937.787
937.923
938.057
938.188
938.319
938.447
938.575
938.703
938.831
938.958
939.084
939.21
939.334
939.457
939.578
939.698
939.817
939.934
940.049
940.163
940.276
940.387
940.496
940.605
940.711
940.818
940.905
940.58
940.343
940.157
940.005
939.877
939.768
939.675
939.596
939.529
939.476
933.891
933.891
933.891
933.891
933.891
933.891
933.891
933.891
933.891
933.894
934.052
934.207
934.356
934.5
934.639
934.777
934.912
935.045
935.177
935.308
935.438
935.567
935.695
935.822
935.949
936.075
936.2
936.324
936.448
936.571
936.693
936.814
936.934
937.054
937.172
937.29
937.406
937.521
937.636
937.751
937.865
937.981
938.096
938.211
938.326
938.44
938.553
938.665
938.777
938.887
938.997
939.105
939.213
939.319
939.424
939.528
939.63
939.731
939.832
939.921
939.756
939.621
939.51
939.415
939.332
939.259
939.193
939.135
939.084
939.04
933.891
933.891
933.891
933.891
933.891
933.891
933.891
933.891
933.891
933.894
934.036
934.174
934.305
934.431
934.552
934.67
934.786
934.899
935.011
935.121
935.23
935.338
935.445
935.551
935.657
935.761
935.865
935.968
936.071
936.173
936.274
936.374
936.474
936.574
936.672
936.77
936.867
936.963
937.059
937.155
937.252
937.349
937.447
937.545
937.643
937.74
937.837
937.934
938.03
938.125
938.22
938.314
938.407
938.5
938.591
938.682
938.771
938.859
938.946
939.026
938.903
938.803
938.722
938.653
938.594
938.542
938.495
938.453
938.416
938.383
933.891
933.891