/*--------------------------------*- C++ -*----------------------------------*\
  =========                 |
  \\      /  F ield         | OpenFOAM: The Open Source CFD Toolbox
   \\    /   O peration     | Website:  https://openfoam.org
    \\  /    A nd           | Version:  12
     \\/     M anipulation  |
\*---------------------------------------------------------------------------*/
FoamFile
{
    format      ascii;
    class       volScalarField;
    location    "700/porous";
    object      T;
}
// * * * * * * * * * * * * * * * * * * * * * * * * * * * * * * * * * * * * * //

dimensions      [0 0 0 1 0 0 0];

internalField   nonuniform List<scalar> 
140000
(
400
400
400
400
400
400
400
400
400
399.992
399.679
399.437
399.223
399.023
398.831
398.645
398.462
398.284
398.107
397.933
397.761
397.59
397.421
397.254
397.088
396.924
396.761
396.6
396.44
396.282
396.126
395.971
395.819
395.668
395.52
395.374
395.23
395.087
394.946
394.805
394.665
394.524
394.384
394.244
394.105
393.968
393.832
393.698
393.565
393.434
393.304
393.176
393.049
392.924
392.801
392.679
392.559
392.441
392.322
392.23
392.673
392.95
393.16
393.331
393.473
393.594
393.697
393.784
393.857
393.915
400
400
400
400
400
400
400
400
400
399.995
399.755
399.563
399.392
399.231
399.076
398.924
398.776
398.63
398.486
398.343
398.201
398.06
397.921
397.782
397.644
397.507
397.37
397.234
397.1
396.966
396.832
396.7
396.569
396.438
396.309
396.181
396.054
395.927
395.802
395.676
395.55
395.423
395.296
395.169
395.043
394.917
394.792
394.668
394.546
394.424
394.303
394.183
394.065
393.948
393.831
393.717
393.604
393.493
393.381
393.287
393.551
393.722
393.854
393.965
394.061
394.144
394.218
394.284
394.341
394.389
400
400
400
400
400
400
400
400
400
399.996
399.775
399.602
399.45
399.308
399.173
399.043
398.916
398.791
398.669
398.548
398.428
398.31
398.193
398.078
397.962
397.848
397.735
397.622
397.51
397.399
397.288
397.178
397.069
396.961
396.853
396.746
396.641
396.535
396.43
396.324
396.218
396.11
396.002
395.894
395.787
395.679
395.572
395.466
395.36
395.255
395.151
395.048
394.945
394.843
394.743
394.643
394.545
394.448
394.353
394.267
394.479
394.611
394.71
394.791
394.86
394.92
394.973
395.021
395.064
395.101
400
400
400
400
400
400
400
400
400
399.996
399.779
399.612
399.465
399.33
399.202
399.079
398.96
398.845
398.732
398.621
398.511
398.404
398.298
398.193
398.089
397.987
397.885
397.785
397.685
397.587
397.489
397.392
397.296
397.201
397.107
397.014
396.921
396.83
396.738
396.646
396.553
396.459
396.364
396.27
396.176
396.082
395.989
395.897
395.804
395.713
395.622
395.532
395.443
395.355
395.268
395.182
395.097
395.014
394.931
394.86
395.057
395.181
395.274
395.349
395.413
395.469
395.519
395.563
395.603
395.638
400
400
400
400
400
400
400
400
400
399.996
399.78
399.613
399.468
399.335
399.209
399.089
398.973
398.86
398.75
398.643
398.538
398.434
398.332
398.232
398.133
398.036
397.94
397.845
397.751
397.658
397.566
397.475
397.385
397.296
397.209
397.123
397.038
396.953
396.869
396.783
396.697
396.61
396.522
396.435
396.348
396.262
396.177
396.092
396.007
395.924
395.841
395.759
395.678
395.598
395.519
395.441
395.365
395.29
395.217
395.154
395.348
395.471
395.563
395.639
395.704
395.761
395.812
395.858
395.899
395.936
400
400
400
400
400
400
400
400
400
399.996
399.78
399.613
399.468
399.335
399.209
399.09
398.974
398.862
398.754
398.647
398.543
398.441
398.341
398.242
398.145
398.05
397.955
397.862
397.771
397.68
397.591
397.503
397.416
397.33
397.246
397.163
397.081
397
396.919
396.837
396.753
396.669
396.585
396.501
396.418
396.336
396.254
396.172
396.092
396.012
395.933
395.855
395.778
395.702
395.628
395.555
395.483
395.413
395.345
395.286
395.479
395.602
395.695
395.772
395.839
395.897
395.949
395.996
396.039
396.078
400
400
400
400
400
400
400
400
400
399.996
399.779
399.612
399.467
399.334
399.208
399.089
398.973
398.861
398.753
398.647
398.543
398.441
398.341
398.243
398.147
398.052
397.958
397.866
397.775
397.686
397.598
397.511
397.425
397.341
397.258
397.177
397.097
397.018
396.938
396.857
396.774
396.691
396.609
396.526
396.445
396.364
396.283
396.203
396.125
396.047
395.969
395.893
395.818
395.744
395.672
395.601
395.531
395.464
395.398
395.344
395.535
395.658
395.752
395.83
395.896
395.955
396.008
396.056
396.1
396.139
400
400
400
400
400
400
400
400
400
399.996
399.779
399.611
399.466
399.332
399.207
399.087
398.971
398.859
398.75
398.644
398.54
398.438
398.339
398.241
398.144
398.05
397.957
397.865
397.774
397.685
397.598
397.511
397.427
397.343
397.262
397.181
397.102
397.023
396.944
396.863
396.781
396.698
396.616
396.534
396.453
396.373
396.293
396.214
396.136
396.059
395.982
395.907
395.833
395.76
395.688
395.618
395.549
395.483
395.42
395.366
395.557
395.68
395.774
395.852
395.919
395.978
396.031
396.08
396.124
396.164
400
400
400
400
400
400
400
400
400
399.996
399.778
399.61
399.465
399.331
399.205
399.085
398.969
398.857
398.748
398.642
398.538
398.436
398.336
398.238
398.142
398.047
397.954
397.863
397.772
397.684
397.596
397.511
397.426
397.344
397.262
397.183
397.104
397.025
396.946
396.865
396.782
396.7
396.618
396.536
396.455
396.375
396.295
396.216
396.139
396.061
395.985
395.91
395.836
395.764
395.692
395.623
395.555
395.489
395.426
395.373
395.564
395.687
395.781
395.859
395.926
395.986
396.039
396.088
396.132
396.172
400
400
400
400
400
400
400
400
400
399.996
399.778
399.61
399.464
399.33
399.204
399.084
398.968
398.855
398.746
398.64
398.535
398.433
398.334
398.236
398.139
398.045
397.952
397.86
397.77
397.682
397.595
397.509
397.426
397.343
397.263
397.183
397.104
397.026
396.946
396.864
396.782
396.699
396.617
396.535
396.454
396.374
396.295
396.216
396.138
396.061
395.985
395.91
395.836
395.763
395.692
395.622
395.555
395.489
395.427
395.375
395.566
395.689
395.783
395.861
395.928
395.987
396.04
396.089
396.133
396.174
400
400
400
400
400
400
400
400
400
399.996
399.777
399.61
399.464
399.33
399.204
399.083
398.967
398.854
398.745
398.638
398.534
398.432
398.332
398.234
398.137
398.043
397.95
397.858
397.769
397.68
397.594
397.509
397.426
397.344
397.263
397.183
397.104
397.025
396.945
396.864
396.781
396.698
396.616
396.534
396.453
396.373
396.293
396.214
396.136
396.059
395.983
395.908
395.834
395.761
395.69
395.621
395.553
395.488
395.426
395.373
395.564
395.687
395.781
395.859
395.926
395.986
396.039
396.087
396.132
396.172
400
400
400
400
400
400
400
400
400
399.996
399.777
399.609
399.463
399.329
399.203
399.082
398.966
398.853
398.744
398.637
398.532
398.43
398.33
398.232
398.136
398.041
397.949
397.857
397.768
397.68
397.594
397.51
397.427
397.345
397.264
397.184
397.104
397.025
396.944
396.862
396.78
396.697
396.614
396.533
396.451
396.371
396.291
396.212
396.134
396.057
395.981
395.905
395.831
395.759
395.687
395.618
395.55
395.485
395.423
395.371
395.562
395.685
395.779
395.857
395.924
395.983
396.036
396.085
396.129
396.169
400
400
400
400
400
400
400
400
400
399.996
399.777
399.609
399.463
399.329
399.203
399.082
398.966
398.853
398.743
398.636
398.531
398.429
398.329
398.231
398.135
398.041
397.948
397.857
397.768
397.681
397.595
397.511
397.428
397.346
397.265
397.184
397.104
397.024
396.943
396.861
396.778
396.695
396.613
396.531
396.45
396.369
396.289
396.21
396.132
396.055
395.978
395.903
395.829
395.756
395.684
395.615
395.547
395.482
395.42
395.369
395.559
395.682
395.776
395.854
395.921
395.98
396.033
396.082
396.126
396.166
400
400
400
400
400
400
400
400
400
399.996
399.777
399.609
399.464
399.329
399.203
399.082
398.965
398.852
398.743
398.636
398.531
398.429
398.329
398.231
398.135
398.041
397.948
397.858
397.769
397.682
397.597
397.513
397.43
397.348
397.265
397.184
397.103
397.022
396.941
396.859
396.777
396.694
396.611
396.529
396.448
396.367
396.287
396.208
396.13
396.052
395.976
395.9
395.826
395.753
395.681
395.612
395.544
395.479
395.417
395.365
395.556
395.679
395.773
395.851
395.918
395.977
396.03
396.079
396.123
396.163
400
400
400
400
400
400
400
400
400
399.996
399.778
399.61
399.464
399.33
399.203
399.082
398.966
398.853
398.743
398.636
398.531
398.429
398.329
398.231
398.135
398.041
397.949
397.859
397.771
397.684
397.6
397.516
397.432
397.349
397.265
397.183
397.101
397.02
396.939
396.857
396.774
396.692
396.609
396.527
396.446
396.365
396.285
396.206
396.128
396.05
395.973
395.898
395.823
395.75
395.678
395.609
395.541
395.476
395.414
395.362
395.553
395.675
395.769
395.847
395.914
395.974
396.027
396.075
396.12
396.16
400
400
400
400
400
400
400
400
400
399.996
399.778
399.611
399.465
399.331
399.204
399.083
398.966
398.853
398.743
398.636
398.531
398.429
398.329
398.232
398.136
398.042
397.95
397.861
397.773
397.687
397.603
397.518
397.434
397.349
397.264
397.181
397.098
397.017
396.935
396.854
396.772
396.689
396.607
396.525
396.444
396.363
396.283
396.204
396.125
396.047
395.97
395.895
395.82
395.747
395.675
395.605
395.538
395.472
395.41
395.359
395.549
395.672
395.766
395.844
395.911
395.97
396.024
396.072
396.117
396.157
400
400
400
400
400
400
400
400
400
399.996
399.778
399.611
399.465
399.331
399.205
399.084
398.967
398.854
398.743
398.636
398.532
398.43
398.33
398.232
398.137
398.043
397.952
397.863
397.776
397.69
397.606
397.52
397.434
397.348
397.263
397.179
397.095
397.013
396.931
396.85
396.768
396.686
396.604
396.523
396.441
396.361
396.281
396.201
396.122
396.045
395.968
395.892
395.817
395.744
395.672
395.602
395.534
395.469
395.407
395.355
395.546
395.669
395.763
395.841
395.908
395.967
396.02
396.069
396.113
396.154
400
400
400
400
400
400
400
400
400
399.996
399.779
399.612
399.466
399.332
399.206
399.085
398.968
398.854
398.744
398.637
398.532
398.43
398.33
398.233
398.137
398.044
397.953
397.865
397.778
397.693
397.608
397.521
397.434
397.347
397.261
397.176
397.092
397.009
396.927
396.846
396.765
396.683
396.602
396.52
396.439
396.358
396.278
396.199
396.12
396.042
395.965
395.889
395.814
395.741
395.669
395.599
395.531
395.466
395.404
395.352
395.542
395.665
395.76
395.837
395.905
395.964
396.017
396.066
396.111
396.151
400
400
400
400
400
400
400
400
400
399.996
399.779
399.613
399.467
399.334
399.207
399.085
398.968
398.855
398.745
398.637
398.533
398.431
398.331
398.233
398.138
398.045
397.955
397.867
397.781
397.696
397.609
397.521
397.432
397.345
397.259
397.174
397.089
397.005
396.923
396.842
396.762
396.681
396.6
396.518
396.437
396.357
396.276
396.197
396.118
396.04
395.963
395.887
395.812
395.739
395.667
395.597
395.529
395.463
395.401
395.349
395.54
395.663
395.757
395.835
395.902
395.962
396.015
396.064
396.108
396.149
400
400
400
400
400
400
400
400
400
399.996
399.78
399.613
399.468
399.334
399.208
399.086
398.969
398.856
398.745
398.638
398.533
398.431
398.331
398.234
398.139
398.046
397.956
397.868
397.782
397.697
397.61
397.52
397.431
397.344
397.257
397.172
397.087
397.003
396.92
396.839
396.76
396.679
396.598
396.517
396.436
396.356
396.276
396.196
396.117
396.039
395.962
395.886
395.811
395.738
395.666
395.595
395.527
395.462
395.399
395.347
395.538
395.661
395.755
395.833
395.9
395.96
396.013
396.062
396.107
396.147
400
400
400
400
400
400
400
400
400
399.996
399.781
399.615
399.47
399.336
399.209
399.087
398.97
398.857
398.746
398.638
398.534
398.431
398.331
398.234
398.139
398.046
397.956
397.869
397.783
397.697
397.609
397.519
397.43
397.343
397.257
397.171
397.086
397.002
396.919
396.838
396.759
396.679
396.599
396.518
396.437
396.356
396.276
396.197
396.118
396.04
395.962
395.886
395.811
395.737
395.665
395.595
395.527
395.461
395.398
395.345
395.536
395.66
395.754
395.832
395.899
395.959
396.012
396.061
396.106
396.146
400
400
400
400
400
400
400
400
400
399.996
399.781
399.615
399.47
399.336
399.21
399.088
398.971
398.857
398.746
398.639
398.534
398.431
398.331
398.234
398.139
398.046
397.956
397.869
397.783
397.697
397.608
397.518
397.43
397.342
397.256
397.17
397.086
397.002
396.919
396.838
396.759
396.679
396.599
396.519
396.438
396.358
396.277
396.198
396.119
396.041
395.963
395.887
395.812
395.738
395.666
395.595
395.527
395.461
395.398
395.345
395.536
395.659
395.754
395.832
395.899
395.959
396.012
396.061
396.105
396.146
400
400
400
400
400
400
400
400
400
399.996
399.782
399.617
399.472
399.338
399.211
399.089
398.972
398.858
398.747
398.639
398.534
398.431
398.331
398.233
398.138
398.045
397.955
397.868
397.782
397.695
397.607
397.517
397.429
397.341
397.255
397.17
397.085
397.001
396.918
396.838
396.759
396.68
396.601
396.52
396.44
396.359
396.279
396.199
396.12
396.042
395.965
395.888
395.813
395.739
395.667
395.596
395.528
395.461
395.398
395.343
395.535
395.659
395.753
395.831
395.899
395.958
396.012
396.061
396.105
396.146
400
400
400
400
400
400
400
400
400
399.996
399.783
399.618
399.473
399.339
399.212
399.09
398.972
398.858
398.747
398.639
398.534
398.431
398.331
398.233
398.137
398.045
397.954
397.867
397.78
397.694
397.605
397.516
397.428
397.34
397.254
397.169
397.084
397
396.918
396.837
396.759
396.681
396.602
396.522
396.441
396.361
396.281
396.201
396.122
396.043
395.966
395.889
395.814
395.74
395.668
395.597
395.528
395.462
395.398
395.343
395.535
395.659
395.753
395.831
395.899
395.958
396.012
396.061
396.105
396.146
400
400
400
400
400
400
400
400
400
399.996
399.783
399.618
399.473
399.339
399.212
399.09
398.973
398.859
398.748
398.639
398.534
398.431
398.331
398.232
398.137
398.044
397.953
397.865
397.779
397.692
397.603
397.514
397.426
397.339
397.253
397.167
397.083
396.999
396.917
396.837
396.759
396.681
396.602
396.523
396.442
396.362
396.282
396.202
396.123
396.045
395.967
395.891
395.815
395.741
395.669
395.598
395.529
395.463
395.399
395.343
395.535
395.659
395.753
395.832
395.899
395.959
396.012
396.061
396.105
396.146
400
400
400
400
400
400
400
400
400
399.996
399.785
399.62
399.475
399.341
399.214
399.092
398.974
398.859
398.748
398.64
398.534
398.431
398.33
398.232
398.136
398.042
397.951
397.863
397.776
397.689
397.601
397.512
397.424
397.337
397.251
397.165
397.081
396.997
396.915
396.835
396.758
396.681
396.602
396.523
396.443
396.363
396.283
396.203
396.124
396.046
395.968
395.892
395.816
395.742
395.669
395.599
395.53
395.463
395.398
395.341
395.534
395.658
395.752
395.831
395.898
395.958
396.012
396.06
396.105
396.146
400
400
400
400
400
400
400
400
400
399.996
399.785
399.62
399.475
399.341
399.214
399.092
398.974
398.86
398.749
398.64
398.534
398.431
398.33
398.232
398.135
398.041
397.95
397.861
397.774
397.687
397.598
397.51
397.422
397.335
397.249
397.163
397.079
396.995
396.913
396.833
396.756
396.68
396.602
396.523
396.443
396.363
396.283
396.204
396.125
396.046
395.969
395.892
395.817
395.743
395.67
395.599
395.53
395.463
395.398
395.341
395.533
395.657
395.752
395.831
395.898
395.958
396.011
396.06
396.105
396.145
400
400
400
400
400
400
400
400
400
399.996
399.786
399.621
399.476
399.342
399.215
399.093
398.975
398.86
398.749
398.641
398.535
398.431
398.33
398.231
398.135
398.04
397.949
397.859
397.771
397.684
397.596
397.507
397.419
397.332
397.246
397.161
397.077
396.993
396.911
396.831
396.755
396.679
396.601
396.522
396.443
396.363
396.283
396.204
396.125
396.046
395.969
395.892
395.817
395.743
395.67
395.599
395.53
395.462
395.397
395.339
395.532
395.657
395.752
395.83
395.898
395.957
396.011
396.06
396.105
396.145
400
400
400
400
400
400
400
400
400
399.996
399.787
399.623
399.478
399.343
399.216
399.094
398.976
398.861
398.75
398.641
398.535
398.432
398.33
398.231
398.134
398.04
397.947
397.857
397.769
397.682
397.594
397.505
397.417
397.33
397.244
397.159
397.075
396.991
396.909
396.83
396.753
396.677
396.6
396.522
396.442
396.363
396.283
396.204
396.125
396.047
395.969
395.893
395.817
395.743
395.67
395.599
395.53
395.462
395.396
395.337
395.531
395.656
395.751
395.829
395.897
395.957
396.011
396.059
396.104
396.145
400
400
400
400
400
400
400
400
400
399.996
399.787
399.623
399.478
399.344
399.217
399.095
398.977
398.862
398.751
398.642
398.536
398.432
398.331
398.231
398.134
398.039
397.946
397.856
397.767
397.68
397.592
397.503
397.415
397.329
397.243
397.158
397.074
396.99
396.908
396.829
396.753
396.677
396.6
396.521
396.442
396.362
396.283
396.204
396.125
396.047
395.97
395.893
395.818
395.744
395.671
395.6
395.53
395.462
395.396
395.337
395.531
395.655
395.751
395.829
395.897
395.957
396.011
396.06
396.104
396.145
400
400
400
400
400
400
400
400
400
399.996
399.788
399.624
399.479
399.345
399.218
399.096
398.978
398.863
398.752
398.643
398.537
398.433
398.331
398.232
398.134
398.039
397.946
397.855
397.766
397.678
397.591
397.502
397.414
397.328
397.242
397.158
397.073
396.99
396.908
396.83
396.754
396.677
396.6
396.521
396.442
396.363
396.283
396.204
396.126
396.048
395.97
395.894
395.819
395.744
395.672
395.6
395.531
395.462
395.395
395.335
395.53
395.655
395.75
395.829
395.897
395.957
396.011
396.06
396.105
396.145
400
400
400
400
400
400
400
400
400
399.996
399.789
399.625
399.48
399.346
399.219
399.096
398.978
398.864
398.753
398.644
398.538
398.434
398.332
398.232
398.135
398.039
397.946
397.854
397.765
397.677
397.59
397.502
397.415
397.329
397.243
397.159
397.074
396.991
396.91
396.833
396.756
396.679
396.601
396.522
396.443
396.363
396.284
396.205
396.127
396.049
395.972
395.895
395.82
395.746
395.673
395.602
395.532
395.464
395.396
395.335
395.53
395.655
395.751
395.83
395.898
395.958
396.012
396.061
396.106
396.146
400
400
400
400
400
400
400
400
400
399.996
399.789
399.625
399.48
399.346
399.219
399.097
398.979
398.865
398.754
398.645
398.539
398.435
398.333
398.233
398.135
398.04
397.946
397.854
397.764
397.676
397.59
397.503
397.417
397.331
397.245
397.161
397.077
396.995
396.915
396.837
396.76
396.682
396.603
396.524
396.444
396.365
396.286
396.207
396.129
396.051
395.974
395.898
395.822
395.748
395.675
395.604
395.533
395.464
395.397
395.336
395.531
395.657
395.752
395.831
395.899
395.959
396.013
396.062
396.107
396.148
400
400
400
400
400
400
400
400
400
399.996
399.789
399.626
399.481
399.347
399.22
399.098
398.981
398.866
398.755
398.646
398.54
398.436
398.334
398.234
398.136
398.04
397.946
397.854
397.764
397.676
397.59
397.504
397.419
397.333
397.249
397.165
397.082
397
396.921
396.842
396.764
396.685
396.606
396.526
396.446
396.367
396.288
396.209
396.131
396.053
395.976
395.9
395.825
395.75
395.677
395.606
395.535
395.466
395.398
395.336
395.532
395.658
395.753
395.833
395.901
395.961
396.015
396.064
396.109
396.15
400
400
400
400
400
400
400
400
400
399.996
399.79
399.626
399.482
399.348
399.221
399.099
398.982
398.867
398.756
398.647
398.541
398.437
398.335
398.236
398.138
398.041
397.947
397.855
397.764
397.676
397.59
397.505
397.421
397.337
397.253
397.169
397.087
397.006
396.927
396.847
396.768
396.688
396.608
396.528
396.448
396.369
396.29
396.211
396.133
396.055
395.978
395.902
395.827
395.753
395.68
395.608
395.537
395.468
395.4
395.338
395.534
395.659
395.755
395.834
395.903
395.963
396.017
396.066
396.111
396.152
400
400
400
400
400
400
400
400
400
399.996
399.79
399.627
399.482
399.349
399.222
399.1
398.983
398.869
398.757
398.649
398.543
398.439
398.337
398.237
398.139
398.043
397.948
397.856
397.765
397.677
397.591
397.507
397.423
397.34
397.257
397.174
397.092
397.012
396.932
396.852
396.771
396.691
396.611
396.53
396.45
396.371
396.292
396.213
396.135
396.058
395.981
395.904
395.829
395.755
395.682
395.61
395.539
395.469
395.4
395.339
395.535
395.661
395.757
395.836
395.904
395.965
396.019
396.068
396.113
396.154
400
400
400
400
400
400
400
400
400
399.996
399.79
399.627
399.483
399.35
399.223
399.102
398.984
398.87
398.759
398.65
398.544
398.441
398.339
398.239
398.141
398.045
397.95
397.857
397.767
397.678
397.592
397.509
397.426
397.343
397.261
397.179
397.097
397.017
396.936
396.855
396.774
396.693
396.612
396.532
396.452
396.373
396.294
396.215
396.137
396.059
395.983
395.906
395.831
395.757
395.684
395.612
395.541
395.471
395.402
395.339
395.536
395.662
395.758
395.838
395.906
395.967
396.021
396.07
396.115
396.156
400
400
400
400
400
400
400
400
400
399.996
399.79
399.627
399.484
399.35
399.224
399.103
398.985
398.872
398.761
398.652
398.546
398.442
398.341
398.241
398.143
398.047
397.952
397.859
397.769
397.68
397.594
397.511
397.429
397.347
397.265
397.183
397.102
397.021
396.939
396.858
396.777
396.695
396.614
396.534
396.454
396.374
396.295
396.217
396.139
396.061
395.985
395.909
395.833
395.759
395.686
395.614
395.543
395.472
395.403
395.341
395.538
395.664
395.76
395.84
395.908
395.969
396.023
396.072
396.117
396.158
400
400
400
400
400
400
400
400
400
399.996
399.79
399.628
399.484
399.351
399.225
399.104
398.987
398.873
398.762
398.654
398.548
398.444
398.343
398.243
398.145
398.049
397.954
397.862
397.771
397.682
397.597
397.514
397.432
397.351
397.269
397.187
397.106
397.024
396.942
396.86
396.778
396.697
396.616
396.535
396.455
396.376
396.297
396.219
396.141
396.063
395.987
395.911
395.835
395.761
395.688
395.615
395.544
395.474
395.405
395.342
395.539
395.665
395.762
395.841
395.91
395.97
396.025
396.074
396.119
396.16
400
400
400
400
400
400
400
400
400
399.996
399.79
399.628
399.485
399.352
399.226
399.105
398.988
398.875
398.764
398.656
398.55
398.447
398.345
398.246
398.148
398.051
397.957
397.864
397.774
397.685
397.6
397.517
397.436
397.355
397.273
397.191
397.109
397.027
396.944
396.862
396.78
396.699
396.618
396.537
396.457
396.378
396.299
396.22
396.142
396.065
395.988
395.913
395.837
395.763
395.69
395.618
395.546
395.476
395.406
395.343
395.541
395.667
395.764
395.843
395.912
395.972
396.027
396.076
396.121
396.162
400
400
400
400
400
400
400
400
400
399.996
399.791
399.628
399.485
399.352
399.227
399.106
398.989
398.876
398.766
398.658
398.552
398.449
398.348
398.248
398.15
398.054
397.96
397.867
397.777
397.689
397.604
397.521
397.439
397.358
397.276
397.194
397.111
397.029
396.946
396.864
396.782
396.7
396.619
396.538
396.459
396.379
396.3
396.222
396.144
396.067
395.99
395.914
395.839
395.765
395.691
395.619
395.548
395.477
395.407
395.344
395.542
395.668
395.765
395.844
395.913
395.973
396.027
396.077
396.122
396.163
400
400
400
400
400
400
400
400
400
399.996
399.79
399.628
399.485
399.353
399.228
399.107
398.991
398.878
398.768
398.66
398.555
398.452
398.35
398.251
398.153
398.057
397.963
397.871
397.78
397.692
397.607
397.525
397.443
397.361
397.279
397.196
397.113
397.03
396.947
396.865
396.783
396.701
396.62
396.539
396.459
396.38
396.301
396.222
396.145
396.067
395.991
395.915
395.839
395.765
395.691
395.619
395.547
395.476
395.406
395.343
395.54
395.667
395.763
395.843
395.911
395.972
396.026
396.075
396.12
396.161
400
400
400
400
400
400
400
400
400
399.996
399.79
399.628
399.485
399.353
399.228
399.108
398.992
398.879
398.769
398.662
398.557
398.454
398.353
398.253
398.156
398.06
397.966
397.873
397.783
397.695
397.61
397.527
397.445
397.363
397.28
397.197
397.113
397.03
396.947
396.864
396.781
396.7
396.618
396.538
396.457
396.378
396.299
396.22
396.142
396.064
395.987
395.911
395.836
395.761
395.687
395.614
395.542
395.47
395.4
395.336
395.534
395.66
395.756
395.836
395.904
395.964
396.018
396.067
396.112
396.153
400
400
400
400
400
400
400
400
400
399.996
399.791
399.628
399.485
399.354
399.229
399.109
398.993
398.881
398.771
398.664
398.559
398.456
398.354
398.255
398.157
398.061
397.967
397.875
397.784
397.696
397.611
397.527
397.444
397.361
397.277
397.193
397.109
397.025
396.941
396.858
396.775
396.693
396.611
396.53
396.449
396.369
396.289
396.209
396.131
396.052
395.975
395.898
395.821
395.746
395.671
395.597
395.524
395.451
395.38
395.315
395.513
395.639
395.735
395.814
395.882
395.942
395.995
396.044
396.088
396.129
400
400
400
400
400
400
400
400
400
399.996
399.789
399.627
399.485
399.353
399.228
399.109
398.993
398.88
398.77
398.663
398.558
398.454
398.353
398.253
398.155
398.058
397.964
397.87
397.779
397.691
397.604
397.519
397.435
397.35
397.265
397.179
397.094
397.008
396.923
396.838
396.754
396.67
396.587
396.504
396.422
396.34
396.259
396.178
396.098
396.018
395.938
395.86
395.781
395.704
395.627
395.551
395.475
395.401
395.327
395.26
395.458
395.584
395.679
395.758
395.825
395.884
395.937
395.985
396.028
396.067
400
400
400
400
400
400
400
400
400
399.996
399.789
399.627
399.483
399.352
399.226
399.106
398.99
398.876
398.766
398.657
398.551
398.446
398.343
398.242
398.142
398.043
397.947
397.852
397.759
397.667
397.578
397.49
397.403
397.315
397.227
397.138
397.049
396.961
396.873
396.785
396.697
396.61
396.524
396.438
396.352
396.267
396.182
396.097
396.013
395.929
395.846
395.763
395.681
395.599
395.518
395.438
395.358
395.279
395.201
395.13
395.329
395.454
395.549
395.626
395.692
395.749
395.801
395.847
395.889
395.926
400
400
400
400
400
400
400
400
400
399.996
399.787
399.622
399.478
399.344
399.217
399.094
398.975
398.858
398.744
398.632
398.522
398.413
398.306
398.2
398.096
397.992
397.891
397.79
397.692
397.595
397.5
397.406
397.312
397.217
397.123
397.027
396.932
396.837
396.742
396.647
396.553
396.459
396.365
396.272
396.179
396.086
395.993
395.901
395.81
395.718
395.627
395.537
395.446
395.357
395.267
395.179
395.091
395.004
394.917
394.839
395.041
395.166
395.26
395.337
395.402
395.458
395.508
395.553
395.593
395.629
400
400
400
400
400
400
400
400
400
399.996
399.78
399.611
399.46
399.32
399.185
399.055
398.927
398.802
398.679
398.557
398.436
398.317
398.199
398.082
397.966
397.851
397.738
397.625
397.515
397.406
397.298
397.19
397.083
396.975
396.867
396.758
396.65
396.541
396.433
396.325
396.217
396.109
396.002
395.895
395.788
395.682
395.576
395.47
395.365
395.26
395.156
395.052
394.948
394.845
394.743
394.641
394.54
394.44
394.34
394.25
394.465
394.598
394.699
394.781
394.85
394.911
394.965
395.013
395.056
395.093
400
400
400
400
400
400
400
400
400
399.995
399.76
399.569
399.4
399.24
399.085
398.934
398.785
398.638
398.493
398.349
398.206
398.064
397.923
397.783
397.644
397.506
397.37
397.235
397.101
396.97
396.839
396.71
396.58
396.451
396.321
396.191
396.061
395.932
395.803
395.675
395.547
395.42
395.294
395.168
395.043
394.919
394.795
394.672
394.55
394.429
394.308
394.188
394.069
393.95
393.832
393.716
393.6
393.485
393.371
393.272
393.539
393.712
393.845
393.957
394.053
394.137
394.211
394.277
394.334
394.383
400
400
400
400
400
400
400
400
400
399.992
399.681
399.441
399.229
399.03
398.838
398.653
398.469
398.29
398.112
397.936
397.763
397.591
397.42
397.251
397.084
396.919
396.757
396.597
396.439
396.285
396.132
395.981
395.831
395.681
395.532
395.384
395.236
395.09
394.945
394.802
394.66
394.519
394.379
394.241
394.105
393.969
393.835
393.702
393.571
393.44
393.31
393.182
393.055
392.928
392.803
392.679
392.556
392.434
392.313
392.219
392.664
392.943
393.153
393.324
393.467
393.588
393.691
393.779
393.852
393.911
400
400
400
400
400
400
400
400
400
399.995
399.758
399.537
399.331
399.135
398.945
398.761
398.579
398.4
398.224
398.05
397.877
397.706
397.537
397.369
397.202
397.037
396.873
396.711
396.551
396.392
396.235
396.08
395.927
395.775
395.626
395.479
395.334
395.191
395.049
394.908
394.767
394.626
394.486
394.346
394.207
394.069
393.933
393.798
393.665
393.533
393.403
393.274
393.147
393.022
392.898
392.776
392.655
392.536
392.416
392.319
392.682
392.947
393.154
393.323
393.466
393.587
393.69
393.779
393.853
393.912
400
400
400
400
400
400
400
400
400
399.997
399.828
399.661
399.501
399.347
399.197
399.049
398.903
398.759
398.617
398.475
398.335
398.195
398.057
397.919
397.781
397.645
397.509
397.373
397.239
397.105
396.972
396.84
396.708
396.578
396.449
396.32
396.193
396.067
395.941
395.815
395.689
395.563
395.436
395.309
395.183
395.058
394.933
394.809
394.686
394.564
394.443
394.322
394.203
394.086
393.969
393.854
393.74
393.628
393.516
393.417
393.601
393.75
393.874
393.979
394.071
394.153
394.225
394.29
394.346
394.394
400
400
400
400
400
400
400
400
400
399.998
399.845
399.697
399.556
399.421
399.29
399.163
399.039
398.917
398.796
398.677
398.559
398.442
398.327
398.212
398.098
397.984
397.872
397.76
397.649
397.538
397.428
397.319
397.21
397.102
396.995
396.888
396.782
396.677
396.573
396.467
396.361
396.255
396.148
396.04
395.933
395.826
395.72
395.614
395.508
395.404
395.299
395.196
395.093
394.991
394.891
394.791
394.692
394.594
394.499
394.41
394.546
394.656
394.746
394.822
394.888
394.945
394.996
395.043
395.084
395.12
400
400
400
400
400
400
400
400
400
399.998
399.849
399.705
399.57
399.441
399.317
399.198
399.082
398.968
398.857
398.747
398.639
398.533
398.428
398.324
398.221
398.12
398.019
397.919
397.82
397.722
397.625
397.528
397.432
397.338
397.244
397.151
397.059
396.967
396.876
396.784
396.692
396.599
396.505
396.412
396.318
396.225
396.132
396.04
395.948
395.857
395.767
395.677
395.588
395.499
395.412
395.326
395.24
395.157
395.074
394.999
395.124
395.227
395.31
395.381
395.442
395.495
395.543
395.586
395.624
395.659
400
400
400
400
400
400
400
400
400
399.998
399.849
399.707
399.572
399.446
399.324
399.207
399.094
398.983
398.875
398.769
398.665
398.562
398.461
398.362
398.264
398.167
398.071
397.977
397.883
397.791
397.699
397.608
397.519
397.43
397.343
397.257
397.172
397.087
397.003
396.918
396.832
396.746
396.66
396.573
396.487
396.401
396.316
396.231
396.147
396.064
395.981
395.899
395.818
395.738
395.659
395.58
395.504
395.428
395.355
395.288
395.411
395.513
395.597
395.668
395.73
395.784
395.833
395.877
395.918
395.954
400
400
400
400
400
400
400
400
400
399.998
399.849
399.706
399.572
399.445
399.324
399.208
399.095
398.985
398.878
398.773
398.67
398.569
398.469
398.371
398.275
398.18
398.086
397.994
397.902
397.812
397.723
397.635
397.548
397.463
397.378
397.296
397.214
397.132
397.051
396.97
396.887
396.804
396.721
396.638
396.555
396.473
396.391
396.31
396.23
396.15
396.071
395.993
395.916
395.84
395.765
395.691
395.619
395.548
395.479
395.417
395.539
395.641
395.726
395.798
395.861
395.917
395.967
396.013
396.055
396.093
400
400
400
400
400
400
400
400
400
399.998
399.848
399.705
399.571
399.444
399.323
399.206
399.094
398.984
398.877
398.772
398.669
398.568
398.469
398.372
398.276
398.182
398.089
397.997
397.907
397.818
397.73
397.643
397.557
397.473
397.39
397.309
397.229
397.149
397.069
396.989
396.907
396.826
396.744
396.662
396.581
396.5
396.42
396.34
396.262