/*--------------------------------*- C++ -*----------------------------------*\
  =========                 |
  \\      /  F ield         | OpenFOAM: The Open Source CFD Toolbox
   \\    /   O peration     | Website:  https://openfoam.org
    \\  /    A nd           | Version:  12
     \\/     M anipulation  |
\*---------------------------------------------------------------------------*/
FoamFile
{
    format      ascii;
    class       volScalarField;
    location    "1950/porous";
    object      rho;
}
// * * * * * * * * * * * * * * * * * * * * * * * * * * * * * * * * * * * * * //

dimensions      [1 -3 0 0 0 0 0];

internalField   nonuniform List<scalar> 
140000
(
933.891
933.891
933.891
933.891
933.891
933.891
933.891
933.891
933.892
933.898
934.179
934.4
934.598
934.784
934.963
935.137
935.307
935.474
935.638
935.8
935.96
936.118
936.275
936.43
936.584
936.736
936.887
937.036
937.183
937.329
937.474
937.617
937.758
937.898
938.036
938.172
938.307
938.441
938.573
938.704
938.833
938.962
939.089
939.215
939.34
939.464
939.586
939.706
939.825
939.943
940.059
940.174
940.286
940.398
940.506
940.612
940.716
940.816
940.91
940.976
940.582
940.33
940.135
939.974
939.834
939.712
939.602
939.502
939.411
939.331
933.891
933.891
933.891
933.891
933.891
933.891
933.891
933.891
933.891
933.896
934.11
934.285
934.443
934.593
934.738
934.879
935.017
935.154
935.289
935.422
935.554
935.685
935.815
935.944
936.072
936.2
936.327
936.453
936.578
936.703
936.827
936.95
937.072
937.194
937.315
937.435
937.555
937.674
937.792
937.91
938.027
938.143
938.259
938.374
938.489
938.603
938.716
938.828
938.939
939.049
939.158
939.266
939.372
939.478
939.581
939.683
939.783
939.88
939.974
940.05
939.813
939.657
939.535
939.432
939.34
939.258
939.183
939.114
939.049
938.992
933.891
933.891
933.891
933.891
933.891
933.891
933.891
933.891
933.891
933.895
934.092
934.249
934.39
934.521
934.648
934.77
934.889
935.005
935.12
935.233
935.344
935.454
935.564
935.672
935.779
935.886
935.992
936.097
936.201
936.305
936.409
936.512
936.614
936.716
936.818
936.919
937.02
937.12
937.22
937.319
937.419
937.518
937.616
937.715
937.813
937.911
938.008
938.104
938.2
938.295
938.39
938.484
938.577
938.669
938.759
938.849
938.936
939.022
939.104
939.176
938.986
938.867
938.777
938.702
938.638
938.581
938.53
938.483
938.44
938.401
933.891
933.891
933.891
933.891
933.891
933.891
933.891
933.891
933.891
933.895
934.087
934.24
934.375
934.501
934.62
934.735
934.847
934.955
935.061
935.165
935.268
935.368
935.468
935.566
935.663
935.759
935.854
935.948
936.041
936.134
936.226
936.317
936.408
936.498
936.588
936.677
936.766
936.854
936.941
937.029
937.116
937.202
937.289
937.375
937.461
937.546
937.631
937.715
937.799
937.882
937.964
938.046
938.127
938.207
938.286
938.363
938.439
938.513
938.585
938.647
938.469
938.357
938.273
938.204
938.145
938.093
938.047
938.006
937.969
937.934
933.891
933.891
933.891
933.891
933.891
933.891
933.891
933.891
933.891
933.895
934.086
934.237
934.371
934.495
934.613
934.726
934.835
934.94
935.044
935.144
935.243
935.34
935.436
935.53
935.623
935.714
935.805
935.894
935.983
936.07
936.157
936.243
936.329
936.413
936.497
936.581
936.663
936.745
936.827
936.908
936.989
937.069
937.149
937.228
937.307
937.386
937.464
937.541
937.618
937.694
937.769
937.844
937.917
937.99
938.061
938.131
938.2
938.267
938.331
938.385
938.21
938.099
938.014
937.945
937.885
937.833
937.786
937.744
937.706
937.671
933.891
933.891
933.891
933.891
933.891
933.891
933.891
933.891
933.891
933.895
934.086
934.237
934.371
934.495
934.612
934.724
934.833
934.938
935.04
935.14
935.238
935.334
935.428
935.521
935.612
935.702
935.791
935.879
935.965
936.051
936.136
936.22
936.303
936.385
936.467
936.547
936.628
936.707
936.786
936.864
936.942
937.019
937.096
937.172
937.248
937.323
937.398
937.472
937.545
937.617
937.689
937.76
937.83
937.898
937.966
938.032
938.097
938.159
938.219
938.271
938.096
937.984
937.898
937.828
937.767
937.714
937.666
937.622
937.583
937.547
933.891
933.891
933.891
933.891
933.891
933.891
933.891
933.891
933.891
933.895
934.086
934.237
934.371
934.495
934.612
934.725
934.833
934.939
935.041
935.141
935.238
935.334
935.428
935.52
935.611
935.701
935.789
935.876
935.962
936.047
936.131
936.214
936.297
936.378
936.459
936.538
936.617
936.696
936.773
936.851
936.927
937.003
937.078
937.153
937.228
937.302
937.375
937.447
937.519
937.59
937.66
937.729
937.797
937.864
937.93
937.994
938.056
938.117
938.175
938.224
938.049
937.937
937.851
937.78
937.718
937.664
937.616
937.571
937.531
937.494
933.891
933.891
933.891
933.891
933.891
933.891
933.891
933.891
933.891
933.895
934.087
934.238
934.371
934.495
934.613
934.726
934.835
934.94
935.043
935.143
935.24
935.336
935.43
935.523
935.614
935.703
935.791
935.879
935.964
936.049
936.133
936.216
936.298
936.379
936.459
936.539
936.617
936.695
936.773
936.849
936.925
937.001
937.076
937.15
937.224
937.297
937.37
937.442
937.513
937.583
937.652
937.721
937.788
937.854
937.919
937.982
938.043
938.103
938.159
938.208
938.033
937.921
937.834
937.763
937.701
937.646
937.597
937.553
937.512
937.475
933.891
933.891
933.891
933.891
933.891
933.891
933.891
933.891
933.891
933.895
934.087
934.238
934.372
934.496
934.614
934.727
934.836
934.942
935.044
935.145
935.243
935.339
935.433
935.525
935.616
935.706
935.794
935.882
935.968
936.052
936.136
936.219
936.301
936.382
936.462
936.542
936.62
936.698
936.775
936.852
936.928
937.003
937.078
937.152
937.226
937.299
937.371
937.443
937.514
937.584
937.653
937.721
937.788
937.854
937.918
937.981
938.042
938.1
938.157
938.204
938.03
937.917
937.831
937.759
937.697
937.642
937.593
937.548
937.507
937.469
933.891
933.891
933.891
933.891
933.891
933.891
933.891
933.891
933.891
933.895
934.087
934.238
934.372
934.496
934.615
934.728
934.837
934.943
935.046
935.146
935.245
935.341
935.435
935.528
935.619
935.709
935.798
935.885
935.971
936.056
936.14
936.223
936.305
936.386
936.466
936.546
936.624
936.702
936.779
936.855
936.931
937.007
937.081
937.156
937.229
937.303
937.375
937.447
937.517
937.587
937.656
937.724
937.791
937.857
937.921
937.983
938.044
938.103
938.159
938.206
938.031
937.918
937.832
937.76
937.698
937.643
937.594
937.549
937.507
937.47
933.891
933.891
933.891
933.891
933.891
933.891
933.891
933.891
933.891
933.895
934.087
934.238
934.372
934.497
934.615
934.728
934.838
934.944
935.047
935.148
935.246
935.343
935.437
935.53
935.622
935.712
935.8
935.888
935.974
936.059
936.143
936.226
936.308
936.389
936.47
936.549
936.628
936.705
936.782
936.859
936.935
937.01
937.085
937.16
937.233
937.306
937.379
937.45
937.521
937.591
937.66
937.728
937.795
937.861
937.925
937.987
938.048
938.106
938.162
938.209
938.034
937.921
937.835
937.763
937.701
937.646
937.597
937.551
937.51
937.473
933.891
933.891
933.891
933.891
933.891
933.891
933.891
933.891
933.891
933.895
934.087
934.239
934.373
934.497
934.615
934.729
934.838
934.944
935.048
935.149
935.247
935.344
935.439
935.532
935.624
935.714
935.802
935.89
935.976
936.061
936.146
936.229
936.311
936.392
936.473
936.552
936.631
936.708
936.786
936.862
936.938
937.014
937.089
937.163
937.237
937.31
937.383
937.454
937.525
937.595
937.664
937.732
937.799
937.865
937.929
937.991
938.051
938.11
938.165
938.212
938.038
937.925
937.838
937.766
937.704
937.649
937.6
937.555
937.513
937.476
933.891
933.891
933.891
933.891
933.891
933.891
933.891
933.891
933.891
933.895
934.087
934.238
934.373
934.497
934.615
934.729
934.838
934.945
935.048
935.149
935.248
935.345
935.44
935.533
935.625
935.715
935.804
935.892
935.978
936.063
936.148
936.231
936.313
936.394
936.475
936.554
936.633
936.711
936.788
936.865
936.941
937.016
937.091
937.166
937.24
937.313
937.386
937.457
937.528
937.598
937.668
937.736
937.803
937.868
937.932
937.994
938.055
938.113
938.168
938.215
938.041
937.928
937.841
937.769
937.707
937.652
937.603
937.557
937.516
937.478
933.891
933.891
933.891
933.891
933.891
933.891
933.891
933.891
933.891
933.895
934.087
934.239
934.372
934.497
934.615
934.729
934.839
934.945
935.049
935.15
935.249
935.346
935.441
935.534
935.626
935.717
935.805
935.893
935.98
936.065
936.149
936.233
936.315
936.396
936.477
936.556
936.635
936.713
936.79
936.867
936.943
937.018
937.094
937.168
937.242
937.316
937.388
937.46
937.531
937.601
937.67
937.739
937.805
937.871
937.935
937.997
938.058
938.116
938.171
938.218
938.043
937.93
937.844
937.772
937.71
937.654
937.605
937.56
937.518
937.481
933.891
933.891
933.891
933.891
933.891
933.891
933.891
933.891
933.891
933.895
934.087
934.239
934.373
934.497
934.615
934.729
934.838
934.945
935.049
935.15
935.249
935.346
935.442
935.535
935.627
935.717
935.806
935.894
935.981
936.066
936.15
936.234
936.316
936.397
936.478
936.558
936.636
936.714
936.792
936.868
936.945
937.02
937.096
937.17
937.244
937.318
937.39
937.462
937.533
937.604
937.673
937.741
937.808
937.873
937.937
937.999
938.06
938.118
938.173
938.219
938.045
937.932
937.845
937.774
937.711
937.656
937.607
937.562
937.52
937.483
933.891
933.891
933.891
933.891
933.891
933.891
933.891
933.891
933.891
933.895
934.087
934.238
934.372
934.497
934.615
934.728
934.838
934.945
935.049
935.15
935.25
935.347
935.442
935.536
935.628
935.718
935.807
935.895
935.981
936.067
936.151
936.235
936.317
936.398
936.479
936.559
936.638
936.716
936.793
936.87
936.946
937.022
937.097
937.172
937.246
937.32
937.392
937.464
937.535
937.606
937.675
937.743
937.81
937.875
937.939
938.001
938.062
938.12
938.174
938.221
938.046
937.934
937.847
937.775
937.713
937.658
937.608
937.563
937.522
937.484
933.891
933.891
933.891
933.891
933.891
933.891
933.891
933.891
933.891
933.895
934.087
934.239
934.372
934.497
934.615
934.728
934.838
934.945
935.049
935.15
935.25
935.347
935.442
935.536
935.628
935.719
935.808
935.896
935.982
936.068
936.152
936.235
936.318
936.399
936.48
936.56
936.639
936.717
936.794
936.871
936.947
937.023
937.099
937.173
937.248
937.321
937.394
937.466
937.537
937.607
937.676
937.745
937.811
937.877
937.941
938.003
938.063
938.121
938.176
938.222
938.048
937.935
937.848
937.776
937.714
937.659
937.61
937.565
937.523
937.486
933.891
933.891
933.891
933.891
933.891
933.891
933.891
933.891
933.891
933.895
934.087
934.238
934.372
934.497
934.615
934.728
934.838
934.945
935.049
935.15
935.25
935.347
935.443
935.537
935.629
935.719
935.808
935.896
935.983
936.068
936.152
936.236
936.318
936.4
936.481
936.56
936.639
936.718
936.795
936.872
936.949
937.025
937.1
937.175
937.249
937.322
937.395
937.467
937.538
937.609
937.678
937.746
937.813
937.878
937.942
938.004
938.064
938.122
938.177
938.223
938.049
937.936
937.849
937.777
937.715
937.66
937.611
937.565
937.524
937.486
933.891
933.891
933.891
933.891
933.891
933.891
933.891
933.891
933.891
933.895
934.087
934.238
934.372
934.496
934.614
934.728
934.838
934.945
935.049
935.15
935.25
935.347
935.443
935.537
935.629
935.72
935.809
935.897
935.983
936.069
936.153
936.236
936.319
936.4
936.481
936.561
936.64
936.719
936.796
936.873
936.95
937.026
937.101
937.176
937.25
937.324
937.396
937.468
937.54
937.61
937.679
937.747
937.814
937.879
937.943
938.005
938.065
938.123
938.177
938.223
938.049
937.937
937.85
937.778
937.716
937.661
937.611
937.566
937.525
937.487
933.891
933.891
933.891
933.891
933.891
933.891
933.891
933.891
933.891
933.895
934.087
934.238
934.372
934.496
934.614
934.728
934.838
934.945
935.049
935.15
935.25
935.348
935.443
935.537
935.629
935.72
935.809
935.897
935.984
936.069
936.154
936.237
936.32
936.401
936.482
936.562
936.641
936.72
936.797
936.874
936.951
937.027
937.102
937.177
937.251
937.325
937.397
937.469
937.541
937.611
937.68
937.748
937.815
937.88
937.944
938.006
938.066
938.124
938.178
938.224
938.05
937.937
937.851
937.779
937.717
937.662
937.612
937.567
937.525
937.488
933.891
933.891
933.891
933.891
933.891
933.891
933.891
933.891
933.891
933.895
934.087
934.238
934.372
934.496
934.614
934.728
934.838
934.944
935.049
935.151
935.25
935.348
935.443
935.537
935.63
935.72
935.81
935.898
935.984
936.07
936.154
936.238
936.32
936.402
936.483
936.563
936.642
936.72
936.798
936.875
936.952
937.028
937.103
937.178
937.252
937.326
937.398
937.47
937.542
937.612
937.681
937.749
937.816
937.881
937.945
938.007
938.067
938.124
938.178
938.224
938.05
937.937
937.851
937.779
937.717
937.662
937.612
937.567
937.526
937.488
933.891
933.891
933.891
933.891
933.891
933.891
933.891
933.891
933.891
933.895
934.087
934.238
934.372
934.496
934.614
934.728
934.838
934.944
935.049
935.151
935.25
935.348
935.444
935.538
935.63
935.721
935.81
935.898
935.985
936.07
936.155
936.238
936.321
936.403
936.483
936.563
936.643
936.721
936.799
936.876
936.953
937.029
937.104
937.179
937.253
937.326
937.399
937.471
937.542
937.613
937.682
937.75
937.817
937.882
937.946
938.007
938.067
938.124
938.179
938.224
938.051
937.938
937.851
937.779
937.717
937.662
937.613
937.568
937.526
937.489
933.891
933.891
933.891
933.891
933.891
933.891
933.891
933.891
933.891
933.895
934.087
934.238
934.372
934.496
934.614
934.728
934.838
934.945
935.049
935.151
935.25
935.348
935.444
935.538
935.63
935.721
935.811
935.899
935.985
936.071
936.155
936.239
936.321
936.403
936.484
936.564
936.643
936.722
936.8
936.877
936.953
937.029
937.105
937.179
937.254
937.327
937.4
937.472
937.543
937.613
937.682
937.75
937.817
937.882
937.946
938.008
938.068
938.125
938.179
938.224
938.051
937.938
937.852
937.78
937.718
937.663
937.613
937.568
937.527
937.489
933.891
933.891
933.891
933.891
933.891
933.891
933.891
933.891
933.891
933.895
934.087
934.239
934.372
934.496
934.614
934.728
934.838
934.945
935.049
935.151
935.251
935.348
935.444
935.538
935.631
935.722
935.811
935.899
935.986
936.071
936.156
936.239
936.322
936.404
936.485
936.565
936.644
936.722
936.8
936.877
936.954
937.03
937.105
937.18
937.254
937.327
937.4
937.472
937.543
937.614
937.683
937.751
937.818
937.883
937.946
938.008
938.068
938.125
938.179
938.224
938.051
937.938
937.852
937.78
937.718
937.663
937.613
937.568
937.527
937.489
933.891
933.891
933.891
933.891
933.891
933.891
933.891
933.891
933.891
933.895
934.087
934.239
934.372
934.497
934.615
934.728
934.838
934.945
935.049
935.151
935.251
935.349
935.444
935.539
935.631
935.722
935.811
935.899
935.986
936.072
936.156
936.24
936.322
936.404
936.485
936.565
936.644
936.723
936.801
936.878
936.954
937.03
937.105
937.18
937.254
937.328
937.4
937.472
937.544
937.614
937.683
937.751
937.818
937.883
937.946
938.008
938.068
938.125
938.179
938.224
938.051
937.938
937.851
937.78
937.718
937.663
937.613
937.568
937.527
937.489
933.891
933.891
933.891
933.891
933.891
933.891
933.891
933.891
933.891
933.895
934.088
934.239
934.373
934.497
934.615
934.728
934.838
934.945
935.05
935.151
935.251
935.349
935.445
935.539
935.631
935.722
935.812
935.9
935.986
936.072
936.157
936.24
936.323
936.404
936.485
936.565
936.645
936.723
936.801
936.878
936.954
937.03
937.105
937.18
937.254
937.328
937.4
937.472
937.543
937.614
937.683
937.751
937.818
937.883
937.946
938.008
938.067
938.124
938.178
938.224
938.05
937.937
937.851
937.779
937.717
937.662
937.613
937.568
937.526
937.489
933.891
933.891
933.891
933.891
933.891
933.891
933.891
933.891
933.891
933.895
934.088
934.239
934.373
934.497
934.615
934.728
934.838
934.945
935.05
935.152
935.251
935.349
935.445
935.539
935.631
935.722
935.812
935.9
935.987
936.072
936.157
936.24
936.323
936.405
936.485
936.565
936.645
936.723
936.801
936.878
936.954
937.03
937.105
937.18
937.254
937.327
937.4
937.472
937.543
937.613
937.683
937.751
937.817
937.883
937.946
938.008
938.067
938.124
938.178
938.223
938.05
937.937
937.851
937.779
937.717
937.662
937.613
937.567
937.526
937.489
933.891
933.891
933.891
933.891
933.891
933.891
933.891
933.891
933.891
933.895
934.088
934.239
934.373
934.497
934.615
934.729
934.839
934.946
935.05
935.152
935.251
935.349
935.445
935.539
935.632
935.722
935.812
935.9
935.987
936.072
936.157
936.24
936.323
936.405
936.485
936.565
936.645
936.723
936.801
936.878
936.954
937.03
937.105
937.18
937.254
937.327
937.4
937.472
937.543
937.613
937.682
937.75
937.817
937.882
937.946
938.007
938.067
938.124
938.178
938.223
938.049
937.937
937.85
937.779
937.717
937.662
937.612
937.567
937.526
937.488
933.891
933.891
933.891
933.891
933.891
933.891
933.891
933.891
933.891
933.895
934.088
934.239
934.373
934.497
934.615
934.729
934.839
934.946
935.05
935.152
935.251
935.349
935.445
935.539
935.631
935.722
935.812
935.9
935.987
936.072
936.157
936.24
936.323
936.404
936.485
936.565
936.644
936.723
936.8
936.877
936.953
937.029
937.104
937.179
937.253
937.326
937.399
937.471
937.542
937.612
937.681
937.75
937.816
937.882
937.945
938.007
938.066
938.123
938.177
938.222
938.049
937.936
937.85
937.778
937.716
937.661
937.612
937.567
937.525
937.488
933.891
933.891
933.891
933.891
933.891
933.891
933.891
933.891
933.891
933.895
934.088
934.239
934.373
934.498
934.616
934.729
934.839
934.946
935.05
935.152
935.251
935.349
935.445
935.539
935.631
935.722
935.812
935.9
935.986
936.072
936.156
936.24
936.322
936.404
936.484
936.564
936.644
936.722
936.8
936.876
936.953
937.028
937.103
937.178
937.252
937.325
937.398
937.47
937.541
937.611
937.681
937.749
937.815
937.881
937.944
938.006
938.066
938.123
938.177
938.222
938.048
937.936
937.849
937.778
937.716
937.661
937.611
937.566
937.525
937.487
933.891
933.891
933.891
933.891
933.891
933.891
933.891
933.891
933.891
933.895
934.088
934.24
934.374
934.498
934.616
934.729
934.839
934.946
935.05
935.152
935.251
935.349
935.444
935.538
935.631
935.722
935.811
935.899
935.986
936.071
936.156
936.239
936.321
936.403
936.484
936.563
936.643
936.721
936.799
936.875
936.952
937.027
937.102
937.177
937.251
937.324
937.397
937.469
937.54
937.61
937.68
937.748
937.815
937.88
937.943
938.005
938.065
938.122
938.176
938.221
938.048
937.935
937.849
937.777
937.715
937.66
937.611
937.565
937.524
937.487
933.891
933.891
933.891
933.891
933.891
933.891
933.891
933.891
933.891
933.895
934.088
934.24
934.373
934.498
934.616
934.729
934.839
934.945
935.05
935.151
935.251
935.348
935.444
935.538
935.63
935.721
935.81
935.898
935.985
936.07
936.155
936.238
936.32
936.402
936.482
936.562
936.641
936.72
936.797
936.874
936.951
937.026
937.101
937.176
937.25
937.323
937.396
937.468
937.539
937.609
937.678
937.747
937.813
937.879
937.943
938.005
938.064
938.121
938.175
938.221
938.047
937.935
937.848
937.776
937.714
937.659
937.61
937.565
937.523
937.486
933.891
933.891
933.891
933.891
933.891
933.891
933.891
933.891
933.891
933.895
934.088
934.24
934.374
934.498
934.616
934.729
934.839
934.945
935.049
935.151
935.25
935.348
935.443
935.537
935.63
935.72
935.81
935.898
935.984
936.069
936.154
936.237
936.319
936.4
936.481
936.561
936.64
936.718
936.796
936.873
936.949
937.025
937.1
937.175
937.248
937.322
937.394
937.466
937.537
937.608
937.677
937.745
937.812
937.878
937.942
938.004
938.064
938.121
938.175
938.22
938.046
937.934
937.847
937.776
937.714
937.659
937.609
937.564
937.523
937.485
933.891
933.891
933.891
933.891
933.891
933.891
933.891
933.891
933.891
933.895
934.088
934.24
934.374
934.498
934.616
934.729
934.838
934.945
935.049
935.15
935.25
935.347
935.443
935.536
935.629
935.719
935.809
935.896
935.983
936.068
936.152
936.235
936.317
936.399
936.479
936.559
936.638
936.717
936.795
936.872
936.948
937.023
937.099
937.173
937.247
937.32
937.393
937.465
937.536
937.606
937.675
937.744
937.811
937.877
937.941
938.003
938.063
938.12
938.174
938.22
938.046
937.933
937.847
937.775
937.713
937.658
937.608
937.563
937.522
937.484
933.891
933.891
933.891
933.891
933.891
933.891
933.891
933.891
933.891
933.895
934.088
934.24
934.373
934.498
934.615
934.728
934.838
934.944
935.048
935.15
935.249
935.346
935.442
935.535
935.627
935.718
935.807
935.895
935.981
936.067
936.151
936.233
936.316
936.397
936.478
936.557
936.637
936.715
936.793
936.87
936.946
937.022
937.097
937.171
937.245
937.318
937.391
937.463
937.534
937.604
937.674
937.742
937.809
937.875
937.939
938.002
938.062
938.119
938.173
938.219
938.045
937.932
937.846
937.774
937.712
937.657
937.607
937.562
937.521
937.483
933.891
933.891
933.891
933.891
933.891
933.891
933.891
933.891
933.891
933.895
934.088
934.24
934.373
934.497
934.615
934.728
934.837
934.944
935.047
935.149
935.248
935.345
935.44
935.534
935.626
935.717
935.806
935.893
935.98
936.065
936.148
936.231
936.313
936.395
936.475
936.555
936.634
936.713
936.791
936.868
936.944
937.02
937.095
937.169
937.243
937.316
937.389
937.461
937.532
937.602
937.672
937.74
937.807
937.873
937.938
938
938.06
938.118
938.173
938.218
938.044
937.931
937.845
937.773
937.711
937.656
937.606
937.561
937.519
937.482
933.891
933.891
933.891
933.891
933.891
933.891
933.891
933.891
933.891
933.895
934.088
934.24
934.373
934.497
934.615
934.727
934.837
934.943
935.046
935.148
935.247
935.344
935.439
935.532
935.624
935.715
935.804
935.891
935.977
936.062
936.146
936.229
936.311
936.393
936.473
936.553
936.632
936.711
936.788
936.865
936.942
937.017
937.092
937.167
937.241
937.314
937.386
937.458
937.529
937.6
937.669
937.738
937.805
937.871
937.936
937.998
938.059
938.116
938.171
938.217
938.043
937.93
937.843
937.771
937.709
937.654
937.604
937.559
937.518
937.48
933.891
933.891
933.891
933.891
933.891
933.891
933.891
933.891
933.891
933.895
934.088
934.239
934.373
934.497
934.614
934.727
934.836
934.942
935.045
935.146
935.245
935.342
935.437
935.53
935.622
935.713
935.801
935.889
935.975
936.06
936.144
936.227
936.309
936.39
936.47
936.55
936.629
936.708
936.785
936.862
936.939
937.015
937.09
937.164
937.238
937.311
937.383
937.455
937.526
937.597
937.666
937.735
937.802
937.869
937.933
937.996
938.056
938.115
938.169
938.215
938.041
937.928
937.841
937.769
937.707
937.652
937.602
937.557
937.516
937.478
933.891
933.891
933.891
933.891
933.891
933.891
933.891
933.891
933.891
933.895
934.088
934.239
934.373
934.496
934.613
934.726
934.835
934.94
935.044
935.145
935.243
935.34
935.435
935.528
935.62
935.71
935.799
935.886
935.972
936.057
936.141
936.224
936.306
936.387
936.467
936.547
936.626
936.705
936.782
936.859
936.936
937.011
937.086
937.161
937.234
937.308
937.38
937.452
937.523
937.593
937.663
937.731
937.799
937.865
937.93
937.993
938.054
938.112
938.167
938.213
938.038
937.925
937.839
937.767
937.704
937.649
937.6
937.555
937.513
937.476
933.891
933.891
933.891
933.891
933.891
933.891
933.891
933.891
933.891
933.895
934.087
934.239
934.372
934.495
934.612
934.725
934.833
934.939
935.042
935.143
935.241
935.338
935.432
935.526
935.617
935.707
935.796
935.883
935.969
936.054
936.138
936.22
936.302
936.384
936.464
936.544
936.623
936.701
936.779
936.856
936.932
937.007
937.082
937.157
937.23
937.304
937.376
937.448
937.519
937.589
937.659
937.727
937.795
937.862
937.927
937.99
938.051
938.109
938.164
938.21
938.036
937.923
937.836
937.764
937.702
937.647
937.597
937.552
937.51
937.473
933.891
933.891
933.891
933.891
933.891
933.891
933.891
933.891
933.891
933.895
934.087
934.238
934.371
934.495
934.612
934.723
934.832
934.937
935.04
935.141
935.239
935.335
935.43
935.523
935.614
935.704
935.793
935.88
935.966
936.05
936.134
936.217
936.299
936.38
936.46
936.54
936.619
936.697
936.775
936.852
936.928
937.003
937.078
937.153
937.226
937.299
937.372
937.443
937.515
937.585
937.654
937.723
937.791
937.858
937.923
937.987
938.048
938.106
938.161
938.208
938.033
937.92
937.833
937.761
937.699
937.644
937.595
937.55
937.508
937.471
933.891
933.891
933.891
933.891
933.891
933.891
933.891
933.891
933.891
933.895
934.087
934.238
934.371
934.494
934.61
934.722
934.83
934.935
935.038
935.138
935.236
935.332
935.427
935.52
935.611
935.701
935.789
935.876
935.962
936.047
936.13
936.213
936.295
936.376
936.456
936.536
936.615
936.693
936.771
936.848
936.924
936.999
937.074
937.149
937.222
937.295
937.368
937.44
937.511
937.581
937.651
937.72
937.788
937.855
937.92
937.984
938.046
938.104
938.16
938.207
938.032
937.919
937.832
937.761
937.698
937.644
937.594
937.549
937.508
937.47
933.891
933.891
933.891
933.891
933.891
933.891
933.891
933.891
933.891
933.895
934.087
934.237
934.37
934.493
934.609
934.721
934.829
934.934
935.036
935.136
935.234
935.33
935.424
935.517
935.608
935.698
935.786
935.873
935.959
936.043
936.127
936.21
936.292
936.373
936.453
936.533
936.612
936.69
936.768
936.845
936.921
936.997
937.072
937.146
937.22
937.294
937.366
937.438
937.51
937.58
937.65
937.719
937.788
937.855
937.921
937.986
938.048
938.107
938.163
938.211
938.036
937.923
937.836
937.765
937.703
937.648
937.599
937.554
937.513
937.476
933.891
933.891
933.891
933.891
933.891
933.891
933.891
933.891
933.891
933.895
934.086
934.237
934.369
934.492
934.608
934.719
934.827
934.932
935.034
935.134
935.232
935.327
935.422
935.514
935.606
935.695
935.784
935.871
935.957
936.042
936.126
936.209
936.291
936.372
936.453
936.533
936.612
936.691
936.769
936.846
936.923
936.999
937.075
937.15
937.224
937.298
937.371
937.444
937.516
937.587
937.658
937.728
937.797
937.865
937.932
937.998
938.061
938.121
938.179
938.227
938.052
937.94
937.853
937.782
937.72
937.666
937.617
937.573
937.532
937.496
933.891
933.891
933.891
933.891
933.891
933.891
933.891
933.891
933.891
933.895
934.086
934.237
934.369
934.492
934.608
934.719
934.826
934.931
935.033
935.133
935.231
935.328
935.422
935.515
935.607
935.697
935.786
935.874
935.96
936.046
936.131
936.215
936.298
936.38
936.462
936.543
936.623
936.703
936.782
936.86
936.938
937.015
937.092
937.168
937.244
937.319
937.394
937.468
937.542
937.614
937.687
937.758
937.829
937.899
937.968
938.036
938.101
938.164
938.224
938.274
938.099
937.987
937.901
937.83
937.769
937.716
937.668
937.624
937.584
937.548
933.891
933.891
933.891
933.891
933.891
933.891
933.891
933.891
933.891
933.895
934.086
934.236
934.369
934.492
934.608
934.72
934.828
934.934
935.037
935.138
935.237
935.334
935.43
935.525
935.618
935.71
935.8
935.89
935.979
936.066
936.153
936.239
936.324
936.409
936.493
936.576
936.659
936.742
936.823
936.905
936.986
937.066
937.146
937.225
937.304
937.382
937.46
937.537
937.614
937.691
937.767
937.842
937.917
937.99
938.063
938.135
938.204
938.271
938.335
938.389
938.213
938.102
938.017
937.947
937.887
937.835
937.788
937.746
937.708
937.673
933.891
933.891
933.891
933.891
933.891
933.891
933.891
933.891
933.891
933.895
934.087
934.239
934.373
934.498
934.616
934.73
934.841
934.949
935.056
935.16
935.262
935.363
935.463
935.562
935.659
935.755
935.851
935.945
936.038
936.131
936.223
936.314
936.405
936.495
936.585
936.674
936.763
936.851
936.939
937.026
937.113
937.2
937.286
937.372
937.458
937.543
937.627
937.712
937.796
937.879
937.962
938.044
938.126
938.207
938.288
938.366
938.444
938.518
938.59
938.65
938.472
938.36
938.275
938.206
938.147
938.095
938.049
938.008
937.97
937.936
933.891
933.891
933.891
933.891
933.891
933.891
933.891
933.891
933.891
933.895
934.092
934.248
934.388
934.519
934.644
934.765
934.884
935
935.115
935.228
935.34
935.451
935.56
935.669
935.777
935.884
935.99
936.095
936.2
936.304
936.407
936.51
936.613
936.715
936.816
936.917
937.018
937.118
937.219
937.318
937.417
937.516
937.615
937.713
937.81
937.908
938.005
938.101
938.197
938.292
938.387
938.482
938.576
938.669
938.76
938.851
938.94
939.026
939.108
939.179
938.989
938.869
938.779
938.704
938.64
938.583
938.531
938.484
938.441
938.403
933.891
933.891
933.891
933.891
933.891
933.891
933.891
933.891
933.891
933.896
934.11
934.285
934.442
934.591
934.734
934.875
935.013
935.15
935.285
935.418
935.551
935.682
935.813
935.943
936.072
936.2
936.327
936.453
936.579
936.703
936.827
936.95
937.072
937.194
937.315
937.435
937.555
937.674
937.792
937.91
938.027
938.143
938.258
938.373
938.487
938.6
938.713
938.824
938.935
939.045
939.154
939.263
939.37
939.476
939.581
939.685
939.786
939.883
939.976
940.052
939.814
939.659
939.537
939.433
939.341
939.259
939.184
939.114
939.05
938.992
933.891
933.891
933.891
933.891
933.891
933.891
933.891
933.891
933.892
933.898
934.179
934.4
934.597
934.782
934.96
935.133
935.303
935.47
935.635
935.797
935.958
936.118
936.275
936.431
936.586
936.739
936.89
937.039
937.187
937.332
937.477
937.619
937.76
937.9
938.037
938.174
938.309
938.442
938.574
938.705
938.834
938.962
939.088
939.213
939.337
939.459
939.581
939.701
939.819
939.937
940.054
940.168
940.282
940.395
940.505
940.613
940.718
940.818
940.912
940.977
940.582
940.33
940.136
939.974
939.835
939.712
939.602
939.502
939.411
939.331
933.891
933.891
933.891
933.891
933.891
933.891
933.891
933.891
933.891
933.896
934.108
934.309
934.499
934.681
934.858
935.03
935.199
935.366
935.53
935.692
935.852
936.011
936.169
936.324
936.479
936.632
936.783
936.933
937.081
937.228
937.373
937.517
937.659
937.799
937.938
938.075
938.211
938.345
938.478
938.609
938.739
938.868
938.996
939.123
939.248
939.372
939.494
939.616
939.735
939.853
939.97
940.085
940.198
940.31
940.419
940.526
940.631
940.731
940.827
940.899
940.574
940.333
940.142
939.981
939.842
939.719
939.609
939.509
939.418
939.337
933.891
933.891
933.891
933.891
933.891
933.891
933.891
933.891
933.891
933.894
934.045
934.196
934.343
934.486
934.626
934.764
934.9
935.034
935.167
935.299
935.43
935.56
935.689
935.817
935.945
936.072
936.199
936.324
936.449
936.574
936.697
936.82
936.943
937.064
937.185
937.306
937.425
937.544
937.663
937.781
937.898
938.014
938.13
938.246
938.361
938.475
938.588
938.7
938.812
938.922
939.031
939.14
939.247
939.353
939.457
939.56
939.661
939.759
939.854
939.935
939.769
939.633
939.519
939.42
939.332
939.252
939.179
939.111
939.048
938.991
933.891
933.891
933.891
933.891
933.891
933.891
933.891
933.891
933.891
933.894
934.03
934.164
934.293
934.418
934.54
934.658
934.774
934.889
935.001
935.113
935.223
935.332
935.44
935.547
935.654
935.759
935.864
935.969
936.073
936.176
936.279
936.381
936.483
936.585
936.686
936.787
936.887
936.987
937.087
937.186
937.285
937.384
937.482
937.58
937.678
937.775
937.872
937.969
938.065
938.16
938.255
938.349
938.442
938.534
938.625
938.715
938.803
938.89
938.974
939.049
938.926
938.826
938.744
938.674
938.613
938.559
938.51
938.465
938.424
938.386
933.891
933.891