/*--------------------------------*- C++ -*----------------------------------*\
  =========                 |
  \\      /  F ield         | OpenFOAM: The Open Source CFD Toolbox
   \\    /   O peration     | Website:  https://openfoam.org
    \\  /    A nd           | Version:  12
     \\/     M anipulation  |
\*---------------------------------------------------------------------------*/
FoamFile
{
    format      ascii;
    class       volScalarField;
    location    "1950/porous";
    object      T;
}
// * * * * * * * * * * * * * * * * * * * * * * * * * * * * * * * * * * * * * //

dimensions      [0 0 0 1 0 0 0];

internalField   nonuniform List<scalar> 
140000
(
400
400
400
400
400
400
400
400
400
399.993
399.692
399.454
399.242
399.041
398.847
398.66
398.476
398.296
398.118
397.943
397.769
397.597
397.427
397.258
397.091
396.925
396.761
396.598
396.437
396.277
396.119
395.962
395.807
395.654
395.502
395.352
395.204
395.056
394.911
394.766
394.623
394.481
394.34
394.201
394.062
393.925
393.79
393.656
393.524
393.393
393.263
393.136
393.01
392.886
392.766
392.647
392.531
392.419
392.313
392.239
392.681
392.962
393.179
393.359
393.514
393.65
393.772
393.883
393.984
394.072
400
400
400
400
400
400
400
400
400
399.995
399.766
399.578
399.408
399.246
399.091
398.938
398.789
398.642
398.496
398.352
398.209
398.067
397.926
397.786
397.647
397.508
397.371
397.233
397.097
396.961
396.826
396.692
396.558
396.425
396.293
396.161
396.03
395.899
395.77
395.64
395.512
395.384
395.256
395.129
395.003
394.878
394.753
394.629
394.506
394.385
394.264
394.145
394.026
393.91
393.795
393.682
393.571
393.463
393.359
393.274
393.538
393.71
393.846
393.961
394.062
394.153
394.236
394.313
394.384
394.448
400
400
400
400
400
400
400
400
400
399.996
399.785
399.617
399.465
399.324
399.188
399.056
398.928
398.802
398.679
398.557
398.436
398.317
398.199
398.081
397.965
397.85
397.735
397.621
397.507
397.394
397.281
397.169
397.058
396.947
396.836
396.725
396.615
396.506
396.397
396.288
396.179
396.071
395.962
395.854
395.747
395.64
395.533
395.427
395.321
395.216
395.112
395.009
394.906
394.805
394.705
394.606
394.51
394.414
394.324
394.244
394.454
394.586
394.686
394.768
394.839
394.902
394.958
395.01
395.057
395.1
400
400
400
400
400
400
400
400
400
399.996
399.79
399.626
399.481
399.346
399.217
399.093
398.973
398.856
398.742
398.629
398.519
398.41
398.302
398.196
398.091
397.987
397.884
397.782
397.681
397.58
397.48
397.381
397.282
397.184
397.086
396.989
396.893
396.797
396.701
396.605
396.51
396.416
396.321
396.227
396.133
396.04
395.947
395.854
395.762
395.671
395.581
395.491
395.402
395.314
395.227
395.142
395.058
394.976
394.897
394.829
395.025
395.149
395.242
395.317
395.382
395.439
395.489
395.535
395.576
395.613
400
400
400
400
400
400
400
400
400
399.996
399.791
399.629
399.485
399.352
399.225
399.104
398.986
398.872
398.761
398.652
398.545
398.44
398.337
398.235
398.135
398.036
397.938
397.84
397.744
397.649
397.555
397.461
397.369
397.276
397.185
397.094
397.004
396.915
396.826
396.737
396.649
396.562
396.474
396.388
396.301
396.215
396.13
396.045
395.961
395.878
395.795
395.713
395.632
395.553
395.474
395.397
395.322
395.248
395.178
395.117
395.31
395.433
395.526
395.602
395.668
395.725
395.776
395.822
395.864
395.902
400
400
400
400
400
400
400
400
400
399.996
399.791
399.629
399.486
399.352
399.226
399.105
398.988
398.875
398.764
398.656
398.551
398.447
398.345
398.245
398.146
398.049
397.952
397.857
397.763
397.67
397.578
397.487
397.397
397.307
397.218
397.13
397.043
396.957
396.871
396.785
396.701
396.616
396.532
396.449
396.366
396.284
396.202
396.121
396.041
395.961
395.883
395.805
395.728
395.653
395.579
395.506
395.435
395.366
395.3
395.244
395.436
395.559
395.653
395.731
395.797
395.856
395.908
395.956
395.999
396.039
400
400
400
400
400
400
400
400
400
399.996
399.791
399.629
399.486
399.352
399.226
399.104
398.987
398.874
398.764
398.656
398.551
398.447
398.346
398.246
398.147
398.05
397.954
397.86
397.767
397.674
397.583
397.493
397.403
397.315
397.227
397.14
397.054
396.969
396.884
396.8
396.717
396.634
396.551
396.469
396.388
396.307
396.227
396.148
396.069
395.991
395.915
395.839
395.764
395.691
395.619
395.548
395.479
395.413
395.349
395.295
395.487
395.611
395.705
395.783
395.851
395.91
395.963
396.012
396.056
396.096
400
400
400
400
400
400
400
400
400
399.996
399.791
399.629
399.485
399.351
399.225
399.103
398.986
398.872
398.762
398.654
398.548
398.445
398.343
398.243
398.144
398.047
397.952
397.857
397.764
397.672
397.581
397.491
397.402
397.314
397.226
397.14
397.054
396.969
396.885
396.801
396.719
396.636
396.554
396.473
396.392
396.312
396.233
396.154
396.076
395.999
395.923
395.848
395.774
395.702
395.631
395.561
395.494
395.428
395.366
395.313
395.505
395.629
395.723
395.802
395.87
395.929
395.983
396.032
396.077
396.118
400
400
400
400
400
400
400
400
400
399.996
399.79
399.628
399.485
399.351
399.224
399.102
398.985
398.871
398.76
398.652
398.546
398.442
398.34
398.24
398.141
398.044
397.949
397.854
397.761
397.669
397.578
397.487
397.398
397.31
397.223
397.136
397.051
396.966
396.882
396.799
396.716
396.634
396.552
396.471
396.39
396.31
396.231
396.153
396.075
395.998
395.922
395.848
395.774
395.702
395.632
395.563
395.496
395.431
395.369
395.317
395.509
395.633
395.727
395.806
395.874
395.934
395.988
396.037
396.083
396.123
400
400
400
400
400
400
400
400
400
399.996
399.791
399.628
399.484
399.351
399.223
399.101
398.984
398.869
398.758
398.65
398.544
398.44
398.337
398.237
398.138
398.041
397.945
397.85
397.757
397.665
397.574
397.483
397.394
397.306
397.219
397.132
397.047
396.962
396.878
396.795
396.712
396.63
396.548
396.467
396.386
396.306
396.227
396.149
396.071
395.994
395.919
395.844
395.771
395.699
395.628
395.56
395.493
395.428
395.367
395.315
395.507
395.631
395.726
395.805
395.873
395.933
395.987
396.037
396.082
396.123
400
400
400
400
400
400
400
400
400
399.996
399.79
399.628
399.484
399.35
399.223
399.101
398.983
398.868
398.757
398.648
398.542
398.438
398.335
398.235
398.136
398.038
397.942
397.848
397.754
397.662
397.57
397.48
397.391
397.303
397.215
397.129
397.043
396.958
396.874
396.791
396.708
396.626
396.544
396.463
396.382
396.302
396.223
396.144
396.067
395.99
395.914
395.84
395.766
395.694
395.624
395.556
395.489
395.425
395.364
395.312
395.504
395.628
395.723
395.802
395.87
395.93
395.984
396.034
396.079
396.12
400
400
400
400
400
400
400
400
400
399.996
399.79
399.627
399.484
399.35
399.223
399.1
398.982
398.868
398.756
398.647
398.541
398.436
398.334
398.233
398.134
398.036
397.94
397.845
397.751
397.659
397.567
397.477
397.388
397.299
397.212
397.125
397.04
396.955
396.871
396.787
396.705
396.622
396.54
396.459
396.378
396.298
396.219
396.14
396.062
395.986
395.91
395.835
395.762
395.69
395.62
395.551
395.485
395.421
395.36
395.308
395.5
395.624
395.719
395.798
395.866
395.926
395.981
396.03
396.076
396.117
400
400
400
400
400
400
400
400
400
399.996
399.79
399.628
399.484
399.35
399.223
399.1
398.982
398.867
398.756
398.646
398.54
398.435
398.332
398.231
398.132
398.034
397.938
397.843
397.749
397.657
397.565
397.475
397.385
397.297
397.209
397.123
397.037
396.952
396.868
396.785
396.702
396.619
396.537
396.456
396.375
396.295
396.215
396.137
396.059
395.982
395.906
395.832
395.758
395.686
395.616
395.548
395.481
395.417
395.356
395.305
395.497
395.621
395.716
395.795
395.863
395.923
395.978
396.027
396.073
396.114
400
400
400
400
400
400
400
400
400
399.996
399.79
399.627
399.484
399.35
399.223
399.1
398.982
398.867
398.755
398.646
398.539
398.434
398.331
398.23
398.131
398.033
397.937
397.842
397.748
397.655
397.564
397.473
397.384
397.295
397.207
397.121
397.035
396.95
396.866
396.782
396.699
396.617
396.535
396.453
396.372
396.292
396.212
396.134
396.056
395.979
395.903
395.828
395.755
395.683
395.613
395.544
395.478
395.414
395.354
395.302
395.494
395.618
395.713
395.792
395.86
395.921
395.975
396.024
396.07
396.111
400
400
400
400
400
400
400
400
400
399.996
399.79
399.627
399.483
399.35
399.223
399.1
398.982
398.867
398.755
398.646
398.539
398.434
398.331
398.229
398.13
398.032
397.936
397.841
397.747
397.654
397.562
397.472
397.382
397.294
397.206
397.119
397.034
396.949
396.864
396.781
396.697
396.615
396.532
396.451
396.37
396.29
396.21
396.131
396.053
395.976
395.901
395.826
395.752
395.681
395.61
395.542
395.476
395.412
395.351
395.3
395.492
395.616
395.711
395.79
395.858
395.919
395.973
396.022
396.068
396.109
400
400
400
400
400
400
400
400
400
399.996
399.79
399.628
399.484
399.35
399.223
399.101
398.982
398.867
398.755
398.645
398.538
398.433
398.33
398.229
398.129
398.031
397.935
397.84
397.746
397.653
397.561
397.471
397.381
397.293
397.205
397.118
397.032
396.947
396.863
396.779
396.696
396.613
396.531
396.449
396.368
396.288
396.208
396.129
396.051
395.974
395.898
395.824
395.75
395.678
395.608
395.54
395.473
395.41
395.35
395.299
395.49
395.614
395.709
395.788
395.856
395.917
395.971
396.021
396.066
396.107
400
400
400
400
400
400
400
400
400
399.996
399.79
399.627
399.484
399.35
399.223
399.101
398.982
398.867
398.755
398.645
398.538
398.433
398.33
398.228
398.129
398.031
397.934
397.839
397.745
397.652
397.561
397.47
397.38
397.292
397.204
397.117
397.031
396.946
396.862
396.778
396.694
396.611
396.529
396.447
396.366
396.286
396.206
396.127
396.05
395.973
395.897
395.822
395.748
395.677
395.606
395.538
395.472
395.408
395.348
395.297
395.489
395.613
395.708
395.787
395.855
395.915
395.97
396.019
396.065
396.106
400
400
400
400
400
400
400
400
400
399.996
399.79
399.628
399.484
399.35
399.223
399.101
398.983
398.867
398.755
398.645
398.538
398.433
398.329
398.228
398.128
398.03
397.934
397.838
397.744
397.652
397.56
397.469
397.38
397.291
397.203
397.116
397.03
396.945
396.86
396.776
396.693
396.61
396.528
396.446
396.365
396.284
396.205
396.126
396.048
395.971
395.895
395.82
395.747
395.675
395.605
395.537
395.471
395.407
395.347
395.297
395.488
395.612
395.707
395.786
395.854
395.914
395.969
396.018
396.064
396.105
400
400
400
400
400
400
400
400
400
399.996
399.79
399.628
399.484
399.35
399.223
399.101
398.983
398.868
398.755
398.645
398.538
398.433
398.329
398.228
398.128
398.03
397.933
397.838
397.744
397.651
397.559
397.469
397.379
397.29
397.202
397.115
397.029
396.944
396.859
396.775
396.692
396.609
396.526
396.445
396.364
396.283
396.203
396.125
396.047
395.97
395.894
395.819
395.746
395.674
395.604
395.536
395.47
395.406
395.346
395.296
395.487
395.611
395.706
395.785
395.853
395.914
395.968
396.017
396.063
396.104
400
400
400
400
400
400
400
400
400
399.996
399.79
399.628
399.484
399.35
399.223
399.101
398.983
398.868
398.755
398.645
398.538
398.432
398.329
398.227
398.127
398.029
397.933
397.837
397.743
397.651
397.559
397.468
397.378
397.29
397.202
397.115
397.028
396.943
396.858
396.774
396.691
396.608
396.525
396.443
396.362
396.282
396.202
396.123
396.045
395.968
395.893
395.818
395.744
395.673
395.603
395.535
395.469
395.405
395.345
395.295
395.486
395.61
395.705
395.784
395.853
395.913
395.967
396.017
396.062
396.103
400
400
400
400
400
400
400
400
400
399.996
399.79
399.628
399.484
399.351
399.224
399.101
398.983
398.868
398.755
398.645
398.538
398.432
398.329
398.227
398.127
398.029
397.932
397.837
397.743
397.65
397.558
397.468
397.378
397.289
397.201
397.114
397.027
396.942
396.857
396.773
396.69
396.607
396.524
396.442
396.361
396.281
396.201
396.122
396.044
395.967
395.891
395.817
395.744
395.672
395.602
395.534
395.468
395.405
395.345
395.295
395.486
395.61
395.705
395.784
395.852
395.912
395.967
396.016
396.062
396.103
400
400
400
400
400
400
400
400
400
399.996
399.79
399.628
399.484
399.35
399.224
399.101
398.983
398.868
398.755
398.645
398.538
398.432
398.328
398.227
398.127
398.028
397.932
397.836
397.742
397.649
397.558
397.467
397.377
397.288
397.2
397.113
397.027
396.941
396.856
396.772
396.689
396.606
396.523
396.442
396.36
396.28
396.2
396.122
396.044
395.967
395.891
395.816
395.743
395.671
395.601
395.533
395.468
395.405
395.345
395.295
395.486
395.61
395.705
395.784
395.852
395.912
395.966
396.016
396.061
396.102
400
400
400
400
400
400
400
400
400
399.996
399.79
399.628
399.484
399.35
399.223
399.101
398.983
398.868
398.755
398.645
398.537
398.432
398.328
398.226
398.126
398.028
397.931
397.836
397.742
397.649
397.557
397.466
397.376
397.287
397.199
397.112
397.026
396.94
396.855
396.771
396.688
396.605
396.523
396.441
396.36
396.279
396.2
396.121
396.043
395.966
395.89
395.815
395.742
395.67
395.601
395.533
395.467
395.404
395.345
395.295
395.486
395.609
395.704
395.783
395.851
395.912
395.966
396.015
396.061
396.102
400
400
400
400
400
400
400
400
400
399.996
399.79
399.628
399.484
399.35
399.223
399.101
398.983
398.867
398.755
398.645
398.537
398.432
398.328
398.226
398.126
398.028
397.931
397.835
397.741
397.648
397.556
397.466
397.376
397.287
397.199
397.112
397.025
396.94
396.855
396.771
396.687
396.604
396.522
396.44
396.359
396.279
396.199
396.12
396.042
395.965
395.89
395.815
395.742
395.67
395.6
395.533
395.467
395.404
395.345
395.295
395.486
395.61
395.704
395.783
395.851
395.912
395.966
396.015
396.061
396.102
400
400
400
400
400
400
400
400
400
399.996
399.79
399.627
399.484
399.35
399.223
399.101
398.983
398.867
398.755
398.645
398.537
398.431
398.328
398.226
398.126
398.027
397.93
397.835
397.741
397.648
397.556
397.465
397.375
397.286
397.198
397.111
397.025
396.939
396.854
396.77
396.687
396.604
396.522
396.44
396.359
396.279
396.199
396.12
396.042
395.965
395.889
395.815
395.742
395.67
395.6
395.533
395.467
395.404
395.345
395.295
395.486
395.61
395.705
395.783
395.851
395.912
395.966
396.015
396.061
396.102
400
400
400
400
400
400
400
400
400
399.996
399.79
399.627
399.483
399.35
399.223
399.101
398.982
398.867
398.754
398.644
398.537
398.431
398.327
398.225
398.125
398.027
397.93
397.834
397.74
397.647
397.556
397.465
397.375
397.286
397.198
397.111
397.025
396.939
396.854
396.77
396.687
396.604
396.522
396.44
396.359
396.279
396.199
396.12
396.042
395.965
395.889
395.815
395.742
395.67
395.601
395.533
395.467
395.405
395.345
395.296
395.486
395.61
395.705
395.784
395.852
395.912
395.966
396.016
396.061
396.102
400
400
400
400
400
400
400
400
400
399.996
399.79
399.627
399.483
399.35
399.223
399.101
398.982
398.867
398.754
398.644
398.537
398.431
398.327
398.225
398.125
398.027
397.93
397.834
397.74
397.647
397.555
397.465
397.375
397.286
397.198
397.111
397.024
396.939
396.854
396.77
396.687
396.604
396.522
396.44
396.359
396.279
396.199
396.12
396.043
395.966
395.89
395.815
395.742
395.67
395.601
395.533
395.468
395.405
395.346
395.296
395.487
395.61
395.705
395.784
395.852
395.912
395.967
396.016
396.061
396.103
400
400
400
400
400
400
400
400
400
399.996
399.79
399.627
399.483
399.349
399.222
399.1
398.982
398.867
398.754
398.644
398.536
398.431
398.327
398.225
398.125
398.027
397.93
397.834
397.74
397.647
397.555
397.465
397.375
397.286
397.198
397.111
397.025
396.939
396.854
396.77
396.687
396.604
396.522
396.441
396.36
396.279
396.2
396.121
396.043
395.966
395.89
395.816
395.742
395.671
395.601
395.533
395.468
395.405
395.346
395.296
395.487
395.611
395.706
395.784
395.852
395.913
395.967
396.016
396.062
396.103
400
400
400
400
400
400
400
400
400
399.996
399.789
399.627
399.483
399.349
399.222
399.1
398.982
398.866
398.754
398.644
398.536
398.431
398.327
398.225
398.125
398.027
397.93
397.834
397.74
397.647
397.556
397.465
397.375
397.286
397.198
397.111
397.025
396.94
396.855
396.771
396.688
396.605
396.523
396.441
396.36
396.28
396.201
396.122
396.044
395.967
395.891
395.816
395.743
395.672
395.602
395.534
395.469
395.406
395.347
395.297
395.488
395.611
395.706
395.785
395.853
395.913
395.968
396.017
396.062
396.103
400
400
400
400
400
400
400
400
400
399.996
399.789
399.627
399.483
399.349
399.222
399.1
398.982
398.866
398.754
398.644
398.536
398.431
398.327
398.226
398.125
398.027
397.93
397.835
397.74
397.648
397.556
397.465
397.376
397.287
397.199
397.112
397.026
396.94
396.856
396.772
396.689
396.606
396.524
396.442
396.361
396.281
396.202
396.123
396.045
395.968
395.892
395.817
395.744
395.672
395.602
395.535
395.469
395.407
395.347
395.298
395.488
395.612
395.707
395.786
395.854
395.914
395.968
396.018
396.063
396.104
400
400
400
400
400
400
400
400
400
399.996
399.789
399.626
399.482
399.349
399.222
399.1
398.982
398.866
398.754
398.644
398.537
398.431
398.328
398.226
398.126
398.027
397.931
397.835
397.741
397.648
397.557
397.466
397.377
397.288
397.2
397.113
397.027
396.941
396.857
396.773
396.69
396.607
396.525
396.443
396.363
396.282
396.203
396.124
396.046
395.969
395.893
395.818
395.745
395.673
395.603
395.536
395.47
395.407
395.348
395.298
395.489
395.612
395.707
395.786
395.854
395.915
395.969
396.018
396.064
396.105
400
400
400
400
400
400
400
400
400
399.996
399.789
399.626
399.483
399.349
399.222
399.1
398.982
398.867
398.754
398.644
398.537
398.432
398.328
398.226
398.126
398.028
397.931
397.836
397.742
397.649
397.558
397.467
397.378
397.289
397.201
397.114
397.028
396.943
396.858
396.774
396.691
396.608
396.526
396.445
396.364
396.284
396.204
396.125
396.047
395.97
395.895
395.82
395.746
395.674
395.604
395.536
395.471
395.408
395.348
395.299
395.49
395.613
395.708
395.787
395.855
395.915
395.97
396.019
396.064
396.106
400
400
400
400
400
400
400
400
400
399.996
399.789
399.626
399.482
399.349
399.222
399.1
398.982
398.867
398.755
398.645
398.537
398.432
398.329
398.227
398.127
398.029
397.932
397.837
397.743
397.65
397.559
397.468
397.379
397.29
397.203
397.116
397.03
396.944
396.859
396.775
396.692
396.61
396.528
396.446
396.365
396.285
396.206
396.127
396.049
395.972
395.896
395.821
395.747
395.675
395.605
395.537
395.471
395.408
395.349
395.299
395.49
395.614
395.709
395.788
395.856
395.916
395.97
396.02
396.065
396.106
400
400
400
400
400
400
400
400
400
399.996
399.789
399.626
399.482
399.349
399.222
399.1
398.982
398.867
398.755
398.646
398.538
398.433
398.33
398.228
398.128
398.03
397.933
397.838
397.744
397.652
397.56
397.47
397.381
397.292
397.204
397.117
397.031
396.946
396.861
396.777
396.694
396.611
396.529
396.448
396.367
396.287
396.207
396.129
396.051
395.974
395.898
395.823
395.749
395.677
395.606
395.538
395.473
395.409
395.35
395.3
395.491
395.615
395.71
395.789
395.857
395.917
395.971
396.021
396.066
396.107
400
400
400
400
400
400
400
400
400
399.996
399.789
399.626
399.483
399.349
399.222
399.1
398.983
398.868
398.756
398.646
398.539
398.434
398.331
398.229
398.13
398.031
397.935
397.84
397.746
397.653
397.562
397.472
397.383
397.294
397.207
397.12
397.033
396.948
396.863
396.779
396.696
396.613
396.531
396.45
396.369
396.289
396.209
396.131
396.053
395.976
395.9
395.825
395.751
395.678
395.608
395.54
395.473
395.41
395.351
395.301
395.492
395.616
395.711
395.79
395.858
395.918
395.972
396.022
396.067
396.108
400
400
400
400
400
400
400
400
400
399.996
399.789
399.626
399.483
399.349
399.223
399.101
398.983
398.869
398.757
398.647
398.54
398.435
398.332
398.231
398.131
398.033
397.937
397.841
397.748
397.655
397.564
397.474
397.385
397.297
397.209
397.122
397.036
396.95
396.865
396.781
396.698
396.615
396.533
396.452
396.371
396.291
396.212
396.133
396.055
395.978
395.902
395.827
395.753
395.68
395.61
395.541
395.475
395.412
395.352
395.302
395.493
395.617
395.712
395.791
395.859
395.919
395.974
396.023
396.069
396.11
400
400
400
400
400
400
400
400
400
399.996
399.789
399.626
399.483
399.35
399.223
399.102
398.984
398.869
398.758
398.649
398.542
398.437
398.334
398.232
398.133
398.035
397.939
397.844
397.75
397.658
397.567
397.477
397.387
397.299
397.211
397.124
397.038
396.953
396.868
396.784
396.701
396.618
396.536
396.455
396.374
396.294
396.214
396.136
396.058
395.981
395.905
395.829
395.755
395.683
395.612
395.543
395.477
395.414
395.353
395.303
395.495
395.619
395.714
395.793
395.861
395.921
395.976
396.025
396.071
396.112
400
400
400
400
400
400
400
400
400
399.996
399.789
399.627
399.483
399.35
399.224
399.102
398.985
398.871
398.759
398.65
398.543
398.439
398.336
398.235
398.135
398.037
397.941
397.846
397.753
397.661
397.57
397.48
397.39
397.302
397.214
397.127
397.041
396.956
396.871
396.787
396.704
396.621
396.539
396.458
396.377
396.297
396.218
396.139
396.061
395.984
395.908
395.833
395.758
395.686
395.615
395.546
395.479
395.415
395.355
395.305
395.497
395.621
395.716
395.795
395.863
395.924
395.978
396.027
396.073
396.114
400
400
400
400
400
400
400
400
400
399.996
399.79
399.627
399.484
399.351
399.224
399.103
398.986
398.872
398.761
398.652
398.545
398.441
398.338
398.237
398.138
398.04
397.944
397.849
397.756
397.664
397.573
397.483
397.393
397.305
397.217
397.131
397.044
396.959
396.874
396.79
396.707
396.625
396.543
396.461
396.381
396.301
396.221
396.143
396.065
395.988
395.912
395.836
395.762
395.689
395.618
395.549
395.482
395.418
395.358
395.307
395.499
395.623
395.719
395.798
395.866
395.926
395.981
396.03
396.076
396.117
400
400
400
400
400
400
400
400
400
399.996
399.79
399.627
399.484
399.351
399.225
399.105
398.988
398.874
398.763
398.654
398.547
398.443
398.341
398.24
398.141
398.043
397.947
397.852
397.759
397.667
397.576
397.486
397.397
397.309
397.221
397.134
397.048
396.963
396.878
396.794
396.711
396.629
396.547
396.466
396.385
396.305
396.226
396.147
396.069
395.992
395.916
395.841
395.766
395.693
395.622
395.552
395.485
395.422
395.361
395.31
395.502
395.626
395.722
395.801
395.869
395.929
395.984
396.033
396.079
396.12
400
400
400
400
400
400
400
400
400
399.996
399.79
399.628
399.485
399.352
399.226
399.106
398.989
398.875
398.764
398.656
398.55
398.446
398.343
398.243
398.144
398.046
397.95
397.856
397.763
397.671
397.58
397.49
397.401
397.313
397.225
397.138
397.052
396.967
396.883
396.799
396.716
396.633
396.551
396.47
396.39
396.31
396.23
396.152
396.074
395.997
395.921
395.845
395.771
395.698
395.626
395.556
395.489
395.425
395.364
395.313
395.505
395.629
395.725
395.803
395.872
395.932
395.986
396.036
396.081
396.122
400
400
400
400
400
400
400
400
400
399.996
399.79
399.628
399.485
399.353
399.228
399.107
398.991
398.877
398.767
398.659
398.553
398.449
398.347
398.246
398.147
398.05
397.954
397.86
397.767
397.675
397.584
397.494
397.405
397.317
397.229
397.143
397.057
396.972
396.887
396.803
396.72
396.638
396.556
396.475
396.394
396.314
396.235
396.156
396.078
396.001
395.925
395.849
395.774
395.701
395.629
395.559
395.491
395.427
395.365
395.314
395.506
395.63
395.725
395.804
395.872
395.933
395.987
396.036
396.081
396.122
400
400
400
400
400
400
400
400
400
399.996
399.791
399.629
399.486
399.354
399.229
399.109
398.993
398.879
398.769
398.661
398.555
398.452
398.35
398.249
398.151
398.053
397.958
397.863
397.77
397.678
397.588
397.498
397.409
397.32
397.233
397.146
397.06
396.975
396.89
396.806
396.723
396.64
396.558
396.477
396.396
396.316
396.237
396.158
396.08
396.002
395.925
395.849
395.774
395.701
395.628
395.557
395.489
395.423
395.362
395.31
395.502
395.626
395.721
395.8
395.868
395.928
395.982
396.031
396.076
396.116
400
400
400
400
400
400
400
400
400
399.996
399.791
399.629
399.487
399.355
399.23
399.11
398.994
398.881
398.771
398.663
398.558
398.454
398.352
398.252
398.153
398.056
397.96
397.866
397.773
397.68
397.589
397.499
397.41
397.321
397.233
397.146
397.06
396.974
396.889
396.805
396.721
396.638
396.555
396.473
396.392
396.311
396.231
396.152
396.073
395.995
395.917
395.84
395.764
395.69
395.616
395.544
395.474
395.408
395.344
395.292
395.484
395.608
395.703
395.781
395.848
395.908
395.961
396.01
396.055
396.095
400
400
400
400
400
400
400
400
400
399.996
399.791
399.63
399.487
399.355
399.231
399.111
398.995
398.882
398.772
398.664
398.558
398.454
398.352
398.251
398.152
398.054
397.958
397.863
397.769
397.676
397.584
397.493
397.402
397.313
397.224
397.136
397.048
396.961
396.875
396.79
396.705
396.62
396.536
396.453
396.37
396.288
396.206
396.125
396.044
395.965
395.885
395.807
395.729
395.652
395.576
395.502
395.43
395.361
395.296
395.24
395.433
395.556
395.65
395.728
395.795
395.854
395.906
395.954
395.997
396.037
400
400
400
400
400
400
400
400
400
399.996
399.791
399.63
399.487
399.355
399.23
399.109
398.993
398.879
398.768
398.659
398.552
398.447
398.343
398.241
398.14
398.04
397.942
397.845
397.749
397.654
397.56
397.466
397.373
397.281
397.19
397.099
397.009
396.919
396.83
396.741
396.653
396.565
396.478
396.391
396.305
396.219
396.134
396.049
395.965
395.881
395.798
395.715
395.633
395.552
395.472
395.393
395.317
395.243
395.173
395.113
395.307
395.43
395.523
395.6
395.665
395.723
395.774
395.82
395.862
395.9
400
400
400
400
400
400
400
400
400
399.996
399.79
399.627
399.483
399.349
399.222
399.099
398.979
398.862
398.748
398.635
398.525
398.415
398.307
398.201
398.095
397.991
397.888
397.785
397.684
397.583
397.484
397.384
397.286
397.187
397.09
396.993
396.896
396.799
396.704
396.608
396.513
396.418
396.324
396.23
396.136
396.043
395.95
395.858
395.766
395.674
395.583
395.493
395.403
395.313
395.225
395.138
395.053
394.971
394.892
394.825
395.022
395.146
395.239
395.315
395.38
395.437
395.487
395.533
395.574
395.612
400
400
400
400
400
400
400
400
400
399.996
399.785
399.617
399.467
399.326
399.192
399.061
398.933
398.808
398.684
398.562
398.441
398.321
398.202
398.084
397.968
397.852
397.736
397.622
397.508
397.395
397.283
397.171
397.06
396.948
396.838
396.727
396.617
396.507
396.398
396.289
396.18
396.072
395.964
395.857
395.749
395.643
395.536
395.43
395.325
395.22
395.115
395.011
394.908
394.805
394.704
394.603
394.505
394.41
394.319
394.241
394.451
394.583
394.683
394.766
394.837
394.9
394.956
395.009
395.056
395.098
400
400
400
400
400
400
400
400
400
399.995
399.766
399.578
399.409
399.249
399.094
398.942
398.793
398.646
398.5
398.356
398.213
398.07
397.928
397.788
397.648
397.508
397.37
397.233
397.096
396.961
396.826
396.691
396.558
396.425
396.292
396.161
396.03
395.899
395.769
395.64
395.512
395.384
395.257
395.131
395.005
394.881
394.757
394.633
394.511
394.389
394.268
394.148
394.029
393.911
393.795
393.68
393.568
393.46
393.356
393.272
393.536
393.709
393.844
393.96
394.061
394.152
394.235
394.312
394.384
394.447
400
400
400
400
400
400
400
400
400
399.993
399.691
399.454
399.242
399.043
398.851
398.664
398.48
398.3
398.122
397.945
397.771
397.598
397.427
397.257
397.089
396.922
396.757
396.594
396.433
396.273
396.116
395.959
395.805
395.652
395.5
395.35
395.202
395.055
394.909
394.765
394.623
394.481
394.342
394.203
394.066
393.93
393.796
393.662
393.53
393.4
393.27
393.142
393.015
392.889
392.767
392.646
392.528
392.416
392.311
392.239
392.68
392.961
393.178
393.358
393.513
393.65
393.772
393.883
393.984
394.072
400
400
400
400
400
400
400
400
400
399.995
399.768
399.552
399.348
399.152
398.961
398.776
398.593
398.413
398.235
398.06
397.886
397.713
397.543
397.373
397.205
397.039
396.874
396.71
396.548
396.388
396.229
396.072
395.916
395.762
395.61
395.459
395.31
395.162
395.016
394.871
394.727
394.585
394.443
394.303
394.165
394.027
393.891
393.757
393.624
393.493
393.363
393.235
393.109
392.984
392.863
392.743
392.626
392.513
392.406
392.325
392.689
392.958
393.172
393.351
393.505
393.642
393.764
393.875
393.976
394.066
400
400
400
400
400
400
400
400
400
399.997
399.835
399.673
399.515
399.361
399.21
399.062
398.916
398.771
398.627
398.485
398.343
398.203
398.063
397.924
397.785
397.647
397.51
397.373
397.237
397.102
396.967
396.833
396.699
396.566
396.434
396.303
396.172
396.041
395.912
395.782
395.654
395.526
395.398
395.271
395.145
395.019
394.894
394.77
394.647
394.525
394.404
394.284
394.166
394.048
393.933
393.819
393.707
393.598
393.492
393.401
393.586
393.738
393.864
393.974
394.071
394.16
394.241
394.316
394.386
394.449
400
400
400
400
400
400
400
400
400
399.998
399.852
399.708
399.569
399.435
399.304
399.176
399.051
398.928
398.806
398.686
398.567
398.449
398.332
398.216
398.101
397.987
397.873
397.759
397.646
397.534
397.422
397.311
397.2
397.09
396.979
396.87
396.76
396.651
396.542
396.434
396.325
396.217
396.11
396.002
395.895
395.788
395.681
395.575
395.47
395.365
395.261
395.158
395.055
394.953
394.853
394.754
394.657
394.561
394.468
394.385
394.521
394.631
394.722
394.799
394.866
394.926
394.98
395.03
395.075
395.117
400
400
400
400
400
400
400
400
400
399.998
399.856
399.716
399.583
399.455
399.331
399.211
399.094
398.979
398.867
398.756
398.647
398.54
398.433
398.328
398.224
398.121
398.019
397.917
397.817
397.717
397.617
397.519
397.42
397.323
397.226
397.129
397.033
396.937
396.842
396.747
396.652
396.558
396.464
396.37
396.277
396.184
396.091
395.999
395.907
395.816
395.726
395.636
395.547
395.459
395.372
395.286
395.202
395.119
395.039
394.967
395.092
395.194
395.278
395.349
395.411
395.465
395.513
395.557
395.597
395.633
400
400
400
400
400
400
400
400
400
399.998
399.857
399.719
399.587
399.461
399.339
399.221
399.106
398.995
398.885
398.778
398.673
398.569
398.467
398.366
398.266
398.168
398.07
397.974
397.879
397.784
397.69
397.597
397.505
397.413
397.322
397.232
397.142
397.053
396.964
396.876
396.788
396.701
396.614
396.528
396.441
396.356
396.271
396.186
396.102
396.019
395.936
395.854
395.773
395.693
395.615
395.537
395.461
395.387
395.315
395.25
395.373
395.475
395.559
395.631
395.693
395.748
395.797
395.842
395.882
395.92
400
400
400
400
400
400
400
400
400
399.998
399.856
399.718
399.587
399.461
399.339
399.222
399.108
398.997
398.888
398.782
398.678
398.575
398.474
398.375
398.277
398.18
398.085
397.99
397.897
397.804
397.712
397.622
397.532
397.443
397.354
397.267
397.18
397.093
397.008
396.923
396.838
396.754
396.67
396.587
396.505
396.422
396.341
396.26
396.18
396.1
396.021
395.944
395.867
395.791
395.716
395.643
395.572
395.502
395.435
395.374
395.497
395.599
395.684
395.757
395.82
395.876
395.927
395.973
396.015
396.054
400
400
400
400
400
400
400
400
400
399.998
399.857
399.718
399.587
399.461
399.339
399.222
399.108
398.996
398.888
398.782
398.678
398.575
398.475
398.376
398.278
398.182
398.087
397.993
397.9
397.808
397.717
397.627
397.538
397.45
397.363
397.276
397.19
397.105
397.021
396.937
396.853
396.771
396.689
396.607
396.526
396.445
396.365
396.286
396.207
396.129
396.052
395.976