/*--------------------------------*- C++ -*----------------------------------*\
  =========                 |
  \\      /  F ield         | OpenFOAM: The Open Source CFD Toolbox
   \\    /   O peration     | Website:  https://openfoam.org
    \\  /    A nd           | Version:  12
     \\/     M anipulation  |
\*---------------------------------------------------------------------------*/
FoamFile
{
    format      ascii;
    class       volScalarField;
    location    "1250/air";
    object      alphat;
}
// * * * * * * * * * * * * * * * * * * * * * * * * * * * * * * * * * * * * * //

dimensions      [1 -1 -1 0 0 0 0];

internalField   nonuniform List<scalar> 
243000
(
0.000132369
0.000136925
0.000136419
0.000133866
0.000129938
0.000125224
0.000120164
0.000115058
0.000110104
0.000105444
0.00010116
9.7356e-05
9.40674e-05
9.13531e-05
8.91921e-05
8.76592e-05
8.67465e-05
8.70412e-05
8.81866e-05
9.00803e-05
9.2454e-05
9.47461e-05
9.6335e-05
9.66696e-05
9.54502e-05
9.24611e-05
8.79999e-05
8.30784e-05
0.000365663
0.000342537
0.00048128
0.000489088
0.000481715
0.000466129
0.000446454
0.000425113
0.000403579
0.000382772
0.000363254
0.000345409
0.000329489
0.000315727
0.000304223
0.00029525
0.000288964
0.000285952
0.000287046
0.00029231
0.000301816
0.00031458
0.000328691
0.000342059
0.000352794
0.000359193
0.000360153
0.000354915
0.000343947
0.000323391
0.000304416
0.000278124
0.000566553
0.000616427
0.000638807
0.000645976
0.000643509
0.000635198
0.000623233
0.000609192
0.000594094
0.000578747
0.000563778
0.000549794
0.000537281
0.000527126
0.000520023
0.00051764
0.000521205
0.000531616
0.000547378
0.000565568
0.000582257
0.000594134
0.000598912
0.000594828
0.000581065
0.00055752
0.000525661
0.000483975
0.000437329
0.000381499
0.000520031
0.000586428
0.000622093
0.000638464
0.000642767
0.000639268
0.00063087
0.000619561
0.000606774
0.000593313
0.000580137
0.000567726
0.000556786
0.000548417
0.000543569
0.000544386
0.000552121
0.000567418
0.000587986
0.000610048
0.000629363
0.000642854
0.000648684
0.000645473
0.00063248
0.00060969
0.000578357
0.000537342
0.000489766
0.000432824
0.000485795
0.000537347
0.000577349
0.000603159
0.000616529
0.000620516
0.000618122
0.00061158
0.000602894
0.000593295
0.000583123
0.000573584
0.00056539
0.000559823
0.000558112
0.000562848
0.000575257
0.000595557
0.000620616
0.000645979
0.00066728
0.000681797
0.00068817
0.000685448
0.000673061
0.000651133
0.000620703
0.000581111
0.000534531
0.000479635
0.000486146
0.000506706
0.00053908
0.000565353
0.000582259
0.000590696
0.000592739
0.000590244
0.000586445
0.000581316
0.000575286
0.000569509
0.000564822
0.000562757
0.000564894
0.00057412
0.000591711
0.000617189
0.000646594
0.000674965
0.000697968
0.000713266
0.000719974
0.000717553
0.000705669
0.000684616
0.000655301
0.000617511
0.000572794
0.000520797
0.000520029
0.000510832
0.000519489
0.000536543
0.000552148
0.000562727
0.000568011
0.000568977
0.000567504
0.000564535
0.000560604
0.000558223
0.000557019
0.000558647
0.000564912
0.000579039
0.000602148
0.000633087
0.000666834
0.000698098
0.000722713
0.000738736
0.000745735
0.000743551
0.000732118
0.000711909
0.000683802
0.000647936
0.000605452
0.000556547
0.000561157
0.000550223
0.000536915
0.000533663
0.000538087
0.000544399
0.00054906
0.000551202
0.000551161
0.000549648
0.000547171
0.000545246
0.000545145
0.000549338
0.000559312
0.000578332
0.000607049
0.000643657
0.000681957
0.000716145
0.00074241
0.000759226
0.000766567
0.000764648
0.000753657
0.000734261
0.000707387
0.000673428
0.000633321
0.000587447
0.000602457
0.000594553
0.000583467
0.000569003
0.000557314
0.000550964
0.000547812
0.000545682
0.000543414
0.000540806
0.000537824
0.000535364
0.000534494
0.000537916
0.000549773
0.000572888
0.000607303
0.000649214
0.000692247
0.000729647
0.000757697
0.000775454
0.000783268
0.000781707
0.000771199
0.000752603
0.000726942
0.000694826
0.000657151
0.000614108
0.000642654
0.000637443
0.000629504
0.000619116
0.000605127
0.000588337
0.000574534
0.000563025
0.00055329
0.000544921
0.000537718
0.000531976
0.000528428
0.000529197
0.000539013
0.000564036
0.000603031
0.000650548
0.000697894
0.000738786
0.000769012
0.000787935
0.000796414
0.000795364
0.000785426
0.000767647
0.000743177
0.000712858
0.000677471
0.000637073
0.000681951
0.000678498
0.000672639
0.00066453
0.000653828
0.000639873
0.00062056
0.00060171
0.000583649
0.00056687
0.000551875
0.000539316
0.000530067
0.00052597
0.00053105
0.000553826
0.000595351
0.000647768
0.000699741
0.000743888
0.000776558
0.000797023
0.000806424
0.000806089
0.000796854
0.000779943
0.000756677
0.000728008
0.000694709
0.000656803
0.000720681
0.00071821
0.000713445
0.000706445
0.000697006
0.000684785
0.000669133
0.000647809
0.000625522
0.000602605
0.000580054
0.000559264
0.000541938
0.000530453
0.000528833
0.000544857
0.000585641
0.000641224
0.000697861
0.000745575
0.000780648
0.000802969
0.000813609
0.000814226
0.000805866
0.000789918
0.000767878
0.000740688
0.00070931
0.000673756
0.000758989
0.00075686
0.000752498
0.00074589
0.000736857
0.000725149
0.000710463
0.000691914
0.000668547
0.000643084
0.000616112
0.000588951
0.000563763
0.000543765
0.000533655
0.000541158
0.000576009
0.000632146
0.000692305
0.000743901
0.00078179
0.000806
0.000818223
0.000820027
0.000812752
0.000797925
0.000777044
0.000751297
0.000721683
0.000688382
0.00079679
0.000794507
0.000790071
0.000783406
0.000774327
0.000762602
0.000748009
0.000730198
0.000707528
0.000681983
0.00065353
0.000623011
0.000592315
0.000564853
0.000545864
0.000543823
0.000568605
0.000621836
0.000683716
0.000738806
0.000779957
0.000806546
0.000820403
0.000823686
0.000817716
0.000804144
0.000784515
0.000760174
0.000732183
0.000700989
0.000833912
0.000831065
0.000826222
0.000819225
0.000809857
0.000797874
0.000783041
0.000765116
0.000743476
0.000717976
0.000689157
0.000657326
0.000623698
0.000591047
0.000564442
0.000552864
0.000566895
0.0006122
0.000673278
0.000730785
0.000775101
0.000804491
0.000820523
0.000825414
0.000820985
0.000808798
0.00079053
0.0007676
0.00074114
0.000711886
0.000870203
0.000866449
0.000860957
0.000853464
0.000843686
0.000831348
0.000816178
0.000797934
0.000776332
0.000751051
0.00072231
0.000690144
0.000655274
0.000619612
0.000587492
0.000567545
0.000570941
0.000604927
0.000662107
0.000720498
0.000767543
0.00079985
0.000818408
0.000825277
0.000822612
0.000812039
0.00079527
0.000773811
0.000748843
0.000721388
0.000905664
0.000900787
0.00089444
0.000886314
0.000876052
0.000863331
0.000847826
0.000829247
0.000807373
0.000782318
0.000753666
0.000721399
0.000686026
0.000648788
0.000613117
0.000586613
0.00058034
0.000603132
0.000651946
0.000708874
0.00075773
0.00079281
0.000814075
0.000823336
0.000822588
0.000813942
0.00079887
0.000778991
0.000755541
0.000729798
0.000940469
0.0009343
0.000926958
0.000918093
0.000907311
0.000894212
0.00087841
0.000859566
0.000837636
0.000812793
0.000784161
0.000751742
0.000716034
0.000677902
0.000640032
0.000608767
0.000594288
0.000606209
0.000644582
0.000697111
0.000746363
0.000783769
0.000807776
0.000819673
0.000821164
0.000814582
0.000801432
0.000783292
0.000761443
0.000737375
0.000974954
0.000967298
0.000958926
0.00094932
0.000938043
0.000924638
0.000908658
0.000889783
0.00086869
0.000843853
0.000815047
0.000782272
0.000746066
0.000707164
0.000667765
0.000633067
0.000611879
0.000614074
0.000642174
0.000687196
0.000734471
0.000773234
0.000799761
0.000814382
0.000818377
0.00081401
0.000803042
0.000786837
0.000766731
0.000744364
0.0010086
0.00100028
0.000991177
0.000980987
0.000969399
0.000955973
0.000940256
0.000922265
0.000901955
0.000877407
0.000848329
0.000814871
0.000777701
0.000737664
0.000696714
0.000659264
0.000632622
0.000626186
0.000644336
0.000681088
0.000724302
0.000762455
0.000790574
0.000807694
0.000814368
0.000812439
0.000803808
0.000789741
0.000771549
0.000750963
0.00104085
0.00103202
0.00102274
0.00101268
0.00100153
0.00098886
0.000974503
0.000958475
0.000938429
0.000913877
0.000884472
0.000850353
0.000812216
0.000771005
0.000728419
0.000688201
0.000656579
0.000642283
0.000650832
0.000679198
0.000716944
0.000753359
0.000781987
0.000800654
0.000809473
0.00080999
0.000803762
0.000792042
0.000775985
0.000757336
0.00107158
0.00106233
0.00105298
0.00104329
0.00103294
0.00102215
0.00100998
0.000994465
0.000974933
0.000950833
0.000921707
0.000887607
0.000849083
0.000807126
0.000763297
0.000720896
0.000684583
0.000662542
0.000661899
0.000681407
0.00071274
0.00074621
0.00077449
0.000794271
0.000805026
0.000807568
0.0008033
0.000793831
0.000780087
0.000763598
0.00110074
0.00109126
0.00108211
0.0010736
0.00106531
0.00105569
0.00104384
0.00102896
0.0010103
0.00098722
0.000959123
0.000925945
0.000887955
0.00084604
0.000801538
0.000757406
0.000717276
0.0006875
0.000677677
0.000687914
0.000712363
0.000741534
0.000768422
0.000788709
0.000800995
0.00080545
0.000803124
0.00079542
0.000783971
0.000769872
0.00112846
0.00111974
0.00111203
0.00110432
0.00109597
0.00108645
0.0010751
0.00106115
0.00104378
0.00102229
0.000995977
0.000964682
0.000928293
0.000887475
0.000843116
0.000797809
0.000754381
0.000718002
0.000698844
0.000699705
0.000716053
0.000740207
0.000764463
0.000784392
0.000797646
0.000803731
0.000803224
0.000797359
0.00078782
0.000776185
0.00115447
0.00114608
0.00113817
0.00113037
0.0011222
0.00111314
0.00110254
0.0010897
0.00107385
0.0010543
0.00103029
0.00100164
0.000967814
0.000929257
0.000886088
0.000840647
0.000794897
0.000753241
0.000726646
0.000718271
0.000725882
0.000743493
0.000764237
0.000782642
0.000795941
0.000803027
0.000804043
0.000799802
0.00079174
0.000782536
0.00117543
0.00116683
0.00115875
0.00115082
0.00114261
0.0011338
0.0011238
0.00111198
0.00109758
0.00107996
0.00105836
0.00103256
0.00100188
0.00096656
0.00092574
0.000882629
0.00083868
0.000797023
0.000765172
0.00074806
0.000746227
0.000755611
0.000770551
0.000785806
0.000797893
0.00080499
0.000806898
0.000803868
0.000796999
0.000789275
0.00119581
0.00118545
0.00117592
0.0011672
0.0011591
0.00115133
0.00114339
0.00113458
0.00112401
0.00111083
0.0010941
0.00107323
0.00104762
0.00101741
0.000982108
0.000943087
0.000901673
0.000860406
0.000824928
0.000799995
0.00078779
0.000786989
0.00079339
0.000802582
0.000810921
0.000816106
0.000817345
0.000814403
0.000807932
0.000800016
0.0012323
0.00122234
0.0012129
0.00120463
0.00119782
0.00119235
0.00118777
0.00118325
0.00117777
0.00117028
0.00115961
0.00114506
0.00112603
0.00110248
0.00107452
0.00104192
0.00100503
0.000966552
0.000930124
0.00089966
0.000877848
0.00086521
0.000859932
0.000859082
0.000859552
0.00085894
0.000856033
0.000850361
0.000842149
0.000833123
0.00130922
0.00130131
0.00129477
0.00129125
0.00129077
0.00129262
0.00129579
0.00129909
0.00130149
0.00130187
0.00129866
0.00129196
0.00128136
0.00126704
0.00124896
0.00122653
0.00119883
0.00116851
0.00113769
0.00110877
0.00108375
0.00106362
0.00104825
0.00103644
0.00102631
0.00101552
0.0010039
0.000991417
0.000978227
0.000965664
0.00156638
0.00156141
0.00156329
0.00157165
0.00158079
0.00158807
0.00159377
0.00159816
0.0016013
0.00160252
0.00159896
0.00159476
0.00158916
0.00158292
0.0015753
0.00156699
0.00155501
0.00154284
0.00153091
0.00152051
0.00151185
0.00150532
0.00150075
0.00149763
0.00149429
0.00148633
0.00147769
0.00146942
0.00146228
0.001454
0.000167772
0.000174498
0.000173307
0.000169138
0.000163164
0.000156236
0.000148963
0.000141764
0.000134909
0.000128628
0.000123046
0.000118277
0.000114356
0.00011143
0.00010953
0.000108888
0.000109591
0.000111801
0.000115517
0.000120349
0.000125345
0.000129411
0.000131673
0.000131449
0.00012833
0.000121943
0.000112385
9.86498e-05
0.000404337
0.000394117
0.000646997
0.000716113
0.000695906
0.000645006
0.000588599
0.000535193
0.000486983
0.000444389
0.000406937
0.000374897
0.000347884
0.000326092
0.000309388
0.000298775
0.000293971
0.000297157
0.00030712
0.000323133
0.000341015
0.00035766
0.000372117
0.000384675
0.000394713
0.000398023
0.000390565
0.000372163
0.000345058
0.000309424
0.000291757
0.000313554
0.000957447
0.00108863
0.00109229
0.0010473
0.000982368
0.000911749
0.000842924
0.000779708
0.000722652
0.000673062
0.000631145
0.000597983
0.000574018
0.000561769
0.000561715
0.000579029
0.000608872
0.000645986
0.000679108
0.000701329
0.000714265
0.000722329
0.000727999
0.00072425
0.000706467
0.000670132
0.000618352
0.000549519
0.000485791
0.000458609
0.00105291
0.00122162
0.00128413
0.00127168
0.00122261
0.00115568
0.00108539
0.00101914
0.000956777
0.000901599
0.000855213
0.000820213
0.000797933
0.000792473
0.000806773
0.000848681
0.000907841
0.000971714
0.00102006
0.00104625
0.0010555
0.00105611
0.00105335
0.00103922
0.0010083
0.000955242
0.000882618
0.000787924
0.000691721
0.000630864
0.00104052
0.00122341
0.00131712
0.00133986
0.0013198
0.00127586
0.00121959
0.00115752
0.00109961
0.00104856
0.00100604
0.000977588
0.000964123
0.000971892
0.00100843
0.00108233
0.00117685
0.00127055
0.00133708
0.00136904
0.00137488
0.00136808
0.00135565
0.00133082
0.00128744
0.0012209
0.00113247
0.00101953
0.000899764
0.000814128
0.000971089
0.00111198
0.00121443
0.00126817
0.00128344
0.00127179
0.00124217
0.00120289
0.00116007
0.0011215
0.00109239
0.00107417
0.00107492
0.00110142
0.00116646
0.0012775
0.0014126
0.00153683
0.00162131
0.00166011
0.00166454
0.00165156
0.00163094
0.00159635
0.00154255
0.00146572
0.00136587
0.00124116
0.00110548
0.00100162
0.000907391
0.000997861
0.00108518
0.00114745
0.00118285
0.0011946
0.00118857
0.00117051
0.00114722
0.00112876
0.00111765
0.00111721
0.00113698
0.00118641
0.00128412
0.00143682
0.00161582
0.00177165
0.00187322
0.00191938
0.0019242
0.00190661
0.00187929
0.00183601
0.00177423
0.00168991
0.00158232
0.00145024
0.00130502
0.00118763
0.000888607
0.000926813
0.000979143
0.00102967
0.00107048
0.00109558
0.00110639
0.00110658
0.00110027
0.0010949
0.00109538
0.00111413
0.00115589
0.00123193
0.00136584
0.00156349
0.00178633
0.00197728
0.00209607
0.00214995
0.00215604
0.00213529
0.00210246
0.00205216
0.00198399
0.00189437
0.00178204
0.00164664
0.00149597
0.00136799
0.000908919
0.000901194
0.000919509
0.000948435
0.000980414
0.00100684
0.00102482
0.00103535
0.00104112
0.00104642
0.0010567
0.00108186
0.00113846
0.00124302
0.0014155
0.00166052
0.00192579
0.00215248
0.00229168
0.0023532
0.00236174
0.00233988
0.00230311
0.00224726
0.00217399
0.00208068
0.00196589
0.00183003
0.0016782
0.00154197
0.000981118
0.000935579
0.000918522
0.000922827
0.000937011
0.000954237
0.000968795
0.00098038
0.000989979
0.000999827
0.00101503
0.001044
0.0011021
0.00122488
0.00143696
0.00173091
0.00203992
0.00229832
0.00246034
0.00253133
0.00254347
0.00252173
0.00248334
0.00242456
0.00234672
0.00225082
0.00213513
0.00200211
0.00185106
0.00170819
0.00112271
0.00105224
0.00100506
0.000978243
0.000965547
0.000961104
0.000960653
0.000962716
0.000965947
0.000971613
0.000984055
0.00101141
0.0010676
0.00119237
0.00143451
0.00177789
0.00212703
0.00241479
0.00260051
0.00268566
0.00270214
0.00268191
0.0026453
0.00258573
0.00250555
0.00240694
0.00229243
0.00216036
0.00201123
0.00186518
0.00133919
0.00126174
0.00119092
0.00113271
0.00108774
0.00105323
0.00102597
0.00100463
0.000988901
0.000979037
0.000978547
0.000995666
0.00104389
0.0011623
0.00141822
0.00180543
0.0021958
0.00250677
0.0027134
0.00281627
0.00284129
0.00282574
0.00279166
0.00273209
0.00265081
0.00255132
0.00243657
0.00230583
0.00215975
0.00201304
0.00162147
0.0015498
0.00146939
0.00138895
0.00131386
0.00124534
0.00118276
0.0011267
0.00107821
0.00103949
0.00101402
0.00100991
0.00104138
0.00114932
0.00140125
0.00181654
0.00225245
0.00258609
0.00280729
0.00292647
0.00296549
0.00295505
0.00292421
0.00286571
0.00278411
0.00268559
0.00256944
0.00244042
0.00229777
0.00215353
0.00194732
0.00189193
0.00181302
0.00172142
0.00162458
0.00152624
0.00142872
0.00133418
0.0012451
0.0011662
0.00110379
0.0010671
0.00107162
0.00115839
0.00139571
0.00182175
0.00229123
0.00265633
0.00289258
0.00302336
0.00307589
0.00307127
0.00304438
0.00298761
0.00290695
0.00280906
0.00269339
0.00256609
0.00242681
0.00228746
0.00228778
0.00225483
0.00218738
0.00209382
0.00198568
0.00186713
0.00174173
0.0016129
0.00148447
0.00136238
0.00125547
0.00117716
0.00114605
0.00120181
0.00141244
0.00183165
0.00231543
0.00271433
0.00297242
0.00311359
0.00317352
0.00317651
0.00315352
0.00309977
0.00302168
0.00292417
0.00281015
0.00268487
0.00254888
0.0024149
0.00261881
0.00260538
0.00255743
0.00247405
0.00236405
0.00223614
0.00209329
0.00193938
0.0017787
0.00161807
0.00146753
0.00134379
0.00127037
0.00128782
0.00146592
0.00186282
0.00233837
0.00275859
0.00304067
0.0031991
0.00326556
0.0032714
0.00325281
0.00320356
0.00312829
0.00303273
0.00292143
0.00279862
0.00266608
0.00253743
0.00293648
0.00293828
0.00290604
0.00283783
0.00273499
0.00260725
0.00245705
0.00228825
0.00210518
0.00191482
0.00172783
0.0015619
0.00144489
0.00142031
0.00155795
0.00191327
0.00237548
0.0027927
0.00309396
0.00326905
0.00334971
0.00336156
0.00334429
0.00330051
0.0032279
0.00313605
0.00302864
0.00290914
0.00278146
0.00266001
0.00323401
0.00324697
0.00322755
0.00317217
0.00308207
0.00296037
0.00281027
0.00263519
0.00243928
0.00222927
0.00201566
0.00181625
0.00166062
0.00159692
0.00168644
0.00199166
0.00242225
0.00282375
0.0031332
0.00332496
0.0034196
0.00344222
0.00342826
0.00338999
0.00331926
0.00323326
0.00313263
0.00301926
0.0028978
0.00278319
0.00350257
0.00352401
0.00351393
0.00346895
0.00339049
0.00327741
0.0031316
0.00295602
0.00275471
0.0025339
0.00230387
0.00208193
0.00189739
0.00179936
0.00184357
0.00209156
0.0024719
0.00286419
0.00316371
0.00336546
0.00347493
0.00351179
0.00350626
0.00347506
0.00340852
0.0033304
0.00323763
0.00313081
0.00301573
0.00290764
0.00374264
0.00376024
0.00375329
0.00371496
0.00364464
0.00353912
0.00339832
0.00322466
0.0030221
0.00279675
0.00255889
0.00232502
0.00212339
0.00199956
0.0020059
0.00219648
0.00252273
0.00288431
0.00318509
0.00339505
0.00352093
0.00357681
0.00357647
0.00355177
0.00349908
0.00343169
0.00334601
0.00324549
0.00313686
0.0030335
0.0039553
0.00396285
0.00395007
0.00391001
0.00384083
0.00373755
0.00359979
0.00342857
0.00322694
0.00300046
0.00275937
0.0025197
0.00230788
0.00216483
0.00213793
0.00227744
0.0025519
0.00287735
0.0031708
0.00338908
0.00352627
0.00359476
0.00361141
0.00360414
0.00356901
0.00351471
0.00344075
0.00335163
0.00325249
0.00315389
0.00413483
0.00412859
0.00410538
0.00405863
0.00398476
0.00387952
0.00374168
0.00357066
0.0033684
0.00314015
0.00289645
0.00265307
0.00243408
0.00227504
0.00221566
0.00230345
0.00252539
0.0028139
0.00309145
0.00331427
0.00346881
0.00355949
0.00360008
0.00361247
0.00359934
0.00356394
0.00350777
0.00343301
0.00334595
0.00325889
0.00426967
0.00424686
0.00421036
0.00415291
0.00407082
0.00396078
0.00381985
0.00364594
0.00344043
0.00320893
0.00296285
0.00271767
0.00249418
0.00232081
0.00223136
0.00225962
0.00242288
0.00266495
0.00292042
0.00314502
0.0033179
0.00343627
0.00350892
0.00355055
0.0035672
0.00355882
0.00352853
0.00347705
0.00340881
0.00333746
0.00433974
0.00429942
0.00424686
0.0041763
0.00408596
0.00397041
0.00382492
0.00364678
0.00343832
0.00320687
0.00296468
0.00272617
0.0025067
0.00232661
0.00221296
0.00218297
0.00226638
0.00244057
0.00265212
0.00286249
0.00304647
0.00319285
0.0033022
0.00338331
0.00343732
0.00346496
0.00347001
0.00345376
0.00341445
0.00336341
0.00431238
0.004256
0.00418916
0.00411089
0.00401644
0.00389913
0.00375316
0.00357719
0.00337672
0.00316077
0.00294079
0.00272881
0.0025315
0.00236163
0.00223822
0.00216523
0.00216576
0.0022445
0.00237239
0.00252775
0.00268903
0.00284047
0.00297318
0.00308554
0.00317593
0.00324373
0.00329034
0.0033167
0.00331986
0.00329853
0.00414538
0.00408545
0.00402181
0.00395055
0.003866
0.00376122
0.00363188
0.00347978
0.00331272
0.00313811
0.00296339
0.00279559
0.00263861
0.00249754
0.00238372
0.00229133
0.00223053
0.00221835
0.00224732
0.00231025
0.00239769
0.00249973
0.00260709
0.00271299
0.00281175
0.00289941
0.002974
0.00303428
0.00307679
0.00309439
0.00385073
0.00381437
0.00377934
0.00374033
0.00368832
0.00361685
0.00352511
0.00341723
0.00330075
0.00318139
0.00306237
0.00294405
0.00282839
0.00272156
0.00262947
0.00254225
0.00245996
0.00239915
0.00236032
0.00234402
0.00234919
0.00237357
0.00241333
0.00246386
0.0025202
0.0025782
0.00263495
0.00268811
0.00273433
0.00277299
0.00356393
0.00356147
0.00357069
0.00357839
0.00356848
0.00353704
0.0034873
0.00342214
0.00334879
0.00327192
0.00319331
0.00311349
0.00303186
0.00295339
0.00288487
0.00281623
0.00274458
0.0026799
0.00262415
0.00257957
0.00254725
0.00252736
0.00251892
0.00251961
0.00252613
0.00253574
0.00254718
0.00256009
0.00257341
0.00259808
0.00338968
0.00339927
0.0034262
0.00345271
0.00346495
0.00346008
0.00343907
0.00340342
0.00335852
0.00330854
0.00325371
0.00319575
0.00313576
0.00307742
0.00302446
0.00297232
0.00292185
0.00287461
0.00283408
0.00280179
0.00277917
0.00276589
0.00276098
0.00276213
0.00276621
0.00277061
0.00277522
0.0027813
0.00278848
0.00280586
0.00328089
0.00330064
0.0033272
0.00334887
0.00335791
0.00335439
0.00334021
0.00331739
0.0032882
0.00325506
0.00321649
0.00317523
0.00313154
0.0030896
0.00304786
0.00301201
0.00298169
0.00295671
0.0029394
0.00293137
0.00293329
0.0029449
0.00296304
0.00298471
0.00300679
0.00302678
0.0030466
0.00306683
0.00308092
0.00308597
0.000199712
0.000205743
0.000202612
0.000197003
0.000189612
0.0001812
0.000172418
0.000163751
0.000155542
0.000148054
0.000141399
0.000135734
0.000131122
0.000127806
0.000125854
0.000125621
0.000127181
0.000130869
0.000136964
0.000144905
0.000152857
0.000158987
0.000162211
0.000161883
0.00015767
0.00014913
0.000136062
0.000117027
9.24443e-05
8.62307e-05
0.000827531
0.000938255
0.000940898
0.000883265
0.00081054
0.000739512
0.000675532
0.000619342
0.000570609
0.000529316
0.000494851
0.000468115
0.000448378
0.000437462
0.000433625
0.000440281
0.000452329
0.000470164
0.000490351
0.000512491
0.00053669
0.000560446
0.000579481
0.000584874
0.000569674
0.000531662
0.000478505
0.000411966
0.000352618
0.000310657
0.00128089
0.00147758
0.00152317
0.00147759
0.00139582
0.0013029
0.00121154
0.00112701
0.00105166
0.000986977
0.000933347
0.000893282
0.000867062
0.000858966
0.000867557
0.00089872
0.000936547
0.000974094
0.00100057
0.00101792
0.00103622
0.00105582
0.00107343
0.00107039
0.001034
0.000967922
0.000870914
0.000746496
0.000625649
0.000537121
0.00155789
0.00179188
0.00186858
0.00184972
0.00178309
0.00169348
0.00159825
0.00150527
0.00142097
0.00134775
0.00128803
0.00124654
0.00122556
0.00123171
0.00126705
0.00133625
0.0014086
0.00146622
0.00149341
0.00150362
0.00151078
0.00151645
0.00152355
0.00150801
0.00145897
0.00136826
0.00123951
0.00107446
0.000904586
0.000770086
0.00168986
0.00191324
0.00202145
0.00204016
0.00200246
0.00192744
0.00184208
0.00175344
0.00167445
0.00160405
0.0015485
0.00151549
0.00150909
0.00153864
0.0016123
0.00172774
0.00183631
0.00191049
0.0019361
0.00193235
0.00192327
0.00191895
0.001916
0.00189254
0.00183197
0.00172666
0.00157867
0.00138772
0.00118446
0.00101319
0.00176534
0.00194956
0.00205337
0.00209002
0.0020785
0.00203157
0.00196786
0.00189911
0.00182588
0.0017664
0.0017234
0.00170838
0.00172421
0.00178703
0.00190876
0.00207546
0.00221908
0.00230368
0.00232369
0.00230866
0.00228547
0.00226806
0.00225656
0.002225
0.00215784
0.0020455
0.00188814
0.00168418
0.00145986
0.00126063
0.00177115
0.0018795
0.00196386
0.00201238
0.0020272
0.00201325
0.00197863
0.00193489
0.00188818
0.00184858
0.00182927
0.00183479
0.00187958
0.00198621
0.00216316
0.00238397
0.0025613
0.00264996
0.0026614
0.00263504
0.00260104
0.00257276
0.00255117
0.00251328
0.00244253
0.00232843
0.00216927
0.00196277
0.001729
0.0015084
0.00172176
0.00177017
0.00182644
0.00187462
0.00190581
0.00191617
0.00190861
0.00188973
0.00187029
0.00185854
0.00186731
0.00190446
0.00198436
0.00214333
0.00238192
0.00265827
0.00286606
0.00295444
0.00295593
0.00291903
0.00287544
0.00283909
0.00280765
0.00276547
0.00269348
0.00258019
0.00242448
0.00222424
0.00198858
0.00175236
0.00168977
0.00167799
0.00169881
0.00173208
0.00176607
0.00179092
0.00180377
0.00180771
0.00180987
0.00181934
0.0018526
0.00192405
0.00204644
0.00226594
0.00257088
0.00290216
0.00313574
0.00322219
0.00321395
0.00316805
0.0031165
0.00307366
0.00303519
0.00298761
0.00291531
0.00280602
0.00265822
0.00246399
0.0022306
0.00198781
0.00170088
0.00163305
0.00161526
0.00162217
0.00164472
0.00167159
0.00169548
0.00171535
0.00173491
0.00176211
0.00181155
0.00190712
0.00207426
0.0023567
0.00273496
0.0031188
0.00337257
0.00345807
0.00344145
0.00338894
0.00333152
0.00328369
0.00323887
0.00318626
0.00311328
0.00301072
0.00286789
0.0026813
0.00245504
0.00221283
0.00178697
0.0016895
0.00161188
0.00157855
0.00157719
0.00159352
0.00161599
0.00164056
0.00166892
0.0017072
0.00176845
0.00187787
0.00207865
0.00243198
0.00288053
0.00331143
0.00357989
0.00366595
0.00364406
0.00358803
0.00352759
0.00347471
0.00342448
0.00336721
0.00329294
0.00319451
0.00305619
0.00287912
0.00266378
0.00242865
0.00192166
0.00180071
0.00169728
0.0016305
0.00159736
0.00159105
0.00159783
0.00161326
0.00163803
0.00167645
0.0017412
0.00185843
0.00208146
0.0024979
0.00301274
0.00348315
0.00376122
0.00385
0.00382763
0.00377175
0.00370823
0.00365213
0.0035969
0.00353538
0.00346017
0.00336142
0.00322955
0.00306168
0.00285805
0.0026365
0.00213789
0.00201876
0.0018998
0.0018037
0.00173675
0.00169565
0.00167026
0.00166152
0.00166826
0.00169213
0.00174851
0.00186503
0.00210522
0.00256757
0.00313682
0.00363397
0.00392051
0.00401481
0.00399776
0.0039408
0.00387522
0.00381977
0.00376021
0.00369468
0.00361708
0.00351854
0.00339193
0.00323327
0.00304185
0.00283577
0.00244722
0.00233335
0.00221166
0.00209909
0.00200302
0.00192269
0.00185661
0.00180814
0.00177939
0.00177342
0.00180746
0.00191557
0.00216732
0.00265082
0.00325691
0.00376858
0.00405986
0.00416165
0.00415249
0.0040951
0.00403658
0.00398112
0.00391833
0.00384892
0.00376919
0.00367102
0.00354887
0.00339914
0.0032219
0.00303005
0.00281785
0.00272145
0.00260975
0.00249349
0.00237526
0.0022591
0.00214956
0.00205463
0.00198044
0.00193416
0.00193356
0.00201839
0.00225637
0.00274063
0.00337527
0.00388888
0.00417993
0.00429098
0.00429125
0.00424444
0.00419181
0.00413794
0.00407324
0.00400189
0.00392063
0.00382321
0.0037065
0.0035669
0.00340077
0.00322197
0.0032299
0.00315543
0.00306036
0.00294441
0.00281106
0.00266743
0.00252035
0.0023815
0.00226053
0.00216857
0.00212879
0.00217982
0.00241415
0.00288211
0.00349662
0.00399556
0.00428286
0.00440392
0.00442204
0.00438753
0.00434196
0.00429124
0.00422664
0.00415556
0.00407526
0.00398053
0.00387243
0.00373906
0.00358116
0.00341353
0.00366072
0.0036075
0.00352407
0.00340877
0.00326678
0.00310466
0.00292985
0.00275507
0.00259235
0.00245699
0.00237757
0.00239237
0.00260059
0.00303984
0.00361523
0.00409038
0.00436961
0.004501
0.00454208
0.00452077
0.00448493
0.00443948
0.00437764
0.00431065
0.00423901
0.00415752
0.00405068
0.00391822
0.0037642
0.00360421
0.00408822
0.00404749
0.00397085
0.00385637
0.00370915
0.00353472
0.00334064
0.00313868
0.00294196
0.0027693
0.00265264
0.00263235
0.00280091
0.00319839
0.00371824
0.00416143
0.00443904
0.00457903
0.00463661
0.00463779
0.00461548
0.00457728
0.00452474
0.00447019
0.00441035
0.00433379
0.00423084
0.00410059
0.00394837
0.00379478
0.00449385
0.00445546
0.00438026
0.00426459
0.00411293
0.00392972
0.00372167
0.00349917
0.00327583
0.00307196
0.00292114
0.00286705
0.00298148
0.0033289
0.003784
0.00419279
0.00447006
0.00462964
0.00470596
0.00472491
0.00472085
0.00469394
0.00465281
0.00460743
0.00455531
0.00448952
0.00439668
0.00427535
0.00412982
0.00398339
0.0048579
0.00481452
0.00473535
0.00461571
0.004459
0.00426829
0.00404901
0.00380993
0.00356442
0.0033332
0.00314985
0.00305944
0.00311345
0.00339837
0.00378518
0.00415994
0.00443881
0.00461851
0.0047182
0.0047611
0.00477601
0.00476716
0.00474062
0.00470569
0.00466232
0.00460681
0.00452901
0.00442553
0.00429685
0.00416263
0.00516132
0.00510794
0.00502067
0.00489462
0.0047318
0.00453369
0.00430405
0.00405006
0.00378447
0.00352791
0.00331292
0.00318253
0.00317871
0.00338459
0.00370163
0.00403784
0.00431546
0.00451028
0.00463323
0.00470713
0.00474973
0.00476797
0.00476471
0.00474886
0.00472183
0.00468074
0.00461893
0.00453202
0.00442667
0.00431136
0.00538415
0.00531714
0.00521965
0.00508619
0.00491696
0.00471162
0.00447233
0.00420481
0.00392158
0.00364339
0.00340143
0.00323447
0.00317841
0.00329631
0.00354353
0.00382773
0.00408557
0.00428277
0.00442996
0.00453547
0.00461355
0.0046654
0.00469424
0.00470751
0.00470688
0.00468973
0.00465113
0.00458621
0.00450584
0.00441783
0.00550425
0.00542207
0.00531481
0.00517511
0.00500116
0.00479082
0.00454527
0.00426921
0.00397611
0.00368751
0.00343281
0.00324407
0.00314986
0.00319065
0.00336126
0.00357815
0.00378467
0.00396635
0.00411977
0.00424892
0.00435629
0.00444016
0.00450447
0.0045536
0.00458804
0.0046046
0.00459898
0.00456479
0.00451469
0.00445879
0.00549866
0.0054043
0.00529141
0.00515056
0.00497791
0.00476988
0.00452835
0.0042569
0.00397167
0.00369514
0.00345259
0.00326671
0.00315569
0.00314512
0.00324005
0.00337584
0.00351245
0.00364796
0.0037802
0.00390157
0.00401293
0.00411236
0.00420101
0.00428032
0.00434869
0.00440155
0.00443351
0.00444016
0.00442344
0.00439625
0.00535459
0.00525593
0.00514825
0.0050182
0.00486024
0.00466981
0.00444842
0.00420484
0.00395576
0.00372047
0.00351671
0.00335679
0.0032521
0.0032148
0.00324879
0.00330729
0.00337246
0.00344348
0.00352012
0.00360007
0.00368222
0.0037651
0.00384878
0.00393306
0.0040151
0.00408907
0.00414801
0.00418717
0.00420489
0.00420141
0.00509298
0.00500163
0.00491276
0.0048112
0.00468875
0.00453918
0.00436447
0.00417505
0.00398553
0.00380947
0.00365704
0.00353421
0.00344596
0.00339734
0.00338958
0.00339246
0.00339662
0.00340543
0.00342208
0.00344699
0.00347939
0.00351935
0.00356734
0.00362357
0.0036855
0.0037477
0.00380289
0.00384614
0.0038748
0.0038865
0.00477999
0.00471682
0.0046665
0.00461594
0.00454955
0.00445645
0.00434015
0.00421122
0.00408101
0.0039587
0.00384975
0.00375734
0.00368346
0.00363008
0.00359545
0.00356196
0.00352521
0.0034928
0.00346923
0.00345495
0.00344724
0.00344767