/*--------------------------------*- C++ -*----------------------------------*\
  =========                 |
  \\      /  F ield         | OpenFOAM: The Open Source CFD Toolbox
   \\    /   O peration     | Website:  https://openfoam.org
    \\  /    A nd           | Version:  12
     \\/     M anipulation  |
\*---------------------------------------------------------------------------*/
FoamFile
{
    format      ascii;
    class       volScalarField;
    location    "1250/air";
    object      epsilon;
}
// * * * * * * * * * * * * * * * * * * * * * * * * * * * * * * * * * * * * * //

dimensions      [0 2 -3 0 0 0 0];

internalField   nonuniform List<scalar> 
243000
(
1.7087
2.20468
2.52955
2.75933
2.89632
2.95485
2.95191
2.90264
2.81936
2.71216
2.58894
2.46017
2.33064
2.20677
2.0894
1.98581
0.45808
1.87858
1.84534
1.84003
1.83908
1.80637
1.71209
1.5436
1.3138
1.0478
0.788154
0.157019
0.135537
0.108672
1.00791
1.23287
1.36638
1.42898
1.44072
1.41728
1.37057
1.30933
1.23983
1.16715
1.09498
1.02689
0.964739
0.911869
0.869929
0.844258
0.839356
0.860953
0.904527
0.961695
1.01488
1.04392
1.0328
0.972485
0.866609
0.727437
0.5771
0.422005
0.2999
0.19673
0.843638
1.08877
1.212
1.25352
1.23905
1.19122
1.1252
1.05088
0.974809
0.90151
0.833699
0.773674
0.722647
0.683176
0.656821
0.648992
0.663729
0.705703
0.771484
0.85138
0.92866
0.985822
1.00879
0.987305
0.919647
0.811996
0.68068
0.531922
0.392384
0.261035
0.648059
0.932221
1.11455
1.20526
1.23002
1.21043
1.16353
1.10235
1.03593
0.969374
0.906707
0.850522
0.803211
0.768601
0.749675
0.754695
0.789234
0.858585
0.956817
1.06916
1.17358
1.24965
1.28269
1.26243
1.18674
1.06247
0.906815
0.727426
0.550905
0.380584
0.533472
0.718859
0.890536
1.01086
1.07964
1.10149
1.08968
1.05643
1.01281
0.965994
0.918482
0.875305
0.839602
0.816519
0.810788
0.833805
0.892745
0.993161
1.12573
1.2702
1.39964
1.4918
1.53253
1.51284
1.43105
1.29492
1.1214
0.920219
0.71624
0.517708
0.546088
0.609274
0.72754
0.834591
0.910065
0.949863
0.960052
0.94866
0.929527
0.906112
0.87961
0.854744
0.835372
0.828121
0.839813
0.884457
0.971577
1.10579
1.2738
1.44986
1.60281
1.70921
1.7562
1.73674
1.65038
1.50605
1.32024
1.10462
0.881564
0.662824
0.671881
0.636414
0.660113
0.720045
0.780498
0.823932
0.84643
0.850605
0.843424
0.830407
0.813832
0.803706
0.799744
0.808719
0.838848
0.906807
1.02387
1.19393
1.39804
1.60517
1.7806
1.90028
1.95293
1.93382
1.84428
1.69455
1.50098
1.27669
1.04153
0.809134
0.844522
0.799026
0.743347
0.723573
0.734339
0.755057
0.771211
0.778171
0.776415
0.769093
0.758382
0.750039
0.749314
0.768021
0.813179
0.902883
1.04904
1.25529
1.49632
1.73416
1.93162
2.06437
2.1228
2.1047
2.01336
1.86052
1.66277
1.43419
1.19266
0.95191
1.04424
1.00717
0.955366
0.890075
0.832538
0.799268
0.780041
0.766162
0.752777
0.738917
0.724697
0.713012
0.708294
0.721422
0.771838
0.87719
1.05045
1.28879
1.56627
1.83561
2.05509
2.20137
2.26639
2.25048
2.15889
2.00493
1.80576
1.57627
1.33312
1.088
1.26653
1.23939
1.19717
1.14257
1.0723
0.986478
0.915087
0.856301
0.807516
0.766491
0.732173
0.705283
0.68839
0.689471
0.728101
0.837203
1.02873
1.29753
1.60637
1.90736
2.15053
2.31143
2.38446
2.37246
2.2824
2.12922
1.93086
1.7033
1.46157
1.21535
1.51245
1.49284
1.45763
1.40863
1.34487
1.26447
1.15745
1.05347
0.958313
0.873677
0.801188
0.742695
0.700611
0.680946
0.698837
0.793478
0.990664
1.28237
1.62073
1.94916
2.21693
2.3947
2.47781
2.47192
2.38549
2.23497
2.03951
1.81555
1.57708
1.33262
1.78427
1.76902
1.73682
1.68879
1.6244
1.54285
1.4422
1.31233
1.18161
1.05463
0.937241
0.835519
0.755246
0.703575
0.693667
0.757434
0.944243
1.24553
1.61001
1.96468
2.25464
2.45149
2.54721
2.54998
2.46956
2.32378
2.13316
1.91358
1.67986
1.43944
2.08346
2.06878
2.0357
1.98475
1.91545
1.8274
1.72041
1.59242
1.43778
1.28013
1.12463
0.979657
0.855262
0.762837
0.716878
0.745124
0.900363
1.19543
1.57455
1.95463
2.26727
2.48222
2.59358
2.60755
2.53583
2.39727
2.21233
1.99857
1.77067
1.53627
2.40976
2.39166
2.35402
2.29686
2.21954
2.12163
2.00339
1.865
1.69924
1.52257
1.33979
1.15958
0.994051
0.858536
0.770911
0.759435
0.868483
1.14035
1.51984
1.91829
2.25506
2.4903
2.6176
2.64557
2.58526
2.45611
2.27879
2.07199
1.85058
1.62347
2.76173
2.73577
2.69017
2.62405
2.53642
2.42658
2.29461
2.14134
1.96649
1.77126
1.56672
1.35927
1.16
0.984913
0.854846
0.800834
0.863295
1.09092
1.45458
1.86049
2.21731
2.4753
2.62193
2.66535
2.61915
2.50152
2.33379
2.13518
1.92094
1.70172
3.13749
3.09898
3.04207
2.96473
2.86511
2.74209
2.5953
2.42549
2.23407
2.02307
1.79969
1.56971
1.34307
1.13421
0.964939
0.868359
0.884112
1.05511
1.38686
1.78722
2.15767
2.43713
2.60581
2.66753
2.6379
2.53443
2.37836
2.18942
1.98318
1.77225
3.53628
3.48112
3.40939
3.3184
3.20535
3.06837
2.90637
2.71956
2.50978
2.28305
2.04093
1.78946
1.53846
1.30049
1.09655
0.9598
0.930125
1.04732
1.32707
1.70644
2.08087
2.37832
2.56929
2.65263
2.64139
2.5553
2.41333
2.23582
2.03869
1.83651
3.95963
3.88357
3.79374
3.68671
3.55899
3.40748
3.23018
3.02656
2.79977
2.55757
2.29596
2.02202
1.74664
1.48149
1.2463
1.07269
0.999597
1.06453
1.28415
1.6268
1.99362
2.30301
2.51491
2.62169
2.63107
2.5645
2.43928
2.27529
2.08874
1.89593
4.41152
4.30943
4.19915
4.07476
3.93173
3.76587
3.57398
3.3553
3.1207
2.85981
2.57579
2.27617
1.97344
1.6797
1.41396
1.20563
1.09104
1.10698
1.271
1.56038
1.90428
2.2166
2.44588
2.57586
2.60837
2.56262
2.45692
2.30871
2.13455
1.95203
4.88334
4.76476
4.63683
4.4961
4.33923
4.16174
3.95962
3.73493
3.4929
3.21409
2.90326
2.57125
2.23358
1.90497
1.60446
1.36052
1.20511
1.17359
1.28438
1.52071
1.82843
2.12871
2.36734
2.51759
2.57435
2.55134
2.467
2.33687
2.17712
2.00615
5.36594
5.23141
5.09222
4.94404
4.78271
4.60348
4.40448
4.19035
3.93185
3.62952
3.28813
2.9198
2.54225
2.17324
1.83236
1.54684
1.34628
1.26564
1.32316
1.5086
1.775
2.0561
2.2937
2.45513
2.53173
2.53176
2.46976
2.36002
2.21707
2.05945
5.85473
5.7047
5.55571
5.40379
5.24436
5.08042
4.90083
4.67753
4.40581
4.08497
3.71835
3.31803
2.90199
2.49111
2.10672
1.77663
1.52512
1.38791
1.39064
1.52319
1.74502
2.00022
2.23096
2.39975
2.49257
2.51079
2.4675
2.37854
2.25461
2.11279
6.34493
6.18245
6.02808
5.8857
5.74947
5.59483
5.40779
5.17849
4.89997
4.56917
4.18699
3.76417
3.31666
2.86685
2.43749
2.05859
1.75244
1.54891
1.49072
1.56597
1.74228
1.96427
2.18128
2.35245
2.45778
2.49315
2.46728
2.39473
2.29045
2.16701
6.83535
6.67728
6.53957
6.40428
6.25941
6.09676
5.90632
5.67749
5.40082
5.07095
4.68584
4.25422
3.78724
3.30684
2.83458
2.40342
2.03594
1.76142
1.63199
1.64557
1.76869
1.95427
2.14953
2.31653
2.42958
2.47949
2.46983
2.41281
2.32582
2.22227
7.31939
7.16045
7.01229
6.86807
6.71893
6.55592
6.36838
6.146
5.87875
5.55998
5.18483
4.76009
4.28994
3.79428
3.28813
2.8087
2.37816
2.02965
1.83044
1.77663
1.84013
1.97988
2.14852
2.30295
2.41637
2.47525
2.47927
2.43618
2.36198
2.27862
7.72455
7.5555
7.39862
7.24638
7.09074
6.92604
6.74201
6.52864
6.27499
5.97379
5.61825
5.21295
4.75766
4.26832
3.7476
3.24808
2.78955
2.39989
2.13186
2.00158
1.99489
2.07558
2.20141
2.33166
2.43563
2.49536
2.50767
2.47488
2.40927
2.33873
8.1286
7.91797
7.72738
7.55539
7.39765
7.24806
7.09682
6.93109
6.7359
6.49761
6.20397
5.85089
5.43722
4.97619
4.47279
3.95972
3.46263
3.01372
2.66407
2.43962
2.33917
2.33857
2.39877
2.48206
2.55644
2.60074
2.60738
2.57446
2.51004
2.43467
8.89052
8.67489
8.47384
8.29996
8.15799
8.04445
7.94934
7.85575
7.74329
7.59188
7.38126
7.10154
6.74803
6.3288
5.85569
5.33684
4.79082
4.26549
3.8084
3.45595
3.22086
3.09226
3.04132
3.03388
3.03728
3.02728
2.99222
2.92865
2.84088
2.74762
10.6429
10.4486
10.2895
10.2037
10.1895
10.2299
10.3015
10.3762
10.4287
10.4322
10.3495
10.184
9.92941
9.59521
9.18615
8.69772
8.12178
7.52424
6.95024
6.44198
6.02501
5.70413
5.46692
5.28763
5.13476
4.97289
4.80094
4.62041
4.43487
4.26322
18.1041
17.9305
17.996
18.2863
18.6043
18.859
19.059
19.2126
19.3214
19.3611
19.2276
19.0707
18.8661
18.6408
18.3696
18.0786
17.6672
17.2571
16.8626
16.5248
16.2481
16.0422
15.8985
15.7997
15.6969
15.445
15.1736
14.9152
14.694
14.4443
3.49048
4.5738
5.1988
5.57974
5.74977
5.75452
5.63957
5.44474
5.20115
4.93726
4.67217
4.42388
4.19936
4.01676
3.88141
3.817
3.82952
3.93851
4.13981
4.39059
4.5849
4.60202
4.36831
3.8752
3.18522
2.39478
1.63205
0.956107
0.604801
0.516745
2.50158
2.87338
3.09176
3.2028
3.20754
3.12414
2.97978
2.80008
2.60722
2.41726
2.24164
2.08859
1.96295
1.87173
1.82313
1.83099
1.9064
2.05955
2.29054
2.57153
2.82783
2.96949
2.93861
2.72737
2.37053
1.91507
1.43305
0.961426
0.581812
0.351859
2.21426
2.51805
2.67729
2.743
2.72834
2.64363
2.50983
2.34703
2.17352
2.00415
1.84922
1.71594
1.60881
1.53483
1.50239
1.52673
1.61973
1.79011
2.03304
2.32349
2.59637
2.77352
2.79959
2.6634
2.38289
2.00388
1.58306
1.15098
0.778428
0.490851
1.9462
2.2362
2.39742
2.46689
2.46398
2.39675
2.28196
2.14027
1.98793
1.83865
1.70237
1.58596
1.49427
1.43501
1.41747
1.45893
1.57086
1.76035
2.01927
2.31611
2.59
2.77395
2.82063
2.71801
2.47893
2.13958
1.75072
1.33549
0.963178
0.649675
1.56671
1.86453
2.06125
2.16004
2.18641
2.14962
2.06466
1.952
1.82709
1.70261
1.58818
1.49159
1.41841
1.37749
1.37891
1.44194
1.57757
1.78902
2.06178
2.36205
2.63311
2.81479
2.87044
2.78645
2.57478
2.26349
1.89866
1.49899
1.12979
0.804636
1.158
1.3887
1.59775
1.73788
1.81215
1.82567
1.79029
1.72292
1.63579
1.54474
1.45965
1.38835
1.3375
1.31807
1.34259
1.43147
1.59397
1.83001
2.11792
2.42089
2.68631
2.86197
2.91872
2.84531
2.65264
2.36432
2.02017
1.63798
1.27633
0.949308
0.881517
1.01437
1.18977
1.33388
1.4307
1.47696
1.4799
1.45051
1.40179
1.35193
1.30415
1.26393
1.24042
1.24616
1.29616
1.41449
1.60582
1.86809
2.1714
2.47663
2.73504
2.90309
2.95739
2.89019
2.71071
2.44151
2.11629
1.75376
1.40317
1.08083
0.779792
0.826426
0.923972
1.02947
1.12214
1.18139
1.20704
1.20653
1.18591
1.15855
1.13135
1.12064
1.12687
1.15976
1.23797
1.38731
1.61022
1.89656
2.21439
2.52157
2.77328
2.93333
2.98394
2.91997
2.75075
2.4979
2.19029
1.84746
1.51116
1.19805
0.766255
0.763259
0.808569
0.867992
0.930031
0.978628
1.00706
1.01721
1.01222
0.999695
0.985484
0.981874
1.00476
1.06264
1.1688
1.34944
1.60532
1.91451
2.24527
2.55417
2.79944
2.95141
2.9977
2.93579
2.77529
2.53685
2.24588
1.92227
1.60131
1.29967
0.82208
0.793392
0.805495
0.83422
0.863297
0.889963
0.903304
0.906357
0.900488
0.889345
0.877945
0.875274
0.894632
0.962757
1.09219
1.30224
1.58763
1.92121
2.26335
2.57328
2.81278
2.958
2.99955
2.9381
2.78656
2.56163
2.28659
1.98151
1.6761
1.38661
0.950269
0.913593
0.909057
0.913778
0.91424
0.909267
0.897406
0.881442
0.860709
0.837475
0.816877
0.805853
0.81621
0.874341
1.01417
1.24851
1.55974
1.91671
2.26899
2.57944
2.81441
2.95392
2.99035
2.9297
2.78558
2.57485
2.31553
2.02821
1.73799
1.46052
1.16079
1.12537
1.10488
1.08378
1.05742
1.02374
0.982868
0.937371
0.891353
0.845687
0.805688
0.777142
0.771148
0.810132
0.943544
1.19212
1.52309
1.89757
2.26059
2.57191
2.802
2.93584
2.97004
2.91232
2.77652
2.57888
2.33529
2.06502
1.78948
1.52353
1.45041
1.40706
1.37407
1.33467
1.28524
1.22352
1.14963
1.06911
0.987387
0.91057
0.842314
0.78867
0.759955
0.776663
0.888626
1.13655
1.47949
1.86445
2.23465
2.54671
2.7735
2.90465
2.93945
2.88673
2.76053
2.57557
2.3479
2.09413
1.83264
1.578
1.79488
1.74444
1.6978
1.64093
1.57057
1.48331
1.37971
1.26465
1.14383
1.02718
0.92374
0.83828
0.781445
0.771891
0.854299
1.08769
1.43151
1.8196
2.19186
2.5035
2.72847
2.86109
2.89923
2.85407
2.73864
2.56723
2.3552
2.11728
1.86934
1.62626
2.15875
2.108
2.05154
1.977
1.88722
1.77789
1.64839
1.50237
1.34682
1.19048
1.04579
0.923742
0.833911
0.794355
0.844246
1.05097
1.38199
1.76624
2.13542
2.44486
2.66996
2.80598
2.85015
2.81421
2.71159
2.55436
2.35848
2.13616
1.90145
1.67009
2.51924
2.46461
2.4065
2.3224
2.21566
2.08798
1.93742
1.76613
1.58057
1.38969
1.20539
1.04336
0.916505
0.843507
0.859743
1.03075
1.33673
1.70791
2.06905
2.37432
2.59976
2.74061
2.79341
2.7684
2.68024
2.53873
2.35917
2.15221
1.93062
1.7111
2.88081
2.82065
2.75691
2.66785
2.54908
2.40711
2.23971
2.04804
1.83766
1.61706
1.3983
1.19648
1.03005
0.920439
0.900908
1.03174
1.30223
1.64931
1.99686
2.29505
2.52119
2.6676
2.73093
2.71852
2.64554
2.52172
2.35849
2.16676
1.95934
1.7524
3.24676
3.18095
3.11206
3.01698
2.89223
2.73952
2.55853
2.35018
2.1192
1.87318
1.62344
1.38442
1.17789
1.02875
0.971266
1.05811
1.28664
1.59909
1.92509
2.21464
2.43913
2.59103
2.66602
2.66742
2.60909
2.50486
2.35821
2.18284
1.99012
1.79542
3.62174
3.55262
3.4808
3.38211
3.25401
3.09476
2.90399
2.68261
2.43507
2.16739
1.88983
1.61589
1.36917
1.1781
1.0791
1.11892
1.29942
1.56909
1.86591
2.14202
2.36277
2.51855
2.60513
2.62213
2.57947
2.49358
2.36317
2.20318
2.0244
1.84139
4.00965
3.94299
3.87251
3.77419
3.6463
3.48657
3.29164
3.06302
2.80459
2.52048
2.21902
1.91246
1.62499
1.38877
1.24311
1.23118
1.3574
1.58242
1.84632
2.09809
2.31041
2.46788
2.56342
2.59497
2.56641
2.49212
2.37712
2.23127
2.06491
1.89251
4.4204
4.36191
4.29826
4.20635
4.08743
3.93337
3.74306
3.51749
3.25846
2.96728
2.64935
2.31461
1.9871
1.70156
1.50242
1.43015
1.49755
1.66909
1.89123
2.11803
2.31674
2.46782
2.56193
2.59574
2.58139
2.51664
2.41175
2.27538
2.11757
1.95461
4.87612
4.83255
4.78118
4.7032
4.60225
4.46715
4.29818
4.09412
3.85434
3.5754
3.25735
2.90525
2.5411
2.20082
1.93857
1.78809
1.78268
1.88838
2.05431
2.23683
2.40412
2.53544
2.61935
2.65176
2.64107
2.58193
2.48208
2.34954
2.19517
2.03594
5.4273
5.40577
5.37668
5.33152
5.26358
5.16855
5.04745
4.89896
4.71802
4.49214
4.21123
3.86963
3.48271
3.08463
2.74266
2.48828
2.36742
2.37239
2.44773
2.55417
2.66178
2.74849
2.80043
2.81526
2.78905
2.71943
2.61112
2.47237
2.3116
2.14889
6.17623
6.19327
6.21379
6.22493
6.22008
6.20675
6.1895
6.16781
6.12814
6.04441
5.88676
5.62741
5.26446
4.82231
4.38357
3.97388
3.65419
3.46271
3.35742
3.30874
3.28982
3.2767
3.24981
3.19987
3.11891
3.00381
2.85913
2.69167
2.50752
2.32854
7.33867
7.43347
7.54728
7.66203
7.79288
7.95761
8.17023
8.43047
8.71042
8.95897
9.11257
9.10108
8.89217
8.47961
7.95506
7.32433
6.64965
6.0557
5.54597
5.13776
4.81443
4.55013
4.31394
4.08533
3.85554
3.61919
3.37628
3.13034
2.8837
2.66201
9.43674
9.69454
9.99185
10.3399
10.7727
11.3269
12.0291
12.8712
13.7932
14.7085
15.5035
16.0566
16.2631
16.0735
15.5704
14.6917
13.4506
12.1158
10.8074
9.61584
8.57306
7.67669
6.90213
6.22277
5.61854
5.07469
4.58173
4.13603
3.73175
3.4039
13.8092
14.3923
15.0821
15.9121
16.9482
18.2526
19.8559
21.7122
23.6791
25.6216
27.3735
28.7781
29.6909
30.0168
29.7451
28.7875
27.0389
24.8209
22.3502
19.8479
17.4633
15.2846
13.3437
11.6398
10.1558
8.86884
7.75919
6.81259
6.01033
5.41739
23.6468
24.7046
25.9017
27.4128
29.3636
31.7669
34.594
37.6588
40.6839
43.5263
46.0245
48.0815
49.6174
50.5625
50.7291
50.0187
48.3091
45.7407
42.4887
38.8322
35.014
31.2352
27.6552
24.3707
21.4126
18.7792
16.4685
14.4858
12.8174
11.6151
39.7438
40.3305
41.9329
44.3852
47.2811
50.5381
54.0268
57.1632
59.8572
62.1858
64.0548
65.4924
66.6371
67.504
67.7138
67.1785
66.035
64.0813
61.4695
58.3443
54.9007
51.2962
47.7081
44.2743
41.0346
37.9553
35.0443
32.3826
30.0269
28.2039
46.4829
46.2731
47.5678
49.7639
52.2285
54.5408
56.4484
57.9343
59.0696
59.912
60.4609
60.7947
60.9371
61.0029
60.5094
59.2972
58.1227
56.7075
55.1317
53.4163
51.7298
50.2027
48.9471
48.005
47.3615
46.8946
46.556
46.1672
45.5829
44.6297
5.88414
7.49722
8.31204
8.82524
9.03448
8.98987
8.75867
8.40585
7.98566
7.54339
7.10421
6.69948
6.34353
6.07355
5.90093
5.87336
5.9987
6.32575
6.90174
7.65805
8.30454
8.5215
8.15559
7.2272
5.89649
4.36851
2.88415
1.5853
0.671408
0.501848
3.70458
4.21688
4.49505
4.6689
4.7066
4.61777
4.43245
4.18665
3.91273
3.63523
3.37188
3.13581
2.93988
2.79709
2.72656
2.74812
2.88239
3.15798
3.61629
4.22053
4.78781
5.10695
5.07216
4.69903
4.07275
3.29287
2.4451
1.59071
0.908042
0.467853
3.33964
3.69522
3.90561
4.02088
4.03393
3.94947
3.78642
3.57134
3.33077
3.08626
2.85383
2.64629
2.47506
2.35325
2.29778
2.32917
2.46347
2.72286
3.13946
3.68814
4.2179
4.55825
4.60919
4.38119
3.93048
3.30048
2.59424
1.84691
1.19895
0.671722
3.10861
3.37455
3.57131
3.68988
3.72034
3.6633
3.53088
3.34625
3.13412
2.91529
2.70584
2.51889
2.36644
2.26304
2.2259
2.27696
2.4271
2.69451
3.09891
3.60176
4.08398
4.41409
4.49458
4.32992
3.94735
3.40641
2.77524
2.08617
1.45791
0.897844
2.85603
3.03872
3.22954
3.36808
3.42971
3.41007
3.31476
3.16485
2.98472
2.7945
2.61103
2.44805
2.31873
2.23963
2.22895
2.30969
2.48748
2.77465
3.17634
3.65461
4.1003
4.39335
4.47167
4.32719
3.99045
3.50435
2.92737
2.28633
1.68008
1.11543
2.55375
2.65456
2.83154
2.98898
3.08503
3.10692
3.05531
2.94757
2.80626
2.65116
2.49998
2.36726
2.26765
2.21966
2.24334
2.36236
2.57636
2.89073
3.29621
3.74801
4.15373
4.41254
4.47346
4.33602
4.02499
3.57727
3.04337
2.44601
1.8676
1.31483
2.1893
2.18514
2.33193
2.50254
2.63669
2.70744
2.71147
2.65962
2.57157
2.46152
2.3519
2.25697
2.1942
2.18475
2.25024
2.41503
2.67184
3.01768
3.42969
3.85769
4.2207
4.44128
4.48187
4.34032
4.04402
3.62491
3.1267
2.56994
2.02161
1.48993
1.83339
1.74815
1.848
2.00461
2.15328
2.25674
2.30346
2.30042
2.26672
2.21399
2.15975
2.11164
2.0936
2.12887
2.24349
2.46055
2.7649
3.14408
3.56275
3.96806
4.29016
4.4707
4.48669
4.3346
4.04524
3.65003
3.18263
2.66351
2.146
1.6394
1.57827
1.42981
1.46922
1.58534
1.72022
1.83343
1.90685
1.9408
1.94654
1.93392
1.92558
1.9323
1.96574
2.05191
2.22202
2.49643
2.85108
3.2634
3.68714
4.06981
4.35264
4.49448
4.48173
4.31907
4.03352
3.65601
3.21642
2.73186
2.24461
1.76447
1.41766
1.23088
1.21472
1.28231
1.38293
1.48296
1.56323
1.61821
1.65076
1.66862
1.68807
1.73008
1.81537
1.95693
2.1871
2.52193
2.92761
3.37094
3.79749
4.15665
4.40175
4.507
4.467
4.29356
4.01126
3.6481
3.23303
2.77997
2.32178
1.86794
1.36103
1.14947
1.08379
1.10358
1.16452
1.23867
1.30721
1.36251
1.4053
1.43985
1.47661
1.5352
1.652
1.8501
2.1416
2.53701
2.99236
3.46295
3.88884
4.22338
4.43254
4.50581
4.44123
4.25856
3.98016
3.6312
3.23719
2.81274
2.38183
1.95325
1.3941
1.18181
1.07501
1.04805
1.06733
1.10827
1.1534
1.19451
1.23065
1.26522
1.30593
1.37108
1.49729
1.73945
2.08952
2.54251
3.04341
3.53595
3.9565
4.26533
4.44488
4.48778
4.4041
4.21498
3.94222
3.60784
3.2333
2.83471
2.42828
2.02317
1.50999
1.29855
1.17212
1.11052
1.09121
1.09448
1.10609
1.11999
1.13558
1.15519
1.1865
1.24673
1.37077
1.63576
2.03611
2.54189
3.07907
3.58603
3.99747
4.28448
4.43873
4.45354
4.35593
4.16431
3.8997
3.58088
3.22589
2.84999
2.46669
2.08687
1.71614
1.51158
1.37198
1.28402
1.23195
1.19517
1.16465
1.14066
1.12355
1.11531
1.1248
1.16881
1.28371
1.55191
1.9876
2.53565
3.10075
3.61479
4.01539
4.28378
4.40912
4.40384
4.29771
4.10856
3.85511
3.55317
3.21777
2.86271
2.50597
2.14842
2.01527
1.81434
1.6673
1.56351
1.47883
1.3997
1.32232
1.2527
1.194
1.14757
1.12389
1.14216
1.24107
1.49735
1.95033
2.52845
3.11218
3.62554
4.01419
4.25632
4.3611
4.34193
4.23258
4.05068
3.81149
3.52807
3.21233
2.88287
2.54773
2.20951
2.39762
2.20078
2.05578
1.93224
1.81225
1.69102
1.56611
1.44797
1.34267
1.25119
1.18765
1.17076
1.24237
1.47905
1.93288
2.52814
3.11846
3.62362
3.99109
4.21106
4.29988
4.273
4.16587
3.99552
3.77349
3.5105
3.21866
2.9112
2.59446
2.27248
2.85498
2.67132
2.51712
2.36553
2.21128
2.05099
1.88306
1.71822
1.56437
1.42526
1.31758
1.26185
1.30118
1.51023
1.94855
2.5427
3.12874
3.61768
3.95857
4.15967
4.23619
4.2072
4.10797
3.95168
3.74992
3.50733
3.23868
2.94994
2.64745
2.33816
3.38052
3.20077
3.03363
2.85728
2.67131
2.47436
2.26793
2.06036
1.8595
1.67375
1.52112
1.4252
1.42669
1.60666
2.01586
2.59394
3.15829
3.62608
3.94318
4.12076
4.18822
4.16344
4.07603
3.93445
3.74839
3.52714
3.27601
3.00038
2.70806
2.40883
3.97554
3.79004
3.60948
3.41087
3.19659
2.96716
2.72626
2.48096
2.23967
2.01212
1.81751
1.68197
1.64577
1.79322
2.16554
2.71429
3.2457
3.67711
3.96707
4.12838
4.1909
4.17785
4.10054
3.9696
3.79463
3.58117
3.33638
3.06714
2.78016
2.48751
4.63218
4.44401
4.25361
4.03813
3.80209
3.5477
3.28039
3.00704
2.73608
2.47692
2.2487
2.07883
2.00914
2.12169
2.45673
2.96323
3.45073
3.83743
4.09321
4.24058
4.29652
4.28003
4.20175
4.07245
3.89921
3.68547
3.43638
3.16114
2.87099
2.57951
5.36709
5.18189
4.98801
4.76465
4.51834
4.25291
3.97517
3.69223
3.41197
3.14183
2.8989
2.7094
2.61685
2.69746
3.00569
3.45711
3.88711
4.21956
4.4338
4.54407
4.57087
4.52818
4.42678
4.27695
4.08513
3.85496
3.59043
3.30061
2.9958
2.69881
6.22117
6.04774
5.85935
5.64242
5.40523
5.15343
4.89533
4.63844
4.38911
4.15011
3.93346
3.75954
3.66971
3.73437
4.02469
4.42402
4.7747
5.02281
5.15413
5.18515
5.13894
5.02757
4.86263
4.65431
4.40956
4.13286
3.82915
3.50553
3.17324
2.85852
7.28325
7.12902
6.96273
6.77671
6.58222
6.38822
6.20509
6.04183
5.90137
5.77847
5.6733
5.5923
5.56529
5.6563
5.94506
6.2786
6.51002
6.60806
6.57781
6.44301
6.23965
5.97939
5.67535
5.33956
4.98096
4.60553
4.21883
3.82892
3.44312
3.09163
8.72217
8.60768
8.4932
8.38209
8.29094
8.23513
8.2276
8.28319
8.39724
8.55009
8.71911
8.88315
9.04581
9.24861
9.5775
9.82224
9.85899
9.68297
9.33496
8.8711
8.34896
7.78583
7.19828
6.60457
6.01873
5.44966
4.9023
4.38357
3.89788
3.48126
10.8845
10.8614
10.8559
10.9015
11.0253
11.2539
11.609
12.1004
12.7111
13.396
14.0952
14.745
15.3013
15.7662
16.2221
16.3756
16.1105
15.4799
14.5767
13.5121
12.3893
11.2459
10.1088
9.01541
7.99188
7.05322
6.20199
5.43884
4.76245
4.22531
14.5051
14.6889
14.9265
15.2822
15.8145
16.567
17.565
18.8002
20.2197
21.7384
23.2446
24.6301
25.7998
26.7131
27.4114
27.5034
26.8693
25.6374
23.9459
21.9706
19.8864
17.7734
15.6924
13.7196
11.9102
10.2995
8.88969
7.67005
6.62953
5.85894
21.1182
21.6652
22.3836
23.2996
24.4904
26.0587
27.9922
30.2256
32.6386
35.1006
37.4655
39.6125
41.4346
42.8465
43.796
43.7819
42.7945
40.9972
38.5427
35.614
32.4372
29.1472
25.8529
22.6775
19.7227
17.0769
14.767
12.7714
11.0811
9.87381
32.9993
33.761
34.9818
36.7227
38.9263
41.4673
44.2893
47.2792
50.2673
53.1379
55.7778
58.1262
60.1126
61.518
62.1621
61.3821
59.92
57.7942
55.2351
52.2495
48.7783
45.0419
41.2107
37.4194
33.7383
30.2578
27.0884
24.2298
21.7166
19.8592
48.2724
48.5916
50.1067
52.4707
55.2886
58.2778
61.2139
63.8751
66.2077
68.2388
69.968
71.3959
72.4642
72.9547
72.4747
70.4212
68.2944
65.8386
63.3729
60.822
58.2872
55.8118
53.5098
51.5088
49.7343
47.8632
45.7566
43.5766
41.3659
39.3663
51.2598
51.7699
53.5183
56.0397
58.7933
61.3699
63.5211
65.172
66.3792
67.2582
67.8294
68.115
68.0323
67.3481
65.4933
62.3623
59.6812
56.9939
54.6722
52.6439
51.06
49.925
49.3001
49.1944
49.5707
50.2572
51.0639
51.7035
51.908
51.5105
8.91473
11.1331
12.0362
12.5545
12.752
12.636
12.2747
11.7552
11.145
10.5004
9.85536
9.25867
8.72783
8.32189
8.05452
8.00769
8.21016
8.8595
10.2135
12.0986
13.7104
14.3339
13.7692
12.1852
9.95038
7.42072
4.95402
2.78172
1.23736
0.549265
5.30652
5.88947
6.14423
6.28885
6.32067
6.21623
5.99144
5.68561
5.33693
4.9739
4.62095
4.29624
4.02099
3.81102
3.69702
3.69824
3.85832
4.29061
5.16303
6.38177
7.48354
8.04587
7.95576
7.33135
6.35433
5.18493
3.92262
2.61067
1.50144
0.688893
4.82971
5.13588
5.29292
5.37236
5.36377
5.26073
5.07074
4.81603
4.52372
4.21677
3.91572
3.63742
3.40084
3.22228
3.1274
3.13779
3.28645
3.65777
4.39682
5.4283
6.38442
6.9388
6.97469
6.58217
5.90462
5.01353
3.97991
2.87424
1.86529
0.980648
4.58515
4.74814
4.87073
4.94763
4.95622
4.88594
4.7382
4.52765
4.27704
4.00776
3.74013
3.49097
3.28085
3.12782
3.05641
3.08962
3.2555
3.6388
4.339
5.25101
6.08512
6.60663
6.67711
6.3828
5.81258
5.03323
4.12938
3.13157
2.18091
1.27982
4.32334
4.36669
4.46354
4.55854
4.60629
4.58586
4.48876
4.32582
4.11805
3.88697
3.654
3.43656
3.25823
3.13767
3.10088
3.17211
3.3749
3.79223
4.48319
5.33325
6.08312
6.51332
6.57498
6.30926
5.78737
5.08283
4.25974
3.34115
2.44357
1.55819
4.01787
3.93334
4.00382
4.12012
4.21494
4.25109
4.21037
4.0998
3.93977
3.75236
3.56037
3.38195
3.24313
3.16484
3.17431
3.29708
3.55384
4.02317
4.72
5.50665
6.16539
6.52598
6.54723
6.27336
5.7738
5.11748
4.35393
3.50184
2.65626
1.8019
3.68481
3.46257
3.49431
3.62255
3.76065
3.8519
3.86995
3.81678
3.71063
3.57308
3.42932
3.2982
3.20903
3.18295
3.25117
3.43803
3.76307
4.29521
5.00246
5.73074
6.29437
6.57364
6.54401
6.24968
5.75689
5.12994
4.41329
3.61939
2.82277
2.00851
3.32043
2.96882
2.94397
3.06803
3.23834
3.38044
3.45691
3.46703
3.42074
3.34043
3.25259
3.17737
3.14811
3.18449
3.32298
3.58606
3.99118
4.59061
5.30493
5.97398
6.44465
6.64031
6.55318
6.22741
5.73221
5.12232
4.44332
3.70023
2.94957
2.17931
2.93113
2.50861
2.43425
2.5386
2.71473
2.88281
2.99886
3.05619
3.06999
3.05531
3.03119
3.02073
3.05938
3.1691
3.38841
3.73861
4.23281
4.898
5.60818
6.21636
6.59494
6.70603
6.55772
6.19981
5.699
5.10244
4.45087
3.75235
3.04456
2.31918
2.61738
2.15287
2.01853
2.08349
2.24084
2.41292
2.55205
2.6454
2.70163
2.73384
2.77259
2.83337
2.9467
3.14021
3.44915
3.89542
4.48437
5.20735
5.90676
6.44388
6.73028
6.7589
6.54928
6.16378
5.65834
5.07353
4.44429
3.78436
3.11795
2.43842
2.40394
1.90561
1.7163
1.73125
1.85096
2.00609
2.14897
2.26285
2.35003
2.42047
2.50072
2.62593
2.8184
3.10371
3.5084
4.05707
4.74194
5.51015
6.18603
6.64426
6.84057
6.79335
6.52752
6.11969
5.61261
5.04017
4.43273
3.80634
3.18304
2.54182
2.27511
1.78199
1.5414
1.4999
1.56894
1.68938
1.81889
1.93562
2.03891
2.13524
2.24871
2.41587
2.68588
3.06725
3.57022
4.22437
5.00041
5.79844
6.4341
6.80807
6.918
6.79501
6.49098
6.06931
5.56545
5.00791
4.42288
3.8336
3.24306
2.63276
2.25646
1.79163
1.51542
1.40373
1.41266
1.48555
1.58398
1.68667
1.78964
1.89727
2.03232
2.22922
2.56227
3.03902
3.6393
4.39834
5.25385
6.06237
6.64171
6.9298
6.96062
6.77478
6.44335
6.01672
5.52216
4.98322
4.42637
3.86719
3.30097
2.71371
2.32945
1.89478
1.6009
1.44101
1.38924
1.40769
1.4619
1.53388
1.61976
1.72292
1.86626
2.08467
2.46268
3.02338
3.72143
4.58069
5.49686
6.29268
6.80407
7.01002
6.97043
6.73923
6.39144
5.9689
5.48989
4.97507
4.44744
3.90905
3.35645
2.78715
2.50801
2.09594
1.79795
1.60411
1.49879
1.45786
1.45651
1.48747
1.54105
1.62457
1.76167
1.99534
2.40634
3.03595
3.82562
4.77518
5.72763
6.48628
6.92376
7.05544
6.95665
6.69888
6.34619
5.9358
5.47961
4.99408
4.48624
3.95656
3.4129
2.85686
2.80053
2.41199
2.11021
1.8861
1.73117
1.63161
1.57321
1.55005
1.55907
1.60889
1.73061
1.96602
2.3944
3.09723
3.96455
4.98924
5.94993
6.65539
7.01467
7.0848
6.94203
6.67109
6.32122
5.9344
5.50877
5.04239
4.53888
4.01244
3.47237
2.9254
3.22706
2.84519
2.53242
2.27683
2.07465
1.91864
1.80182
1.72193
1.68099
1.68785
1.78434
2.02137
2.47354
3.22076
4.15667
5.23832
6.18035
6.81935
7.10542
7.1316
6.96817
6.70048
6.3793
6.00767
5.58484
5.11544
4.60839
4.0785
3.53672
2.99532
3.77785
3.3899
3.05829
2.76883
2.52102
2.31166
2.13871
2.00311
1.91112
1.87427
1.94
2.17438
2.65214
3.43421
4.433
5.55303
6.45625
7.02226
7.24829
7.25046
7.09994
6.85146
6.53095
6.15327
5.70945
5.2207
4.69853
4.15713
3.60822
3.06954
4.44609
4.04284
3.68631
3.3615
3.07057
2.8129
2.5896
2.40406
2.26565
2.19026
2.22839
2.46033
2.97149
3.78935
4.84799
5.9906
6.8443
7.34249
7.53349
7.54805
7.39343
7.12163
6.78347
6.37677
5.90036
5.3701
4.8165
4.25305
3.6905
3.15151
5.23231
4.80836
4.42416
4.06572
3.73757
3.44073
3.17843
2.95563
2.7837
2.68269
2.707
2.95029
3.50598
4.38023
5.49946
6.65576
7.46292
7.92609
8.12759
8.10586
7.8932
7.56723
7.17776
6.7093
6.17486
5.58861
4.97893
4.37718
3.79127
3.24708
6.15246
5.70627
5.29648
4.91199
4.55921
4.24037
3.96013
3.72435
3.54532
3.44537
3.48762
3.7722
4.39804
5.36907
6.57222
7.74224
8.54084
8.99288
9.15039
9.02917
8.70838
8.30718
7.79479
7.21104
6.57734
5.90402
5.21924
4.55316
3.92835
3.37017
7.25181
6.78603
6.36022
5.96642
5.61304
5.30346
5.04338
4.83935
4.70315
4.65778
4.7805
5.16336
5.91146
7.02356
8.38009
9.59836
10.3752
10.7779
10.8236
10.5214
10.0713
9.47479
8.75841
7.98305
7.18519
6.3807
5.58642
4.83551
4.14648
3.56135
8.62984
8.15365
7.73288
7.36187
7.05109
6.80574
6.63232
6.53997
6.53564
6.65195
6.96317
7.54287
8.49732
9.81057
11.3999
12.6712
13.3968
13.6883
13.5082
12.984
12.2601
11.3263
10.2802
9.20247
8.14424
7.1318
6.17309
5.29233
4.51383
3.87355
10.4757
10.0217
9.64811
9.35753
9.16304
9.07443
9.09797
9.25339
9.54303
9.99036
10.6562
11.5829
12.8664
14.4538
16.3496
17.6295
18.2325
18.3178
17.8479
16.9375
15.7219
14.2756
12.7246
11.1863
9.72656
8.38561
7.16889
6.08662
5.15392
4.42061
13.177
12.8237
12.5638
12.4457
12.4838
12.7037
13.1092
13.7107
14.5082
15.5072
16.7319
18.181
19.9343
21.8721
24.094
25.2576
25.6191
25.3522
24.4322
22.9628
21.0996
18.9542
16.6895
14.4907
12.4461
10.6059
8.98265
7.57318
6.38641
5.50643
17.4606
17.3215
17.3204
17.5164
17.9799
18.6996
19.6882
20.9477
22.4536
24.1806
26.1025
28.1768
30.4768
32.7717
35.2012
35.9593
35.845
34.949
33.4562
31.4365
28.9395
26.062
22.9914
20.0056
17.2176
14.7022
12.485
10.5671
8.96614
7.83748
24.5012
24.6638
25.1259
25.9056
26.9548
28.312
29.9921
31.9729
34.1794
36.5633
39.0608
41.6145
44.308
46.7157
48.8576
48.0722
46.7424
44.8976
42.8648
40.5055
37.8431
34.9349
31.8807
28.6365
25.304
22.1718
19.3071
16.7407
14.5615
13.0461
35.2154
35.5639
36.4955
37.9276
39.7267
41.7842
44.0332
46.4018
48.8485
51.3561
53.8351
56.1944
58.691
60.2653
60.9435
57.9774
55.3093
52.535
50.1212
47.7776
45.4475
43.1491
40.9176
38.7546
36.5711
34.0233
31.2266
28.4221
25.8732
23.9635
46.4061
46.89
48.2932
50.2908
52.5792
54.9265
57.1821
59.2711
61.199
63.0369
64.777
66.3625
67.7438
67.8506
66.459
61.2545
57.3604
53.8461
51.1757
49.0245
47.3919
46.2354
45.5386
45.2235
45.1823
45.0977
44.7201
43.9329
42.5367
40.9876
46.9807
48.1754
50.2056
52.7289
55.3528
57.7821
59.8274
61.463
62.7625
63.8448
64.712
65.3229
65.4463
64.0983
60.6804
54.0885
49.6231
45.8352
43.1099
41.0943
39.9354
39.5595
39.9256
40.9748
42.5472
44.4069
46.2686
47.8178
48.7917
48.9334
12.6171
15.4895
16.4677
16.8576
16.975
16.7522
16.2356
15.5212
14.684
13.7942
12.8906
12.0342
11.2377
10.5838
10.0964
9.92399
10.1824
11.4393
14.4355
18.5861
21.8686
23.0184
21.9839
19.3418
15.8563
12.0587
8.39343
5.14275
2.79146
1.32332
7.23137
7.85511
8.0557
8.10179
8.08192
7.93777
7.66255
7.29053
6.86167
6.40598
5.95485
5.52426
5.14498
4.82318
4.6121
4.53094
4.69796
5.38471
7.05114
9.36499
11.2623
12.0616
11.7767
10.7464
9.32181
7.70829
6.02789
4.28416
2.729
1.55802
6.60017
6.84286
6.90499
6.89712
6.82268
6.67065
6.43691
6.1338
5.78428
5.40948
5.03365
4.67288
4.35438
4.09023
3.91982
3.8658
4.01269
4.61066
5.99537
7.88633