/*--------------------------------*- C++ -*----------------------------------*\
  =========                 |
  \\      /  F ield         | OpenFOAM: The Open Source CFD Toolbox
   \\    /   O peration     | Website:  https://openfoam.org
    \\  /    A nd           | Version:  12
     \\/     M anipulation  |
\*---------------------------------------------------------------------------*/
FoamFile
{
    format      ascii;
    class       volScalarField;
    location    "1250/air";
    object      k;
}
// * * * * * * * * * * * * * * * * * * * * * * * * * * * * * * * * * * * * * //

dimensions      [0 2 -2 0 0 0 0];

internalField   nonuniform List<scalar> 
243000
(
0.0465695
0.0537936
0.0575117
0.0595018
0.0600599
0.0595533
0.0583085
0.0565777
0.0545456
0.0523528
0.0500984
0.0479081
0.0458338
0.0439492
0.0422535
0.0408357
0.0404771
0.0396157
0.0394711
0.0398346
0.0403481
0.0404814
0.0397407
0.0378003
0.0346522
0.0304556
0.0257705
0.0237639
0.0218157
0.0188714
0.0682139
0.0760366
0.0794359
0.0799077
0.0785229
0.0759971
0.0728169
0.0693123
0.0657047
0.0621628
0.0588048
0.0557431
0.0530342
0.0507915
0.0490754
0.0480891
0.0480541
0.0490908
0.0511225
0.0538146
0.0565092
0.0584672
0.0590622
0.0578306
0.0546653
0.0497161
0.0435932
0.0364163
0.0295847
0.0228955
0.0677332
0.0802372
0.0861702
0.0881183
0.0874386
0.085177
0.0819989
0.0783458
0.0745144
0.0707244
0.0671247
0.0638534
0.0610021
0.0587454
0.0572068
0.0567281
0.0575622
0.0599339
0.0635805
0.067889
0.0719414
0.0748764
0.0760498
0.0749811
0.0715258
0.0658331
0.0585292
0.0496606
0.0405328
0.030875
0.0569124
0.0724496
0.0815717
0.0859265
0.0870908
0.0861553
0.0839093
0.0809356
0.0776424
0.0742642
0.0710184
0.0680391
0.0654747
0.0635597
0.0624876
0.0627352
0.0645998
0.0682953
0.0733837
0.0790101
0.0840782
0.0876872
0.0892433
0.0883196
0.0847668
0.0787484
0.0708582
0.061171
0.0508214
0.0397075
0.0499085
0.0609138
0.0702604
0.0765172
0.0799408
0.0809985
0.0804004
0.0787384
0.0765415
0.0741493
0.0716735
0.0693876
0.0674639
0.0661941
0.0658518
0.0670519
0.0701298
0.0752505
0.0817745
0.0886154
0.0945414
0.0986624
0.100469
0.0996279
0.0960205
0.0898405
0.0816283
0.0715463
0.0605372
0.0487516
0.0504804
0.0544515
0.0613759
0.067322
0.0713375
0.0733995
0.0739126
0.0733113
0.0723354
0.0711001
0.0696806
0.0683349
0.0672691
0.0668443
0.0674311
0.0697495
0.0742001
0.0808309
0.0887858
0.096773
0.103467
0.108013
0.110005
0.109213
0.105581
0.0993448
0.0910021
0.0808037
0.0695223
0.0574805
0.0579038
0.0558469
0.0573779
0.0609203
0.0643376
0.0667296
0.0679456
0.0681648
0.0677862
0.0670803
0.066175
0.0656131
0.0653722
0.0658233
0.0673996
0.070931
0.0768411
0.0850644
0.094457
0.103551
0.110968
0.115902
0.118055
0.117308
0.113679
0.107455
0.0991159
0.0889814
0.07769
0.065651
0.0674387
0.0649381
0.0618609
0.060858
0.061583
0.0628183
0.0637592
0.0641689
0.0640926
0.0636992
0.0631078
0.062645
0.062606
0.0636168
0.0660377
0.0707389
0.0780973
0.0879475
0.0988201
0.10901
0.117138
0.122461
0.124784
0.1241
0.120506
0.114344
0.106101
0.0961449
0.085025
0.0731565
0.0777054
0.0757944
0.0731095
0.0696638
0.0666873
0.0649788
0.0640177
0.0633291
0.0626476
0.0619214
0.061154
0.0605195
0.0602691
0.0610166
0.0637924
0.0694012
0.0781683
0.0894963
0.101861
0.113202
0.122056
0.127799
0.130327
0.129744
0.126224
0.120167
0.112083
0.10238
0.0915655
0.0799644
0.0883905
0.0870675
0.0850205
0.0823525
0.0788449
0.0745676
0.0709687
0.0679679
0.0654398
0.0632806
0.0614445
0.0599883
0.0590708
0.0591611
0.061352
0.0672793
0.077086
0.0898915
0.103574
0.116109
0.125782
0.131998
0.134791
0.134367
0.130971
0.125063
0.117183
0.107794
0.097343
0.0860779
0.0995048
0.0985926
0.0969871
0.0947518
0.0918175
0.0880454
0.0829399
0.0779179
0.0731946
0.068882
0.0650926
0.0619634
0.0596722
0.0586065
0.0596572
0.0649054
0.075165
0.0891725
0.104171
0.117774
0.128328
0.135121
0.138258
0.13807
0.134861
0.129147
0.121519
0.112462
0.102391
0.0915174
0.111107
0.110428
0.109042
0.106983
0.104208
0.100651
0.0961802
0.0902599
0.0841488
0.0780247
0.0721662
0.0669112
0.062631
0.0598148
0.0593053
0.0628979
0.0727832
0.0874363
0.103682
0.118372
0.12975
0.137217
0.140798
0.140933
0.137984
0.132522
0.125189
0.116454
0.106776
0.096331
0.123215
0.122595
0.121248
0.119183
0.116363
0.112741
0.108267
0.102771
0.0959843
0.0888194
0.08148
0.0743505
0.0679712
0.0630508
0.0605562
0.0621682
0.0704846
0.0850501
0.10212
0.11793
0.130202
0.138328
0.142469
0.143015
0.140413
0.135276
0.128244
0.119857
0.110572
0.100589
0.135776
0.135059
0.133606
0.131406
0.128416
0.124589
0.119895
0.114286
0.107372
0.0997748
0.0916129
0.0832092
0.0751165
0.0681719
0.0635067
0.0629125
0.0687782
0.0823862
0.0997031
0.116422
0.129691
0.138593
0.14331
0.144367
0.1422
0.137452
0.130775
0.122752
0.113854
0.104343
0.148705
0.14774
0.146065
0.143637
0.1404
0.136299
0.131296
0.125368
0.118416
0.110437
0.101753
0.0925557
0.0832802
0.0746981
0.0680044
0.0651377
0.0684677
0.0799523
0.0967875
0.114023
0.128192
0.137991
0.143432
0.14505
0.143408
0.139111
0.132844
0.125211
0.1167
0.107651
0.161914
0.160559
0.158563
0.155842
0.152313
0.147906
0.142567
0.136269
0.128994
0.120731
0.111666
0.101933
0.0918676
0.0820866
0.0737184
0.0687254
0.0695361
0.0781603
0.0937168
0.11096
0.12583
0.136518
0.142797
0.14509
0.144055
0.140297
0.134502
0.127298
0.119185
0.110585
0.175367
0.173514
0.171101
0.168025
0.164171
0.159446
0.153774
0.147106
0.139439
0.130908
0.121481
0.111285
0.100619
0.0899573
0.0802913
0.0734638
0.071911
0.0777594
0.0909666
0.10754
0.12277
0.134256
0.141407
0.144506
0.144139
0.14103
0.135787
0.129064
0.121376
0.113222
0.189101
0.186651
0.183743
0.180256
0.176054
0.171011
0.165018
0.158005
0.150019
0.141236
0.131437
0.120768
0.109542
0.0981566
0.0874692
0.0791267
0.0754458
0.0786015
0.0889828
0.104123
0.119256
0.131349
0.139351
0.143331
0.143726
0.141331
0.136727
0.130551
0.123331
0.11563
0.203226
0.200062
0.196619
0.192703
0.188154
0.182815
0.176544
0.169267
0.161292
0.152179
0.141936
0.130715
0.118861
0.106758
0.0951745
0.085555
0.0799886
0.0806798
0.0883669
0.101252
0.115617
0.127985
0.136733
0.141604
0.142853
0.141223
0.137351
0.131798
0.125102
0.117878
0.217478
0.213922
0.210057
0.205768
0.20094
0.195411
0.189027
0.181818
0.173876
0.164505
0.153735
0.141797
0.12911
0.116123
0.103566
0.0927558
0.0854898
0.0838973
0.0889886
0.0995167
0.112507
0.124544
0.133738
0.139409
0.141562
0.140769
0.137691
0.132838
0.126735
0.120025
0.231587
0.227683
0.22361
0.219237
0.214429
0.20903
0.202967
0.19633
0.188173
0.17841
0.167058
0.154359
0.140768
0.126807
0.113172
0.101057
0.0920636
0.0882499
0.0907879
0.0989908
0.110292
0.12167
0.130925
0.137067
0.139962
0.140009
0.137758
0.133682
0.128254
0.122119
0.245451
0.241226
0.236995
0.232645
0.228038
0.223264
0.217964
0.21129
0.203032
0.193065
0.181354
0.168117
0.153776
0.138911
0.124224
0.110851
0.100063
0.0938726
0.0938754
0.0996407
0.109043
0.119438
0.128503
0.13497
0.13849
0.13922
0.137656
0.134354
0.129672
0.124197
0.25897
0.25452
0.250258
0.246302
0.242486
0.23811
0.232769
0.226143
0.217968
0.208061
0.196314
0.182891
0.168119
0.152571
0.13693
0.122313
0.1098
0.101031
0.0983608
0.101526
0.108939
0.117995
0.126568
0.133165
0.137174
0.138548
0.137634
0.134947
0.131021
0.126292
0.272153
0.267937
0.264238
0.260572
0.256623
0.252156
0.246879
0.240466
0.232601
0.22305
0.211634
0.198459
0.183687
0.167828
0.151447
0.135645
0.121381
0.110116
0.104527
0.10498
0.11006
0.117598
0.125325
0.131784
0.1361
0.13802
0.137713
0.13562
0.132351
0.128414
0.284842
0.280699
0.276811
0.273002
0.269036
0.26467
0.259605
0.253536
0.246147
0.237189
0.226423
0.213913
0.199618
0.183956
0.167222
0.150528
0.134674
0.121084
0.1129
0.110538
0.113046
0.118642
0.125285
0.131255
0.135586
0.137843
0.138047
0.136485
0.133708
0.130562
0.295257
0.29093
0.286889
0.282942
0.278881
0.274552
0.269677
0.263971
0.257107
0.248835
0.238889
0.227289
0.213888
0.198989
0.182477
0.165873
0.14983
0.135452
0.12505
0.11976
0.119366
0.122481
0.127356
0.132347
0.136299
0.138574
0.139083
0.137915
0.135493
0.132843
0.305492
0.300194
0.29536
0.290964
0.286905
0.283031
0.279089
0.27474
0.269576
0.263203
0.25524
0.245494
0.233816
0.220436
0.205331
0.189316
0.173092
0.157723
0.145169
0.136759
0.13284
0.132713
0.134923
0.138018
0.140787
0.142452
0.142742
0.141585
0.139248
0.136467
0.324311
0.319054
0.314113
0.309808
0.306273
0.303434
0.30105
0.298697
0.295858
0.292011
0.286613
0.279357
0.27004
0.258767
0.24573
0.231001
0.214948
0.198884
0.184322
0.172647
0.164592
0.160061
0.158213
0.157911
0.158024
0.157697
0.15651
0.154324
0.151257
0.147954
0.365689
0.361239
0.357573
0.355591
0.355271
0.356223
0.357897
0.359638
0.360869
0.360969
0.359084
0.355271
0.349353
0.341494
0.331739
0.319884
0.305596
0.290385
0.275363
0.261683
0.250162
0.241095
0.234276
0.229065
0.224594
0.21984
0.214751
0.209352
0.20373
0.198457
0.521298
0.517964
0.519221
0.524789
0.530864
0.535705
0.539495
0.542397
0.544449
0.545202
0.542705
0.539767
0.53591
0.531647
0.526488
0.52092
0.512983
0.505001
0.497255
0.49056
0.48503
0.480885
0.477976
0.475969
0.473862
0.468771
0.463267
0.458006
0.453483
0.448327
0.074917
0.0874544
0.0929165
0.0950946
0.0948119
0.0928152
0.089719
0.085998
0.0819936
0.0780028
0.0742129
0.0707985
0.0678227
0.0654743
0.0638072
0.0630856
0.0633889
0.0649267
0.0676606
0.0711226
0.0741749
0.075512
0.0742128
0.0698422
0.0625667
0.0528856
0.041915
0.0300581
0.0222843
0.0198593
0.124594
0.140466
0.143628
0.140731
0.13453
0.1266
0.117939
0.109212
0.100844
0.0931979
0.0864513
0.0807869
0.07628
0.0731882
0.0716362
0.0721629
0.0748435
0.0797823
0.0864305
0.0937914
0.100333
0.104549
0.105363
0.101942
0.0941521
0.0826117
0.0688146
0.053376
0.0396013
0.0308974
0.142604
0.162151
0.167476
0.165987
0.160324
0.152033
0.142435
0.132472
0.122724
0.113725
0.105778
0.0991728
0.0940716
0.0908824
0.0898926
0.0919793
0.0971278
0.105158
0.114897
0.124828
0.133179
0.138441
0.13965
0.135875
0.126945
0.113386
0.0968121
0.0778197
0.0601434
0.0463134
0.140254
0.161919
0.171885
0.173501
0.170013
0.163012
0.154157
0.144664
0.135078
0.126096
0.118158
0.111676
0.106901
0.10438
0.104643
0.108852
0.116793
0.127892
0.140335
0.152218
0.161691
0.167397
0.168599
0.164409
0.154674
0.139875
0.121627
0.10037
0.0798675
0.0626348
0.125175
0.148054
0.161505
0.166715
0.166457
0.162284
0.155479
0.147269
0.138862
0.130887
0.123802
0.118254
0.114497
0.113259
0.11539
0.122204
0.13325
0.14742
0.162343
0.175831
0.186055
0.19191
0.192936
0.188366
0.178113
0.162638
0.143466
0.120955
0.098651
0.0791907
0.104028
0.121888
0.136614
0.145575
0.149532
0.149397
0.14619
0.14111
0.134999
0.12897
0.123715
0.119614
0.117414
0.117948
0.122457
0.132275
0.146735
0.163969
0.181174
0.19601
0.206766
0.212604
0.21338
0.208458
0.197877
0.182115
0.162513
0.139499
0.116219
0.0954046
0.0877397
0.0986915
0.111462
0.121351
0.127587
0.130264
0.13005
0.127754
0.124322
0.121085
0.118316
0.116418
0.116309
0.119036
0.126242
0.139438
0.157505
0.17786
0.197173
0.213165
0.224309
0.230053
0.23055
0.225302
0.214515
0.198704
0.179021
0.156023
0.132392
0.110844
0.0816618
0.0858442
0.0932936
0.100986
0.1075
0.111579
0.113325
0.113302
0.111996
0.110413
0.109118
0.109496
0.111793
0.117026
0.127239
0.144039
0.16581
0.189309
0.210614
0.227629
0.239077
0.244713
0.244936
0.239408
0.228499
0.212786
0.193267
0.170629
0.147096
0.125244
0.0818598
0.08134
0.0845556
0.0889728
0.093637
0.0973361
0.0996134
0.100623
0.100645
0.100268
0.100028
0.101005
0.104781
0.11253
0.125857
0.146387
0.17188
0.198424
0.22173
0.239662
0.251383
0.256937
0.256934
0.251196
0.240243
0.224726
0.205543
0.183478
0.160372
0.13849
0.0880629
0.0844687
0.0843162
0.0859994
0.088153
0.0903272
0.0916957
0.0923996
0.0925494
0.0924306
0.0925261
0.0936804
0.0972844
0.106335
0.122576
0.146803
0.175903
0.205358
0.230637
0.249471
0.261473
0.267007
0.266865
0.261014
0.250101
0.234863
0.216132
0.19484
0.17231
0.150554
0.10123
0.0960746
0.0936439
0.0926157
0.0920339
0.0915753
0.0909629
0.090255
0.089346
0.0883963
0.0878618
0.0884653
0.0914529
0.0999793
0.118008
0.145658
0.178
0.210219
0.237367
0.257235
0.269552
0.275147
0.274987
0.269145
0.258375
0.243489
0.225358
0.204756
0.182889
0.161453
0.122132
0.1167
0.112321
0.108475
0.104993
0.101658
0.0983204
0.0950286
0.0919548
0.0891349
0.0869896
0.0861813
0.0878893
0.0950084
0.113161
0.143402
0.178708
0.21308
0.241977
0.263002
0.275777
0.281547
0.281512
0.275817
0.265309
0.250877
0.233313
0.213439
0.192301
0.171304
0.150168
0.144571
0.139086
0.133252
0.127168
0.120797
0.114121
0.107427
0.101015
0.0952687
0.0905157
0.0874173
0.0871294
0.092494
0.109138
0.140419
0.178358
0.21452
0.244697
0.266743
0.280284
0.286364
0.286609
0.281217
0.271097
0.257212
0.240226
0.221114
0.20072
0.180316
0.183039
0.177825
0.171711
0.16447
0.1563
0.147223
0.137383
0.127116
0.116806
0.107147
0.0988731
0.0926218
0.0896108
0.0925507
0.106775
0.137529
0.176902
0.214774
0.245992
0.26881
0.283092
0.289725
0.290409
0.28549
0.275898
0.262618
0.246323
0.227976
0.208326
0.188655
0.217587
0.213425
0.207334
0.199112
0.189434
0.178286
0.165807
0.152336
0.138389
0.124663
0.112184
0.102106
0.0957163
0.0956158
0.106754
0.135517
0.174676
0.213847
0.246127
0.269577
0.284443
0.291775
0.293037
0.288745
0.27988
0.267255
0.251769
0.234221
0.215319
0.196426
0.251502
0.248089
0.24285
0.234615
0.223995
0.211473
0.197092
0.181135
0.164117
0.146792
0.130214
0.115937
0.105637
0.101983
0.109735
0.135306
0.172585
0.21194
0.244989
0.269263
0.284726
0.292626
0.29462
0.291128
0.283109
0.271323
0.256733
0.24002
0.221891
0.203799
0.284816
0.281886
0.277123
0.269367
0.258467
0.245221
0.229624
0.211907
0.192543
0.172272
0.152188
0.133853
0.119433
0.111876
0.115792
0.137171
0.171633
0.209496
0.24273
0.267574
0.283951
0.292657
0.295367
0.292812
0.285703
0.274969
0.261355
0.245533
0.228322
0.21117
0.317349
0.314721
0.310339
0.302906
0.29231
0.278807
0.262517
0.243641
0.222601
0.200083
0.177131
0.155273
0.136924
0.125417
0.125092
0.141723
0.172277
0.20738
0.239782
0.265042
0.282162
0.291839
0.29546
0.29394
0.287708
0.278257
0.265787
0.251066
0.234874
0.218644
0.348859
0.346546
0.342512
0.335433
0.325259
0.311852
0.295284
0.275736
0.25361
0.229485
0.204339
0.179617
0.157808
0.142473
0.137879
0.149363
0.174897
0.206884
0.237176
0.262195
0.279917
0.290593
0.295377
0.295067
0.289893
0.281773
0.27049
0.256855
0.241664
0.226325
0.37947
0.377173
0.373427
0.366753
0.357043
0.344028
0.327547
0.307785
0.285118
0.260026
0.233382
0.206519
0.18189
0.163089
0.154396
0.160597
0.180607
0.208504
0.236727
0.260616
0.278593
0.290291
0.295929
0.296751
0.292964
0.285941
0.275796
0.263187
0.248931
0.234365
0.409624
0.407283
0.403637
0.397254
0.388105
0.375552
0.359528
0.340132
0.317598
0.29225
0.264827
0.23653
0.209708
0.187861
0.175276
0.176308
0.190837
0.213905
0.239068
0.261632
0.279191
0.291018
0.297259
0.298957
0.29673
0.2908
0.281705
0.270089
0.256694
0.242865
0.439902
0.437592
0.434024
0.427999
0.419494
0.407782
0.392813
0.374503
0.352928
0.3282
0.300862
0.271927
0.243556
0.219048
0.202732
0.198325
0.207189
0.225034
0.24604
0.265891
0.282081
0.293524
0.300088
0.3025
0.301397
0.296583
0.288539
0.277765
0.265085
0.251962
0.471626
0.469421
0.466128
0.460973
0.45346
0.443217
0.430117
0.413974
0.394636
0.371892
0.345993
0.317633
0.288642
0.261953
0.242047
0.231787
0.233937
0.245507
0.261053
0.276782
0.290282
0.300259
0.306323
0.30899
0.308324
0.304142
0.2968
0.286741
0.274563
0.261958
0.50724
0.505563
0.503279
0.499511
0.493867
0.486292
0.476618
0.464557
0.449623
0.431247
0.409196
0.383639
0.355778
0.32797
0.304818
0.288031
0.281192
0.283913
0.291383
0.300541
0.309219
0.315998
0.320101
0.321549
0.320038
0.315389
0.30797
0.298161
0.286189
0.273741
0.551169
0.551061
0.550868
0.54981
0.548057
0.545649
0.542422
0.537906
0.531212
0.521222
0.507041
0.48811
0.464675
0.438207
0.413067
0.389625
0.371023
0.360227
0.354292
0.351956
0.351427
0.351188
0.34991
0.346942
0.342006
0.334933
0.325863
0.315072
0.302604
0.289839
0.612754
0.616541
0.621006
0.626084
0.632151
0.639341
0.647411
0.6555
0.662071
0.665423
0.663869
0.656194
0.641561
0.620467
0.596493
0.567899
0.535866
0.506926
0.481677
0.46053
0.442933
0.42796
0.414447
0.401483
0.388434
0.374928
0.360863
0.34637
0.331354
0.317416
0.714325
0.725773
0.739519
0.75564
0.774393
0.795796
0.819401
0.843622
0.865849
0.884224
0.896687
0.90146
0.897449
0.885102
0.865968
0.83753
0.798242
0.755049
0.710429
0.666965
0.626158
0.588733
0.554622
0.523387
0.494465
0.467401
0.442016
0.418383
0.396387
0.379022
0.899138
0.918687
0.941879
0.969992
1.00251
1.03811
1.07566
1.11175
1.14307
1.16866
1.18719
1.19814
1.20103
1.19657
1.18448
1.16198
1.12719
1.08364
1.0333
0.979234
0.92384
0.869014
0.816228
0.766259
0.719141
0.674736
0.633291
0.59547
0.561606
0.537203
1.13657
1.14651
1.17368
1.21216
1.25329
1.29481
1.33467
1.3657
1.38823
1.40438
1.41343
1.41638
1.41519
1.411
1.40093
1.38323
1.35962
1.32838
1.29171
1.25114
1.20865
1.1654
1.12281
1.0818
1.04218
1.00308
0.96462
0.928264
0.895011
0.870122
1.20869
1.20958
1.23132
1.26352
1.29618
1.32386
1.34396
1.35686
1.36402
1.36675
1.36482
1.35976
1.35192
1.34353
1.32899
1.3078
1.2882
1.26703
1.24559
1.22433
1.20519
1.18958
1.17819
1.17103
1.16742
1.16549
1.16505
1.16401
1.15926
1.148
0.106122
0.121576
0.127027
0.129062
0.128108
0.124923
0.120279
0.11483
0.109079
0.103429
0.0980882
0.0933219
0.0892491
0.0862131
0.0843227
0.0840425
0.0854556
0.0890158
0.0951233
0.103069
0.110243
0.113897
0.112553
0.105851
0.0943641
0.0789983
0.0613185
0.0421671
0.0243984
0.0196972
0.171462
0.194769
0.201372
0.198843
0.191243
0.180933
0.169418
0.157652
0.146283
0.135796
0.126446
0.118588
0.112362
0.108239
0.106375
0.10759
0.111671
0.119167
0.130236
0.143854
0.156813
0.16552
0.167749
0.162225
0.149067
0.129497
0.105872
0.079245
0.0553956
0.0369468
0.202557
0.228823
0.238848
0.238688
0.232359
0.222123
0.209718
0.196433
0.183242
0.170867
0.159766
0.150491
0.143366
0.139112
0.138118
0.141504
0.148541
0.159261
0.173326
0.189503
0.204496
0.214615
0.217625
0.211898
0.197279
0.174922
0.147118
0.114937
0.0847867
0.0587089
0.215572
0.240856
0.253005
0.255854
0.25223
0.24391
0.232619
0.21976
0.206627
0.194066
0.182756
0.173442
0.166661
0.163352
0.164272
0.170587
0.180809
0.194366
0.210373
0.227595
0.242959
0.253088
0.256007
0.25002
0.234828
0.211274
0.18152
0.146542
0.112415
0.0813701
0.215233
0.23621
0.250282
0.256758
0.256674
0.251087
0.241991
0.230688
0.218905
0.207294
0.196848
0.188532
0.183059
0.181617
0.185418
0.195347
0.208982
0.225131
0.242496
0.25988
0.274656
0.28402
0.286343
0.279978
0.264555
0.24071
0.210381
0.174334
0.138079
0.104044
0.208071
0.222915
0.236251
0.244866
0.248063
0.246097
0.240175
0.23172
0.221673
0.211896
0.20321
0.196842
0.193502
0.194841
0.202378
0.216513
0.233786
0.252319
0.270617
0.287655
0.301327
0.309425
0.310794
0.30387
0.288346
0.264689
0.23458
0.198636
0.161611
0.126003
0.193042
0.198657
0.20975
0.219928
0.226549
0.228754
0.226925
0.222219
0.215821
0.208894
0.203083
0.199191
0.19873
0.203775
0.215752
0.234598
0.25576
0.276483
0.295408
0.311768
0.324027
0.330602
0.330756
0.323109
0.30749
0.284264
0.254843
0.219788
0.182976
0.146717
0.174232
0.172483
0.180114
0.190024
0.198549
0.20379
0.205458
0.204276
0.201699
0.198674
0.196639
0.196303
0.199455
0.208936
0.226033
0.250026
0.275199
0.29797
0.317292
0.332786
0.343468
0.348425
0.347165
0.338693
0.322944
0.300263
0.271805
0.23818
0.202164
0.165873
0.160162
0.151898
0.15491
0.16246
0.170857
0.177602
0.181749
0.183534
0.183886
0.183731
0.184958
0.188755
0.196263
0.210883
0.233671
0.263115
0.292284
0.317012
0.33656
0.351093
0.360156
0.363483
0.360741
0.351385
0.335473
0.31338
0.286106
0.253872
0.218964
0.183271
0.152289
0.139041
0.137356
0.141406
0.147841
0.154318
0.159547
0.163255
0.165801
0.167965
0.171252
0.177821
0.189876
0.210015
0.23908
0.27412
0.307137
0.333759
0.353426
0.366966
0.374455
0.376209
0.372018
0.361788
0.345699
0.32424
0.297927
0.267139
0.233619
0.198946
0.152936
0.13666
0.129603
0.129397
0.132842
0.137691
0.142427
0.146491
0.150035
0.153573
0.158247
0.166213
0.181304
0.207402
0.242757
0.283276
0.319893
0.348284
0.368015
0.380599
0.386645
0.386924
0.381404
0.370381
0.354134
0.33319
0.307739
0.278432
0.246463
0.213123
0.160476
0.143031
0.132421
0.128133
0.127965
0.130114
0.133014
0.135998
0.139082
0.142645
0.14766
0.156252
0.172697
0.20377
0.24519
0.290807
0.330657
0.360644
0.380432
0.392141
0.396942
0.395871
0.389227
0.377551
0.361265
0.340665
0.316135
0.288228
0.257756
0.225984
0.176085
0.158684
0.146241
0.138682
0.134876
0.133453
0.133135
0.133617
0.13481
0.136923
0.14103
0.149246
0.166156
0.200296
0.246932
0.296956
0.339542
0.37087
0.390785
0.401709
0.405488
0.403291
0.395768
0.383615
0.367346
0.34721
0.323594
0.296978
0.268001
0.238022
0.200787
0.184004
0.170656
0.160821
0.153863
0.148467
0.144012
0.140647
0.138471
0.137718
0.139599
0.146434
0.163128
0.198214
0.248565
0.302016
0.34671
0.379078
0.399144
0.409433
0.412437
0.409399
0.40128
0.388893
0.372821
0.35326
0.330559
0.305167
0.277998
0.249634
0.233432
0.217661
0.204311
0.193376
0.183542
0.174136
0.165098
0.157105
0.150583
0.14588
0.144318
0.148575
0.16362
0.197932
0.250621
0.306352
0.352424
0.385468
0.405662
0.415494
0.41798
0.414424
0.406007
0.393728
0.378061
0.359214
0.337516
0.313695
0.287971
0.261039
0.272563
0.258093
0.245641
0.233579
0.22102
0.207971
0.194549
0.181842
0.170599
0.161288
0.155661
0.156315
0.169317
0.201694
0.253916
0.310467
0.357071
0.390378
0.410603
0.420176
0.422391
0.418653
0.410297
0.398462
0.383501
0.365604
0.345324
0.322744
0.2982
0.272481
0.316619
0.304013
0.291664
0.278072
0.263188
0.247099
0.230009
0.21306
0.1972
0.183234
0.173267
0.170011
0.179838
0.209311
0.259225
0.315027
0.361241
0.394334
0.414436
0.423889
0.426086
0.422522
0.414641
0.403582
0.389895
0.373462
0.354272
0.332568
0.308819
0.283992
0.364085
0.352489
0.339888
0.325063
0.308245
0.289605
0.269546
0.24903
0.229044
0.210812
0.196646
0.189533
0.195435
0.221465
0.267404
0.320943
0.36582
0.39817
0.417918
0.427326
0.429779
0.426781
0.419881
0.410065
0.397605
0.38237
0.364136
0.343101
0.319871
0.295763
0.413957
0.402443
0.389403
0.3735
0.355087
0.3344
0.311941
0.288545
0.265257
0.243451
0.225575
0.214895
0.216579
0.238723
0.279618
0.329552
0.37215
0.403174
0.422274
0.431683
0.434785
0.43292
0.427059
0.41817
0.406572
0.392147
0.374604
0.354206
0.331454
0.307923
0.464601
0.453022
0.439544
0.422814
0.403242
0.381096
0.35692
0.331484
0.305832
0.281367
0.260555
0.246798
0.24458
0.262394
0.297899
0.342994
0.382386
0.411372
0.429483
0.439168
0.442779
0.44157
0.436342
0.428034
0.416939
0.40297
0.385851
0.36585
0.343565
0.320537
0.515506
0.503898
0.490131
0.472972
0.452853
0.43005
0.405103
0.378722
0.351916
0.326022
0.303409
0.287382
0.282088
0.295306
0.325882
0.365009
0.400159
0.426276
0.442933
0.452012
0.455422
0.454213
0.448994
0.440643
0.429467
0.415416
0.398291
0.378296
0.35621
0.333668
0.56689
0.555433
0.541667
0.524696
0.504924
0.482611
0.458266
0.432527
0.406312
0.380793
0.358133
0.341306
0.334096
0.342962
0.369009
0.402042
0.431515
0.45318
0.466938
0.473932
0.475894
0.473404
0.467064
0.457646
0.445471
0.430526
0.412738
0.392176
0.369862
0.347606
0.620201
0.608989
0.595848
0.580043
0.561956
0.541836
0.52014
0.497413
0.474408
0.452052
0.432106
0.41693
0.409668
0.415391
0.436891
0.463128
0.484971
0.500211
0.508661
0.511291
0.50952
0.503618
0.494247
0.482067
0.467411
0.450313
0.430775
0.408894
0.385636
0.363166
0.678377
0.668086
0.656643
0.643575
0.629229
0.613851
0.597824
0.581571
0.565587
0.550453
0.537249
0.527366
0.52289
0.527549
0.544631
0.562808
0.575056
0.580748
0.58045
0.574871
0.565635
0.553006
0.537493
0.519753
0.500177
0.478887
0.455899
0.43147
0.40613
0.382647
0.747813
0.740085
0.732257
0.724443
0.716965
0.71001
0.703809
0.698587
0.694453
0.691358
0.689419
0.688817
0.690503
0.696628
0.710082
0.719599
0.720592
0.713616
0.700065
0.681584
0.660051
0.63592
0.609624
0.582043
0.553761
0.525062
0.495956
0.466679
0.437659
0.412093
0.841881
0.839538
0.83872
0.83981
0.843348
0.849279
0.857478
0.867637
0.879119
0.891148
0.90283
0.913522
0.923077
0.932407
0.943182
0.944944
0.934349
0.913674
0.885021
0.850697
0.813067
0.773032
0.731307
0.689193
0.647654
0.60739
0.568491
0.531104
0.495648
0.466687
0.984009
0.990031
1.0009
1.01561
1.0337
1.0553
1.07938
1.10481
1.13016
1.15428
1.17596
1.1945
1.20948
1.22079
1.22813
1.22201
1.20169
1.17057
1.13098
1.08477
1.03399
0.980128
0.924318
0.868052
0.812563
0.75918
0.708434
0.660459
0.616074
0.582432
1.19811
1.20905
1.2302
1.25968
1.29355
1.32795
1.36141
1.39272
1.42063
1.44496
1.46515
1.48143
1.49345
1.49918
1.49634
1.47538
1.44593
1.4097
1.37007
1.32667
1.27812
1.22657
1.17363
1.12053
1.06709
1.01321
0.960029
0.908314
0.859641
0.823307
1.41806
1.42582
1.45264
1.48995
1.5294
1.56579
1.59609
1.61864
1.63426
1.645
1.65126
1.65388
1.65201
1.64427
1.62416
1.58499
1.54646
1.50617
1.46876
1.43333
1.40103
1.3719
1.34713
1.32833
1.31311
1.29597
1.27412
1.24934
1.22195
1.1965
1.41707
1.4316
1.46283
1.50171
1.53953
1.57073
1.59262
1.6051
1.61001
1.6099
1.60494
1.5963
1.58237
1.56115
1.52387
1.47155
1.42628
1.38308
1.34731
1.31847
1.29874
1.28796
1.28612
1.29425
1.31006
1.33045
1.35244
1.37163
1.38384
1.38386
0.139953
0.158211
0.162562
0.163215
0.16116
0.156711
0.150585
0.143555
0.13618
0.128901
0.121965
0.115744
0.110364
0.106316
0.103722
0.103304
0.105322
0.111428
0.123551
0.139851
0.154036
0.161123
0.159605
0.14996
0.133767
0.112491
0.0879892
0.0614211
0.0368188
0.0215967
0.228141
0.254933
0.259585
0.255637
0.245874
0.232982
0.218789
0.204424
0.190547
0.177697
0.166146
0.156334
0.148357
0.142863
0.139953
0.140832
0.145462
0.15703
0.177826
0.205
0.230043
0.24563
0.248919
0.239477
0.218997
0.189819
0.154887
0.11574
0.0795537
0.0470384
0.273401
0.302058
0.310773
0.308844
0.300335
0.287682
0.272773
0.256957
0.2412
0.226297
0.212777
0.201334
0.192307
0.186616
0.184585
0.187652
0.195216
0.209897
0.234179
0.264822
0.292963
0.310901
0.315719
0.306401
0.284231
0.251493
0.211079
0.16424
0.118963
0.0755401
0.299184
0.323827
0.333633
0.334445
0.328832
0.318556
0.305303
0.290343
0.27486
0.259904
0.246283
0.234902
0.226425
0.221972
0.222159
0.22819
0.23858
0.255586
0.281122
0.312134
0.340183
0.358073
0.363111
0.354003
0.331708
0.298073
0.255518
0.205231
0.154758
0.104551
0.310214
0.327189
0.337463
0.341243
0.33932
0.33243
0.322115
0.309302
0.295384
0.281703
0.269283
0.259234
0.252588
0.250623
0.25429
0.264026
0.27727
0.296124
0.321949
0.351645
0.377785
0.394194
0.398504
0.389312
0.367335
0.333984
0.291262
0.240093
0.187283
0.133159
0.31046
0.319636
0.328011
0.333833
0.335748
0.333355
0.32619
0.316339
0.30492
0.293633
0.283471
0.275862
0.272189
0.273972
0.282239
0.29629
0.312502
0.332886
0.35832
0.385805
0.409039
0.42296
0.425818
0.416116
0.394464
0.361944
0.320184
0.269821
0.216854
0.160369
0.305841
0.303395
0.308129
0.314941
0.320263
0.322074
0.319377
0.313313
0.305588
0.296967
0.289951
0.285802
0.286216
0.29303
0.306833
0.325699
0.344992
0.366674
0.391234
0.415926
0.43564
0.446514
0.447346
0.436728
0.415265
0.383786
0.343696
0.29527
0.242572
0.185534
0.294274
0.279388
0.279519
0.286318
0.294561
0.300518
0.302521
0.301067
0.29736
0.292843
0.289905
0.28989
0.29561
0.308592
0.328625
0.352696
0.375174
0.397905
0.421179
0.442765
0.45864
0.466189
0.464541
0.452719
0.431282
0.400946
0.362713
0.316061
0.264587
0.208544
0.276381
0.253043
0.248866
0.254727
0.264309
0.273025
0.278576
0.280987
0.281721
0.282091
0.283937
0.28906
0.3012
0.321226
0.348114
0.377606
0.403306
0.426787
0.448338
0.466763
0.478716
0.48285
0.478487
0.465284
0.443733
0.414518
0.377442
0.332933
0.283329
0.22923
0.260701
0.231199
0.221742
0.225093
0.234235
0.24427
0.252361
0.25802
0.262245
0.266367
0.27318
0.284322
0.303997
0.331598
0.365728
0.400684
0.429516
0.453409
0.473245
0.48827
0.496358
0.49708
0.49001
0.475386
0.453677
0.424775
0.389075
0.346816
0.299578
0.248043
0.250567
0.216237
0.201737
0.20123
0.208182
0.217846
0.227064
0.234926
0.241966
0.249389
0.259822
0.276793
0.30416
0.340296
0.381835
0.422117
0.453873
0.477874
0.495897
0.507512
0.511971
0.509303
0.499764
0.483827
0.461629
0.433113
0.3987
0.35868
0.314288
0.265175
0.247968
0.212666
0.192166
0.186376
0.189608
0.197152
0.205948
0.2146
0.22337
0.233245
0.246811
0.268168
0.303229
0.347995
0.39677
0.442059
0.476412
0.500327
0.516358
0.524705
0.525793
0.519995
0.50833
0.491275
0.468638
0.440541
0.407393
0.36989
0.327794
0.280829
0.252562
0.218257
0.194978
0.183451
0.181598
0.185465
0.192017
0.199875
0.208962
0.220069
0.235884
0.261113
0.302154
0.355363
0.410866
0.46067
0.49717
0.520827
0.534748
0.540109
0.538054
0.529593
0.516242
0.498439
0.475574
0.447996
0.416526
0.380846
0.340456
0.295203
0.265205
0.232367
0.207824
0.19265
0.185856
0.184779
0.18785
0.193248
0.201033
0.211794
0.22892
0.257026
0.301763
0.363085
0.424472
0.478155
0.516253
0.539418
0.551251
0.553965
0.549141
0.538572
0.524037
0.505953
0.483334
0.456723
0.426505
0.391898
0.352392
0.308553
0.28658
0.256339
0.231793
0.213937
0.202647
0.196606
0.194717
0.196023
0.200467
0.209652
0.226496
0.255858
0.304593
0.371937
0.438002
0.494813
0.533934
0.556262
0.566179
0.566627
0.559581
0.547528
0.532344
0.514467
0.493117
0.467328
0.437495
0.403007
0.364021
0.321284
0.318597
0.290189
0.265798
0.245849
0.230601
0.219634
0.212492
0.208917
0.20915
0.215063
0.230837
0.261352
0.312107
0.382575
0.451973
0.51108
0.550591
0.571984
0.58011
0.578662
0.570103
0.557272
0.541998
0.525095
0.504711
0.479362
0.44908
0.414411
0.375594
0.333696
0.359448
0.332379
0.307952
0.286141
0.267429
0.251912
0.239661
0.230979
0.22661
0.22837
0.241755
0.272403
0.323982
0.395564
0.467081
0.527627
0.5669
0.587142
0.59384
0.591099
0.581837
0.569089
0.55457
0.538003
0.51764
0.49193
0.461194
0.426148
0.387266
0.34604
0.407318
0.380996
0.356189
0.332599
0.310849
0.291309
0.274426
0.260879
0.251903
0.249388
0.259531
0.289271
0.340748
0.411696
0.484376
0.545522
0.584027
0.603004
0.608765
0.605581
0.596727
0.584435
0.569588
0.552466
0.531486
0.505077
0.47373
0.438182
0.399126
0.358536
0.460422
0.43425
0.40874
0.383449
0.359082
0.336154
0.315328
0.297529
0.284324
0.277966
0.284652
0.312501
0.36342
0.432644
0.505544
0.566463
0.603778
0.621704
0.62724
0.624952
0.615968
0.602677
0.587166
0.568691
0.546433