/*--------------------------------*- C++ -*----------------------------------*\
  =========                 |
  \\      /  F ield         | OpenFOAM: The Open Source CFD Toolbox
   \\    /   O peration     | Website:  https://openfoam.org
    \\  /    A nd           | Version:  12
     \\/     M anipulation  |
\*---------------------------------------------------------------------------*/
FoamFile
{
    format      ascii;
    class       volScalarField;
    location    "1250/air";
    object      nut;
}
// * * * * * * * * * * * * * * * * * * * * * * * * * * * * * * * * * * * * * //

dimensions      [0 2 -1 0 0 0 0];

internalField   nonuniform List<scalar> 
243000
(
0.00011423
0.00011813
0.000117682
0.000115478
0.00011209
0.000108023
0.000103658
9.9252e-05
9.49754e-05
9.0951e-05
8.72506e-05
8.39644e-05
8.11221e-05
7.87746e-05
7.69035e-05
7.55758e-05
0.000321898
7.51879e-05
7.59845e-05
7.76139e-05
7.96685e-05
8.16485e-05
8.30207e-05
8.33103e-05
8.22571e-05
7.9671e-05
7.58363e-05
0.000323689
0.000316024
0.000294942
0.000415497
0.000422055
0.000415628
0.000402156
0.000385174
0.00036676
0.000348181
0.000330227
0.00031338
0.000297973
0.000284225
0.000272334
0.000262388
0.00025462
0.000249165
0.000246525
0.000247604
0.00025192
0.000260043
0.000271022
0.000283183
0.000294713
0.00030398
0.000309511
0.000310344
0.000305803
0.000296366
0.000282825
0.000262663
0.000239812
0.000489428
0.000532182
0.000551382
0.0005575
0.000555339
0.000548146
0.000537812
0.00052568
0.00051263
0.000499356
0.000486406
0.000474299
0.000463453
0.000454629
0.000448426
0.000446272
0.000449289
0.000458106
0.000471589
0.000487212
0.000501584
0.000511839
0.000515987
0.000512502
0.000500664
0.000480371
0.000452944
0.000417272
0.000376829
0.000328668
0.000449824
0.000506752
0.000537308
0.000551333
0.000554977
0.00055191
0.00054461
0.000534812
0.000523734
0.000512047
0.00050063
0.000489862
0.000480352
0.000473048
0.000468767
0.000469346
0.000475882
0.000488923
0.000506539
0.00052549
0.00054212
0.000553765
0.000558822
0.000556094
0.000544929
0.000525302
0.000498316
0.000462962
0.000421947
0.000372852
0.000420223
0.000464548
0.000498898
0.000521276
0.000532723
0.000536064
0.000533902
0.00052817
0.000520604
0.00051225
0.000503372
0.000495048
0.000487879
0.000482964
0.00048136
0.000485289
0.000495816
0.000513147
0.000534617
0.000556403
0.00057474
0.000587266
0.000592792
0.000590489
0.000579851
0.000560977
0.000534767
0.00050064
0.000460499
0.000413176
0.000419976
0.000437975
0.000465996
0.000488746
0.000503276
0.000510468
0.000512136
0.000509887
0.000506619
0.000502113
0.000496794
0.00049169
0.000487521
0.000485599
0.000487281
0.000495048
0.000510005
0.00053177
0.000556965
0.000581331
0.000601129
0.000614326
0.00062014
0.000618099
0.000607899
0.000589785
0.000564539
0.000531976
0.000493444
0.000448627
0.000449122
0.000441063
0.000448863
0.000463882
0.000477311
0.000486394
0.000490879
0.000491626
0.00049032
0.000487688
0.000484279
0.000482088
0.000480925
0.000482174
0.000487388
0.000499343
0.000519019
0.000545455
0.00057437
0.000601217
0.000622397
0.000636215
0.000642279
0.000640444
0.000630636
0.000613254
0.000589054
0.000558156
0.000521554
0.000479407
0.000484675
0.000474985
0.000463322
0.000460677
0.000464802
0.000470365
0.000474411
0.000476231
0.000476172
0.000474822
0.00047263
0.000470902
0.000470772
0.000474257
0.000482658
0.000498801
0.000523269
0.000554554
0.000587367
0.000616719
0.000639313
0.00065381
0.000660169
0.000658564
0.000649138
0.000632461
0.000609329
0.000580081
0.000545532
0.000506002
0.000520407
0.000513348
0.000503524
0.000490716
0.000480756
0.000475437
0.000472852
0.000471117
0.000469229
0.000467012
0.000464447
0.000462313
0.000461549
0.000464461
0.000474519
0.000494177
0.000523516
0.000559335
0.000596198
0.000628303
0.000652427
0.000667732
0.000674497
0.000673201
0.000664195
0.000648211
0.000626128
0.000598473
0.000566027
0.00052894
0.000555186
0.000550487
0.000543419
0.000534212
0.000521762
0.000507289
0.000495352
0.000485538
0.000477282
0.000470194
0.000464082
0.000459211
0.000456198
0.000456876
0.000465274
0.000486603
0.000519866
0.000560482
0.000601029
0.000636121
0.000662116
0.000678421
0.000685759
0.000684905
0.000676392
0.000661115
0.000640063
0.000613963
0.00058349
0.000548688
0.00058918
0.000586027
0.000580795
0.000573616
0.000564174
0.000551757
0.000534893
0.000518675
0.000503145
0.000488768
0.000475961
0.000465268
0.000457415
0.000453965
0.000458344
0.000477826
0.000513272
0.000558071
0.000602591
0.000640467
0.00066855
0.000686184
0.000694316
0.000694079
0.000686174
0.000671649
0.000651641
0.000626964
0.000598294
0.000565644
0.000622681
0.000620395
0.000616136
0.000609951
0.000601661
0.000590956
0.000577282
0.000558715
0.000539342
0.000519525
0.000500103
0.000482262
0.000467447
0.000457667
0.000456329
0.000470078
0.000504918
0.000552423
0.000600927
0.000641875
0.000672013
0.000691234
0.000700436
0.000701019
0.000693873
0.000680181
0.000661231
0.000637832
0.000610822
0.000580204
0.000655815
0.000653842
0.000649949
0.000644124
0.000636212
0.000625994
0.0006132
0.000596937
0.0005767
0.000554633
0.000531294
0.000507851
0.000486175
0.000469021
0.000460378
0.000466821
0.000496608
0.000544589
0.000596089
0.000640366
0.00067294
0.000693779
0.000704341
0.000705946
0.000699736
0.000687015
0.000669067
0.000646915
0.000621428
0.000592758
0.000688514
0.00068642
0.000682476
0.000676614
0.000668677
0.000658461
0.000645775
0.000630298
0.000610622
0.000588448
0.000563794
0.000537384
0.000510863
0.000487186
0.000470844
0.000469058
0.000490211
0.00053569
0.000588657
0.000635911
0.000671282
0.000694185
0.000706143
0.000709023
0.000703941
0.000692305
0.000675439
0.000654504
0.000630418
0.000603567
0.000720628
0.000718058
0.000713769
0.000707629
0.00069945
0.000689021
0.00067614
0.000660592
0.000641759
0.000619712
0.000594767
0.000567209
0.000538105
0.000509874
0.000486887
0.000476831
0.000488715
0.000527364
0.000579621
0.000628931
0.00066702
0.000692331
0.000706179
0.000710438
0.000706687
0.000696246
0.000680556
0.000660841
0.000638076
0.000612899
0.000752022
0.000748675
0.000743835
0.000737271
0.000728743
0.000718011
0.000704845
0.000689032
0.000670321
0.000648441
0.00062357
0.000595733
0.000565547
0.000534678
0.000506868
0.000489528
0.000492217
0.000521093
0.00056996
0.00062001
0.000660426
0.000688247
0.000704271
0.000710245
0.000708014
0.000698966
0.000684573
0.000666129
0.000644653
0.000621028
0.000782693
0.000778383
0.000772808
0.000765703
0.00075676
0.000745701
0.000732247
0.00071615
0.000697223
0.000675549
0.000650771
0.000622866
0.000592262
0.000560027
0.000529119
0.000506068
0.000500371
0.000519598
0.000561195
0.000609943
0.000651899
0.000682092
0.000700445
0.000708491
0.000707905
0.00070053
0.000687605
0.000670527
0.000650363
0.000628217
0.000812786
0.000807366
0.000800936
0.000793197
0.000783807
0.000772423
0.000758714
0.000742391
0.00072346
0.000701949
0.000677192
0.000649172
0.000618298
0.000585307
0.000552496
0.000525306
0.000512493
0.00052233
0.000554931
0.00059979
0.000642038
0.00067422
0.000694931
0.000705249
0.000706608
0.000700999
0.000689742
0.000674168
0.000655388
0.000634687
0.000842586
0.000835896
0.000828576
0.000820196
0.000810379
0.00079873
0.000784867
0.000768522
0.00075027
0.000728806
0.000703914
0.000675601
0.000644317
0.000610681
0.000576565
0.000546409
0.000527786
0.000529217
0.000552937
0.000591315
0.000631761
0.000665074
0.000687943
0.000700606
0.000704126
0.00070044
0.000691059
0.000677158
0.000659883
0.000640651
0.000871677
0.000864395
0.000856435
0.000847545
0.000837454
0.000825782
0.000812147
0.000796588
0.000779
0.000757776
0.000732658
0.00070377
0.000671674
0.000637079
0.000601654
0.000569139
0.000545815
0.000539788
0.000554905
0.000586123
0.000623052
0.000655805
0.000679974
0.00069477
0.000700599
0.000699015
0.00069165
0.000679595
0.000663975
0.000646281
0.00089955
0.000891832
0.000883726
0.000874957
0.000865239
0.000854227
0.000841783
0.000827874
0.000810514
0.000789284
0.000763886
0.000734431
0.00070151
0.000665914
0.000629084
0.000594193
0.000566607
0.000553809
0.000560642
0.000584598
0.00061678
0.000647989
0.00067259
0.000688701
0.000696378
0.000696843
0.000691542
0.000681514
0.000667738
0.000651716
0.000926113
0.00091803
0.000909874
0.000901429
0.000892413
0.000883041
0.000872453
0.000858985
0.000842067
0.000821226
0.000796066
0.000766626
0.000733374
0.00069714
0.000659243
0.000622482
0.000590859
0.000571423
0.000570338
0.000586629
0.000613247
0.000641872
0.000666154
0.000683204
0.000692516
0.00069476
0.000691158
0.000683015
0.00067122
0.000657061
0.000951294
0.000943032
0.000935056
0.000927641
0.000920424
0.000912031
0.000901719
0.000888803
0.000872642
0.000852678
0.000828404
0.000799757
0.000766966
0.000730771
0.000692301
0.000654061
0.000619167
0.000593101
0.000584104
0.0005924
0.000613048
0.000637917
0.000660965
0.000678423
0.000689039
0.000692935
0.000690994
0.000684406
0.000674532
0.000662425
0.000975231
0.000967631
0.000960912
0.000954176
0.000946892
0.000938603
0.000928736
0.000916629
0.000901583
0.000882991
0.000860255
0.000833231
0.000801821
0.000766576
0.00072824
0.000689007
0.000651294
0.000619552
0.000602536
0.000602751
0.000616376
0.000636882
0.000657615
0.000674731
0.000686162
0.000691456
0.000691076
0.000686064
0.000677832
0.000667835
0.000997646
0.000990337
0.000983442
0.000976649
0.000969537
0.000961656
0.000952444
0.000941303
0.000927573
0.000910661
0.000889917
0.00086517
0.00083597
0.00080268
0.000765383
0.000726062
0.000686382
0.000650119
0.000626718
0.000618965
0.000625041
0.000639853
0.000657513
0.000673274
0.000684717
0.000690861
0.000691784
0.000688177
0.000681206
0.000673291
0.00101571
0.00100822
0.0010012
0.000994297
0.00098716
0.000979508
0.000970827
0.000960575
0.000948104
0.00093286
0.000914188
0.000891898
0.000865412
0.000834914
0.000799657
0.000762373
0.000724281
0.000688057
0.000660166
0.000644902
0.000642812
0.000650495
0.000663098
0.000676094
0.000686458
0.000692581
0.000694258
0.000691694
0.000685785
0.000679107
0.0010333
0.00102431
0.00101605
0.00100847
0.00100144
0.000994691
0.000987792
0.000980136
0.000970975
0.000959555
0.000945085
0.000927047
0.000904928
0.000878843
0.000848349
0.000814612
0.000778741
0.000742902
0.000711941
0.000689977
0.000678953
0.000677823
0.000683009
0.000690718
0.000697797
0.000702231
0.000703303
0.0007008
0.000695245
0.000688425
0.00106473
0.0010561
0.00104793
0.00104076
0.00103485
0.00103009
0.00102609
0.00102215
0.00101738
0.00101086
0.00100162
0.000989027
0.000972572
0.000952227
0.00092807
0.000899883
0.00086796
0.000834587
0.000802888
0.000776237
0.000756988
0.000745657
0.000740735
0.000739723
0.000739949
0.000739324
0.000736775
0.00073188
0.000724807
0.00071703
0.00113086
0.00112401
0.00111835
0.00111529
0.00111484
0.00111639
0.00111907
0.00112186
0.00112386
0.00112411
0.00112128
0.00111544
0.00110624
0.00109384
0.00107821
0.00105882
0.00103487
0.00100862
0.000981869
0.000956696
0.00093482
0.000917128
0.000903556
0.000893096
0.000884134
0.000874674
0.000864544
0.000853721
0.00084231
0.00083145
0.00135095
0.00134663
0.00134825
0.00135546
0.00136332
0.00136955
0.00137441
0.00137813
0.00138076
0.00138175
0.00137862
0.00137495
0.00137008
0.00136466
0.00135806
0.00135089
0.00134054
0.00133002
0.0013197
0.00131066
0.0013031
0.00129736
0.0012933
0.00129048
0.00128745
0.00128049
0.00127296
0.00126577
0.00125957
0.00125238
0.000144717
0.000150497
0.00014946
0.000145861
0.000140708
0.000134732
0.000128459
0.000122248
0.000116333
0.000110912
0.000106092
0.000101973
9.85847e-05
9.60524e-05
9.44046e-05
9.38384e-05
9.44333e-05
9.63289e-05
9.95254e-05
0.00010369
0.000108001
0.000111513
0.000113471
0.000113288
0.000110609
0.000105112
9.68833e-05
8.50469e-05
7.38975e-05
6.86899e-05
0.000558497
0.000618002
0.000600504
0.000556536
0.000507821
0.00046172
0.000420119
0.000383369
0.000351047
0.000323393
0.000300068
0.000281236
0.000266781
0.000257561
0.000253332
0.000255967
0.000264445
0.000278153
0.000293521
0.000307877
0.000320387
0.000331281
0.000340001
0.000342929
0.000336556
0.000320731
0.0002974
0.000266697
0.000242593
0.000244184
0.00082657
0.000939759
0.000942877
0.000903988
0.000847891
0.000786896
0.000727498
0.000672929
0.000623646
0.0005808
0.000544557
0.000515854
0.000495058
0.000484329
0.000484069
0.000498724
0.000524187
0.00055597
0.000584409
0.000603572
0.000614822
0.000621928
0.000626948
0.000623858
0.000608655
0.000577422
0.000532849
0.000473538
0.000418216
0.000393284
0.000909671
0.00105518
0.00110911
0.00109824
0.00105577
0.000997843
0.000937263
0.000880026
0.000826051
0.000778299
0.000738106
0.000707735
0.000688295
0.000683312
0.000695263
0.000730936
0.000781513
0.000836239
0.000877766
0.000900358
0.000908478
0.000909157
0.000906995
0.000895045
0.000868582
0.000822987
0.000760485
0.000678908
0.000596042
0.000543474
0.000900099
0.00105807
0.00113889
0.00115806
0.00114055
0.00110263
0.00105376
0.000999973
0.000949841
0.000905571
0.000868554
0.000843766
0.00083182
0.000838113
0.000869045
0.000932098
0.00101295
0.00109329
0.00115045
0.00117799
0.0011832
0.00117758
0.00116713
0.00114604
0.0011089
0.00105174
0.000975653
0.000878394
0.000775263
0.000701443
0.000841084
0.000962842
0.00105129
0.00109747
0.0011105
0.00110028
0.00107437
0.00104014
0.00100271
0.000969092
0.000943714
0.000927485
0.000927663
0.000949915
0.00100522
0.00110006
0.0012157
0.00132225
0.00139484
0.00142832
0.00143233
0.00142141
0.00140397
0.00137452
0.00132848
0.00126249
0.0011766
0.00106925
0.000952427
0.000862928
0.000785966
0.000864186
0.000939795
0.0009936
0.00102402
0.00103401
0.00102856
0.00101268
0.000992331
0.000976048
0.00096606
0.000965065
0.000981513
0.00102335
0.00110659
0.0012371
0.00139037
0.00152406
0.00161138
0.00165126
0.00165566
0.00164073
0.00161757
0.00158069
0.00152782
0.00145544
0.00136293
0.00124926
0.00112423
0.00102309
0.000769664
0.000802528
0.000847789
0.000891566
0.000926855
0.000948452
0.000957576
0.000957587
0.000951914
0.000947038
0.0009472
0.000962871
0.000998152
0.00106278
0.00117698
0.00134595
0.00153667
0.00170066
0.00180286
0.00184938
0.00185492
0.00183736
0.00180949
0.00176662
0.00170829
0.00163137
0.00153482
0.00141832
0.00128864
0.00117837
0.000787064
0.000780151
0.000795811
0.000820806
0.000848476
0.00087131
0.000886794
0.000895823
0.000900644
0.000905108
0.000913777
0.00093514
0.000983427
0.00107249
0.00121972
0.0014292
0.00165628
0.00185085
0.00197071
0.00202391
0.00203161
0.00201311
0.00198198
0.00193438
0.0018717
0.00179166
0.00169302
0.00157615
0.00144552
0.00132815
0.000849013
0.000809369
0.000794331
0.000797908
0.000810132
0.000825102
0.000837734
0.000847781
0.000856075
0.000864577
0.000877615
0.000902394
0.000952105
0.001057
0.00123809
0.00148944
0.00175404
0.00197557
0.00211518
0.00217669
0.00218757
0.00216915
0.00213682
0.00208691
0.00202025
0.001938
0.00183862
0.00172426
0.00159428
0.00147121
0.000970538
0.0009093
0.000868181
0.000844834
0.000833831
0.000830057
0.000829817
0.000831747
0.000834711
0.000839729
0.000850523
0.000874042
0.000922223
0.00102892
0.00123583
0.00152939
0.00182823
0.00207505
0.00223486
0.00230876
0.00232349
0.0023066
0.00227585
0.00222531
0.0021569
0.00207228
0.00197396
0.00186039
0.00173209
0.0016063
0.00115651
0.00108914
0.00102765
0.000977156
0.000938251
0.000908524
0.000885185
0.000867041
0.000853772
0.00084553
0.000845299
0.000860139
0.000901523
0.00100279
0.00122145
0.0015525
0.00188715
0.00215342
0.00233114
0.00242049
0.00244282
0.00243004
0.00240145
0.00235096
0.00228163
0.00219652
0.00209788
0.00198549
0.00185986
0.00173352
0.0013993
0.00133689
0.00126706
0.00119734
0.00113243
0.00107336
0.00101956
0.000971512
0.000930086
0.000897077
0.000875419
0.000872051
0.000899052
0.000991372
0.00120636
0.00156138
0.00193515
0.00222141
0.00241152
0.0025145
0.00254923
0.00254088
0.0025151
0.00246558
0.00239607
0.0023118
0.0022121
0.00210122
0.00197855
0.0018544
0.00167994
0.00163145
0.00156297
0.00148363
0.00139993
0.00131511
0.00123117
0.00114994
0.00107352
0.0010059
0.000952465
0.000921042
0.000924838
0.000998725
0.00120108
0.00156503
0.00196749
0.00228156
0.0024847
0.00259768
0.0026435
0.00264048
0.00261806
0.00257015
0.00250152
0.00241783
0.0023186
0.00220924
0.0020895
0.00196966
0.00197381
0.00194473
0.00188584
0.0018048
0.00171133
0.00160906
0.00150103
0.00139018
0.00127978
0.00117489
0.00108308
0.00101576
0.000988769
0.00103583
0.00121491
0.00157268
0.00198703
0.00233024
0.00255316
0.0026752
0.00272728
0.00273057
0.00271156
0.00266634
0.00259993
0.00251659
0.00241889
0.00231133
0.00219444
0.00207923
0.00225972
0.00224756
0.00220563
0.00213312
0.00203805
0.00192764
0.0018045
0.00167196
0.00153368
0.0013955
0.00126599
0.00115945
0.00109583
0.00110971
0.00126055
0.00159854
0.00200542
0.00236703
0.00261075
0.00274825
0.00280649
0.00281204
0.00279663
0.00275538
0.00269139
0.00260975
0.00251446
0.00240909
0.00229522
0.00218461
0.00253429
0.00253536
0.00250707
0.00244776
0.00235869
0.00224834
0.00211878
0.00197332
0.00181565
0.00165176
0.00149073
0.00134769
0.00124633
0.00122383
0.00133944
0.00164132
0.0020359
0.00239493
0.00265547
0.00280761
0.00287822
0.00288961
0.00287512
0.0028385
0.00277689
0.00269845
0.00260657
0.00250411
0.00239457
0.0022902
0.00279169
0.00280245
0.00278527
0.00273707
0.00265888
0.00255373
0.00242418
0.00227322
0.00210439
0.00192346
0.00173938
0.00156736
0.00143251
0.00137608
0.00144998
0.0017084
0.00207605
0.0024205
0.00268798
0.00285476
0.00293769
0.00295839
0.00294698
0.0029152
0.00285534
0.00278195
0.00269604
0.00259895
0.00249478
0.00239634
0.00302429
0.00304239
0.0030333
0.0029941
0.00292605
0.00282821
0.00270226
0.00255077
0.00237718
0.00218683
0.00198849
0.00179691
0.00163699
0.00155069
0.00158554
0.00179444
0.00211864
0.00245499
0.00271327
0.00288847
0.00298455
0.00301761
0.00301416
0.00298835
0.00293216
0.00286561
0.00278644
0.00269505
0.0025964
0.00250359
0.00323215
0.00324712
0.00324086
0.0032075
0.00314652
0.00305515
0.00293343
0.00278348
0.0026087
0.00241431
0.00220909
0.0020071
0.00183235
0.00172369
0.00172586
0.00188536
0.00216275
0.00247257
0.00273168
0.00291355
0.00302339
0.00307316
0.00307466
0.00305418
0.00300985
0.00295274
0.00287985
0.00279395
0.00270085
0.00261209
0.00341627
0.00342263
0.00341139
0.00337656
0.00331658
0.00322714
0.00310801
0.00296009
0.00278602
0.00259056
0.00238247
0.0021754
0.00199183
0.00186667
0.00184033
0.00195617
0.0021887
0.0024672
0.00271981
0.00290865
0.00302807
0.00308865
0.00310417
0.00309884
0.00306982
0.0030242
0.00296141
0.00288538
0.0028005
0.00271589
0.00357174
0.0035662
0.00354597
0.00350537
0.00344132
0.00335018
0.00323094
0.00308314
0.00290846
0.00271141
0.002501
0.00229068
0.00210096
0.00196217
0.00190811
0.00197973
0.00216721
0.00241351
0.00265209
0.00284457
0.00297876
0.00305827
0.00309418
0.0031057
0.00309556
0.00306613
0.00301882
0.00295539
0.002881
0.00280638
0.00368853
0.00366868
0.00363696
0.00358709
0.00351593
0.00342063
0.0032987
0.00314836
0.00297081
0.00277091
0.0025584
0.00234653
0.00215301
0.0020021
0.00192251
0.00194321
0.00208048
0.00228657
0.00250575
0.0026994
0.00284911
0.00295216
0.00301563
0.00305221
0.00306761
0.00306139
0.00303629
0.00299302
0.00293504
0.00287404
0.00374926
0.00371427
0.00366862
0.00360743
0.00352912
0.00342904
0.00330314
0.00314912
0.00296901
0.00276911
0.00255993
0.00235386
0.00216395
0.0020075
0.00190763
0.0018789
0.00194741
0.00209506
0.00227596
0.0024569
0.0026158
0.00274267
0.00283764
0.00290807
0.00295558
0.00298032
0.00298556
0.0029725
0.0029397
0.00289628
0.00372558
0.00367663
0.00361865
0.00355079
0.00346893
0.00336734
0.00324103
0.0030889
0.00291567
0.00272917
0.00253915
0.00235605
0.00218541
0.0020381
0.00193037
0.00186539
0.00186314
0.00192855
0.00203699
0.00216993
0.0023087
0.00243949
0.00255435
0.00265173
0.00273039
0.00278963
0.00283058
0.00285411
0.00285786
0.00284018
0.0035809
0.0035289
0.00347367
0.00341186
0.00333858
0.00324785
0.00313596
0.00300447
0.00286013
0.00270937
0.00255846
0.00241353
0.0022778
0.00215561
0.00205662
0.00197566
0.00192138
0.00190889
0.00193211
0.00198505
0.0020596
0.00214721
0.00223974
0.00233127
0.00241688
0.00249304
0.00255798
0.0026106
0.00264798
0.00266392
0.00332557
0.00329393
0.00326346
0.00322958
0.0031845
0.00312264
0.00304331
0.00295008
0.00284946
0.00274638
0.00264359
0.0025414
0.0024414
0.0023489
0.00226899
0.002193
0.00212092
0.00206717
0.00203237
0.00201713
0.00202062
0.00204091
0.00207472
0.00211809
0.0021667
0.00221694
0.00226622
0.00231248
0.00235279
0.00238661
0.00307696
0.00307468
0.00308251
0.00308905
0.00308041
0.00305319
0.00301017
0.00295385
0.00289045
0.00282401
0.00275607
0.00268708
0.00261647
0.00254852
0.0024891
0.00242946
0.00236706
0.00231053
0.00226165
0.0022224
0.00219379
0.00217597
0.00216815
0.00216833
0.0021737
0.00218189
0.00219177
0.00220302
0.00221466
0.00223613
0.00292525
0.00293338
0.00295654
0.00297937
0.0029899
0.00298564
0.00296742
0.00293654
0.00289768
0.00285442
0.00280699
0.00275685
0.00270493
0.00265442
0.00260853
0.00256329
0.00251945
0.00247832
0.00244294
0.00241467
0.00239476
0.00238289
0.00237829
0.00237896
0.00238222
0.00238582
0.00238967
0.00239482
0.00240098
0.00241598
0.00282866
0.00284567
0.00286859
0.0028873
0.00289511
0.00289206
0.0028798
0.00286005
0.0028348
0.00280614
0.00277281
0.00273715
0.00269939
0.0026631
0.002627
0.00259593
0.0025696
0.00254786
0.00253273
0.00252561
0.00252706
0.00253691
0.00255239
0.00257093
0.00258982
0.00260695
0.00262395
0.00264132
0.0026534
0.0026577
0.000172256
0.000177434
0.000174714
0.000169868
0.00016349
0.000156232
0.000148656
0.000141179
0.000134095
0.000127633
0.000121888
0.000116995
0.000113011
0.00011014
0.000108445
0.000108232
0.000109564
0.000112737
0.000117993
0.000124847
0.000131713
0.000137008
0.000139798
0.000139528
0.000135914
0.000128571
0.00011733
0.000100943
7.97957e-05
6.95788e-05
0.000714235
0.000809637
0.000811904
0.000762162
0.00069937
0.000638041
0.000582798
0.000534286
0.000492209
0.000456545
0.00042676
0.000403623
0.000386503
0.000376966
0.000373516
0.000379099
0.000389379
0.000404709
0.000422127
0.000441284
0.000462244
0.000482819
0.000499307
0.000504046
0.000491041
0.000458341
0.000412579
0.000355299
0.00030415
0.000262596
0.0011057
0.00127527
0.00131461
0.00127521
0.00120458
0.00112432
0.0010454
0.000972391
0.00090729
0.00085138
0.000804979
0.000770239
0.000747395
0.000740126
0.000747194
0.000773711
0.000806097
0.000838371
0.000861222
0.000876327
0.000892314
0.00090942
0.000924771
0.000922371
0.000891171
0.00083436
0.000750867
0.000643747
0.000539631
0.000461808
0.00134543
0.00154719
0.00161315
0.00159667
0.00153905
0.0014616
0.00137927
0.00129892
0.00122603
0.00116268
0.00111092
0.00107484
0.00105637
0.0010612
0.0010911
0.00115021
0.00121226
0.00126183
0.00128533
0.00129436
0.00130085
0.00130601
0.00131238
0.00129931
0.00125729
0.00117933
0.00106854
0.000926445
0.000780123
0.0006637
0.00145981
0.00165252
0.00174566
0.0017616
0.00172882
0.00166391
0.00158998
0.00151335
0.00144494
0.00138393
0.00133565
0.00130675
0.0013007
0.0013255
0.00138818
0.00148696
0.00158016
0.00164401
0.00166619
0.0016632
0.00165579
0.00165252
0.00165023
0.00163036
0.00157853
0.00148806
0.00136075
0.00119638
0.00102134
0.000873444
0.00152577
0.00168473
0.00177406
0.00180542
0.00179518
0.00175439
0.0016992
0.00163947
0.00157594
0.00152424
0.00148661
0.0014731
0.00148606
0.00153928
0.00164313
0.00178592
0.00190929
0.00198214
0.00199957
0.00198695
0.00196735
0.00195284
0.00194332
0.00191658
0.00185912
0.00176264
0.00162731
0.00145177
0.00125864
0.00108676
0.00153194
0.00162544
0.00169796
0.0017395
0.0017519
0.00173948
0.00170924
0.00167104
0.00163018
0.00159548
0.00157823
0.00158218
0.00161992
0.00171058
0.00186176
0.00205102
0.00220342
0.00227985
0.00228998
0.00226767
0.00223882
0.00221485
0.00219684
0.0021648
0.00210422
0.00200626
0.00186941
0.00169172
0.0014905
0.00130028
0.0014902
0.00153164
0.00157992
0.00162117
0.0016477
0.00165625
0.00164933
0.00163257
0.00161529
0.00160453
0.00161131
0.00164238
0.00171017
0.00184553
0.00204957
0.00228655
0.00246523
0.00254152
0.00254316
0.00251186
0.00247482
0.00244392
0.00241762
0.0023818
0.00232035
0.00222305
0.00208916
0.0019169
0.00171404
0.00151045
0.0014628
0.00145233
0.00146999
0.00149834
0.00152729
0.00154837
0.00155908
0.00156205
0.00156343
0.00157098
0.00159892
0.00165946
0.00176356
0.00195059
0.0022116
0.00249582
0.00269676
0.00277156
0.00276489
0.00272592
0.00268207
0.00264564
0.0026133
0.00257288
0.00251115
0.00241756
0.00229046
0.00212331
0.00192242
0.00171324
0.00147234
0.00141355
0.00139785
0.0014034
0.00142244
0.00144527
0.00146555
0.00148233
0.00149877
0.00152168
0.0015636
0.00164491
0.00178738
0.00202846
0.00235212
0.00268157
0.00289998
0.00297411
0.00296035
0.00291576
0.00286693
0.00282626
0.00278839
0.00274368
0.00268139
0.00259364
0.00247088
0.00231035
0.00211562
0.001907
0.00154666
0.00146226
0.00139485
0.00136549
0.00136384
0.00137752
0.00139662
0.00141751
0.00144164
0.00147419
0.00152634
0.0016196
0.00179079
0.00209253
0.00247657
0.00284668
0.00307779
0.00315256
0.0031344
0.00308687
0.00303538
0.00299034
0.00294788
0.0028992
0.00283582
0.00275155
0.00263292
0.00248057
0.00229527
0.00209288
0.00166252
0.00155795
0.00146805
0.00140988
0.00138079
0.00137482
0.00138056
0.00139353
0.00141465
0.00144741
0.00150262
0.00160262
0.00179269
0.00214839
0.00258942
0.00299357
0.00323325
0.0033105
0.00329219
0.00324469
0.00319034
0.00314281
0.00309594
0.00304367
0.00297956
0.002895
0.0027819
0.00263759
0.00246241
0.00227178
0.00184805
0.00174522
0.00164213
0.00155867
0.00150038
0.0014645
0.00144225
0.00143467
0.00144035
0.00146062
0.00150867
0.00160796
0.00181263
0.00220732
0.00269523
0.00312226
0.00336984
0.00345202
0.00343821
0.00338975
0.00333379
0.0032868
0.00323626
0.00318047
0.0031143
0.00302997
0.00292142
0.00278514
0.0026206
0.00244332
0.00211426
0.00201588
0.00191046
0.00181282
0.00172949
0.00165987
0.00160267
0.0015608
0.00153591
0.00153049
0.0015593
0.00165112
0.00186566
0.00227849
0.00279765
0.00323752
0.00348907
0.00357781
0.00357087
0.00352192
0.00347221
0.00342534
0.00337209
0.00331294
0.00324493
0.00316093
0.00305622
0.0029278
0.00277554
0.00261053
0.00243349
0.00235009
0.00225327
0.00215251
0.00205018
0.00194977
0.00185519
0.00177327
0.0017092
0.00166901
0.00166786
0.00173943
0.00194142
0.00235478
0.00289848
0.00334065
0.00359177
0.00368848
0.00368956
0.00365037
0.00360544
0.00355999
0.00350514
0.00344435
0.00337498
0.00329164
0.00319162
0.00307208
0.00292946
0.0027756
0.00278867
0.00272407
0.0026416
0.00254125
0.00242599
0.00230197
0.00217508
0.00205529
0.00195086
0.00187122
0.00183617
0.00187834
0.00207679
0.0024754
0.00300206
0.00343141
0.0036797
0.00378503
0.00380186
0.00377322
0.00373435
0.00369163
0.00363692
0.00357638
0.00350777
0.00342686
0.00333443
0.00322022
0.00308468
0.00294045
0.00316018
0.00311387
0.00304162
0.0029419
0.00281924
0.00267931
0.00252854
0.00237775
0.00223728
0.00212013
0.00205068
0.00206153
0.00223702
0.00261086
0.00310373
0.00351272
0.00375376
0.00386849
0.00390499
0.00388765
0.00385711
0.00381898
0.00376669
0.00370958
0.00364852
0.00357898
0.00348777
0.00337436
0.00324207
0.00310442
0.00352909
0.00349363
0.00342729
0.00332832
0.00320117
0.00305063
0.00288323
0.00270897
0.00253912
0.00238971
0.00228796
0.00226848
0.00240944
0.00274743
0.00319241
0.00357388
0.00381352
0.00393497
0.00398637
0.00398826
0.00396921
0.00393732
0.00389277
0.00384648
0.00379579
0.00373067
0.00364272
0.00353111
0.00340043
0.00326832
0.00387933
0.00384599
0.00378091
0.00368094
0.00354996
0.00339183
0.00321232
0.0030203
0.00282742
0.002651
0.00251968
0.00247102
0.00256511
0.00286021
0.00324941
0.00360111
0.00384034
0.00397851
0.00404541
0.0040625
0.00405961
0.00403742
0.00400292
0.00396462
0.00392056
0.0038647
0.0037854
0.00368146
0.00355647
0.00343054
0.00419389
0.00415629
0.0040878
0.00398439
0.00384903
0.00368437
0.0034951
0.00328873
0.00307666
0.00287658
0.00271713
0.00263698
0.00267963
0.00292058
0.00325105
0.00357314
0.00381359
0.0039689
0.00405574
0.00409335
0.00410677
0.00410011
0.00407818
0.00404895
0.00401246
0.00396548
0.00389925
0.0038107
0.00370022
0.00358476
0.00445627
0.00441002
0.00433451
0.00422554
0.00408487
0.00391376
0.0037155
0.00349619
0.00326674
0.00304476
0.00285802
0.00274341
0.00273675
0.0029096
0.00317995
0.00346846
0.0037075
0.00387576
0.00398237
0.00404666
0.00408387
0.00410051
0.00409861
0.00408585
0.00406345
0.00402892
0.00397647
0.00390222
0.00381192
0.00371279
0.00464909
0.00459106
0.0045067
0.00439129
0.00424502
0.00406762
0.00386096
0.00362992
0.00338521
0.00314458
0.00293464
0.00278867
0.0027375
0.00283477
0.00304498
0.00328827
0.00350985
0.00367992
0.0038072
0.00389864
0.00396633
0.00401188
0.00403761
0.00404992
0.00405028
0.00403637
0.00400395
0.00394866
0.00387989
0.00380431
0.00475316
0.004682
0.00458917
0.00446832
0.00431792
0.00413616
0.00392406
0.0036856
0.00343236
0.00318278
0.00296202
0.00279756
0.00271405
0.00274551
0.00288957
0.00307456
0.00325156
0.0034078
0.00354013
0.00365166
0.0037446
0.00381758
0.0038738
0.00391699
0.00394755
0.0039627
0.00395869
0.00392995
0.00388728
0.00383941
0.00474854
0.00466683
0.00456909
0.00444721
0.00429791
0.00411811
0.00390945
0.00367494
0.0034285
0.00318942
0.00297935
0.00281774
0.00272029
0.00270826
0.00278738
0.00290237
0.00301877
0.00313479
0.00324832
0.00335279
0.00344891
0.00353506
0.0036121
0.00368122
0.00374097
0.00378739
0.00381575
0.00382223
0.00380842
0.00378532
0.00462405
0.0045386
0.00444535
0.00433277
0.00419613
0.00403151
0.00384024
0.00362981
0.00341463
0.00321124
0.00303486
0.00289605
0.00280444
0.00277024
0.00279738
0.00284595
0.00290077
0.00296076
0.00302593
0.00309426
0.00316483
0.00323634
0.00330878
0.00338195
0.00345333
0.00351784
0.00356941
0.00360389
0.00361979
0.00361722
0.00439768
0.0043185
0.00424148
0.00415354
0.00404761
0.00391832
0.00376738
0.00360376
0.00344004
0.00328787
0.00315597
0.0030494
0.00297236
0.00292906
0.00292081
0.00292191
0.00292418
0.00293056
0.00294386
0.0029645
0.00299185
0.00302598
0.00306727
0.0031159
0.00316964
0.00322376
0.00327192
0.00330981
0.00333508
0.00334561
0.00412652
0.00407172
0.00402804
0.00398422
0.00392679
0.00384632
0.00374585
0.00363449
0.00352199