/*--------------------------------*- C++ -*----------------------------------*\
  =========                 |
  \\      /  F ield         | OpenFOAM: The Open Source CFD Toolbox
   \\    /   O peration     | Website:  https://openfoam.org
    \\  /    A nd           | Version:  12
     \\/     M anipulation  |
\*---------------------------------------------------------------------------*/
FoamFile
{
    format      ascii;
    class       volScalarField;
    location    "1250/air";
    object      p_rgh;
}
// * * * * * * * * * * * * * * * * * * * * * * * * * * * * * * * * * * * * * //

dimensions      [1 -1 -2 0 0 0 0];

internalField   nonuniform List<scalar> 
243000
(
29.6261
29.6337
29.6337
29.5722
29.507
29.4448
29.3882
29.3409
29.3038
29.2804
29.2724
29.2804
29.2997
29.3344
29.3794
29.4449
29.5208
29.6117
29.7052
29.8007
29.8914
29.9754
30.0496
30.1124
30.167
30.2096
30.2519
30.2727
30.3291
30.312
29.622
29.6179
29.6176
29.5663
29.5085
29.4485
29.3931
29.3464
29.3096
29.2876
29.2812
29.29
29.3093
29.3438
29.3882
29.4532
29.5284
29.619
29.7129
29.8089
29.8999
29.9842
30.0584
30.1208
30.175
30.2167
30.2591
30.2789
30.3364
30.3047
29.6149
29.5785
29.5746
29.5229
29.4705
29.4166
29.3671
29.3257
29.2934
29.2752
29.2721
29.2829
29.3031
29.338
29.3824
29.4471
29.5217
29.6141
29.7109
29.809
29.9007
29.9856
30.0603
30.1231
30.1777
30.2191
30.2616
30.2767
30.3347
30.2942
29.6092
29.5395
29.5297
29.4761
29.4282
29.3796
29.3352
29.2985
29.2699
29.2549
29.2545
29.2667
29.2877
29.3223
29.366
29.4302
29.504
29.595
29.6903
29.7876
29.879
29.9642
30.0401
30.1059
30.1645
30.2093
30.2564
30.2684
30.3297
30.2841
29.6035
29.5181
29.4997
29.4438
29.3975
29.3512
29.3093
29.2747
29.2478
29.2337
29.234
29.2466
29.2672
29.3007
29.3428
29.4053
29.4769
29.5658
29.6593
29.7553
29.8459
29.9313
30.0087
30.0769
30.1392
30.1873
30.2395
30.2499
30.3179
30.2721
29.5915
29.5139
29.4829
29.4285
29.3807
29.334
29.2929
29.2589
29.2318
29.2168
29.2158
29.2272
29.2462
29.2776
29.317
29.3767
29.4449
29.5308
29.6216
29.7155
29.8046
29.8902
29.9692
30.0401
30.1063
30.1582
30.2157
30.2264
30.3003
30.2558
29.5645
29.4963
29.4791
29.427
29.3778
29.3291
29.2858
29.249
29.2205
29.204
29.2008
29.2096
29.2256
29.2538
29.2892
29.3449
29.4084
29.49
29.5769
29.6675
29.7548
29.8404
29.9212
29.995
30.0654
30.1215
30.1846
30.1977
30.276
30.2337
29.5209
29.4545
29.4581
29.4243
29.3785
29.3295
29.2843
29.2444
29.2127
29.1939
29.1882
29.1942
29.2068
29.2305
29.2607
29.3107
29.3683
29.4443
29.5257
29.6123
29.6973
29.7827
29.8653
29.9423
30.0172
30.0778
30.1466
30.1638
30.2454
30.2057
29.4691
29.3941
29.4099
29.3958
29.3633
29.3219
29.2788
29.239
29.2057
29.1858
29.1772
29.1803
29.1893
29.2086
29.2327
29.2757
29.3257
29.3947
29.4694
29.5509
29.6331
29.7183
29.8028
29.8832
29.9626
30.0281
30.1025
30.1251
30.2096
30.1744
29.4094
29.3278
29.3459
29.3434
29.3256
29.2972
29.2602
29.2247
29.1943
29.1758
29.1665
29.1669
29.1722
29.1875
29.2057
29.2411
29.282
29.3422
29.409
29.4847
29.5637
29.6484
29.7348
29.8187
29.9028
29.9732
30.0529
30.0821
30.1695
30.1402
29.344
29.257
29.2773
29.2808
29.2711
29.2551
29.2288
29.1995
29.1742
29.1591
29.152
29.1521
29.1546
29.166
29.1792
29.2073
29.2386
29.288
29.3459
29.4149
29.4901
29.5742
29.6625
29.75
29.8388
29.9143
29.999
30.0357
30.1258
30.1036
29.2751
29.1847
29.2058
29.2136
29.2108
29.2009
29.1855
29.1652
29.1449
29.134
29.1298
29.1324
29.1347
29.1435
29.1521
29.1736
29.1958
29.2339
29.281
29.343
29.4139
29.497
29.587
29.6781
29.7715
29.8523
29.9417
29.9867
30.0792
30.0651
29.2027
29.1113
29.1326
29.1437
29.1457
29.142
29.1336
29.1224
29.1088
29.1016
29.1002
29.1052
29.11
29.1182
29.1234
29.1395
29.1529
29.1805
29.2161
29.2698
29.3363
29.4179
29.5095
29.604
29.7021
29.788
29.882
29.9355
30.0304
30.0256
29.128
29.0372
29.058
29.0722
29.0785
29.0799
29.0773
29.0728
29.0669
29.0639
29.0649
29.0712
29.0786
29.0883
29.0919
29.1036
29.1097
29.1275
29.1527
29.1969
29.2584
29.3382
29.4309
29.5287
29.6311
29.7222
29.8207
29.8825
29.9795
29.986
29.0522
28.9642
28.9842
29.0005
29.0105
29.0166
29.0188
29.0197
29.02
29.0216
29.025
29.0323
29.0406
29.0525
29.056
29.0651
29.0654
29.0747
29.0906
29.1256
29.181
29.2588
29.3521
29.4529
29.5593
29.6556
29.7583
29.8284
29.927
29.9464
28.9748
28.8914
28.9107
28.9289
28.9418
28.9523
28.959
28.9645
28.9693
28.975
28.9811
28.9898
28.9979
29.0108
29.0145
29.0227
29.0192
29.0219
29.0295
29.0566
29.1052
29.1805
29.2739
29.3771
29.4871
29.5885
29.6954
29.7738
29.8735
29.9065
28.8945
28.8185
28.837
28.8568
28.8721
28.8859
28.897
28.9063
28.9151
28.9243
28.9331
28.9434
28.9517
28.9641
28.9675
28.975
28.97
28.9683
28.9695
28.9891
29.032
29.1038
29.1968
29.302
29.4149
29.5214
29.6325
29.7186
29.8189
29.8664
28.8099
28.7443
28.7625
28.7839
28.8014
28.818
28.8325
28.8452
28.8571
28.8693
28.8804
28.8924
28.9015
28.913
28.9157
28.9223
28.9164
28.9126
28.9095
28.9231
28.9613
29.0294
29.1213
29.2277
29.3431
29.4546
29.5693
29.6626
29.7634
29.825
28.7199
28.6669
28.6856
28.7089
28.7289
28.7481
28.7657
28.7814
28.7963
28.811
28.8238
28.8371
28.8468
28.8576
28.8594
28.8649
28.8583
28.8539
28.8486
28.8586
28.8924
28.9571
29.0474
29.1544
29.2721
29.3877
29.505
29.6054
29.7074
29.7815
28.6234
28.5848
28.6043
28.63
28.6527
28.6749
28.6957
28.7145
28.7327
28.7496
28.7637
28.7778
28.7876
28.7977
28.7985
28.8031
28.796
28.7914
28.7861
28.794
28.8247
28.8867
28.9753
29.0821
29.2012
29.3201
29.4398
29.5466
29.6509
29.7351
28.5175
28.4948
28.5157
28.5445
28.5708
28.5961
28.6203
28.6437
28.6652
28.6842
28.6996
28.7144
28.7239
28.7334
28.7328
28.7365
28.7295
28.7251
28.7205
28.7284
28.7575
28.8173
28.9041
29.0102
29.1297
29.2509
29.3732
29.4853
29.5923
29.6852
28.3984
28.391
28.4144
28.447
28.4774
28.508
28.5383
28.5668
28.5912
28.6126
28.6296
28.6454
28.6549
28.6641
28.6625
28.6658
28.6586
28.655
28.651
28.6602
28.6891
28.7468
28.8316
28.9376
29.0571
29.1801
29.3041
29.4205
29.5303
29.6305
28.2607
28.2666
28.294
28.333
28.3718
28.4107
28.4476
28.4801
28.5081
28.5325
28.5518
28.5692
28.5791
28.5884
28.5864
28.5902
28.5833
28.5807
28.5778
28.5881
28.6174
28.6739
28.758
28.8639
28.9829
29.1065
29.2315
29.3511
29.4634
29.5697
28.0929
28.1111
28.149
28.1998
28.2498
28.2973
28.3408
28.3795
28.4129
28.4415
28.4642
28.4839
28.4952
28.5053
28.5038
28.5085
28.5026
28.5018
28.5008
28.5123
28.5427
28.5998
28.6841
28.7889
28.9061
29.029
29.1537
29.2753
29.3889
29.4997
27.9021
27.9365
27.9879
28.05
28.11
28.1671
28.2192
28.2656
28.3057
28.3399
28.3669
28.39
28.4037
28.4156
28.4155
28.4218
28.4179
28.4202
28.4218
28.4362
28.4691
28.5276
28.6113
28.7135
28.8279
28.9487
29.0717
29.1935
29.3076
29.421
27.6532
27.7018
27.7717
27.8538
27.9343
28.0101
28.0779
28.1376
28.1887
28.2315
28.2654
28.294
28.3121
28.3273
28.3295
28.3376
28.336
28.3411
28.3453
28.3629
28.3979
28.457
28.538
28.636
28.7456
28.8619
28.9809
29.0995
29.2106
29.322
27.4084
27.482
27.5766
27.6812
27.7832
27.8759
27.9572
28.0286
28.0888
28.1386
28.1779
28.2113
28.2336
28.2528
28.2581
28.2682
28.2689
28.277
28.2848
28.3055
28.3418
28.4004
28.4791
28.574
28.6793
28.791
28.906
29.0219
29.1301
29.2405
26.9429
27.0748
27.2337
27.3994
27.5551
27.6886
27.8001
27.8961
27.9765
28.0412
28.0921
28.135
28.164
28.1884
28.196
28.2073
28.208
28.2156
28.2229
28.2419
28.2746
28.3266
28.3977
28.4834
28.5785
28.6779
28.779
28.881
28.9726
29.0707
26.9422
27.1192
27.3064
27.4877
27.649
27.7799
27.8833
27.9683
28.0385
28.096
28.1418
28.1813
28.2079
28.2299
28.236
28.2471
28.2498
28.2629
28.2773
28.3056
28.3478
28.4095
28.4905
28.5863
28.6917
28.8026
28.9138
29.027
29.1267
29.2363
25.6156
25.9008
26.2376
26.5707
26.8588
27.0843
27.2573
27.3946
27.5032
27.5919
27.6608
27.7191
27.7575
27.7877
27.7942
27.8015
27.7957
27.7948
27.7903
27.7946
27.8096
27.841
27.8865
27.94
27.9965
28.0526
28.107
28.1592
28.2032
28.2744
29.4156
29.3567
29.3316
29.2639
29.2135
29.1775
29.1505
29.132
29.1205
29.118
29.1251
29.1436
29.1664
29.2005
29.2344
29.2838
29.3357
29.4047
29.4779
29.5606
29.6487
29.7432
29.8389
29.9323
30.0236
30.1036
30.1814
30.2243
30.2941
30.268
29.4042
29.3334
29.3134
29.2562
29.2143
29.1805
29.1547
29.1369
29.1265
29.125
29.1325
29.1511
29.1736
29.2073
29.2405
29.2895
29.341
29.4102
29.4843
29.5681
29.6572
29.7526
29.8489
29.9424
30.0337
30.113
30.1906
30.2325
30.3031
30.2597
29.3904
29.3138
29.2933
29.2402
29.2033
29.1731
29.1498
29.1336
29.1243
29.124
29.1316
29.1498
29.172
29.2054
29.2375
29.2852
29.3348
29.4025
29.4748
29.5575
29.6455
29.7413
29.839
29.9342
30.0272
30.107
30.1872
30.2251
30.301
30.2505
29.3785
29.2975
29.2733
29.2235
29.1913
29.1649
29.1444
29.13
29.1219
29.1224
29.1299
29.1478
29.1694
29.2018
29.232
29.278
29.3247
29.3896
29.4585
29.5375
29.6223
29.7159
29.8135
29.9108
30.0072
30.0892
30.1743
30.2082
30.2919
30.2398
29.3662
29.2881
29.2592
29.2141
29.1847
29.1606
29.141
29.127
29.1193
29.1197
29.1266
29.1436
29.1638
29.1946
29.2222
29.2652
29.3076
29.3685
29.4328
29.5075
29.5883
29.6798
29.7766
29.8742
29.9724
30.0573
30.1469
30.1817
30.2756
30.2248
29.346
29.2812
29.2559
29.2146
29.1857
29.1618
29.1417
29.1271
29.1177
29.1173
29.1231
29.1386
29.1567
29.1852
29.2095
29.2486
29.2855
29.3409
29.3994
29.4688
29.5456
29.635
29.7314
29.8298
29.9302
30.0175
30.1124
30.1481
30.2525
30.2042
29.3079
29.2532
29.2487
29.217
29.1895
29.166
29.1451
29.1293
29.1185
29.116
29.12
29.1335
29.1492
29.1747
29.1948
29.229
29.2595
29.3081
29.3596
29.4231
29.4957
29.5832
29.6796
29.7792
29.8822
29.9721
30.0722
30.1103
30.2231
30.1782
29.2638
29.2086
29.2211
29.206
29.191
29.1701
29.1495
29.1331
29.1209
29.1166
29.1181
29.129
29.1415
29.1638
29.1792
29.2075
29.2305
29.271
29.3147
29.3718
29.44
29.5259
29.6226
29.7236
29.8295
29.9224
30.0272
30.0691
30.1883
30.1475
29.2193
29.1609
29.1786
29.1771
29.1748
29.1636
29.1505
29.1354
29.123
29.1176
29.1172
29.1253
29.1342
29.1527
29.1628
29.1847
29.1992
29.2309
29.266
29.3163
29.3801
29.4644
29.5616
29.6644
29.7732
29.8693
29.9786
30.0252
30.1489
30.1134
29.1751
29.1132
29.1355
29.1404
29.1447
29.1421
29.1365
29.128
29.1197
29.1161
29.1152
29.1214
29.1271
29.1414
29.1454
29.1607
29.1663
29.1886
29.2147
29.2579
29.3172
29.4
29.4978
29.6027
29.7145
29.8139
29.9272
29.9796
30.106
30.0774
29.1325
29.0659
29.0919
29.1018
29.1104
29.1129
29.1126
29.1095
29.1064
29.1072
29.1087
29.1151
29.1189
29.1297
29.1272
29.1355
29.1323
29.1449
29.1619
29.1977
29.2525
29.3338
29.4325
29.5394
29.6543
29.7571
29.8741
29.9327
30.0606
30.0401
29.0904
29.0169
29.0447
29.058
29.0706
29.0784
29.083
29.0848
29.0854
29.0895
29.0946
29.1036
29.1076
29.1166
29.1079
29.1089
29.0974
29.1007
29.1086
29.1371
29.1873
29.2671
29.3665
29.4757
29.5935
29.6998
29.8198
29.8859
30.0134
30.0019
29.0477
28.9648
28.9935
29.0101
29.0258
29.0377
29.047
29.0539
29.0595
29.0663
29.0733
29.0854
29.0912
29.1
29.0866
29.0807
29.0613
29.0565
29.0556
29.0769
29.1226
29.2009
29.301
29.4122
29.5329
29.6427
29.7651
29.8392
29.965
29.9639
29.0034
28.9124
28.942
28.9604
28.9788
28.9942
29.0068
29.0175
29.0275
29.0388
29.0476
29.0612
29.069
29.0785
29.062
29.0507
29.0238
29.0121
29.004
29.0181
29.0594
29.1361
29.2366
29.3499
29.4731
29.5863
29.7106
29.7919
29.915
29.9275
28.9555
28.8587
28.89
28.91
28.9301
28.9486
28.9645
28.9785
28.9911
29.0058
29.0181
29.0328
29.0415
29.0517
29.0331
29.018
28.9847
28.9677
28.9537
28.9615
28.9984
29.0734
29.1742
29.2893
29.4149
29.531
29.6562
29.7444
29.865
29.8928
28.9045
28.8033
28.8361
28.8586
28.8803
28.9011
28.9201
28.9376
28.9531
28.9698
28.9847
29.0011
29.0099
29.0201
28.9996
28.9821
28.9442
28.9231
28.9049
28.9069
28.9404
29.0137
29.1145
29.2311
29.3588
29.4774
29.6023
29.6984
29.8162
29.8607
28.8501
28.7489
28.7825
28.8067
28.8304
28.8533
28.8748
28.8952
28.9138
28.9327
28.9487
28.9669
28.9755
28.985
28.9623
28.943
28.9021
28.8785
28.8568
28.8548
28.886
28.9575
29.0582
29.176
29.3046
29.4253
29.5505
29.6544
29.7682
29.8292
28.7911
28.6942
28.7291
28.7548
28.7807
28.8058
28.8298
28.8529
28.874
28.8953
28.9124
28.9313
28.9393
28.9476
28.9224
28.9013
28.8586
28.8332
28.8095
28.8067
28.8353
28.9052
29.0055
29.1234
29.2518
29.3764
29.504
29.6126
29.7217
29.7965
28.725
28.6382
28.6746
28.7029
28.7309
28.7588
28.7855
28.8114
28.8349
28.8583
28.8767
28.8957
28.9023
28.9092
28.8813
28.8583
28.8137
28.7874
28.7653
28.7618
28.7885
28.8574
28.956
29.0744
29.2025
29.3322
29.4602
29.5709
29.6778
29.7634
28.6482
28.5777
28.6169
28.6487
28.6798
28.711
28.7409
28.7699
28.7963
28.8219
28.8413
28.8605
28.8656
28.8708
28.84
28.815
28.7688
28.7438
28.7232
28.7192
28.7454
28.8132
28.9104
29.029
29.1596
29.2894
29.4156
29.5293
29.6359
29.7298
28.5601
28.5097
28.5525
28.5891
28.6245
28.6601
28.6936
28.7264
28.7565
28.785
28.8059
28.8254
28.8296
28.8331
28.8
28.7739
28.7267
28.7034
28.683
28.6805
28.7074
28.7738
28.8702
28.986
29.1166
29.2443
29.3707
29.488
29.5946
29.6948
28.4607
28.4334
28.4803
28.5229
28.5636
28.6045
28.6433
28.6811
28.715
28.7471
28.7702
28.7904
28.7943
28.7967
28.7625
28.7376
28.6902
28.667
28.6474
28.648
28.6768
28.7419
28.8344
28.9451
29.0708
29.1985
29.3259
29.4463
29.5535
29.6582
28.3477
28.3462
28.3988
28.4487
28.4982
28.5475
28.5943
28.6377
28.6741
28.709
28.7348
28.7565
28.7608
28.7632
28.7291
28.7052
28.6593
28.6365
28.618
28.622
28.6517
28.7139
28.7996
28.9057
29.0269
29.1553
29.2828
29.4046
29.5119
29.62
28.2199
28.2417
28.3033
28.3633
28.4219
28.4795
28.5357
28.5886
28.6326
28.672
28.7008
28.725
28.7305
28.7338
28.7008
28.6773
28.6319
28.61
28.593
28.5986
28.6274
28.6856
28.7673
28.8696
28.9882
29.1157
29.242
29.3635
29.4701
29.5805
28.0769
28.1254
28.1981
28.2694
28.3398
28.4082
28.4742
28.5365
28.5898
28.6365
28.6696
28.697
28.7043
28.7092
28.6784
28.6567
28.6106
28.5888
28.5735
28.5808
28.6087
28.6646
28.7447
28.8458
28.9615
29.084
29.205
29.3238
29.4289
29.5418
27.9145
27.993
28.0806
28.1667
28.2532
28.3387
28.4201
28.4932
28.5528
28.6044
28.6408
28.6713
28.6797
28.6859
28.6571
28.6384
28.5957
28.5777
28.5657
28.5763
28.6086
28.6663
28.7462
28.8445
28.9529
29.0658
29.1771
29.2885
29.3892
29.5028
27.7568
27.8701
27.9727
28.0756
28.1801
28.2822
28.3777
28.4611
28.5265
28.5828
28.6222
28.6557
28.6649
28.6723
28.6448
28.6288
28.5899
28.5771
28.5709
28.5872
28.6225
28.6808
28.7609
28.8578
28.9633
29.0726
29.1797
29.2849
29.3785
29.4846
27.5875
27.7326
27.8564
27.988
28.1225
28.2512
28.3643
28.4603
28.5425
28.6056
28.6493
28.6863
28.6965
28.7054
28.681
28.6676
28.6274
28.6152
28.6086
28.6248
28.6592
28.7153
28.7913
28.8829
28.9844
29.0882
29.1877
29.284
29.3631
29.4576
27.6523
27.824
27.9705
28.1287
28.286
28.4328
28.5581
28.6622
28.7488
28.8177
28.8657
28.905
28.9153
28.9243
28.9001
28.8846
28.8386
28.8225
28.8113
28.824
28.8533
28.9041
28.9741
29.0605
29.1564
29.2553
29.3513
29.4436
29.5176
29.6012
28.3906
28.5354
28.6488
28.7876
28.9311
29.0642
29.1729
29.258
29.3229
29.3716
29.401
29.4237
29.4195
29.4174
29.3866
29.3671
29.3198
29.3083
29.3033
29.3249
29.3653
29.4286
29.5117
29.6122
29.7229
29.8345
29.9399
30.0407
30.1238
30.2204
29.4769
29.3184
29.2763
29.1794
29.1142
29.0772
29.0576
29.048
29.0452
29.0559
29.0751
29.106
29.1344
29.1734
29.1966
29.2323
29.2496
29.28
29.3037
29.3444
29.4046
29.491
29.5973
29.7176
29.8473
29.9714
30.0948
30.1761
30.2647
30.2632
29.4541
29.2825
29.2516
29.1685
29.1155
29.0817
29.0645
29.0568
29.0552
29.0667
29.086
29.1167
29.1444
29.1832
29.2063
29.2431
29.2617
29.2942
29.3194
29.3604
29.4189
29.5057
29.612
29.7321
29.8615
29.9842
30.1062
30.183
30.2729
30.2451
29.4241
29.258
29.2312
29.1584
29.1132
29.0829
29.0669
29.0608
29.0605
29.0729
29.0922
29.1224
29.1493
29.1877
29.2095
29.2463
29.2636
29.2959
29.3198
29.3588
29.4156
29.503
29.6105
29.7315
29.861
29.9819
30.1048
30.175
30.2747
30.2342
29.3831
29.2303
29.2049
29.142
29.1057
29.0818
29.0682
29.064
29.0653
29.0786
29.0978
29.1276
29.1533
29.1911
29.2111
29.2474
29.2624
29.2924
29.3122
29.3466
29.3981
29.4824
29.5912
29.714
29.8449
29.9652
30.0901
30.1554
30.2631
30.2178
29.3385
29.205
29.179
29.1255
29.097
29.0786
29.0683
29.0656
29.0684
29.0823
29.1006
29.1297
29.1532
29.1907
29.2086
29.2431
29.2538
29.2796
29.2936
29.3223
29.3683
29.4483
29.554
29.6766
29.811
29.9327
30.0619
30.1249
30.2426
30.1955
29.2906
29.1771
29.1544
29.1105
29.0888
29.0755
29.0681
29.0666
29.0706
29.0843
29.101
29.1295
29.1519
29.1887
29.2029
29.2346
29.2393
29.2591
29.2661
29.2885
29.3291
29.4054
29.5087
29.6298
29.7646
29.8896
30.022
30.0865
30.2146
30.1684
29.2388
29.1436
29.1298
29.0955
29.081
29.072
29.0672
29.0673
29.0719
29.0849
29.1005
29.1286
29.1497
29.185
29.1947
29.2225
29.2198
29.232
29.2313
29.2472
29.2823
29.3555
29.4571
29.5775
29.7125
29.8393
29.9751
30.0434
30.1799
30.1375
29.1899
29.1107
29.1053
29.0803
29.0724
29.0676
29.0656
29.0671
29.0718
29.0846
29.0995
29.1272
29.1465
29.18
29.1842
29.2074
29.196
29.1995
29.1906
29.1998
29.2295
29.3001
29.4009
29.5211
29.6567
29.7842
29.9244
29.9971
30.1397
30.1031
29.1449
29.0775
29.079
29.0624
29.0604
29.06
29.0612
29.0649
29.0706
29.0836
29.0979
29.1252
29.1424
29.1739
29.1719
29.1896
29.1682
29.1627
29.1454
29.1479
29.1722
29.2408
29.3413
29.462
29.5985
29.727
29.8707
29.949
30.0951
30.0666
29.1022
29.0437
29.0509
29.0424
29.0454
29.0484
29.0527
29.0593
29.0672
29.0813
29.0954
29.1226
29.1373
29.167
29.1579
29.1695
29.1371
29.1224
29.0968
29.0929
29.1119
29.1789
29.2797
29.4014
29.5392
29.6687
29.815
29.8998
30.0472
30.0287
29.062
29.0087
29.0215
29.0203
29.0285
29.035
29.042
29.0507
29.0608
29.0768
29.0914
29.1185
29.1309
29.1587
29.1424
29.1476
29.1034
29.0795
29.0456
29.0359
29.0499
29.1156
29.2173
29.3405
29.4797
29.6101
29.758
29.85
29.9971
29.9907
29.0242
28.9707
28.9893
28.9947
29.008
29.0189
29.0292
29.0403
29.0522
29.0697
29.085
29.1122
29.1228
29.1488
29.1252
29.1238
29.0676
29.035
28.9928
28.9777
28.9871
29.052
29.1551
29.2803
29.4209
29.5528
29.7002
29.7998
29.9456
29.954
28.9863
28.93
28.9546
28.9664
28.9839
28.9988
29.0128
29.0269
29.0411
29.0603
29.0763
29.1035
29.1127
29.1366
29.1059
29.0983
29.0301
28.9894
28.9392
28.9194
28.9247
28.9892
29.0941
29.2217
29.3638
29.498
29.6425
29.7509
29.8933
29.9186
28.9479
28.8881
28.9185
28.9349
28.9561
28.9749
28.9925
29.0099
29.0268
29.0483
29.0652
29.0926
29.0999
29.1219
29.0841
29.0712
28.9915
28.9432
28.8856
28.8616
28.8636
28.9281
29.0351
29.1656
29.3086
29.4455
29.5885
29.7044
29.8408
29.8847
28.9093
28.8438
28.8791
28.8993
28.924
28.9465
28.9682
28.9897
29.0093
29.0333
29.0514
29.0794
29.0844
29.1044
29.0596
29.0423
28.9524
28.8968
28.8325
28.8051
28.8046
28.8696
28.979
29.112
29.2561
29.3963
29.5401
29.6589
29.7885
29.8536
28.8676
28.797
28.837
28.8606
28.8883
28.9144
28.9402
28.9662
28.989
29.0157
29.035
29.0638
29.0664
29.0846
29.0326
29.0118
28.9131
28.851
28.7805
28.7506
28.7485
28.8141
28.9259
29.0609
29.2077
29.352
29.4953
29.6165
29.7414
29.8235
28.8215
28.7487
28.793
28.8201
28.8511
28.8806
28.9099
28.94
28.9666
28.9962
29.0167
29.0463
29.046
29.0625
29.0035
28.9803
28.8739
28.8068
28.7303
28.6988
28.6957
28.7621
28.8758
29.0125
29.1636
29.3112
29.4534
29.5779
29.6991
29.7935
28.7697
28.6996
28.7474
28.7786
28.8131
28.8462
28.8789
28.9127
28.943
28.9755
28.9972
29.0274
29.0238
29.0387
28.9732
28.9484
28.8354
28.7645
28.6827
28.6501
28.6464
28.7141
28.8285
28.9674
29.1208
29.2713
29.4144
29.5422
29.6605
29.7642
28.7102
28.6492
28.7003
28.7359
28.7742
28.8116
28.8482
28.8856
28.9193
28.9547
28.9776
29.0082
29.001
29.0143
28.9432
28.9174
28.7987
28.7248
28.6384
28.6046
28.6011
28.6689
28.7826
28.9225
29.0779
29.2326
29.3781
29.5088
29.6249
29.7352
28.6423
28.5957
28.6507
28.6918
28.7347
28.7768
28.8178
28.8594
28.8965
28.9352
28.9591
28.99
28.9794
28.9912
28.9155
28.8895
28.7654
28.6889
28.5975
28.5627
28.5591
28.6245
28.7383
28.8795
29.0376
29.1962
29.3439
29.4769
29.5918
29.7069
28.5655
28.5388
28.5984
28.6458
28.6941
28.7417
28.7878
28.8343
28.8756
28.918
28.9432
28.9747
28.9612
28.9724
28.8928
28.8676
28.7382
28.6581
28.5614
28.5244
28.5187
28.5839
28.6976
28.8409
29.0009
29.161
29.3105
29.4463
29.5604
29.6788
28.4796
28.4766
28.5423
28.5971
28.6519
28.7061
28.7588
28.8114
28.8577
28.9038
28.9311
28.9636
28.9484
28.9603
28.8771
28.8534
28.7192
28.635
28.533
28.4907
28.485
28.5505
28.6615
28.8064
28.9663
29.1269
29.2776
29.4161
29.5304
29.6509
28.3865
28.4061
28.481
28.5449
28.6086
28.6714
28.732
28.7913
28.8426
28.893
28.923
28.9573
28.9419
28.9552
28.87
28.8488
28.711
28.6238
28.5148
28.467
28.4636
28.5252
28.6336
28.7772
28.9354
29.0952
29.2456
29.3853
29.5006
29.6221
28.2826
28.3283
28.4154
28.4914
28.5662
28.6386
28.7072
28.7737
28.8303
28.8854
28.9183
28.9553
28.9409
28.9565
28.8711
28.8549
28.7127
28.6227
28.5091
28.4589
28.4545
28.513
28.6171
28.7567
28.9115
29.0687
29.2177
29.3563
29.4708
29.5938
28.169
28.2475
28.3495
28.4392
28.5261
28.6091
28.6862
28.7593
28.8211
28.8805
28.9162
28.9573
28.9446
28.9636
28.8796
28.8705
28.7277
28.6381
28.5202
28.4655
28.4582
28.5156
28.6171
28.751
28.9004
29.0532
29.1983
29.3343
29.4466
29.5682
28.0496
28.1692
28.2862
28.3913
28.492
28.5857
28.6707
28.7503
28.8171
28.8814
28.9236
28.9676
28.9566
28.9807
28.8992
28.8979
28.7546
28.6653
28.5426
28.4822
28.4712
28.5251
28.6246
28.7562
28.9031
29.0537
29.1949
29.3259
29.4337
29.5498
27.9444
28.1053
28.2371
28.3582
28.471
28.5746
28.6674
28.7581
28.8349
28.9034
28.9486
28.9961
28.9864
29.0174
28.9383
28.9473
28.8057
28.7185
28.5927
28.5285
28.5122
28.5562
28.6453
28.7725
28.9167
29.0648
29.204
29.3328
29.4384
29.5504
27.8754
28.0642
28.2057
28.339
28.4636
28.5818
28.6933
28.7929
28.8751
28.9473
28.9951
29.0464
29.0393
29.0779
29.0018
29.0237
28.8829
28.7981
28.6687
28.5984
28.5743
28.6114
28.6893
28.8054
28.9451
29.0922
29.2301
29.3571
29.4597
29.5681
27.876
28.092
28.2485
28.395
28.5282
28.6524
28.7666
28.8667
28.9483
29.02
29.0681
29.1222
29.1198
29.1687
29.0995
29.1432
29.0074
28.928
28.7945
28.7191
28.6878
28.7182
28.7873
28.8916
29.0196
29.1557
29.2858
29.4092
29.5121
29.6224
27.9896
28.1852
28.3395
28.4896
28.6262
28.7513
28.8621
28.9582
29.0362
29.1054
29.1537
29.2101
29.2147
29.2761
29.2187
29.2929
29.1701
29.107
28.9799
28.9073
28.8712
28.8951
28.9561
29.0519
29.1744
29.3113
29.4475
29.5788
29.6899
29.8011
29.4927
29.233
29.1736
29.0371
28.9443
28.8972
28.8844
28.887
28.9055
28.9403
28.9789
29.0287
29.0645
29.1076
29.1091
29.1195
29.0789
29.0513
29.0076
29.0012
29.034
29.1262
29.2588
29.4194
29.5981
29.7786
29.9634
30.1011
30.2315
30.2415
29.4483
29.16
29.1256
29.0071
28.935
28.8988
28.8908
28.8975
28.9181
28.9537
28.9921
29.0411
29.0757
29.1182
29.1195
29.1313
29.0932
29.0698
29.029
29.0212
29.0495
29.1407
29.2735
29.4338
29.6119
29.7915
29.9757
30.1097
30.2412
30.2431
29.3904
29.1113
29.0857
28.9838
28.9258
28.8984
28.8944
28.9049
28.9276
28.9639
29.002
29.0502
29.0832
29.1244
29.1234
29.1341
29.0936
29.0693
29.027
29.0152
29.0399
29.1355
29.2716
29.4334
29.6115
29.7884
29.9724
30.1008
30.2427
30.2326
29.3158
29.0609
29.0406
28.9513
28.9098
28.8937
28.897
28.9116
28.9366
28.9736
29.0114
29.0589
29.09
29.1297
29.1255
29.1344
29.0888
29.0617
29.0156
28.9984
29.0166
29.1072
29.248
29.4127
29.591
29.7659
29.95
30.0752
30.2279
30.2088
29.2356
29.0135
28.9961
28.9217
28.8951
28.8891
28.8978
28.9165
28.9436
28.9816
29.0188
29.0656
29.0943
29.1319
29.123
29.1278
29.0738
29.0409
28.9892
28.9671
28.9797
29.0661
29.2033
29.372
29.5523
29.7269
29.9127
30.0358
30.1989
30.1771
29.1543
28.9678
28.9541
28.8957
28.8825
28.885
28.8979
28.9201
28.9491
28.9881
29.0247
29.0711
29.0967
29.1318
29.1165
29.1157
29.0509
29.0094
28.9507
28.9241
28.9322
29.0163
29.1511
29.3185
29.5012
29.6764
29.8644
29.988
30.1586
30.1397
29.0749
28.9267
28.9173
28.8748
28.8729
28.882
28.8986
28.9239
28.9542
28.9939
29.0297
29.0758
29.0969
29.1301
29.1068
29.0988
29.0206
28.9688
28.9025
28.8716
28.8763
28.9595
29.0934
29.2591
29.4427
29.6187
29.8082
29.9353
30.1112
30.0984
28.9998
28.888
28.8859
28.8586
28.8652
28.8793
28.8998
28.928
28.9596
28.9999
29.0344
29.08
29.0963
29.1271
29.0944
29.0775
28.9837
28.9207
28.8454
28.8113
28.8137
28.8975
29.032
29.1969
29.3801
29.5576
29.7469
29.8788
30.0584
30.0552
28.9345
28.8552
28.8596
28.8459
28.8591
28.8769
28.9009
28.9318
28.9646
29.0056
29.0392
29.084
29.0953
29.1229
29.0794
29.0524
28.941
28.8655
28.7809
28.7449
28.7461
28.8321
28.9684
29.1336
29.3163
29.4949
29.683
29.8201
30.0007
30.0115
28.8811
28.8285
28.8379
28.8351
28.8533
28.8744
28.9014
28.935
28.9691
29.011
29.0434
29.0878
29.094
29.1176
29.0621
29.0237
28.8932
28.8042
28.7117
28.674
28.6753
28.7647
28.9042
29.0706
29.2534
29.4325
29.6184
29.7609
29.9399
29.968
28.8373
28.8036
28.8191
28.825
28.8474
28.8718
28.9014
28.9376
28.973
29.0159
29.0469
29.0907
29.0922
29.1112
29.0427
28.9918
28.8408
28.7379
28.6393
28.6
28.6027
28.697
28.8409
29.0093
29.1933
29.3722
29.5553
29.704
29.8778
29.926
28.7995
28.7805
28.8016
28.8152
28.8412
28.8689
28.901
28.9397
28.9762
29.0199
29.0496
29.0922
29.0895
29.1037
29.0212
28.9569
28.7845
28.6686
28.5642
28.5241
28.53
28.6304
28.7798
28.9504
29.1374
29.3167
29.4986
29.6501
29.8154
29.8875
28.7676
28.759
28.7851
28.8048
28.8342
28.8652
28.8998
28.9402
28.9783
29.023
29.051
29.0923
29.0851
29.095
28.9976
28.9196
28.7251
28.5982
28.4877
28.448
28.4585
28.5663
28.7215
28.8966
29.0867
29.2686
29.4486
29.6
29.7572
29.8528
28.74
28.7358
28.7678
28.7924
28.8256
28.8601
28.8974
28.9396
28.9787
29.0247
29.0509
29.0916
29.079
29.0847
28.972
28.88
28.6633
28.5269
28.4108
28.3729
28.3894
28.5057
28.6659
28.848
29.0431
29.228
29.4039
29.5556
29.7064
29.8187
28.7126
28.7086
28.7474
28.7773
28.8146
28.853
28.8934
28.9378
28.9779
29.0247
29.0501
29.0902
29.0712
29.0727
28.9446
28.8386
28.6006
28.4562
28.3351
28.2999
28.3238
28.449
28.6133
28.807
29.0068
29.1923
29.3642
29.5169
29.6623
29.7872
28.682
28.6781
28.7244
28.7594
28.8014
28.844
28.8878
28.9346
28.9761
29.0238
29.0483
29.0876
29.0619
29.0587
28.9158
28.7962
28.5385
28.3881
28.2619
28.2304
28.2628
28.3963
28.5698
28.7722
28.9736
29.1596
29.3302
29.4843
29.6249
29.7577
28.6485
28.6458
28.6994
28.7395
28.7865
28.8335
28.881
28.9306
28.9734
29.0222
29.0458
29.084
29.0515
29.0433
28.8862
28.754
28.478
28.3231
28.1925
28.1654
28.2074
28.3489
28.5323
28.7377
28.9412
29.1307
29.3024
29.4576
29.5939
29.7313
28.6119
28.6113
28.6726
28.7185
28.7705
28.8222
28.8734
28.926
28.9704
29.0202
29.0431
29.0802
29.0407
29.0276
28.8568
28.7132
28.4208
28.2628
28.1287
28.1075
28.1575
28.3033
28.4929
28.7032
28.912
29.1066
29.2802
29.436
29.5687
29.7084
28.5711
28.5746
28.6441
28.6964
28.7539
28.8105
28.8657
28.9215
28.9678
29.0187
29.041
29.0773
29.031
29.0136
28.8292
28.6759
28.3692
28.2104
28.0743
28.0555
28.1096
28.2591
28.4534
28.6721
28.887
29.0862
29.2624
29.4189
29.5486
29.6885
28.5247
28.5356
28.6136
28.6734
28.7368
28.7988
28.8583
28.9177
28.966
29.0182
29.0403
29.0776
29.0246
29.0034
28.8055
28.645
28.3274
28.1688
28.0262
28.0062
28.0667
28.2182
28.4172
28.644
28.8649
29.0682
29.2476
29.4055
29.5328
29.6714
28.4726
28.4947
28.5813
28.6496
28.7194
28.7872
28.8514
28.9149
28.9655
29.0211
29.0457
29.0821
29.0251
29.0012
28.7886
28.6249
28.2966
28.1371
27.9834
27.9665
28.0288
28.1751
28.3842
28.6182
28.8448
29.052
29.2345
29.3949
29.5206
29.6563
28.4137
28.4512
28.5475
28.6249
28.702
28.7758
28.845
28.913
28.9677
29.0289
29.0557
29.092
29.031
29.0058
28.7808
28.6162
28.2767
28.1162
27.9549
27.9388
27.9934
28.1403
28.3547
28.5944
28.826
29.037
29.2215
29.3845
29.5113
29.6429
28.3476
28.4049
28.5122
28.5998
28.6845
28.7646
28.8393
28.9122
28.973
29.0402
29.0696
29.107
29.0442
29.018
28.7833
28.6162
28.2682
28.1075
27.9415
27.9184
27.9674
28.1202
28.332
28.5735
28.8093
29.0238
29.2102
29.3737
29.5018
29.6321
28.2713
28.3585
28.4758
28.5743
28.6669
28.7539
28.8345
28.9125
28.9806
29.0538
29.0865
29.1263
29.0642
29.0386
28.7956
28.6336
28.2756
28.1162
27.9378
27.9119
27.9662
28.116
28.3204
28.558
28.7963
29.0137
29.2024
29.3668
29.4956
29.6243
28.1888
28.3121
28.4395
28.5493
28.6505
28.7445
28.8308
28.9149
28.9904
29.0696
29.1059
29.1494
29.0898
29.0676
28.818
28.668
28.3053
28.1494
27.9604
27.9298
27.9791
28.1243
28.323
28.5552
28.79
29.0101
29.2011
29.3662
29.4959
29.6211
28.1047
28.2656
28.4049
28.5266
28.6363
28.7371
28.829
28.9213
29.0048
29.0888
29.1291
29.1771
29.1213
29.1062
28.8519
28.7183
28.3473
28.194
27.9963
27.9604
28
28.1406
28.335
28.5628
28.7933
29.0128
29.205
29.3708
29.5011
29.6242
28.0308
28.2246
28.3745
28.5082
28.6263
28.7341
28.8352
28.9383
29.0275
29.115
29.1596
29.2137
29.1603
29.1536
28.8951
28.7831
28.4034
28.255
28.0482
28.0066
28.0383
28.1685
28.3563
28.578
28.806
29.023
29.2155
29.3824
29.5136
29.6357
27.976
28.1926
28.352
28.4964
28.6241
28.7454
28.8586
28.9675
29.06
29.1502
29.1978
29.2589
29.2073
29.2122
28.9507
28.8738
28.4908
28.3542
28.1413
28.096
28.1164
28.2267
28.3957
28.609
28.8295
29.0416
29.2331
29.4019
29.5361
29.6597
27.9544
28.1783
28.3439
28.4966
28.6363
28.7687
28.8885
28.9997
29.0933
29.1841
29.2332
29.2992
29.2504
29.2722
29.0137
28.981
28.5991
28.4799
28.2645
28.2158
28.2259
28.3189
28.4684
28.6647
28.8754
29.0832
29.2705
29.4357
29.5707
29.6997
27.9853
28.1921
28.3593
28.5177
28.662
28.7965
28.9165
29.0272
29.1203
29.2109
29.261
29.3302
29.285
29.3267
29.0796
29.1053
28.735
28.6375
28.4252
28.3757
28.374
28.4513
28.5786
28.7543
28.9481
29.1454
29.3299
29.4985
29.6422
29.777
29.6279
29.2645
29.1801
28.9922
28.8585
28.7861
28.7662
28.775
28.8054
28.8588
28.9161
28.9955
29.0538
29.1396
29.1598
29.1971
29.1176
29.0293
28.8895
28.8123
28.8035
28.8783
29.0117
29.1799
29.3708
29.5738
29.7939
29.9728
30.149
30.1784
29.5615
29.1487
29.1075
28.942
28.8372
28.7831
28.771
28.7864
28.8201
28.875
28.9324
29.0113
29.0684
29.1546
29.174
29.2142
29.138
29.0564
28.9182
28.8355
28.8154
28.8858
29.019
29.1884
29.381
29.5855
29.8072
29.9845
30.1612
30.1873
29.4786
29.0728
29.0489
28.9034
28.8186
28.7782
28.7745
28.7957
28.8323
28.8883
28.9456
29.0244
29.0797
29.1667
29.1836
29.2268
29.148
29.0647
28.9163
28.8319
28.8066
28.8751
29.0119
29.1849
29.3797
29.583
29.8041
29.9765
30.1603
30.182
29.3726
28.9981
28.9839
28.8548
28.793
28.769
28.775
28.8033
28.8429
28.9007
28.9578
29.0368
29.0899
29.1785
29.1918
29.2378
29.1518
29.0606
28.9048
28.8167
28.7829
28.8425
28.9795
29.1575
29.3544
29.5569
29.7776
29.9494
30.1406
30.1595
29.2534
28.9284