/*--------------------------------*- C++ -*----------------------------------*\
  =========                 |
  \\      /  F ield         | OpenFOAM: The Open Source CFD Toolbox
   \\    /   O peration     | Website:  https://openfoam.org
    \\  /    A nd           | Version:  12
     \\/     M anipulation  |
\*---------------------------------------------------------------------------*/
FoamFile
{
    format      ascii;
    class       volScalarField;
    location    "1250/air";
    object      T;
}
// * * * * * * * * * * * * * * * * * * * * * * * * * * * * * * * * * * * * * //

dimensions      [0 0 0 1 0 0 0];

internalField   nonuniform List<scalar> 
243000
(
300.348
300.329
300.318
300.31
300.303
300.297
300.292
300.287
300.282
300.278
300.273
300.269
300.264
300.26
300.255
300.25
300.244
300.238
300.23
300.222
300.212
300.202
300.191
300.181
300.171
300.162
300.155
300.149
300.146
300.141
300.399
300.359
300.337
300.323
300.313
300.304
300.297
300.291
300.286
300.28
300.275
300.27
300.265
300.26
300.255
300.249
300.243
300.236
300.228
300.219
300.209
300.199
300.189
300.179
300.169
300.161
300.154
300.147
300.144
300.141
300.49
300.407
300.367
300.344
300.327
300.316
300.306
300.298
300.291
300.285
300.279
300.274
300.268
300.262
300.256
300.25
300.243
300.235
300.226
300.217
300.207
300.197
300.187
300.177
300.168
300.16
300.153
300.146
300.142
300.14
300.654
300.494
300.419
300.377
300.351
300.334
300.32
300.31
300.301
300.293
300.286
300.279
300.273
300.266
300.259
300.252
300.244
300.235
300.226
300.216
300.206
300.196
300.186
300.176
300.167
300.159
300.152
300.146
300.141
300.139
300.859
300.642
300.511
300.437
300.393
300.364
300.344
300.329
300.316
300.306
300.297
300.288
300.28
300.272
300.264
300.255
300.246
300.236
300.226
300.215
300.205
300.195
300.185
300.176
300.167
300.159
300.152
300.146
300.14
300.138
301.053
300.847
300.663
300.544
300.468
300.419
300.386
300.361
300.342
300.327
300.314
300.302
300.291
300.281
300.271
300.26
300.25
300.238
300.227
300.215
300.205
300.194
300.185
300.175
300.167
300.159
300.152
300.146
300.14
300.137
301.151
301.051
300.877
300.719
300.603
300.521
300.463
300.421
300.389
300.364
300.343
300.325
300.309
300.295
300.282
300.269
300.255
300.242
300.229
300.217
300.205
300.194
300.184
300.175
300.167
300.159
300.152
300.146
300.14
300.137
301.183
301.154
301.07
300.939
300.804
300.69
300.599
300.528
300.473
300.429
300.393
300.363
300.338
300.317
300.298
300.281
300.264
300.248
300.233
300.219
300.206
300.195
300.185
300.175
300.167
300.159
300.152
300.146
300.141
300.136
301.193
301.18
301.157
301.103
301.012
300.902
300.793
300.695
300.61
300.537
300.477
300.426
300.385
300.351
300.323
300.298
300.277
300.257
300.239
300.222
300.208
300.196
300.185
300.176
300.167
300.16
300.153
300.146
300.141
300.137
301.198
301.188
301.176
301.159
301.127
301.067
300.985
300.888
300.788
300.691
300.601
300.523
300.457
300.403
300.36
300.324
300.295
300.269
300.247
300.228
300.212
300.198
300.187
300.177
300.168
300.16
300.153
300.147
300.142
300.137
301.201
301.191
301.182
301.17
301.157
301.136
301.096
301.035
300.953
300.857
300.753
300.651
300.558
300.478
300.414
300.362
300.32
300.286
300.258
300.236
300.217
300.202
300.189
300.178
300.169
300.161
300.154
300.148
300.142
300.138
301.205
301.195
301.184
301.174
301.163
301.15
301.133
301.104
301.057
300.986
300.895
300.789
300.679
300.576
300.486
300.414
300.356
300.31
300.274
300.246
300.224
300.206
300.192
300.181
300.171
300.163
300.156
300.149
300.143
300.139
301.209
301.198
301.187
301.175
301.164
301.152
301.14
301.125
301.1
301.059
300.995
300.907
300.799
300.684
300.575
300.48
300.403
300.342
300.295
300.26
300.233
300.213
300.197
300.184
300.174
300.165
300.157
300.151
300.145
300.14
301.213
301.201
301.189
301.176
301.164
301.152
301.14
301.127
301.112
301.089
301.05
300.988
300.899
300.789
300.671
300.558
300.461
300.383
300.323
300.279
300.246
300.222
300.203
300.188
300.177
300.167
300.159
300.152
300.146
300.141
301.218
301.204
301.191
301.177
301.164
301.151
301.138
301.126
301.113
301.098
301.074
301.033
300.968
300.876
300.762
300.642
300.529
300.433
300.359
300.303
300.263
300.233
300.211
300.194
300.181
300.171
300.162
300.155
300.148
300.143
301.222
301.208
301.193
301.178
301.164
301.15
301.136
301.123
301.111
301.098
301.08
301.054
301.009
300.938
300.84
300.723
300.602
300.492
300.402
300.333
300.284
300.248
300.221
300.202
300.187
300.175
300.165
300.157
300.151
300.145
301.226
301.21
301.195
301.179
301.164
301.149
301.134
301.12
301.107
301.094
301.08
301.06
301.03
300.979
300.9
300.794
300.674
300.555
300.452
300.37
300.31
300.266
300.235
300.212
300.194
300.181
300.17
300.161
300.154
300.147
301.229
301.212
301.196
301.179
301.163
301.147
301.132
301.117
301.103
301.089
301.075
301.059
301.037
301
300.94
300.851
300.739
300.619
300.507
300.413
300.342
300.289
300.252
300.224
300.203
300.188
300.175
300.165
300.157
300.15
301.229
301.212
301.195
301.178
301.161
301.145
301.129
301.113
301.098
301.083
301.069
301.054
301.036
301.009
300.965
300.893
300.795
300.68
300.564
300.461
300.379
300.317
300.272
300.239
300.215
300.197
300.182
300.171
300.162
300.154
301.228
301.21
301.192
301.175
301.158
301.14
301.123
301.106
301.09
301.073
301.058
301.043
301.028
301.008
300.976
300.921
300.839
300.734
300.62
300.512
300.421
300.35
300.297
300.258
300.229
300.208
300.191
300.178
300.167
300.159
301.225
301.207
301.189
301.171
301.153
301.134
301.116
301.097
301.079
301.061
301.045
301.029
301.015
300.999
300.975
300.935
300.87
300.779
300.672
300.563
300.467
300.388
300.327
300.281
300.247
300.221
300.202
300.186
300.174
300.165
301.22
301.202
301.184
301.166
301.148
301.129
301.109
301.089
301.068
301.049
301.031
301.015
301
300.986
300.968
300.938
300.888
300.813
300.717
300.613
300.514
300.429
300.36
300.308
300.268
300.238
300.215
300.197
300.183
300.171
301.214
301.196
301.179
301.161
301.142
301.122
301.101
301.08
301.059
301.039
301.019
301.002
300.986
300.972
300.956
300.933
300.896
300.837
300.755
300.659
300.561
300.472
300.398
300.339
300.293
300.258
300.23
300.209
300.193
300.18
301.204
301.187
301.17
301.153
301.134
301.115
301.094
301.073
301.052
301.031
301.01
300.991
300.974
300.959
300.944
300.926
300.897
300.852
300.784
300.699
300.606
300.517
300.438
300.373
300.321
300.281
300.249
300.225
300.205
300.19
301.191
301.175
301.16
301.144
301.126
301.108
301.088
301.068
301.047
301.025
301.004
300.984
300.966
300.95
300.935
300.918
300.896
300.861
300.806
300.732
300.647
300.561
300.48
300.411
300.354
300.308
300.271
300.242
300.22
300.201
301.175
301.162
301.149
301.134
301.119
301.102
301.084
301.065
301.045
301.024
301.003
300.982
300.962
300.944
300.928
300.912
300.893
300.864
300.82
300.759
300.684
300.602
300.523
300.451
300.389
300.338
300.297
300.263
300.237
300.215
301.155
301.145
301.135
301.123
301.11
301.095
301.078
301.06
301.04
301.018
300.996
300.974
300.953
300.933
300.916
300.9
300.883
300.86
300.825
300.775
300.712
300.639
300.563
300.491
300.427
300.372
300.325
300.287
300.257
300.232
301.117
301.11
301.103
301.093
301.082
301.068
301.051
301.032
301.011
300.987
300.963
300.94
300.917
300.896
300.879
300.863
300.849
300.831
300.806
300.769
300.719
300.658
300.591
300.523
300.46
300.403
300.354
300.312
300.277
300.249
301.01
301.001
300.993
300.983
300.97
300.953
300.933
300.909
300.883
300.856
300.829
300.803
300.779
300.759
300.743
300.73
300.721
300.712
300.699
300.677
300.646
300.604
300.555
300.502
300.449
300.399
300.354
300.314
300.28
300.252
300.493
300.487
300.489
300.489
300.483
300.471
300.457
300.441
300.424
300.407
300.391
300.376
300.363
300.352
300.343
300.338
300.335
300.333
300.329
300.322
300.312
300.297
300.279
300.258
300.235
300.213
300.193
300.174
300.157
300.143
300.33
300.315
300.306
300.299
300.293
300.287
300.282
300.278
300.273
300.269
300.264
300.26
300.255
300.25
300.245
300.239
300.232
300.225
300.215
300.204
300.192
300.178
300.165
300.153
300.143
300.134
300.127
300.12
300.117
300.124
300.368
300.34
300.323
300.311
300.302
300.294
300.288
300.282
300.276
300.271
300.266
300.261
300.255
300.25
300.244
300.237
300.229
300.221
300.211
300.2
300.188
300.176
300.164
300.152
300.143
300.134
300.127
300.121
300.117
300.121
300.418
300.376
300.35
300.332
300.319
300.308
300.299
300.292
300.285
300.278
300.272
300.265
300.259
300.252
300.244
300.236
300.227
300.218
300.207
300.196
300.185
300.173
300.162
300.152
300.142
300.134
300.127
300.121
300.117
300.118
300.487
300.431
300.393
300.367
300.347
300.331
300.319
300.308
300.299
300.29
300.282
300.274
300.265
300.257
300.248
300.238
300.227
300.216
300.205
300.193
300.182
300.171
300.161
300.151
300.142
300.134
300.127
300.122
300.117
300.116
300.591
300.518
300.462
300.421
300.391
300.368
300.35
300.334
300.321
300.309
300.298
300.287
300.276
300.265
300.254
300.242
300.229
300.216
300.203
300.191
300.18
300.169
300.159
300.15
300.142
300.134
300.128
300.122
300.117
300.115
300.716
300.643
300.565
300.504
300.458
300.423
300.396
300.374
300.355
300.338
300.323
300.308
300.293
300.278
300.264
300.248
300.232
300.217
300.203
300.19
300.179
300.168
300.158
300.149
300.141
300.134
300.128
300.122
300.118
300.115
300.811
300.765
300.688
300.613
300.551
300.501
300.462
300.431
300.404
300.38
300.358
300.337
300.317
300.298
300.278
300.258
300.239
300.221
300.204
300.19
300.178
300.167
300.158
300.149
300.141
300.134
300.128
300.123
300.118
300.115
300.869
300.856
300.805
300.737
300.667
300.605
300.553
300.508
300.47
300.437
300.406
300.378
300.35
300.324
300.298
300.273
300.248
300.226
300.207
300.191
300.178
300.167
300.157
300.149
300.141
300.135
300.129
300.123
300.119
300.115
300.901
300.913
300.892
300.848
300.79
300.727
300.666
300.61
300.559
300.512
300.47
300.431
300.394
300.359
300.325
300.292
300.262
300.235
300.212
300.194
300.179
300.167
300.157
300.149
300.141
300.135
300.129
300.124
300.119
300.115
300.912
300.943
300.945
300.925
300.888
300.839
300.783
300.724
300.664
300.606
300.551
300.499
300.451
300.404
300.36
300.317
300.279
300.246
300.219
300.198
300.182
300.169
300.158
300.149
300.142
300.135
300.13
300.124
300.12
300.116
300.909
300.949
300.968
300.967
300.95
300.919
300.878
300.827
300.769
300.706
300.642
300.579
300.518
300.459
300.402
300.349
300.301
300.261
300.229
300.205
300.186
300.171
300.16
300.15
300.143
300.136
300.13
300.125
300.121
300.117
300.902
300.941
300.967
300.981
300.979
300.965
300.939
300.901
300.854
300.796
300.732
300.662
300.592
300.522
300.452
300.386
300.328
300.28
300.242
300.213
300.191
300.175
300.162
300.152
300.144
300.137
300.131
300.126
300.122
300.118
300.894
300.928
300.955
300.974
300.983
300.981
300.968
300.945
300.91
300.864
300.807
300.739
300.665
300.588
300.508
300.429
300.359
300.302
300.258
300.224
300.199
300.18
300.166
300.155
300.146
300.139
300.133
300.127
300.123
300.119
300.891
300.916
300.94
300.959
300.972
300.977
300.974
300.962
300.94
300.906
300.86
300.801
300.731
300.651
300.565
300.475
300.395
300.328
300.277
300.238
300.209
300.187
300.171
300.159
300.149
300.141
300.134
300.129
300.124
300.12
300.894
300.911
300.928
300.943
300.955
300.963
300.966
300.961
300.948
300.925
300.891
300.844
300.782
300.706
300.619
300.523
300.433
300.358
300.299
300.254
300.221
300.196
300.178
300.164
300.153
300.144
300.137
300.131
300.126
300.121
300.904
300.913
300.923
300.933
300.941
300.947
300.95
300.949
300.943
300.928
300.904
300.867
300.816
300.749
300.665
300.568
300.472
300.389
300.324
300.273
300.236
300.207
300.186
300.17
300.158
300.148
300.14
300.133
300.128
300.123
300.92
300.922
300.925
300.928
300.931
300.933
300.934
300.933
300.929
300.92
300.903
300.876
300.835
300.777
300.701
300.607
300.51
300.422
300.351
300.295
300.253
300.221
300.196
300.178
300.164
300.153
300.144
300.136
300.13
300.125
300.938
300.934
300.931
300.929
300.926
300.923
300.92
300.917
300.913
300.905
300.893
300.873
300.841
300.793
300.726
300.64
300.545
300.455
300.379
300.319
300.272
300.236
300.209
300.188
300.171
300.159
300.149
300.14
300.133
300.128
300.957
300.949
300.94
300.933
300.925
300.917
300.91
300.904
300.897
300.889
300.879
300.863
300.837
300.798
300.741
300.663
300.574
300.486
300.409
300.345
300.294
300.254
300.223
300.199
300.181
300.166
300.154
300.145
300.137
300.131
300.975
300.963
300.951
300.939
300.928
300.915
300.904
300.894
300.884
300.875
300.864
300.85
300.829
300.796
300.747
300.68
300.598
300.515
300.438
300.372
300.317
300.274
300.24
300.213
300.192
300.175
300.162
300.151
300.142
300.135
300.99
300.976
300.961
300.946
300.931
300.916
300.902
300.888
300.875
300.863
300.851
300.837
300.818
300.79
300.749
300.69
300.617
300.539
300.465
300.398
300.342
300.296
300.258
300.228
300.205
300.185
300.17
300.158
300.148
300.139
301.001
300.984
300.968
300.952
300.935
300.918
300.901
300.884
300.868
300.853
300.839
300.824
300.807
300.782
300.747
300.696
300.631
300.56
300.489
300.425
300.368
300.319
300.279
300.246
300.22
300.198
300.18
300.166
300.155
300.145
301.005
300.989
300.972
300.955
300.937
300.918
300.899
300.88
300.861
300.844
300.828
300.812
300.795
300.773
300.742
300.698
300.641
300.577
300.512
300.45
300.394
300.345
300.302
300.267
300.237
300.213
300.193
300.176
300.163
300.152
301.004
300.988
300.971
300.954
300.935
300.915
300.895
300.874
300.854
300.834
300.816
300.799
300.781
300.761
300.734
300.697
300.648
300.592
300.533
300.475
300.421
300.372
300.329
300.291
300.258
300.231
300.208
300.189
300.173
300.161
300.994
300.978
300.961
300.944
300.925
300.905
300.885
300.864
300.842
300.821
300.801
300.782
300.764
300.744
300.721
300.69
300.65
300.603
300.552
300.5
300.45
300.402
300.358
300.318
300.283
300.252
300.226
300.204
300.186
300.171
300.973
300.957
300.941
300.924
300.906
300.887
300.867
300.846
300.824
300.802
300.78
300.76
300.741
300.721
300.7
300.676
300.645
300.609
300.568
300.524
300.48
300.434
300.39
300.349
300.311
300.278
300.248
300.223
300.202
300.184
300.937
300.922
300.906
300.891
300.874
300.856
300.837
300.816
300.794
300.771
300.748
300.727
300.707
300.688
300.67
300.651
300.63
300.604
300.575
300.541
300.505
300.464
300.423
300.381
300.342
300.305
300.273
300.244
300.22
300.199
300.871
300.855
300.841
300.828
300.814
300.798
300.78
300.758
300.735
300.711
300.687
300.665
300.645
300.627
300.612
300.598
300.585
300.57
300.552
300.53
300.503
300.472
300.437
300.399
300.361
300.325
300.291
300.261
300.234
300.212
300.724
300.707
300.695
300.686
300.676
300.663
300.645
300.624
300.602
300.58
300.558
300.537
300.519
300.503
300.49
300.479
300.471
300.464
300.456
300.446
300.43
300.41
300.386
300.358
300.329
300.299
300.272
300.246
300.223
300.203
300.408
300.402
300.403
300.404
300.403
300.398
300.39
300.379
300.366
300.353
300.34
300.328
300.317
300.306
300.297
300.29
300.284
300.279
300.274
300.266
300.257
300.245
300.23
300.213
300.195
300.178
300.161
300.146
300.133
300.121
300.312
300.303
300.296
300.291
300.286
300.281
300.276
300.272
300.267
300.263
300.259
300.254
300.249
300.244
300.238
300.232
300.224
300.215
300.204
300.19
300.174
300.159
300.145
300.134
300.124
300.117
300.11
300.105
300.101
300.113
300.32
300.309
300.301
300.294
300.288
300.282
300.277
300.272
300.267
300.262
300.257
300.252
300.246
300.24
300.234
300.226
300.218
300.208
300.197
300.184
300.17
300.156
300.144
300.133
300.124
300.117
300.111
300.106
300.102
300.108
300.33
300.318
300.309
300.301
300.294
300.287
300.281
300.275
300.27
300.264
300.258
300.252
300.246
300.239
300.231
300.222
300.212
300.202
300.191
300.179
300.166
300.154
300.142
300.132
300.124
300.117
300.111
300.106
300.102
300.104
300.342
300.333
300.323
300.314
300.306
300.298
300.291
300.284
300.277
300.27
300.263
300.255
300.248
300.239
300.23
300.22
300.209
300.197
300.186
300.174
300.163
300.151
300.141
300.132
300.124
300.117
300.111
300.107
300.103
300.102
300.361
300.354
300.345
300.336
300.326
300.316
300.307
300.298
300.289
300.28
300.271
300.262
300.253
300.243
300.231
300.219
300.206
300.194
300.182
300.171
300.16
300.149
300.14
300.131
300.124
300.117
300.112
300.107
300.103
300.101
300.388
300.388
300.381
300.371
300.358
300.345
300.333
300.32
300.309
300.297
300.286
300.274
300.262
300.249
300.235
300.22
300.206
300.192
300.179
300.168
300.157
300.147
300.138
300.13
300.123
300.117
300.112
300.107
300.104
300.101
300.432
300.448
300.443
300.429
300.41
300.391
300.372
300.355
300.338
300.322
300.307
300.291
300.275
300.259
300.241
300.223
300.206
300.191
300.178
300.166
300.155
300.146
300.138
300.13
300.123
300.117
300.112
300.108
300.104
300.101
300.486
300.518
300.518
300.503
300.48
300.454
300.428
300.404
300.381
300.358
300.336
300.315
300.294
300.273
300.251
300.229
300.209
300.191
300.177
300.165
300.154
300.145
300.137
300.13
300.123
300.118
300.113
300.108
300.105
300.102
300.535
300.581
300.593
300.582
300.559
300.529
300.497
300.466
300.435
300.406
300.377
300.347
300.319
300.291
300.264
300.237
300.213
300.193
300.177
300.164
300.153
300.144
300.136
300.129
300.123
300.118
300.113
300.109
300.105
300.102
300.576
300.632
300.657
300.655
300.637
300.607
300.573
300.537
300.5
300.463
300.426
300.389
300.351
300.315
300.28
300.247
300.219
300.196
300.178
300.164
300.153
300.144
300.136
300.129
300.123
300.118
300.114
300.11
300.106
300.103
300.608
300.67
300.705
300.715
300.705
300.681
300.648
300.61
300.569
300.526
300.482
300.437
300.39
300.344
300.3
300.26
300.227
300.201
300.181
300.166
300.154
300.144
300.136
300.13
300.124
300.119
300.114
300.11
300.107
300.104
300.632
300.694
300.737
300.757
300.756
300.741
300.713
300.678
300.636
300.591
300.541
300.489
300.435
300.377
300.323
300.276
300.238
300.208
300.186
300.169
300.156
300.146
300.137
300.13
300.125
300.119
300.115
300.111
300.107
300.104
300.652
300.708
300.754
300.781
300.789
300.783
300.763
300.733
300.695
300.649
300.598
300.541
300.481
300.413
300.349
300.294
300.25
300.217
300.192
300.174
300.159
300.148
300.139
300.132
300.126
300.12
300.116
300.112
300.108
300.105
300.669
300.717
300.759
300.79
300.805
300.806
300.795
300.773
300.74
300.698
300.647
300.589
300.524
300.45
300.375
300.313
300.264
300.228
300.2
300.179
300.164
300.151
300.142
300.134
300.127
300.122
300.117
300.113
300.109
300.106
300.688
300.725
300.761
300.789
300.808
300.815
300.811
300.795
300.769
300.733
300.686
300.629
300.562
300.484
300.402
300.334
300.28
300.24
300.21
300.187
300.17
300.156
300.146
300.137
300.13
300.124
300.119
300.114
300.11
300.107
300.71
300.736
300.763
300.787
300.805
300.814
300.814
300.804
300.785
300.754
300.713
300.659
300.593
300.514
300.428
300.355
300.297
300.254
300.221
300.196
300.177
300.162
300.15
300.141
300.133
300.126
300.121
300.116
300.112
300.108
300.734
300.752
300.769
300.787
300.8
300.809
300.811
300.805
300.789
300.764
300.727
300.678
300.615
300.538
300.452
300.375
300.315
300.27
300.235
300.207
300.186
300.17
300.157
300.146
300.137
300.13
300.123
300.118
300.113
300.109
300.76
300.77
300.78
300.789
300.798
300.803
300.804
300.799
300.787
300.766
300.733
300.688
300.629
300.555
300.472
300.395
300.334
300.287
300.249
300.22
300.197
300.179
300.164
300.152
300.142
300.134
300.127
300.121
300.115
300.111
300.786
300.789
300.792
300.795
300.797
300.798
300.797
300.791
300.78
300.762
300.734
300.692
300.637
300.568
300.489
300.415
300.354
300.305
300.266
300.235
300.21
300.19
300.173
300.16
300.148
300.139
300.131
300.124
300.118
300.113
300.811
300.809
300.806
300.802
300.799
300.795
300.79
300.783
300.772
300.754
300.728
300.692
300.64
300.576
300.504
300.433
300.373
300.324
300.285
300.252
300.225
300.203
300.185
300.169
300.157
300.146
300.136
300.128
300.122
300.116
300.833
300.826
300.819
300.811
300.803
300.794
300.786
300.776
300.763
300.745
300.721
300.687
300.641
300.582
300.516
300.451
300.394
300.346
300.305
300.271
300.243
300.219
300.199
300.181
300.167
300.154
300.143
300.134
300.126
300.12
300.851
300.841
300.83
300.818
300.806
300.794
300.782
300.769
300.754
300.736
300.713
300.681
300.64
300.587
300.527
300.468
300.414
300.368
300.328
300.293
300.263
300.238
300.216
300.196
300.179
300.165
300.152
300.141
300.132
300.125
300.863
300.851
300.838
300.824
300.809
300.795
300.78
300.764
300.747
300.728
300.704
300.675
300.637
300.59
300.538
300.485
300.436
300.392
300.353
300.318
300.288
300.26
300.236
300.214
300.195
300.178
300.163
300.151
300.14
300.131
300.868
300.856
300.842
300.827
300.811
300.794
300.777
300.758
300.739
300.719
300.695
300.667
300.633
300.592
300.547
300.501
300.458
300.418
300.381
300.347
300.316
300.287
300.261
300.237
300.215
300.195
300.177
300.162
300.149
300.138
300.865
300.853
300.839
300.823
300.806
300.788
300.769
300.749
300.729
300.707
300.683
300.657
300.626
300.591
300.554
300.515
300.478
300.443
300.409
300.377
300.347
300.317
300.29
300.263
300.238
300.215
300.195
300.177
300.161
300.148
300.849
300.837
300.823
300.808
300.791
300.773
300.753
300.733
300.711
300.688
300.664
300.638
300.611
300.581
300.551
300.52
300.49
300.462
300.433
300.406
300.377
300.349
300.321
300.292
300.265
300.239
300.215
300.194
300.176
300.161
300.813
300.8
300.786
300.771
300.756
300.739
300.72
300.699
300.677
300.653
300.629
300.604
300.58
300.554
300.529
300.504
300.482
300.461
300.44
300.419
300.397
300.372
300.346
300.318
300.289
300.262
300.236
300.213
300.192
300.175
300.739
300.724
300.711
300.699
300.686
300.672
300.654
300.634
300.612
300.588
300.565
300.541
300.519
300.497
300.476
300.456
300.439
300.425
300.412
300.398
300.383
300.365
300.344
300.321
300.296
300.271
300.246
300.223
300.202
300.184
300.594
300.584
300.576
300.57
300.562
300.552
300.538
300.521
300.502
300.482
300.462
300.442
300.423
300.404
300.386
300.37
300.358
300.347
300.339
300.33
300.32
300.308
300.294
300.277
300.258
300.239
300.22
300.202
300.185
300.17
300.359
300.358
300.361
300.364
300.366
300.365
300.36
300.352
300.341
300.33
300.317
300.304
300.292
300.278
300.265
300.252
300.242
300.233
300.226
300.219
300.212
300.203
300.193
300.181
300.168
300.155
300.142
300.13
300.119
300.11
300.307
300.299
300.293
300.287
300.283
300.278
300.273
300.269
300.264
300.26
300.255
300.25
300.245
300.24
300.234
300.226
300.218
300.207
300.193
300.176
300.159
300.143
300.129
300.119
300.112
300.105
300.101
300.097
300.093
300.091
300.31
300.3
300.293
300.286
300.28
300.275
300.27
300.265
300.26
300.255
300.25
300.245
300.239
300.233
300.226
300.218
300.209
300.198
300.185
300.17
300.154
300.14
300.128
300.119
300.111
300.105
300.101
300.097
300.093
300.091
300.314
300.304
300.296
300.289
300.282
300.276
300.271
300.265
300.26
300.254
300.248
300.242
300.236
300.228
300.22
300.211
300.201
300.19
300.178
300.164
300.15
300.138
300.127
300.118
300.111
300.105
300.101
300.097
300.094
300.092
300.32
300.311
300.302
300.295
300.287
300.281
300.274
300.268
300.262
300.255
300.249
300.242
300.234
300.226
300.216
300.206
300.195
300.184
300.172
300.159
300.147
300.135
300.125
300.117
300.111
300.105
300.101
300.097
300.094
300.092
300.328
300.32
300.312
300.304
300.296
300.289
300.281
300.274
300.267
300.259
300.252
300.244
300.235
300.225
300.214
300.202
300.19
300.178
300.167
300.155
300.144
300.133
300.124
300.117
300.11
300.105
300.101
300.097
300.094
300.092
300.338
300.333
300.326
300.319
300.311
300.302
300.294
300.285
300.276
300.267
300.258
300.248
300.237
300.225
300.212
300.199
300.186
300.174
300.162
300.151
300.141
300.132
300.123
300.116
300.11
300.105
300.101
300.098
300.094
300.092
300.352
300.351
300.347
300.341
300.333
300.323
300.313
300.302
300.291
300.28
300.268
300.256
300.243
300.228
300.213
300.197
300.183
300.17
300.159
300.148
300.139
300.13
300.122
300.116
300.11
300.105
300.101
300.098
300.095
300.093
300.371
300.378
300.38
300.376
300.366
300.354
300.341
300.326
300.312
300.298
300.283
300.267
300.251
300.233
300.214
300.197
300.181
300.167
300.156
300.146
300.137
300.129
300.122
300.115
300.11
300.106
300.102
300.098
300.095
300.093
300.397
300.414
300.423
300.421
300.411
300.396
300.379
300.361
300.342
300.323
300.303
300.283
300.262
300.24
300.218
300.197
300.18
300.166
300.154
300.144
300.135
300.128
300.121
300.115
300.11
300.106
300.102
300.099
300.096
300.093
300.426
300.453
300.47
300.472
300.463
300.447
300.427
300.404
300.38
300.356
300.33
300.304
300.277
300.25
300.223
300.199
300.18
300.165
300.153
300.143
300.135
300.127
300.121
300.115
300.11
300.106
300.102
300.099
300.096
300.094
300.457
300.491
300.516
300.524
300.518
300.502
300.479
300.453
300.425
300.395
300.363
300.329
300.295
300.262
300.23
300.203
300.181
300.165
300.152
300.142
300.134
300.127
300.121
300.116
300.111
300.107
300.103
300.1
300.097
300.094
300.487
300.525
300.556
300.572
300.57
300.556
300.534
300.505
300.473
300.438
300.4
300.359
300.317
300.276
300.239
300.208
300.184
300.166
300.153
300.143
300.134
300.127
300.121
300.116
300.111
300.107
300.104
300.1
300.097
300.095
300.517
300.555
300.589
300.611
300.615
300.605
300.584
300.556
300.521
300.482
300.439
300.392
300.341
300.291
300.248
300.214
300.188
300.169
300.155
300.144
300.136
300.128
300.122
300.117
300.112
300.108
300.104
300.101
300.098
300.095
300.546
300.581
300.615
300.639
300.649
300.644
300.627
300.601
300.566
300.524
300.477
300.424
300.366
300.308
300.26
300.222
300.194
300.173
300.158
300.147
300.138
300.131
300.124
300.119
300.114
300.109
300.105
300.102
300.098
300.096
300.574
300.604
300.635
300.66
300.673
300.672
300.66
300.636
300.603
300.561
300.511
300.454
300.39
300.325
300.272
300.231
300.201
300.179
300.163
300.151
300.141
300.133
300.127
300.121
300.116
300.111
300.106
300.102
300.099
300.097
300.603
300.627
300.652
300.674
300.688
300.691
300.682
300.662
300.632
300.59
300.54
300.479
300.412
300.342
300.285
300.241
300.209
300.186
300.169
300.156
300.146
300.138
300.13
300.124
300.118
300.113
300.108
300.104
300.1
300.097
300.633
300.65
300.668
300.686
300.698
300.701
300.695
300.679
300.651
300.612
300.562
300.5
300.431
300.358
300.299
300.253
300.22
300.196
300.178
300.163
300.152
300.143
300.135
300.128
300.121
300.115
300.11
300.105
300.102
300.099
300.662
300.673
300.684
300.696
300.705
300.707
300.702
300.687
300.662
300.626
300.577
300.516
300.447
300.375
300.313
300.266
300.232
300.207
300.188
300.172
300.16
300.15
300.141
300.133
300.126
300.119
300.113
300.108
300.103
300.1
300.691
300.695
300.701
300.707
300.711
300.711
300.705
300.692
300.668
300.634
300.587
300.529
300.461
300.39
300.329
300.281
300.246
300.22
300.2
300.183
300.17
300.158
300.148
300.139
300.131
300.124
300.117
300.111
300.106
300.102
300.718
300.717
300.717
300.717
300.717
300.714
300.706
300.693
300.671
300.639
300.594
300.538
300.473
300.406
300.346
300.298
300.263
300.236
300.214
300.197
300.182
300.17
300.159
300.148
300.138
300.13
300.122
300.115
300.109
300.104
300.741
300.737
300.732
300.728
300.723
300.716
300.707
300.693
300.672
300.641
300.599
300.546
300.485
300.421
300.364
300.318
300.282
300.255
300.232
300.214
300.198
300.184
300.171
300.159
300.148
300.137
300.128
300.119
300.113
300.107
300.76
300.753
300.746
300.737
300.729
300.719
300.708
300.692
300.672
300.642
300.603
300.553
300.496
300.437
300.384
300.339
300.304
300.277
300.254
300.234
300.217
300.202
300.187
300.173
300.16
300.147
300.136
300.126
300.118
300.111
300.773
300.765
300.755
300.745
300.733
300.721
300.708
300.691
300.67
300.642
300.605
300.558
300.507
300.453
300.404
300.362
300.329
300.302
300.279
300.259
300.24
300.223
300.206
300.19
300.174
300.159
300.146
300.134
300.124
300.116
300.779
300.771
300.76
300.748
300.735
300.721
300.705
300.687
300.665
300.638
300.605
300.562
300.516
300.468
300.424
300.385
300.354
300.328
300.306
300.285
300.267
300.248
300.229
300.21
300.192
300.174
300.158
300.144
300.132
300.123
300.776
300.768
300.758
300.745
300.73
300.715
300.697
300.677
300.655
300.629
300.597
300.561
300.52
300.477
300.439
300.404
300.376
300.352
300.331
300.312
300.294
300.274
300.254
300.233
300.212
300.192
300.173
300.157
300.143
300.132
300.759
300.751
300.741
300.728
300.713
300.697
300.679
300.659
300.636
300.61
300.581
300.548
300.513
300.477
300.443
300.412
300.387
300.366
300.348
300.332
300.315
300.297
300.278
300.256
300.234
300.211
300.19
300.172
300.156
300.142
300.72
300.711
300.701
300.689
300.676
300.661
300.643
300.623
300.601
300.576
300.549
300.519
300.489
300.457
300.428
300.399
300.377
300.359
300.344
300.332
300.319
300.305
300.289
300.27
300.249
300.228
300.206
300.186
300.169
300.154
300.643
300.635
300.627
300.618
300.607
300.595
300.58
300.561
300.54
300.517
300.493
300.467
300.441
300.414
300.388
300.361
300.341
300.326
300.315
300.306
300.297
300.288
300.276
300.262
300.245
300.227
300.209
300.191
300.175
300.16
300.51
300.508
300.505
300.502
300.498
300.491
300.48
300.466
300.449
300.43
300.411
300.39
300.369
300.346
300.323
300.298
300.281
300.268
300.258
300.251
300.245
300.239
300.231
300.221
300.21
300.197
300.183
300.17
300.158
300.146
300.323
300.328
300.334
300.34
300.344
300.346
300.343
300.337
300.328
300.317
300.304
300.29
300.275
300.258
300.238
300.217
300.202
300.19
300.182
300.176
300.17
300.165
300.159
300.152
300.144
300.135
300.126
300.117
300.108
300.1
300.305
300.297
300.291
300.286
300.281
300.277
300.272
300.267
300.263
300.258
300.253
300.248
300.243
300.237
300.23
300.223
300.213
300.2
300.183
300.163
300.144
300.129
300.117
300.109
300.102
300.098
300.094
300.091
300.088
300.085
300.304
300.295
300.287
300.281
300.276
300.271
300.266
300.261
300.256
300.251
300.246
300.241
300.235
300.228
300.221
300.212
300.202
300.19
300.174
300.156
300.14
300.126
300.115
300.108
300.102
300.097
300.094
300.091
300.088
300.085
300.306
300.297
300.289
300.282
300.276
300.27
300.264
300.258
300.253
300.247
300.242
300.235
300.229
300.221
300.213
300.204
300.193
300.181
300.166
300.151
300.136
300.124
300.114
300.107
300.101
300.097
300.093
300.09
300.088
300.085
300.31
300.301
300.293
300.285
300.278
300.271
300.265
300.259
300.252
300.246
300.239
300.232
300.225
300.216
300.207
300.196
300.185
300.173
300.16
300.146
300.133
300.122