/*--------------------------------*- C++ -*----------------------------------*\
  =========                 |
  \\      /  F ield         | OpenFOAM: The Open Source CFD Toolbox
   \\    /   O peration     | Website:  https://openfoam.org
    \\  /    A nd           | Version:  12
     \\/     M anipulation  |
\*---------------------------------------------------------------------------*/
FoamFile
{
    format      ascii;
    class       volScalarField;
    location    "1200/air";
    object      alphat;
}
// * * * * * * * * * * * * * * * * * * * * * * * * * * * * * * * * * * * * * //

dimensions      [1 -1 -1 0 0 0 0];

internalField   nonuniform List<scalar> 
243000
(
0.000124367
0.000130065
0.000129594
0.000127028
0.00012318
0.00011866
0.000113896
0.000109168
0.000104652
0.00010047
9.66731e-05
9.33515e-05
9.05367e-05
8.82787e-05
8.70176e-05
0.000367733
8.66491e-05
8.75994e-05
8.8123e-05
8.96486e-05
9.1754e-05
9.37185e-05
9.49782e-05
9.51047e-05
9.39386e-05
9.13885e-05
8.7749e-05
8.39542e-05
0.00035445
0.000347513
0.000444569
0.000460471
0.000453578
0.00043875
0.000419867
0.000399507
0.000379173
0.000359748
0.000341763
0.00032563
0.000311504
0.000299638
0.000290139
0.000283323
0.000278878
0.000280345
0.000282955
0.000290685
0.000303756
0.000317249
0.000330724
0.000342596
0.000351529
0.000356287
0.000356324
0.000351258
0.000341587
0.000323116
0.000308052
0.000282958
0.000502094
0.000560836
0.000585195
0.000593841
0.000592754
0.000585872
0.000575671
0.000563665
0.000550781
0.000538445
0.000526696
0.000516346
0.000507924
0.000502441
0.000500749
0.0005054
0.000516332
0.000533612
0.000554308
0.000574268
0.000589944
0.000599093
0.000600543
0.000593301
0.000577464
0.000553355
0.000522365
0.000482795
0.000438277
0.00038709
0.00046738
0.00051364
0.000544628
0.000564884
0.000572915
0.000573003
0.000568194
0.000560484
0.000551721
0.000542532
0.00053381
0.000526396
0.000520906
0.000518629
0.000520954
0.000530504
0.000547667
0.000571574
0.000598028
0.000622357
0.000640738
0.000651325
0.000653466
0.00064658
0.000630893
0.000606808
0.000575535
0.000535935
0.000489748
0.00043589
0.000477124
0.000491513
0.000513087
0.000531026
0.000541439
0.000545246
0.000544364
0.000540306
0.000535996
0.000531586
0.000527163
0.000523757
0.000522264
0.000524279
0.00053159
0.000547143
0.000571237
0.000601898
0.000633884
0.000661963
0.00068241
0.000693909
0.000696329
0.000689543
0.000673973
0.00065015
0.00061913
0.000580215
0.000534453
0.000481678
0.000511378
0.000510367
0.000509026
0.000516147
0.000522872
0.000526594
0.000527272
0.000525263
0.000521909
0.000518217
0.000514487
0.000513401
0.000515171
0.000521445
0.000534156
0.000556466
0.000588168
0.000625956
0.000663325
0.000694815
0.000717019
0.000729202
0.000731737
0.000724933
0.00070946
0.00068602
0.000655541
0.000617767
0.000573359
0.000522857
0.00055125
0.00054977
0.000544803
0.000537697
0.000532308
0.000529296
0.000526345
0.000522534
0.000517888
0.0005129
0.000508147
0.000504994
0.000505198
0.000513255
0.000530448
0.000559602
0.000599343
0.000644583
0.000687352
0.000722088
0.00074592
0.000758717
0.000761333
0.00075448
0.000739104
0.000716087
0.000686316
0.00064989
0.000607261
0.000559293
0.000591131
0.000591673
0.000588639
0.000583208
0.000574593
0.000562933
0.000551814
0.000541297
0.0005311
0.000521255
0.000512198
0.00050494
0.000501077
0.00050484
0.000523137
0.000557916
0.000605533
0.000658378
0.000706685
0.00074462
0.000770066
0.000783504
0.000786241
0.000779373
0.000764112
0.000741529
0.000712549
0.000677525
0.000636821
0.000591392
0.000630114
0.000632378
0.000631241
0.000627505
0.00062092
0.000611253
0.000596928
0.000580021
0.00056297
0.00054606
0.000529977
0.000515919
0.000505667
0.000502913
0.000516075
0.000553294
0.000607623
0.000667909
0.000721793
0.000763036
0.000790149
0.000804312
0.000807269
0.000800463
0.000785366
0.000763226
0.000735067
0.000701427
0.000662664
0.000619687
0.000668458
0.000671777
0.000671772
0.000668973
0.000663223
0.000654395
0.000642108
0.000625165
0.00060422
0.000582033
0.000559417
0.000537905
0.000519792
0.000509121
0.000513656
0.00054812
0.000607194
0.000673694
0.000733078
0.000777796
0.000806683
0.000821701
0.000825011
0.000818383
0.000803522
0.000781853
0.00075452
0.000722217
0.000685382
0.000644671
0.000706445
0.0007102
0.000710646
0.000708133
0.000702545
0.000693789
0.000681705
0.000665942
0.000644884
0.000620503
0.000594092
0.00056704
0.000541835
0.000522976
0.000518506
0.000544814
0.00060506
0.000676681
0.00074089
0.000789206
0.000820058
0.000836087
0.000839912
0.000833607
0.000819084
0.000797931
0.00077142
0.000740419
0.000705378
0.000666766
0.000744197
0.000747832
0.000748166
0.000745478
0.000739646
0.000730548
0.000718073
0.000702055
0.000682066
0.000656726
0.000628629
0.000598497
0.000568378
0.000542635
0.000529697
0.000545207
0.000602752
0.000677584
0.000745884
0.000797482
0.000830578
0.00084779
0.000852312
0.000846499
0.000832437
0.000811866
0.000786194
0.000756439
0.00072301
0.000686353
0.000781625
0.000784672
0.000784503
0.000781333
0.000775005
0.000765359
0.000752264
0.000735586
0.000715121
0.000689661
0.000660926
0.000629306
0.000596313
0.000565696
0.000545691
0.000551354
0.000602083
0.000677234
0.00074855
0.00080302
0.000838445
0.000857045
0.000862464
0.000857332
0.000843878
0.00082398
0.000799194
0.000770561
0.000738617
0.000703782
0.00081854
0.000820588
0.000819664
0.000815818
0.00080886
0.00079858
0.000784792
0.000767356
0.000746111
0.00072058
0.000691162
0.000658577
0.000623933
0.000590171
0.000564874
0.000562346
0.000603619
0.000676404
0.000749344
0.000806241
0.000843727
0.000864054
0.000870565
0.000866315
0.00085363
0.000834521
0.000810625
0.000783073
0.000752514
0.000719406
0.000854765
0.000855492
0.000853602
0.00084898
0.000841336
0.000830417
0.000815975
0.000797824
0.000775784
0.000749738
0.000719707
0.000686379
0.000650681
0.000614926
0.000585915
0.000576875
0.000607968
0.000675886
0.000748822
0.000807451
0.000846882
0.000868956
0.000876761
0.0008736
0.000861857
0.00084367
0.000820726
0.000794256
0.00076499
0.000733517
0.000890335
0.000889558
0.000886503
0.000880964
0.000872606
0.000861068
0.000846047
0.000827273
0.000804525
0.00077775
0.000747255
0.000713261
0.000676714
0.00063958
0.000607984
0.000593897
0.000615467
0.000676398
0.000747379
0.00080706
0.000848094
0.000871816
0.000881162
0.000879306
0.000868669
0.000851576
0.000829681
0.000804317
0.000776293
0.000746402
0.000925477
0.000923028
0.000918658
0.000912096
0.000902967
0.000890824
0.000875287
0.000855992
0.000832656
0.000805336
0.000774467
0.00073984
0.000702457
0.00066422
0.000630732
0.000612702
0.000626
0.000678519
0.000745599
0.000805199
0.000847684
0.000872965
0.000883917
0.000883529
0.000874184
0.000858336
0.00083762
0.000813431
0.000786647
0.000758249
0.000960476
0.000956173
0.000950437
0.000942813
0.000932874
0.000920142
0.000904151
0.000884441
0.000860681
0.000833528
0.000802104
0.000766752
0.000728473
0.000689199
0.000654168
0.000632944
0.000639361
0.000682611
0.000744091
0.000802318
0.000845676
0.000872615
0.000885066
0.000886324
0.000878515
0.000864052
0.000844657
0.000821739
0.000796233
0.000769271
0.000994826
0.000989395
0.000982471
0.000973794
0.000963053
0.000949788
0.000933483
0.000913558
0.000889691
0.000862736
0.000830958
0.000794836
0.000755555
0.000715192
0.000678732
0.000654752
0.000655468
0.000689089
0.000743605
0.000798931
0.000842384
0.000870701
0.000884916
0.000887774
0.000881663
0.000868776
0.000850866
0.000829346
0.000805194
0.000779656
0.00102804
0.00102163
0.0010141
0.00100513
0.000994376
0.00098132
0.000965334
0.000945864
0.00092321
0.000896038
0.000863392
0.00082604
0.000785371
0.0007438
0.000705929
0.000679547
0.000674451
0.000698402
0.000744611
0.000795547
0.000838139
0.000867437
0.000883358
0.00088796
0.000883684
0.000872554
0.000856296
0.000836322
0.000813639
0.000789566
0.00106003
0.00105267
0.0010446
0.00103547
0.0010249
0.00101234
0.000997245
0.000979503
0.000957997
0.00093078
0.000897699
0.000859557
0.000817821
0.000775151
0.000735927
0.000707084
0.000696235
0.000710694
0.000747563
0.000792709
0.000833349
0.000863059
0.000880499
0.000886931
0.000884589
0.000875393
0.000860983
0.000842732
0.000821668
0.000799166
0.00109071
0.00108251
0.00107398
0.00106478
0.00105462
0.00104293
0.00103004
0.00101384
0.00099261
0.000965702
0.00093281
0.000894627
0.000852468
0.000809103
0.000768595
0.000737191
0.000720733
0.000726055
0.000752739
0.000790963
0.000828445
0.000857815
0.000876428
0.00088468
0.000884268
0.000877225
0.00086487
0.000848554
0.000829299
0.000808518
0.00111998
0.00111115
0.00110242
0.00109348
0.00108476
0.00107532
0.001063
0.00104697
0.0010263
0.0010002
0.000968216
0.000930863
0.000889118
0.000845655
0.000804038
0.000769968
0.000747948
0.000744405
0.000760849
0.000791884
0.000825035
0.00085295
0.000871867
0.000881338
0.000882886
0.000877984
0.000867876
0.000853739
0.000836541
0.000817701
0.00114783
0.00113906
0.00113127
0.00112393
0.00111554
0.00110563
0.00109339
0.00107794
0.00105828
0.00103359
0.00100328
0.0009677
0.000927325
0.000884527
0.000842146
0.000805363
0.000777794
0.00076543
0.0007727
0.000795842
0.00082431
0.000849867
0.000868481
0.00087885
0.000881565
0.000877839
0.000869884
0.000858155
0.000843343
0.000826753
0.00117479
0.00116667
0.00115871
0.00115061
0.00114187
0.00113193
0.00112002
0.00110533
0.00108693
0.00106405
0.00103603
0.00100297
0.000964897
0.000923673
0.000881184
0.000842154
0.000809544
0.000789925
0.00078955
0.00080456
0.00082735
0.000850027
0.000867524
0.000878036
0.000881504
0.000878835
0.000871566
0.00086172
0.000849467
0.000835527
0.00119654
0.00118788
0.00117946
0.0011709
0.00116179
0.00115175
0.00114015
0.00112625
0.00110916
0.00108819
0.00106265
0.00103252
0.000997453
0.000958778
0.000917792
0.000879554
0.000846432
0.000823253
0.000815581
0.000822284
0.000837911
0.000855846
0.000870996
0.000880705
0.000884384
0.000882413
0.000875743
0.000866065
0.000855189
0.000843924
0.00121475
0.00120382
0.00119373
0.00118436
0.00117546
0.00116664
0.00115732
0.00114667
0.00113371
0.00111748
0.0010971
0.00107213
0.00104239
0.00100875
0.000972334
0.000936237
0.000902854
0.000876346
0.000861423
0.00085899
0.000865653
0.000876491
0.000886886
0.000893851
0.000896212
0.00089375
0.000886984
0.000877126
0.000865539
0.000853394
0.00125027
0.00123933
0.00122894
0.00121973
0.00121191
0.00120529
0.00119932
0.00119307
0.00118539
0.0011752
0.00116131
0.00114313
0.00112047
0.00109381
0.00106428
0.0010329
0.00100115
0.000973058
0.000952087
0.000940054
0.000935862
0.000936546
0.000938596
0.000939394
0.00093735
0.000931765
0.000922775
0.000911189
0.000898014
0.000884703
0.00132375
0.00131465
0.0013071
0.00130265
0.00130119
0.00130189
0.00130378
0.00130562
0.00130624
0.00130463
0.00129908
0.00128972
0.00127657
0.00126006
0.00124064
0.00121837
0.00119321
0.00116857
0.00114663
0.00112904
0.00111593
0.00110623
0.00109821
0.00109017
0.00108086
0.001069
0.00105473
0.00103894
0.00102247
0.00100691
0.00157021
0.00156511
0.00156728
0.00157572
0.0015842
0.00159088
0.00159601
0.00159988
0.00160243
0.00160295
0.00159858
0.00159305
0.00158654
0.00157946
0.00157117
0.00156255
0.00155115
0.00154041
0.00153073
0.00152337
0.00151803
0.00151461
0.00151234
0.00151052
0.00150833
0.00150201
0.00149291
0.00148315
0.00147433
0.00146534
0.000163236
0.000169591
0.000168378
0.000164169
0.000158224
0.00015144
0.000144407
0.000137534
0.000131079
0.000125243
0.000120128
0.000115851
0.000112439
0.000110056
0.000108672
0.000108695
0.000109935
0.000112566
0.000116381
0.00012075
0.0001249
0.000127966
0.000129225
0.000128103
0.000124303
0.000117601
0.000108218
9.53763e-05
8.09642e-05
0.000372086
0.000626933
0.000680756
0.000656374
0.000607105
0.000554422
0.000504405
0.000459224
0.000419155
0.000384106
0.00035447
0.000330276
0.000311871
0.000299248
0.000293558
0.000294719
0.000305227
0.000322053
0.000342787
0.000361608
0.0003756
0.000385009
0.000391935
0.000396221
0.000394012
0.000383091
0.000363213
0.000336148
0.000301824
0.000271721
0.000291347
0.000913344
0.00100971
0.00100858
0.000965253
0.000904456
0.000839344
0.000776712
0.000718817
0.000667364
0.000623859
0.00058888
0.000563815
0.000549475
0.000548768
0.000563638
0.000598707
0.000644454
0.000692332
0.000727342
0.000744131
0.000747073
0.000744419
0.000738847
0.000725197
0.000700067
0.000660157
0.000607644
0.000540418
0.000475616
0.000449404
0.000952142
0.00110456
0.00115664
0.0011436
0.00109569
0.00103649
0.000976106
0.000916161
0.000863888
0.000819892
0.000785403
0.000763867
0.000757373
0.000771003
0.00081125
0.00088278
0.000967519
0.00104628
0.00109804
0.00111726
0.00111277
0.00109804
0.00107739
0.0010481
0.00100579
0.000946464
0.000871451
0.000777613
0.000680743
0.000621633
0.00090884
0.00105527
0.00113091
0.00115114
0.00113479
0.00109874
0.00105504
0.00101218
0.000970188
0.000933218
0.000908197
0.000898836
0.000907676
0.000943849
0.00101854
0.00113514
0.00126564
0.00137844
0.0014476
0.00146974
0.00145812
0.00143141
0.00139547
0.00135079
0.00129261
0.00121625
0.00112296
0.00100924
0.000887733
0.000803674
0.000835759
0.000953427
0.00103117
0.00106745
0.00107467
0.00106226
0.00103825
0.00101377
0.000990595
0.000971644
0.000964528
0.000973964
0.00100388
0.00106995
0.00118594
0.00135462
0.00153585
0.0016821
0.0017672
0.0017923
0.00177514
0.00173845
0.00168849
0.0016297
0.00155735
0.0014676
0.00136029
0.00123256
0.0010938
0.000990566
0.000798818
0.000882735
0.000943679
0.00098021
0.000998112
0.0010016
0.000994366
0.000982615
0.000970067
0.000960578
0.000967988
0.000996482
0.00105302
0.00115404
0.00131801
0.00154498
0.00177951
0.00195839
0.00205709
0.00208447
0.00206307
0.00201834
0.0019562
0.00188484
0.0018003
0.00170012
0.00158247
0.00144553
0.00129548
0.00117799
0.000788918
0.000839167
0.0008842
0.000917748
0.000938719
0.000948935
0.000950487
0.000946802
0.000941573
0.000938859
0.000949722
0.000985582
0.00106195
0.00120211
0.00141991
0.00170944
0.00199849
0.00220981
0.00231937
0.00234818
0.00232359
0.00227241
0.00219991
0.0021176
0.00202322
0.00191455
0.00178945
0.00164652
0.0014899
0.00136166
0.000819767
0.00083299
0.000862211
0.000887977
0.000906814
0.000919071
0.000923073
0.000922068
0.000919368
0.000919028
0.000930291
0.000965939
0.00104822
0.00121988
0.00149664
0.00185321
0.00219625
0.0024382
0.00255675
0.00258623
0.00255922
0.00250284
0.00242165
0.00232976
0.0022272
0.00211192
0.00198166
0.0018356
0.00167545
0.00153872
0.000922343
0.00090116
0.000905162
0.000915013
0.000922842
0.000926299
0.000925556
0.000920458
0.000914802
0.000911638
0.00091888
0.00095079
0.00103014
0.00122146
0.00155313
0.00197947
0.00237595
0.00264533
0.00277246
0.00280184
0.00277257
0.00271214
0.00262377
0.00252385
0.00241427
0.00229373
0.00216004
0.00201305
0.00185288
0.00170922
0.00111498
0.00107361
0.00104885
0.0010306
0.00101497
0.000997985
0.000979289
0.000959082
0.000940212
0.000925214
0.000923316
0.000947365
0.0010228
0.00122013
0.0015975
0.00209246
0.00253805
0.00283374
0.0029701
0.0029983
0.00296651
0.00290285
0.00280887
0.00270213
0.00258652
0.00246174
0.00232579
0.00218016
0.00202041
0.0018721
0.00139274
0.00134759
0.00129956
0.00125256
0.00120488
0.00115605
0.00110665
0.00105774
0.00101277
0.000975657
0.000954527
0.000963147
0.0010307
0.00122748
0.00164127
0.00219656
0.00268477
0.00300311
0.00315044
0.00317887
0.00314392
0.0030774
0.00297892
0.00286657
0.00274589
0.00261766
0.00248122
0.00233522
0.00217689
0.00202668
0.0017273
0.00169324
0.00163656
0.00156696
0.00148883
0.00140472
0.00131757
0.00123
0.00114713
0.0010751
0.00102369
0.00100897
0.00106062
0.00124938
0.00168879
0.00229466
0.0028179
0.00315504
0.003313
0.00334312
0.00330723
0.00323766
0.00313516
0.00301879
0.00289406
0.0027631
0.00262584
0.00247977
0.00232357
0.00217335
0.00208163
0.00206717
0.00201645
0.00193433
0.00183491
0.00172179
0.0015994
0.00147265
0.00134754
0.00123265
0.00114069
0.00109333
0.00112111
0.00130594
0.00175738
0.00239382
0.00294046
0.00329074
0.00345761
0.00349224
0.00345571
0.0033853
0.00328025
0.00316048
0.00303245
0.00290003
0.00276084
0.00261531
0.00246194
0.00231389
0.00242207
0.00242496
0.00238961
0.00231606
0.00220653
0.00207578
0.00192788
0.00176877
0.00160521
0.00144751
0.0013111
0.00122433
0.00122223
0.00139612
0.00185085
0.00249647
0.00305422
0.00341056
0.00358386
0.00362453
0.00358835
0.00351993
0.00341605
0.00329313
0.00316195
0.00302856
0.00288865
0.0027437
0.00259297
0.002449
0.00274691
0.0027631
0.00274061
0.00267795
0.00257555
0.00243889
0.00227745
0.00209672
0.00190369
0.00170969
0.00153235
0.00140454
0.0013709
0.00152454
0.00197024
0.00260838
0.00315939
0.0035165
0.00369376
0.00374238
0.00370843
0.00364343
0.00354167
0.00341727
0.00328498
0.00315065
0.00301061
0.00286653
0.00271853
0.00257947
0.00305063
0.00307659
0.00306511
0.00301314
0.00292209
0.00279005
0.00262601
0.00243469
0.00222304
0.00200284
0.00179314
0.00162937
0.0015657
0.00169129
0.00211548
0.00272734
0.00325704
0.00360858
0.00378849
0.00384679
0.00381802
0.0037557
0.00365622
0.00353309
0.0034011
0.00326724
0.00312796
0.00298532
0.00284031
0.00270642
0.00332588
0.00335958
0.00335676
0.00331465
0.00323439
0.00311337
0.00295427
0.00276127
0.00254115
0.00230574
0.00207454
0.0018843
0.0017947
0.00188865
0.00227821
0.00284644
0.00334572
0.00368297
0.00386975
0.00393518
0.00391472
0.00385544
0.00375898
0.00363969
0.00351028
0.0033783
0.00324117
0.00310089
0.00295945
0.00283077
0.00357478
0.00360427
0.0036057
0.00357204
0.00350228
0.00339349
0.0032429
0.00305392
0.00283321
0.00259222
0.00235047
0.00214414
0.00203455
0.00209679
0.00244094
0.00295238
0.00341619
0.00373726
0.0039247
0.00400168
0.00399343
0.00394079
0.00384903
0.00373637
0.00361194
0.00348285
0.00334919
0.00321263
0.00307584
0.00295286
0.00379987
0.00381919
0.00381544
0.00378128
0.00371487
0.00361256
0.00346921
0.00328658
0.00307012
0.0028305
0.00258719
0.00237425
0.0022511
0.00228203
0.00257564
0.00302459
0.00345213
0.00376526
0.00395443
0.0040381
0.00404177
0.00400469
0.00392611
0.00382242
0.00370645
0.00358144
0.00345132
0.00331935
0.00318855
0.00307222
0.00399828
0.00400408
0.00399084
0.00395168
0.00388414
0.00378319
0.00364359
0.00346565
0.00325341
0.00301654
0.00277403
0.00255765
0.00242198
0.00242274
0.00265686
0.00304189
0.00343411
0.00374147
0.00394076
0.00404142
0.00406423
0.00404352
0.00397876
0.00388494
0.00378013
0.00366621
0.00354644
0.0034229
0.00329987
0.00318673
0.00416351
0.00415344
0.00412828
0.00408153
0.00400944
0.00390589
0.00376683
0.00359073
0.00338013
0.00314396
0.00290091
0.00268022
0.00252997
0.00250053
0.00266388
0.00298216
0.00333727
0.00363941
0.00385338
0.00397685
0.00402699
0.00403149
0.00399053
0.00391702
0.00382815
0.00372585
0.00361798
0.00350476
0.00339187
0.00328876
0.0042838
0.00425683
0.00421895
0.0041627
0.0040827
0.00397438
0.00383299
0.00365526
0.00344299
0.00320494
0.00295989
0.00273391
0.00256761
0.0025048
0.00259461
0.00283853
0.0031419
0.00342713
0.00365195
0.003803
0.00388925
0.00392921
0.0039248
0.00388596
0.00382437
0.0037459
0.00365502
0.00355704
0.00345885
0.0033686
0.00434079
0.0042979
0.00424742
0.00417822
0.00409068
0.00397748
0.00383235
0.00365119
0.00343679
0.00319918
0.00295712
0.00273176
0.00255495
0.00246038
0.0024829
0.00263871
0.00286526
0.00310952
0.0033268
0.00349594
0.00361646
0.00369874
0.00373734
0.0037432
0.00372412
0.003685
0.00362682
0.00355468
0.00347624
0.00340278
0.00430682
0.00425339
0.00418864
0.00411359
0.00402257
0.0039076
0.00376155
0.00358235
0.00337562
0.00315259
0.00293154
0.00272492
0.00255495
0.00244333
0.0024137
0.00247623
0.00261031
0.00277809
0.00294772
0.00310325
0.00323493
0.00334064
0.00341458
0.00346149
0.00348611
0.00349216
0.00348141
0.00345039
0.00340531
0.0033541
0.00414748
0.00409116
0.00403175
0.00396457
0.00388295
0.00377897
0.00364768
0.00349052
0.0033149
0.0031303
0.00295114
0.00278384
0.00264198
0.002535
0.00247743
0.00247015
0.00250969
0.00258277
0.00267182
0.00276758
0.00286236
0.00295029
0.00302467
0.00308466
0.00313127
0.00316602
0.00318988
0.00320142
0.00319625
0.00317748
0.00387598
0.00384352
0.00381094
0.00377277
0.00371948
0.00364433
0.00354668
0.00343084
0.00330464
0.00317518
0.00304847
0.00292654
0.00281863
0.00273033
0.00266873
0.00262938
0.00261008
0.00261108
0.00262523
0.00264961
0.00268123
0.00271657
0.0027511
0.00278246
0.0028097
0.00283315
0.00285335
0.00287006
0.00288124
0.00289087
0.00360306
0.00360044
0.00360873
0.00361394
0.00359967
0.00356203
0.0035048
0.00343118
0.00334938
0.00326451
0.00317923
0.00309625
0.00301874
0.00295058
0.0028986
0.00285557
0.00281859
0.00279135
0.00277093
0.00275708
0.00274912
0.00274542
0.00274357
0.00274163
0.00273806
0.00273253
0.00272571
0.00271912
0.00271304
0.00272022
0.00341921
0.00342721
0.00345232
0.00347588
0.00348388
0.0034738
0.00344703
0.00340583
0.0033556
0.0033009
0.00324169
0.0031826
0.00312535
0.00307305
0.00302889
0.0029915
0.00295924
0.002933
0.00291255
0.00289827
0.0028903
0.00288722
0.00288712
0.00288831
0.00288896
0.00288762
0.0028846
0.00288292
0.00288084
0.0028888
0.00329437
0.00331174
0.00333767
0.00335797
0.00336496
0.00335896
0.00334228
0.0033171
0.00328568
0.00325074
0.00321007
0.00316853
0.00312682
0.00308894
0.00305197
0.00302437
0.0030037
0.00298889
0.00298062
0.00297982
0.00298666
0.00299995
0.00301686
0.00303553
0.00305411
0.00307057
0.00308596
0.00310203
0.00311231
0.00311454
0.000192673
0.000199795
0.000197758
0.000192682
0.000185635
0.000177552
0.000169125
0.000160865
0.000153109
0.00014611
0.000139965
0.000134832
0.000130778
0.000128066
0.000126754
0.000127149
0.000129126
0.00013274
0.000138074
0.000144703
0.000151164
0.000155879
0.00015779
0.000156206
0.000150794
0.000141225
0.000127447
0.000108419
8.99539e-05
8.18305e-05
0.000769421
0.000884302
0.00088192
0.000826471
0.000759909
0.000695295
0.000636879
0.00058584
0.000542191
0.000506004
0.000477034
0.00045654
0.000443955
0.000441234
0.000446266
0.000461205
0.000477729
0.000495171
0.000510816
0.000525687
0.000541284
0.000556985
0.000569162
0.000568031
0.000547545
0.000507509
0.000454206
0.000389014
0.000336383
0.00030326
0.00118417
0.00137814
0.00141295
0.00137217
0.0012988
0.00121562
0.00113402
0.00105906
0.000993616
0.000939409
0.0008975
0.000871027
0.000860711
0.000871032
0.000900367
0.000949357
0.000995207
0.00103113
0.00104882
0.00105256
0.00105397
0.001058
0.00106201
0.00104403
0.00100061
0.000928708
0.000829833
0.000706462
0.0005914
0.000524233
0.00139983
0.00162635
0.00171074
0.00170573
0.00164946
0.00157201
0.00148958
0.00140955
0.0013393
0.00128151
0.00123957
0.00121892
0.00122274
0.0012585
0.00132769
0.00142323
0.00150503
0.00155763
0.00157134
0.00156055
0.00154376
0.00152873
0.00151618
0.001484
0.00142022
0.0013198
0.00118636
0.00102056
0.000853822
0.000743173
0.00149229
0.00171535
0.00183056
0.00186014
0.00183639
0.00177697
0.0017076
0.00163427
0.00157345
0.0015233
0.00149188
0.00148677
0.00151416
0.0015872
0.0017081
0.00185718
0.00197439
0.00203921
0.00204571
0.00201763
0.00197992
0.00194819
0.00191891
0.00187306
0.00179399
0.001675
0.00151858
0.00132472
0.00112125
0.00097071
0.00152828
0.00170886
0.00182364
0.00187536
0.0018801
0.00185273
0.0018071
0.0017598
0.00170891
0.00167387
0.0016627
0.00168179
0.00174264
0.00186468
0.00204711
0.00225359
0.00240246
0.00247185
0.00246637
0.00242064
0.00236544
0.00231762
0.00227149
0.00221388
0.00212461
0.00199516
0.0018259
0.00161552
0.00138831
0.00120389
0.00149238
0.0016153
0.00171697
0.00178176
0.00181191
0.00181407
0.00179838
0.00177614
0.00175359
0.0017467
0.00176202
0.00181292
0.0019176
0.00210106
0.00235188
0.00261703
0.00279352
0.00285938
0.00283837
0.00277493
0.00270378
0.00264182
0.00258108
0.00251276
0.00241674
0.00228263
0.00210839
0.00189184
0.00165089
0.00144106
0.00143155
0.00150877
0.00159194
0.0016592
0.00170399
0.00172652
0.00173264
0.00173143
0.00173216
0.00175212
0.00180006
0.00189112
0.00204843
0.00230315
0.00262956
0.0029522
0.00315058
0.00320628
0.00316751
0.00308746
0.00300247
0.00292763
0.0028545
0.00277659
0.00267587
0.00254083
0.0023673
0.00215291
0.00190863
0.00167821
0.00140368
0.0014296
0.00148332
0.00154241
0.00159236
0.00162805
0.00165091
0.00166717
0.00168605
0.00172207
0.00179387
0.00192502
0.00214115
0.00247963
0.00288606
0.00326251
0.00347588
0.00351666
0.00345983
0.00336523
0.00326927
0.0031817
0.00309822
0.0030119
0.00290765
0.00277378
0.00260482
0.0023966
0.0021519
0.00191068
0.001426
0.00140318
0.00142117
0.00146092
0.00150617
0.00154549
0.00157717
0.00160506
0.00163697
0.00168602
0.00177242
0.00193122
0.00221324
0.00264091
0.00312882
0.00355028
0.00377106
0.00379456
0.00372093
0.00361476
0.00351044
0.00341098
0.00331776
0.00322462
0.00311753
0.00298561
0.00282388
0.00262066
0.00238028
0.00213574
0.00152068
0.00146117
0.0014368
0.00144799
0.00147791
0.00150816
0.00153826
0.00156773
0.00160389
0.00166019
0.00175745
0.00193392
0.00227626
0.00279653
0.00336008
0.00381663
0.0040372
0.00404406
0.00395625
0.003842
0.00373145
0.00362168
0.00352001
0.00342049
0.00331074
0.00318138
0.00302354
0.00282726
0.00259454
0.00235267
0.00169606
0.00161833
0.00156396
0.00153873
0.00153383
0.00154708
0.0015622
0.00157904
0.0016078
0.00166178
0.00176343
0.00195924
0.00235194
0.00295439
0.00358365
0.00406201
0.00427561
0.004269
0.00417081
0.00405245
0.0039365
0.00381953
0.00371007
0.00360468
0.00349197
0.00336444
0.0032081
0.00301927
0.00279694
0.00256318
0.00197072
0.00188568
0.00181183
0.00175747
0.00171715
0.00169121
0.00167255
0.00166211
0.00166882
0.00170857
0.00180759
0.00202346
0.00244487
0.0031194
0.00380128
0.00428621
0.00448836
0.00447249
0.00436884
0.00425017
0.00412992
0.00400763
0.00389219
0.00378157
0.00366542
0.00353629
0.00338316
0.00320115
0.00298905
0.0027676
0.00232495
0.00224864
0.00217109
0.00209698
0.00202313
0.00195228
0.00188738
0.00183576
0.00180681
0.00181524
0.0018928
0.0021092
0.00255739
0.00329657
0.00400871
0.00448843
0.00467723
0.00465739
0.00455356
0.00443802
0.00431559
0.00418922
0.00406999
0.00395483
0.00383488
0.00370401
0.00355288
0.00337646
0.00317396
0.00296728
0.00273819
0.00268096
0.00261141
0.00252537
0.00242341
0.00231149
0.00219849
0.00209899
0.00202505
0.00199606
0.00204709
0.00227063
0.00274989
0.00350492
0.00420758
0.00466745
0.00484335
0.00482547
0.00472677
0.00461781
0.00449592
0.00436831
0.00424645
0.0041272
0.00400482
0.00387154
0.00372113
0.0035489
0.00335594
0.00316465
0.00318788
0.00315226
0.003089
0.00299473
0.00287349
0.0027305
0.00257698
0.00243302
0.00231404
0.0022456
0.00226592
0.00248362
0.00297481
0.00371179
0.00438839
0.00482005
0.00498631
0.00497655
0.00488826
0.00478957
0.00467056
0.00454553
0.00442164
0.00430052
0.00417766
0.00404225
0.00389162
0.00372322
0.00353954
0.00336187
0.00364965
0.00362515
0.00356423
0.003465
0.00333145
0.00316837
0.00298562
0.00280649
0.00264838
0.00254323
0.00253442
0.00273293
0.00321584
0.00390966
0.00454075
0.00494079
0.00510295
0.00510739
0.00503504
0.00495057
0.00483693
0.00471877
0.00459724
0.00447679
0.00435468
0.0042211
0.00407009
0.0039044
0.00372711
0.00356089
0.00409816
0.00407461
0.0040129
0.00390917
0.00376717
0.00359094
0.00338939
0.00318486
0.00299584
0.00285968
0.00282506
0.00298808
0.00344648
0.00407616
0.00465042
0.00502061
0.00518581
0.00521029
0.00516048
0.00509337
0.00498929
0.004878
0.00476449
0.00465057
0.00453277
0.00440349
0.00425779
0.00409444
0.0039208
0.00376289
0.00451219
0.0044838
0.00441711
0.00430763
0.00415863
0.00397338
0.00375962
0.0035363
0.00332392
0.00316132
0.00310148
0.0032177
0.00362985
0.00418461
0.00469887
0.00504527
0.00522147
0.00527161
0.00525129
0.00520476
0.00511703
0.0050145
0.004906
0.00479697
0.00468719
0.00456981
0.00443499
0.00428133
0.00411701
0.00396526
0.00487707
0.00483818
0.00476271
0.00464571
0.0044897
0.00429697
0.00407389
0.00383542
0.00360343
0.00341566
0.00332583
0.00338933
0.00373294
0.00420942
0.00466469
0.00499497
0.00518952
0.0052708
0.00528256
0.00526266
0.00519859
0.00511274
0.00501653
0.00491641
0.00481391
0.00470575
0.00458207
0.00444463
0.00429667
0.0041552
0.00517417
0.00512238
0.00503607
0.00491062
0.00474749
0.00454752
0.00431528
0.00406293
0.00381186
0.00359759
0.00347162
0.00347916
0.00373304
0.00413597
0.00453055
0.0048488
0.00506548
0.0051747
0.00522185
0.00523307
0.00520108
0.00514191
0.00506725
0.00498442
0.00489643
0.0048013
0.00469266
0.00457017
0.00444007
0.0043179
0.00538739
0.00531993
0.00522269
0.00508919
0.00491944
0.00471249
0.0044711
0.00420543
0.00393583
0.00369556
0.00353232
0.00348485
0.00364308
0.00396702
0.00430017
0.00460032
0.00482537
0.00495804
0.00503897
0.00508739
0.00509363
0.00507038
0.00502753
0.00497245
0.00490879
0.00483543
0.00474768
0.00464577
0.00453891
0.00444027
0.00549721
0.00541452
0.00530788
0.00516862
0.00499458
0.0047829
0.00453489
0.00426012
0.00397797
0.00372032
0.0035294
0.00343734
0.0035128
0.00374539
0.00401969
0.00428383
0.004489
0.00463417
0.00474137
0.00482168
0.0048644
0.00487912
0.0048735
0.00485379
0.00482325
0.00478091
0.00472374
0.00464789
0.0045689
0.00449792
0.00548487
0.00539153
0.0052804
0.00514132
0.00496929
0.00475983
0.00451408
0.00424311
0.00396485
0.0037106
0.00351365
0.00339741
0.00341526
0.00356
0.0037706
0.00397512
0.00413905
0.00427007
0.00438502
0.00447481
0.00453837
0.00458026
0.00460547
0.00461865
0.00462202
0.00461416
0.00459174
0.0045525
0.00450208
0.00445456
0.00534265
0.00524742
0.00514211
0.00501595
0.00485853
0.00466569
0.00443955
0.00419269
0.003945
0.00372167
0.00354419
0.00343406
0.00341879
0.00349466
0.00363328
0.00376697
0.00387429
0.00397263
0.00406007
0.00413318
0.00419125
0.00423629
0.00427127
0.00429952
0.00432242
0.00433805
0.00434256
0.00433356
0.00431295
0.0042844
0.00509384
0.0050088
0.00492466
0.00482556
0.00470067
0.00454609
0.00436427
0.00416799
0.00397443
0.00380129
0.00366275
0.0035714
0.00354047
0.0035679
0.00364126
0.00370664
0.00376042
0.00380936
0.00385373
0.00389186
0.00392268
0.00394742
0.00396764
0.00398588
0.00400316
0.00401751
0.00402521
0.00402428
0.00401521
0.0039996
0.00480395
0.00474496
0.00469662
0.0046445
0.00457274
0.00447202
0.00434616
0.00420817
0.00407098
0.00394672
0.00384382
0.00377007
0.00373206
0.00372733
0.00374936
0.00376077
0.003768
0.00377322
0.00378027
0.00378621
0.00378873
0.00378961
0.00378918
0.00378876
0.00378847