/*--------------------------------*- C++ -*----------------------------------*\
  =========                 |
  \\      /  F ield         | OpenFOAM: The Open Source CFD Toolbox
   \\    /   O peration     | Website:  https://openfoam.org
    \\  /    A nd           | Version:  12
     \\/     M anipulation  |
\*---------------------------------------------------------------------------*/
FoamFile
{
    format      ascii;
    class       volScalarField;
    location    "1200/air";
    object      epsilon;
}
// * * * * * * * * * * * * * * * * * * * * * * * * * * * * * * * * * * * * * //

dimensions      [0 2 -3 0 0 0 0];

internalField   nonuniform List<scalar> 
243000
(
1.40993
1.88102
2.15677
2.34426
2.45379
2.50104
2.5014
2.46798
2.4106
2.33669
2.25089
2.16113
2.071
1.98614
1.9734
0.465458
0.458232
1.90716
1.82802
1.80953
1.79524
1.74623
1.63915
1.46884
1.25214
1.01229
0.782469
0.157579
0.13109
0.110905
0.783749
1.02116
1.13236
1.18242
1.18912
1.16754
1.1285
1.07949
1.02579
0.97179
0.919837
0.873014
0.832808
0.802559
0.782911
0.788737
0.812171
0.859033
0.92322
0.986721
1.03393
1.04876
1.02148
0.948831
0.839177
0.705337
0.56579
0.420965
0.305314
0.207487
0.57178
0.809097
0.920156
0.962026
0.957356
0.924576
0.877662
0.824441
0.770068
0.719832
0.674443
0.636352
0.60678
0.588677
0.584647
0.602887
0.645726
0.715058
0.802228
0.892247
0.966649
1.01113
1.01718
0.979711
0.902653
0.794052
0.668286
0.528426
0.39498
0.273212
0.475708
0.625187
0.737556
0.82106
0.857304
0.858928
0.838784
0.806404
0.769767
0.733189
0.699578
0.672113
0.652853
0.646232
0.657457
0.697388
0.770719
0.879098
1.00862
1.13706
1.23982
1.30064
1.31171
1.26909
1.17788
1.04758
0.893896
0.722132
0.55132
0.389738
0.519869
0.560057
0.627441
0.689471
0.728177
0.742949
0.739427
0.723444
0.704531
0.6878
0.671893
0.660214
0.656359
0.666365
0.69785
0.765077
0.875245
1.02774
1.20262
1.36981
1.49935
1.57429
1.58854
1.54049
1.43702
1.28918
1.11315
0.916357
0.716435
0.525187
0.642373
0.638977
0.630667
0.647694
0.667209
0.678314
0.678856
0.66998
0.655695
0.641027
0.627015
0.622053
0.629379
0.654847
0.707537
0.805055
0.956373
1.15754
1.37991
1.58589
1.74102
1.82864
1.84499
1.79149
1.67739
1.51547
1.32191
1.10634
0.884643
0.671406
0.803302
0.799126
0.779128
0.74951
0.722075
0.705069
0.688946
0.670648
0.65006
0.628946
0.609551
0.596357
0.595453
0.625032
0.693085
0.819355
1.01334
1.26599
1.53756
1.78225
1.96224
2.06176
2.07986
2.02123
1.89797
1.72473
1.51777
1.28856
1.0513
0.821751
0.988573
0.993695
0.980605
0.955608
0.917042
0.86278
0.808633
0.759388
0.713359
0.670556
0.632559
0.602644
0.586086
0.597329
0.666114
0.813303
1.04719
1.35161
1.67368
1.95693
2.16146
2.27274
2.2928
2.22981
2.09882
1.91651
1.69957
1.46073
1.21287
0.97168
1.19554
1.21067
1.20608
1.18648
1.15125
1.09979
1.02743
0.941234
0.858277
0.779999
0.70928
0.650235
0.60838
0.595381
0.642193
0.795454
1.06075
1.41443
1.78666
2.10877
2.33782
2.46121
2.48403
2.41783
2.28066
2.09122
1.86705
1.62174
1.36723
1.11827
1.4258
1.44913
1.4508
1.43408
1.39858
1.34449
1.27146
1.17637
1.06157
0.947523
0.838966
0.742588
0.666302
0.62251
0.636985
0.7764
1.06158
1.45563
1.87578
2.23712
2.49089
2.62717
2.65399
2.58613
2.44449
2.24979
2.02062
1.77131
1.51346
1.25956
1.68155
1.71033
1.71502
1.69793
1.65885
1.59815
1.51658
1.41457
1.28697
1.14596
1.00481
0.871901
0.75804
0.678534
0.658886
0.766027
1.05479
1.4796
1.94128
2.34133
2.6205
2.77078
2.80324
2.73564
2.59145
2.3933
2.16099
1.90984
1.65079
1.39424
1.96444
1.99502
1.99895
1.97829
1.93274
1.86252
1.76877
1.65302
1.51613
1.35385
1.1874
1.02404
0.875643
0.759997
0.70527
0.771093
1.04762
1.49068
1.98584
2.42085
2.72682
2.89234
2.93235
2.86724
2.72259
2.52287
2.2892
2.03789
1.77881
1.52158
2.27457
2.30275
2.30231
2.27516
2.22063
2.13874
2.03058
1.89808
1.7436
1.56418
1.37653
1.18787
1.00997
0.861293
0.77264
0.799263
1.04788
1.49367
2.01281
2.47681
2.80972
2.99208
3.0418
2.98166
2.8389
2.63962
2.40639
2.15567
1.89775
1.64139
2.61077
2.6317
2.6237
2.58744
2.52195
2.42685
2.30286
2.15208
1.97743
1.78141
1.57103
1.35853
1.15476
0.976992
0.857358
0.849139
1.05909
1.49339
2.02514
2.51243
2.86874
3.07046
3.13205
3.07952
2.94113
2.74447
2.5131
2.26401
2.00825
1.75422
2.97144
2.98012
2.96109
2.91361
2.83565
2.72639
2.58603
2.4164
2.22055
2.00326
1.77102
1.53534
1.30747
1.1036
0.956253
0.917039
1.08464
1.49474
2.02661
2.5297
2.90641
3.12787
3.20343
3.16123
3.02981
2.83808
2.61022
2.36411
2.11124
1.86064
3.35667
3.34875
3.31487
3.2533
3.1615
3.03736
2.88046
2.69193
2.47464
2.23425
1.9802
1.72083
1.46877
1.24011
1.06747
1.00039
1.12664
1.50205
2.02084
2.53171
2.92447
3.16406
3.25622
3.22718
3.10522
2.92114
2.6987
2.45686
2.20773
1.96162
3.76892
3.73969
3.68711
3.60869
3.50119
3.36134
3.18771
2.98038
2.74176
2.47884
2.20282
1.91879
1.64121
1.38757
1.19072
1.09779
1.18568
1.51892
2.01171
2.5206
2.92562
3.18171
3.29134
3.27769
3.16791
2.99392
2.77912
2.54317
2.29882
2.05786
4.21205
4.15596
4.08174
3.98421
3.85922
3.70278
3.51215
3.28615
3.02667
2.74658
2.44565
2.13448
1.82907
1.54886
1.32738
1.20945
1.26243
1.5479
2.00373
2.49948
2.91101
3.18286
3.30903
3.3129
3.21854
3.0569
2.85203
2.62378
2.38547
2.15028
4.67891
4.60324
4.50752
4.38913
4.24519
4.07156
3.86421
3.62044
3.34205
3.04506
2.71821
2.37659
2.03966
1.72982
1.48172
1.33902
1.35871
1.59213
2.0023
2.47282
2.8829
3.16767
3.31165
3.33326
3.25673
3.11016
2.91771
2.69923
2.46853
2.23991
5.16209
5.06629
4.95508
4.82458
4.67085
4.48849
4.27151
4.01646
3.73185
3.40962
3.04761
2.66639
2.28983
1.94523
1.66675
1.49606
1.47778
1.65561
2.01107
2.44517
2.84469
3.13766
3.29924
3.3396
3.2827
3.15378
2.97628
2.76984
2.54861
2.32774
5.65776
5.54073
5.41396
5.27263
5.11206
4.9254
4.70679
4.45736
4.16787
3.81978
3.42366
3.00271
2.58433
2.20081
1.88748
1.6835
1.62208
1.74087
2.03386
2.42114
2.8004
3.09542
3.27224
3.3322
3.29638
3.1876
3.02776
2.83589
2.62631
2.41495
6.16227
6.02393
5.88206
5.73125
5.56766
5.38306
5.18344
4.94069
4.63403
4.26394
3.83931
3.38369
2.92543
2.50153
2.14857
1.90509
1.79471
1.85065
2.07326
2.40502
2.75402
3.04353
3.23152
3.31109
3.29677
3.2108
3.07143
2.89699
2.70165
2.50189
6.67075
6.51349
6.36024
6.20548
6.05616
5.89737
5.69517
5.43896
5.11987
4.73533
4.29132
3.80989
3.31749
2.85436
2.45735
2.16687
1.99982
1.98753
2.13445
2.40889
2.71826
2.99222
3.18291
3.27718
3.28449
3.22223
3.10615
2.95245
2.77459
2.58925
7.17971
7.01498
6.87046
6.73587
6.58493
6.40897
6.19618
5.93418
5.61159
5.2236
4.77282
4.27849
3.76187
3.26405
2.82028
2.47468
2.24156
2.15248
2.22791
2.44015
2.70817
2.95943
3.14705
3.25052
3.27081
3.22302
3.13021
3.00059
2.84446
2.67741
7.69636
7.53695
7.38244
7.22698
7.06149
6.87619
6.65854
6.39645
6.07804
5.69739
5.25396
4.76181
4.23588
3.71411
3.22691
2.82357
2.51906
2.35677
2.36788
2.51432
2.73462
2.95954
3.13674
3.24205
3.27107
3.23416
3.14878
3.0397
2.90847
2.76484
8.1314
7.95485
7.7852
7.61494
7.43618
7.24233
7.02246
6.76478
6.45696
6.09246
5.66803
5.19398
4.67767
4.15138
3.64333
3.2124
2.87276
2.65803
2.5997
2.67508
2.8343
3.01743
3.17336
3.27174
3.30414
3.27442
3.19488
3.08586
2.96866
2.85019
8.50392
8.27473
8.06682
7.87668
7.69825
7.52374
7.34176
7.13736
6.89361
6.59674
6.23678
5.81481
5.33904
4.83497
4.33021
3.86992
3.47895
3.19479
3.04964
3.03647
3.11454
3.23363
3.34576
3.41821
3.43778
3.4022
3.31963
3.2056
3.07706
2.94672
9.26698
9.02385
8.79703
8.59866
8.43199
8.2917
8.16579
8.03493
7.87629
7.66952
7.39488
7.04693
6.6304
6.16399
5.677
5.19205
4.73472
4.35879
4.09748
3.95765
3.91474
3.92734
3.9523
3.95821
3.92656
3.85066
3.7349
3.59153
3.43462
3.28141
10.9825
10.755
10.5683
10.4584
10.4203
10.4336
10.475
10.5149
10.5243
10.4796
10.34
10.1116
9.79943
9.41956
8.98838
8.51389
8.00197
7.52545
7.12163
6.81128
6.58729
6.42315
6.28642
6.14783
5.98793
5.78895
5.55598
5.30619
5.05456
4.82445
18.2232
18.0453
18.1212
18.4153
18.7111
18.9456
19.1252
19.2606
19.3482
19.3623
19.1997
18.9961
18.7592
18.5056
18.213
17.9137
17.5261
17.1683
16.8517
16.6151
16.4462
16.338
16.2648
16.2042
16.1308
15.9301
15.6389
15.3293
15.0521
14.7746
3.23064
4.1999
4.76215
5.09338
5.23336
5.23122
5.129
4.96421
4.76431
4.55247
4.3435
4.15393
3.98924
3.86824
3.79133
3.79272
3.87008
4.02613
4.23312
4.43191
4.53144
4.44318
4.12186
3.57939
2.8884
2.14371
1.45521
0.864349
0.131666
0.11603
2.57352
2.84707
3.01902
3.08705
3.05441
2.94687
2.79095
2.61189
2.42891
2.25591
2.10162
1.97338
1.87537
1.81546
1.80174
1.84891
1.96399
2.144
2.3735
2.61653
2.80689
2.87327
2.77661
2.52155
2.14563
1.70204
1.25689
0.841301
0.508675
0.310525
2.37035
2.59299
2.70622
2.73139
2.67492
2.55874
2.40447
2.23253
2.05923
1.89745
1.75556
1.63997
1.55443
1.50664
1.50574
1.56689
1.69718
1.89152
2.13317
2.38961
2.60274
2.7093
2.67023
2.48297
2.17545
1.79515
1.3961
1.00629
0.679815
0.444595
1.98754
2.29028
2.44753
2.48479
2.43856
2.337
2.20125
2.04902
1.89527
1.75173
1.62658
1.52639
1.45538
1.42227
1.43707
1.51738
1.66855
1.88504
2.14199
2.40443
2.61969
2.73512
2.71912
2.56297
2.2903
1.9402
1.56186
1.17823
0.841827
0.577191
1.49839
1.78738
1.98764
2.08087
2.08904
2.03794
1.949
1.84083
1.72459
1.61182
1.51354
1.43713
1.38758
1.3755
1.4124
1.5186
1.69687
1.93701
2.20942
2.47662
2.69037
2.80652
2.79914
2.65893
2.40753
2.07878
1.71587
1.33813
0.996003
0.711554
1.04961
1.27407
1.47695
1.59583
1.64851
1.64868
1.6078
1.55144
1.48716
1.42263
1.368
1.32751
1.30825
1.32395
1.38942
1.52735
1.73769
2.00474
2.29386
2.5654
2.7753
2.8872
2.88137
2.74954
2.51296
2.20055
1.85063
1.48134
1.1385
0.843262
0.823395
0.978674
1.11921
1.21803
1.28108
1.3098
1.30724
1.28414
1.2489
1.21035
1.18956
1.18733
1.20675
1.25633
1.3563
1.5312
1.77745
2.0734
2.37966
2.65548
2.86044
2.9659
2.9577
2.82986
2.60373
2.30452
1.96648
1.60771
1.26836
0.968888
0.728305
0.822324
0.920375
0.999291
1.05476
1.08575
1.09405
1.0851
1.06517
1.04109
1.02844
1.03998
1.08601
1.1723
1.31075
1.5271
1.81138
2.13697
2.46016
2.74018
2.93985
3.03808
3.02553
2.89918
2.67997
2.39219
2.06541
1.71868
1.38586
1.08672
0.716062
0.774261
0.844636
0.903711
0.947776
0.974335
0.979958
0.969688
0.949686
0.925971
0.910613
0.919741
0.968769
1.07747
1.25484
1.514
1.83726
2.19249
2.53199
2.81597
3.01059
3.10159
3.08403
2.95819
2.74417
2.46604
2.14994
1.81539
1.49129
1.19606
0.793782
0.830643
0.885157
0.928528
0.952664
0.96039
0.953415
0.932932
0.901946
0.867772
0.841437
0.837724
0.874722
0.987184
1.19329
1.4939
1.85441
2.2381
2.59302
2.88055
3.07095
3.15522
3.13292
3.00711
2.79785
2.52844
2.2226
1.90003
1.58547
1.29603
0.971304
1.00224
1.04368
1.06575
1.06544
1.0457
1.01136
0.966379
0.915495
0.863144
0.818233
0.795253
0.815166
0.913395
1.13319
1.46964
1.86464
2.27237
2.64097
2.93199
3.11951
3.19812
3.17177
3.04667
2.84234
2.58135
2.28561
1.97478
1.67001
1.38732
1.25028
1.2682
1.28937
1.28991
1.26556
1.21643
1.14865
1.06904
0.986306
0.9057
0.835319
0.78884
0.786366
0.861876
1.0824
1.44451
1.86872
2.29695
2.676
2.9688
3.15478
3.22968
3.20091
3.07755
2.87875
2.62641
2.34096
2.04159
1.74657
1.47096
1.59883
1.6038
1.60374
1.58265
1.53499
1.4578
1.35614
1.23689
1.11309
0.994099
0.890536
0.814759
0.785424
0.837188
1.04629
1.42114
1.86808
2.31186
2.69867
2.99255
3.17616
3.24976
3.22094
3.10033
2.90804
2.66493
2.39014
2.10214
1.81674
1.54817
1.96972
1.96899
1.95575
1.91145
1.84109
1.73897
1.60701
1.45304
1.28869
1.12686
0.981988
0.871395
0.811691
0.836615
1.02805
1.40347
1.86364
2.31779
2.70936
3.00358
3.18555
3.25805
3.2308
3.11512
2.9308
2.6979
2.43433
2.15765
1.88174
1.62043
2.32732
2.31795
2.29889
2.24738
2.15718
2.03499
1.8795
1.6968
1.49796
1.29622
1.10826
0.958118
0.864665
0.861067
1.02872
1.39628
1.85833
2.31682
2.71005
3.00385
3.18485
3.25628
3.22984
3.12174
2.94727
2.72593
2.47434
2.209
1.94258
1.68921
2.67922
2.65921
2.63038
2.56996
2.47157
2.33402
2.16094
1.95606
1.72905
1.49315
1.26617
1.07365
0.944079
0.909998
1.0515
1.40165
1.85615
2.30971
2.70017
2.99166
3.17174
3.24306
3.22162
3.1216
2.95734
2.74939
2.51068
2.25709
2.00056
1.75573
3.03083
2.99957
2.96093
2.89116
2.78595
2.63734
2.451
2.22863
1.97854
1.71342
1.45212
1.21923
1.05182
0.985239
1.09808
1.42333
1.86038
2.30079
2.68217
2.96771
3.14757
3.22369
3.20771
3.11668
2.96171
2.76895
2.54427
2.3031
2.05698
1.82125
3.38869
3.34795
3.30137
3.22374
3.1107
2.95489
2.75813
2.52118
2.25129
1.96055
1.66772
1.39814
1.19218
1.09135
1.17301
1.46707
1.87596
2.29858
2.66206
2.94088
3.11954
3.1999
3.19122
3.10967
2.96539
2.78702
2.57668
2.34824
2.11302
1.88665
3.75759
3.71234
3.6611
3.57836
3.45977
3.2998
3.09546
2.84673
2.56
2.24634
1.9241
1.61916
1.37503
1.23832
1.28507
1.54188
1.91349
2.30968
2.65731
2.92292
3.09512
3.17799
3.17758
3.10409
2.97205
2.80641
2.60999
2.39405
2.16969
1.95267
4.14379
4.09839
4.04695
3.96372
3.84448
3.68579
3.4794
3.22461
2.92661
2.59438
2.24536
1.906
1.62262
1.44727
1.45211
1.6648
1.99212
2.35048
2.6757
2.92843
3.09371
3.1729
3.17568
3.10584
2.98719
2.8324
2.64776
2.44298
2.22883
2.02114
4.55911
4.51791
4.46992
4.39042
4.27654
4.12643
3.92725
3.67749
3.37921
3.03747
2.6679
2.29699
1.97386
1.75534
1.71093
1.8704
2.14571
2.45857
2.74828
2.97795
3.13152
3.20799
3.21379
3.14606
3.03526
2.88424
2.70419
2.50522
2.29825
2.09928
5.02923
4.99752
4.95646
4.88572
4.78903
4.65773
4.4822
4.25709
3.97843
3.6452
3.26925
2.87481
2.51279
2.24495
2.1419
2.23352
2.44706
2.70466
2.94934
3.1444
3.27266
3.33233
3.32557
3.2511
3.13582
2.98178
2.79924
2.60004
2.39364
2.19638
5.60428
5.5902
5.56556
5.52
5.46062
5.36971
5.24357
5.07446
4.85277
4.56622
4.21712
3.82181
3.42947
3.10615
2.93141
2.93503
3.05991
3.23532
3.40404
3.53359
3.60852
3.62607
3.57908
3.47968
3.33853
3.16314
2.96366
2.75026
2.53228
2.32817
6.39206
6.41193
6.42676
6.44597
6.4467
6.43522
6.41283
6.36769
6.28131
6.12648
5.88316
5.54944
5.16214
4.78702
4.52014
4.39029
4.36128
4.38036
4.39584
4.39007
4.3504
4.26911
4.13407
3.96102
3.75202
3.51733
3.26799
3.01394
2.76291
2.53519
7.63044
7.71725
7.83587
7.95194
8.08111
8.23993
8.43869
8.66744
8.88836
9.04656
9.08174
8.96149
8.68856
8.31115
7.93975
7.59446
7.27252
6.968
6.644
6.32989
6.02241
5.70377
5.35725
4.99264
4.6178
4.24289
3.87699
3.52647
3.19726
2.91617
9.84461
10.1019
10.3932
10.7303
11.1476
11.6813
12.3541
13.1457
13.982
14.7737
15.4073
15.7916
15.8691
15.6498
15.2265
14.5843
13.7201
12.7666
11.7653
10.7865
9.85753
8.97445
8.12992
7.32596
6.57067
5.87225
5.23557
4.6648
4.15542
3.74954
14.4366
14.9921
15.645
16.4318
17.418
18.6675
20.2056
21.9683
23.7981
25.5694
27.1064
28.2904
29.0256
29.2502
28.9625
28.1287
26.6702
24.8307
22.755
20.6138
18.5141
16.5125
14.6368
12.9019
11.3217
9.90441
8.65208
7.57014
6.64674
5.95732
24.4579
25.4181
26.5168
27.935
29.7866
32.0904
34.8011
37.7122
40.5416
43.1812
45.4412
47.2954
48.7022
49.5809
49.7007
49.0015
47.3844
45.0324
42.1036
38.8273
35.403
31.9764
28.6634
25.5399
22.6477
20.0085
17.6328
15.5613
13.7852
12.48
40.1284
40.6144
42.1569
44.5524
47.371
50.5178
53.854
56.7936
59.3164
61.5081
63.21
64.6116
65.8024
66.7711
67.0913
66.6132
65.4615
63.6366
61.2371
58.3845
55.2435
51.9256
48.5827
45.3336
42.222
39.2201
36.3203
33.6691
31.2278
29.2918
46.0592
45.9922
47.3797
49.6223
52.0711
54.2975
56.0866
57.4544
58.4981
59.2913
59.8139
60.188
60.4272
60.6269
60.2979
59.3056
58.3678
57.1796
55.8386
54.3765
52.9122
51.534
50.3375
49.3877
48.689
48.1387
47.6547
47.1104
46.3384
45.1788
5.27437
6.85718
7.72276
8.25105
8.47256
8.4536
8.26331
7.96733
7.61638
7.25094
6.89205
6.5695
6.29712
6.11463
6.0328
6.09416
6.28045
6.60006
7.06595
7.61673
8.01774
8.0136
7.48635
6.47232
5.1393
3.69512
2.36024
1.25865
0.64971
0.113871
3.43871
3.97548
4.30407
4.49934
4.54475
4.46318
4.2899
4.06245
3.81218
3.56307
3.33169
3.13045
2.97219
2.871
2.84591
2.91115
3.07212
3.33298
3.71844
4.19971
4.62746
4.82208
4.69372
4.2594
3.60918
2.83625
2.03713
1.27793
0.703301
0.38239
3.09213
3.49345
3.75976
3.90807
3.9391
3.86528
3.71136
3.5082
3.28311
3.0581
2.84934
2.66937
2.52943
2.44334
2.42723
2.49515
2.65002
2.89326
3.24545
3.68983
4.10435
4.33886
4.3069
4.02431
3.52683
2.88822
2.2035
1.51785
0.946664
0.546911
2.82669
3.16306
3.4296
3.59366
3.64958
3.60723
3.48446
3.30986
3.11038
2.9081
2.71984
2.5587
2.43663
2.36892
2.37094
2.45737
2.62514
2.87566
3.21927
3.63136
4.0117
4.24268
4.24406
4.01173
3.58678
3.02512
2.39845
1.74937
1.1779
0.725941
2.53483
2.80186
3.07373
3.2677
3.36166
3.36084
3.27776
3.13868
2.97131
2.79775
2.6358
2.49942
2.40235
2.36136
2.39205
2.50908
2.7028
2.97126
3.31485
3.70491
4.05511
4.26095
4.26463
4.0546
3.6702
3.15591
2.57188
1.95242
1.38595
0.906762
2.18978
2.37105
2.63219
2.85085
2.98756
3.03648
3.00687
2.91483
2.78928
2.65466
2.52838
2.42541
2.36203
2.3568
2.42615
2.5837
2.81265
3.10705
3.45709
3.82862
4.1443
4.32106
4.31503
4.11139
3.74926
3.26727
2.717
2.12673
1.57123
1.08237
1.79716
1.89585
2.12009
2.3404
2.50614
2.59995
2.62481
2.59391
2.52897
2.45347
2.37594
2.3174
2.29772
2.33675
2.45442
2.6611
2.93244
3.25769
3.61716
3.97237
4.2546
4.39939
4.37418
4.1685
3.81838
3.35959
2.83671
2.27445
1.73513
1.2462
1.45937
1.49854
1.67509
1.87218
2.03987
2.15454
2.21312
2.22528
2.2091
2.18854
2.17107
2.17101
2.20432
2.29668
2.47165
2.73461
3.05356
3.41227
3.78215
4.12168
4.37119
4.48301
4.43343
4.22044
3.87636
3.43502
2.93511
2.39946
1.87872
1.39649
1.23335
1.2163
1.3362
1.4971
1.64793
1.76596
1.84316
1.8831
1.89981
1.91054
1.93436
1.9891
2.08353
2.23816
2.47819
2.80247
3.17227
3.56509
3.9447
4.26793
4.48522
4.56416
4.48826
4.26499
3.92358
3.496
3.01603
2.50535
2.00414
1.53269
1.10665
1.04734
1.11536
1.23283
1.35625
1.4623
1.54116
1.59498
1.63176
1.66284
1.7069
1.79308
1.94329
2.16633
2.47513
2.8648
3.28676
3.71271
4.09999
4.40524
4.59066
4.63749
4.5366
4.30129
3.96091
3.54497
3.083
2.59542
2.11395
1.6556
1.08458
0.992818
1.01165
1.08589
1.17646
1.26072
1.32879
1.37994
1.41998
1.4599
1.51386
1.61047
1.79696
2.089
2.46828
2.92294
3.39605
3.85243
4.24363
4.52908
4.68315
4.69905
4.57457
4.32857
3.98926
3.58411
3.13896
2.67285
2.21085
1.76696
1.14802
1.03882
1.02077
1.05662
1.11262
1.1652
1.21066
1.24612
1.27631
1.31089
1.36376
1.4634
1.66448
2.0159
2.46163
2.9787
3.49949
3.98155
4.37185
4.63588
4.75982
4.74579
4.60115
4.34663
4.0096
3.61545
3.18671
2.74075
2.2976
1.86887
1.29817
1.18474
1.14247
1.14346
1.16226
1.17889
1.18996
1.19698
1.20425
1.22096
1.26208
1.3562
1.56008
1.95535
2.45914
3.0343
3.59694
4.09792
4.48203
4.72323
4.81883
4.77817
4.61608
4.3559
4.02325
3.64101
3.22869
2.80189
2.37649
1.96322
1.54046
1.4235
1.36571
1.34203
1.32409
1.29826
1.26474
1.23271
1.20596
1.19345
1.21212
1.29322
1.49569
1.91765
2.46947
3.09271
3.68897
4.20059
4.57317
4.79049
4.85962
4.79649
4.61989
4.35748
4.03195
3.663
3.26742
2.85844
2.44949
2.05292
1.86712
1.74944
1.68792
1.63993
1.58373
1.51197
1.42836
1.34984
1.28073
1.22989
1.21624
1.2776
1.473
1.9038
2.4953
3.15765
3.77759
4.29085
4.64682
4.83951
4.88423
4.80147
4.61511
4.35389
4.0379
3.68377
3.30494
2.91242
2.52132
2.14194
2.27672
2.16992
2.09423
2.01374
1.91985
1.80353
1.66957
1.54185
1.42572
1.3305
1.28005
1.31423
1.50047
1.93232
2.54527
3.2353
3.86779
4.37362
4.70826
4.8758
4.89902
4.79892
4.60743
4.34935
4.04435
3.70585
3.34334
2.96912
2.59729
2.2336
2.77347
2.65981
2.55803
2.44444
2.31372
2.15891
1.97849
1.80346
1.63841
1.49631
1.40682
1.40847
1.58256
2.00708
2.62952
3.33587
3.96966
4.45935
4.76832
4.91025
4.91485
4.79859
4.60292
4.34968
4.05708
3.73414
3.39083
3.03603
2.67946
2.32897
3.34454
3.20869
3.08044
2.93403
2.76694
2.57389
2.3534
2.13499
1.92157
1.73344
1.60439
1.57317
1.72992
2.14241
2.76486
3.47709
4.1017
4.56713
4.84594
4.96253
4.94998
4.82315
4.62244
4.37224
4.09137
3.78502
3.45771
3.11645
2.7707
2.43031
3.96819
3.81744
3.6662
3.48975
3.28866
3.06014
2.8051
2.54577
2.28959
2.0594
1.89311
1.83101
1.96735
2.36613
2.98159
3.69074
4.29663
4.72995
4.97435
5.06602
5.03609
4.90239
4.70697
4.4639
4.18619
3.88104
3.55521
3.21769
2.87587
2.54143
4.6625
4.49837
4.32771
4.12632
3.89704
3.63952
3.35774
3.06515
2.77568
2.51217
2.31539
2.22764
2.34467
2.73378
3.33706
4.03567
4.61359
5.00548
5.21579
5.27983
5.23522
5.09467
4.88948
4.63759
4.35137
4.03717
3.70202
3.35344
3.00399
2.6701
5.43908
5.27318
5.08901
4.87109
4.62448
4.35079
4.05525
3.74812
3.44448
3.166
2.95436
2.85336
2.96182
3.34777
3.94424
4.62492
5.16278
5.50809
5.68484
5.72055
5.63704
5.46045
5.21806
4.93023
4.61089
4.26781
3.90679
3.5368
3.16989
2.826
6.35097
6.1856
5.99848
5.77815
5.53306
5.26689
4.98621
4.69926
4.41943
4.16406
3.97238
3.88679
4.01073
4.40843
5.02697
5.68386
6.16985
6.45969
6.56989
6.52899
6.36403
6.10743
5.784
5.4179
5.02635
4.61997
4.20641
3.79254
3.39099
3.02493
7.48968
7.33126
7.15565
6.9562
6.74543
6.53022
6.31909
6.11817
5.93631
5.7819
5.68413
5.67877
5.8699
6.31164
6.97775
7.61083
8.01983
8.20297
8.1818
7.98514
7.66266
7.24474
6.76195
6.24411
5.71438
5.18782
4.67375
4.1802
3.71504
3.30554
9.02932
8.8976
8.76099
8.62488
8.5074
8.42233
8.38165
8.38791
8.44373
8.53859
8.68009
8.89275
9.24829
9.79442
10.538
11.13
11.4046
11.3896
11.1051
10.6147
9.99108
9.26936
8.48778
7.68842
6.90488
6.15945
5.46308
4.82307
4.24412
3.76016
11.3235
11.2679
11.2277
11.2313
11.315
11.5028
11.8124
12.2411
12.7706
13.3601
13.9807
14.6253
15.3115
16.0664
16.9278
17.4457
17.499
17.1217
16.3743
15.365
14.2008
12.9343
11.6155
10.3113
9.0734
7.93687
6.91417
6.00902
5.22143
4.60381
15.1101
15.2379
15.4206
15.7143
16.1885
16.8812
17.814
18.9626
20.2684
21.6466
23.0181
24.3302
25.546
26.6485
27.6742
28.089
27.8116
26.9031
25.4698
23.6736
21.6666
19.5316
17.3461
15.2115
13.2115
11.4089
9.81879
8.44118
7.27036
6.40297
21.8794
22.3331
22.9652
23.8042
24.9158
26.3944
28.2305
30.3397
32.5987
34.8803
37.0713
39.1049
40.9215
42.4318
43.5913
43.8196
43.1372
41.6476
39.487
36.8299
33.8574
30.6919
27.4433
24.2345
21.1895
18.4255
15.972
13.8301
12.0027
10.6844
33.7331
34.3665
35.4922
37.1463
39.2508
41.6816
44.368
47.1927
49.9991
52.6842
55.1734
57.4563
59.4904
61.0685
61.9723
61.4042
60.1517
58.2354
55.8882
53.0482
49.7563
46.2111
42.5409
38.8514
35.2192
31.7538
28.5336
25.591
22.9658
20.9948
48.4422
48.7456
50.2552
52.5828
55.3161
58.1753
60.9436
63.4296
65.6247
67.5505
69.2535
70.7681
72.0422
72.7893
72.5382
70.7048
68.7687
66.4952
64.2112
61.8408
59.4713
57.1332
54.9468
53.0187
51.2808
49.369
47.2318
45.001
42.6827
40.5358
50.7327
51.4078
53.2678
55.832
58.5502
61.0194
63.0274
64.5386
65.6435
66.5202
67.1656
67.6171
67.7865
67.3953
65.7967
62.9096
60.4555
57.9569
55.8052
53.9409
52.4922
51.4417
50.8421
50.7132
51.0236
51.6189
52.2616
52.7055
52.6587
51.999
8.19889
10.391
11.3512
11.9672
12.226
12.1726
11.8883
11.4587
10.9461
10.404
9.8634
9.37227
8.9458
8.6436
8.47153
8.49618
8.70281
9.21974
10.2658
11.7276
12.9331
13.2497
12.485
10.7991
8.55706
6.12461
3.84819
1.95229
0.639562
0.508181
4.97375
5.57795
5.87378
6.07947
6.14736
6.07292
5.8815
5.6131
5.30519
4.98618
4.6798
4.40344
4.17761
4.01576
3.94488
3.97502
4.1252
4.47296
5.17275
6.17036
7.07725
7.50035
7.31922
6.63405
5.62183
4.44552
3.20365
1.96604
0.991089
0.414561
4.51693
4.86991
5.08144
5.20988
5.24063
5.17119
5.01265
4.78989
4.53059
4.25874
3.99522
3.7565
3.56024
3.42085
3.3596
3.3881
3.52251
3.82133
4.41768
5.27341
6.0786
6.52182
6.48344
6.04079
5.31733
4.37293
3.33445
2.25817
1.33164
0.622294
4.24106
4.4722
4.66152
4.79621
4.85233
4.82249
4.70828
4.52907
4.30954
4.07286
3.84018
3.62831
3.45534
3.33967
3.29796
3.34433
3.49145
3.80164
4.37412
5.1424
5.84968
6.26556
6.26838
5.92113
5.28662
4.4595
3.52844
2.53469
1.63386
0.868623
3.93794
4.0571
4.23797
4.40642
4.51327
4.53911
4.47838
4.34717
4.17029
3.97157
3.77357
3.5938
3.45479
3.37003
3.36045
3.44117
3.62048
3.96489
4.53873
5.25483
5.89262
6.24492
6.23335
5.90172
5.32058
4.56585
3.70413
2.77159
1.89846
1.1114
3.59521
3.59797
3.76475
3.96751
4.13093
4.21653
4.21424
4.13575
4.00715
3.85284
3.69738
3.55809
3.46088
3.42025
3.45682
3.58584
3.81454
4.21097
4.80129
5.47453
6.03215
6.31825
6.27564
5.93355
5.37616
4.66371
3.85192
2.97095
2.12749
1.34073
3.22281
3.10791
3.24703
3.47194
3.68452
3.82765
3.8829
3.86214
3.78862
3.68609
3.58142
3.49348
3.44954
3.46433
3.56023
3.75071
4.04363
4.50387
5.11627
5.75035
6.2303
6.44365
6.35361
5.99078
5.43706
4.74856
3.9737
3.13731
2.32415
1.55026
2.81538
2.5841
2.68403
2.91481
3.16216
3.35744
3.47193
3.51413
3.50549
3.46302
3.41819
3.39223
3.4131
3.49536
3.6627
3.92714
4.29708
4.82775
5.46102
6.05439
6.45586
6.59238
6.44423
6.05397
5.49466
4.82015
4.07337
3.27553
2.49269
1.73827
2.42527
2.13336
2.18916
2.39861
2.65093
2.87013
3.02181
3.10934
3.15808
3.18433
3.20994
3.25613
3.35155
3.51428
3.76377
4.11351
4.57119
5.17273
5.81924
6.36774
6.68879
6.74561
6.5364
6.11396
5.54507
4.87939
4.15483
3.39102
2.63754
1.9055
2.12722
1.79012
1.79015
1.95763
2.19109
2.41388
2.58737
2.70893
2.79754
2.87041
2.96432
3.09152
3.27125
3.52586
3.86625
4.31102
4.86469
5.53313
6.18447
6.67659
6.91458
6.88945
6.62043
6.16586
5.58704
4.92811
4.22242
3.48891
2.7631
2.05513
1.93114
1.56232
1.50323
1.61774
1.81512
2.02114
2.19835
2.33963
2.45744
2.56833
2.70611
2.91055
3.18257
3.535
3.97457
4.52223
5.17634
5.90485
6.54429
6.96869
7.12209
7.01355
6.68932
6.20715
5.62091
4.96882
4.28092
3.5745
2.87566
2.1928
1.82617
1.45324
1.34083
1.39659
1.54181
1.71539
1.88168
2.0253
2.15892
2.29665
2.4717
2.72909
3.09873
3.55281
4.09455
4.75041
5.5039
6.27852
6.88706
7.23394
7.30193
7.11464
6.74205
6.23807
5.64846
5.00541
4.33518
3.65428
2.98492
2.32317
1.83234
1.47689
1.31346
1.30536
1.39178
1.51848
1.65455
1.78611
1.92049
2.0722
2.27498
2.57233
3.03442
3.58845
4.23269
4.99934
5.84415
6.64405
7.2029
7.46588
7.44923
7.19508
6.78025
6.26106
5.67339
5.04235
4.3913
3.73984
3.09304
2.44862
1.93066
1.59594
1.40782
1.34536
1.36878
1.44301
1.53575
1.63756
1.75754
1.9092
2.12797
2.46563
2.99532
3.64895
4.39656
5.27347
6.19439
6.99314
7.48587
7.66382
7.56431
7.25386
6.80806
6.28154
5.70107
5.08582
4.4621
3.83284
3.20257
2.57138
2.13713
1.82218
1.62075
1.51474
1.47897
1.48963
1.52609
1.58914
1.68027
1.81755
2.04517
2.41491
2.98446
3.7454
4.5961
5.57881
6.55249
7.32207
7.73706
7.83295
7.65974
7.30247
6.83678
6.30852
5.74022
5.15211
4.54983
3.93497
3.3145
2.69177
2.47136
2.1661
1.9484
1.8013
1.70955
1.65742
1.63411
1.64211
1.68732
1.79947
2.0238
2.41253
3.04567
3.89526
4.84553
5.92478
6.92191
7.63864
7.9697
7.98966
7.75674
7.36509
6.8872
6.35979
5.81924
5.2501
4.65712
4.04671
3.42692
2.81006
2.93951
2.62656
2.38414
2.19444
2.04815
1.93501
1.85071
1.80159
1.79735
1.87476
2.09669
2.5126
3.1864
4.11821
5.1656
6.328
7.31693
7.96263
8.21293
8.16467
7.8894
7.48506
7.01395
6.50408
5.95917
5.38568
4.78479
4.16569
3.54139
2.92788
3.53417
3.19999
2.92434
2.68896
2.48879
2.31711
2.17362
2.06797
2.01526
2.05429
2.26759
2.71204
3.43448
4.44506
5.58919
6.81891
7.77815
8.33841
8.5173
8.41425
8.11095
7.71692
7.24634
6.73533
6.1677
5.55925
4.93201
4.29476
3.6599
3.04751
4.25077
3.88605
3.57076
3.2876
3.03506
2.80898
2.61149
2.45409
2.35806
2.36142
2.56923
3.04547
3.83257
4.92597
6.1708
7.45245
8.36232
8.84239
8.96929
8.8361
8.53288
8.1102
7.6148
7.05528
6.43738
5.77632
5.10626
4.43902
3.78647
3.17259
5.09338
4.6922
4.33436
4.00464
3.70479
3.43244
3.19135
2.99326
2.86473
2.84525
3.06028
3.58009
4.45621
5.64626
7.00448
8.32764
9.18186
9.60807
9.72533
9.5785
9.20584
8.7101
8.14097
7.49596
6.79751
6.06459
5.32506
4.61061
3.93031
3.31043
6.07945
5.64054
5.24244
4.8736
4.53848
4.23618
3.97114
3.75459
3.61612
3.6006
3.85027
4.44438
5.43858
6.76451
8.25772
9.62317
10.4463
10.8786
10.9723
10.725
10.2245
9.62882
8.90872
8.11987
7.29591
6.45273
5.62511
4.83633
4.11259
3.47834
7.25647
6.78317
6.35471
5.96358
5.61712
5.31553
5.06317
4.87003
4.76517
4.8082
5.14856
5.86518
7.02479
8.55173
10.2392
11.6651
12.4966
12.8902
12.8983
12.459
11.8181
10.9975
10.0427
9.03079
8.01356
7.01436
6.05951
5.17734
4.38552
3.7252
8.72986
8.23027
7.79249
7.4114
7.09675
6.85043
6.67568
6.58203
6.59493
6.79656
7.31818
8.24086
9.64051
11.428
13.3947
14.8905
15.6967
15.9991
15.8288
15.1456
14.2269
13.0569
11.7497
10.4075
9.10183
7.87123
6.73016
5.70533
4.81613
4.09691
10.6913
10.1987
9.79421
9.48119
9.27135
9.1721
9.18309
9.32104
9.60828
10.121
10.9657
12.2162
13.9491
16.05
18.3661
19.8791
20.5863
20.7089
20.2516
19.2356
17.8548
16.1872
14.3756
12.5634
10.8376
9.25909
7.84196
6.59916
5.5443
4.72728
13.5302
13.1257
12.8223
12.669
12.6763
12.8721
13.2504
13.8131
14.5822
15.6083
16.9532
18.6711
20.8351
23.2698
25.9385
27.3134
27.7934
27.5942
26.7161
25.2141
23.256
20.9511
18.4724
16.0314
13.7301
11.6508
9.81739
8.23402
6.91194
5.94054
17.9678
17.7667
17.7109
17.8485
18.2652
18.9414
19.8791
21.0693
22.5141
24.2213
26.1926
28.4588
31.0938
33.816
36.6635
37.5736
37.5811
36.7709
35.3559
33.3752
30.8803
27.9537
24.7773
21.6457
18.6631
15.9479
13.5368
11.446
9.70037
8.47208
25.1297
25.2061
25.5944
26.3111
27.295
28.5823
30.1745
32.0443
34.1574
36.4841
38.9813
41.6716
44.6313
47.3914
49.8891
49.289
48.0715
46.3138
44.3666
42.0732
39.4669
36.5929
33.5429
30.2395
26.8227
23.597
20.5979
17.8954
15.5804
13.9611
35.7476
36.0152
36.8852
38.2471
39.9553
41.9022
44.0277
46.2842
48.6249
51.0748
53.5691
56.1718
58.9384
60.8723
61.8539
59.0098
56.4228
53.7096
51.3687
49.0785
46.8101
44.5734
42.3997
40.2776
38.115
35.5124
32.6663
29.7999
27.1475
25.1267
46.4217
46.9566
48.3786
50.3433
52.541
54.7566
56.8561
58.8078
60.6636
62.5208
64.397
66.2579
67.9972
68.5018
67.3686
62.2729
58.449
54.9782
52.3551
50.2667
48.6934
47.5813
46.9234
46.645
46.6312
46.5433
46.1314
45.2446
43.7261
41.9874
46.5074
47.8379
49.9582
52.4916
55.0544
57.3589
59.2618
60.7785
62.042
63.2111
64.2937
65.2235
65.7357
64.7984
61.6153
55.1278
50.7207
46.9597
44.2607
42.2801
41.1796
40.8266
41.1938
42.2247
43.7647
45.5684
47.3052
48.6786
49.3916
49.2374
11.7539
14.617
15.7017
16.2319
16.4575
16.3375
15.9331
15.3394
14.6295
13.8722
13.1012
12.3739
11.6963
11.1483
10.742
10.6028
10.7852
11.7247
14.1181
17.5814
20.3514
21.187
19.9708
17.2505
13.749
10.0229
6.52101
3.51946
1.40028
0.530087
6.83097
7.49394
7.74892
7.86152
7.89238
7.79405
7.56718
7.24708
6.87382
6.47742
6.08769
5.71717
5.39392
5.11896
4.94131
4.86536
4.98143
5.49753
6.85696
8.84808
10.5398
11.2332
10.89
9.82259
8.35615
6.71757
5.01248
3.24642
1.72534
0.66043
6.26647
6.55019
6.66936
6.71451
6.68899
6.58084
6.39083
6.13228
5.82885
5.50192
5.17506
4.86207
4.58676
4.35679
4.20834
4.15228
4.24976
4.70586
5.85195
7.49247
8.92638
9.59109
9.44207
8.72048