/*--------------------------------*- C++ -*----------------------------------*\
  =========                 |
  \\      /  F ield         | OpenFOAM: The Open Source CFD Toolbox
   \\    /   O peration     | Website:  https://openfoam.org
    \\  /    A nd           | Version:  12
     \\/     M anipulation  |
\*---------------------------------------------------------------------------*/
FoamFile
{
    format      ascii;
    class       volScalarField;
    location    "1200/air";
    object      k;
}
// * * * * * * * * * * * * * * * * * * * * * * * * * * * * * * * * * * * * * //

dimensions      [0 2 -2 0 0 0 0];

internalField   nonuniform List<scalar> 
243000
(
0.0410102
0.0484348
0.0517707
0.0534369
0.0538361
0.0533449
0.0522659
0.0508252
0.0491795
0.0474404
0.0456713
0.0439739
0.0423909
0.040991
0.0404244
0.0406372
0.040385
0.0397735
0.0392376
0.0394092
0.0397144
0.039586
0.0386104
0.0365739
0.0335598
0.0297602
0.02564
0.0237546
0.0213796
0.0192344
0.0578392
0.0671668
0.0701953
0.0705456
0.0692049
0.0668899
0.0640655
0.0610316
0.0579858
0.0550887
0.0524182
0.0500815
0.0481295
0.0466849
0.0458293
0.0459306
0.0470585
0.0490697
0.0518163
0.0547375
0.0572098
0.058646
0.0586303
0.0568898
0.0535049
0.0487008
0.0430152
0.0363386
0.0298818
0.0236985
0.0525651
0.0660247
0.0719124
0.0740634
0.0738089
0.0721093
0.0696375
0.0667817
0.0637948
0.0609815
0.0583763
0.0561391
0.0543645
0.053251
0.0529752
0.0540239
0.0565142
0.060446
0.0652362
0.0700238
0.0738742
0.0761417
0.0764654
0.0745932
0.0706393
0.0648556
0.0578094
0.0494312
0.0406957
0.0318116
0.0462321
0.0555579
0.0621699
0.0667814
0.0687079
0.0687683
0.0676624
0.0658838
0.0638607
0.0617965
0.0598695
0.0582663
0.0571167
0.0566924
0.0572981
0.0595357
0.0635768
0.0693512
0.0759734
0.0822871
0.0871862
0.0900378
0.0905736
0.0886237
0.0843405
0.0780067
0.0701767
0.0608637
0.0508333
0.0403184
0.0487754
0.0514111
0.0556362
0.0593276
0.0615606
0.0623939
0.0621887
0.0612763
0.0602342
0.0592633
0.0583212
0.0576166
0.0573559
0.0578902
0.0596372
0.0633309
0.0691914
0.0769447
0.0854051
0.0931415
0.0989414
0.10224
0.102886
0.100828
0.0962814
0.0895697
0.0812206
0.0713366
0.0605361
0.0492018
0.0561241
0.0559129
0.0554782
0.0566495
0.0578846
0.0585748
0.0586344
0.0581321
0.0573331
0.0564838
0.0556575
0.0553781
0.0557916
0.0572412
0.0602009
0.0655181
0.0733897
0.0832708
0.093579
0.10267
0.109282
0.112951
0.113659
0.111483
0.106722
0.0997528
0.0910723
0.080879
0.0696737
0.0579613
0.06517
0.0648986
0.0637793
0.0621392
0.0607041
0.0598252
0.0589804
0.0579904
0.0568386
0.0556429
0.054526
0.0537673
0.0537408
0.0554874
0.059381
0.0662854
0.0762562
0.0883658
0.100547
0.11095
0.118326
0.122332
0.123087
0.1208
0.115865
0.10872
0.0998475
0.0895243
0.0781656
0.0663196
0.0748736
0.0750878
0.0743871
0.073081
0.0710399
0.0681957
0.0653782
0.06276
0.060261
0.0578898
0.0557431
0.0540296
0.0530847
0.0537932
0.0578133
0.0659413
0.077915
0.0922712
0.106362
0.118054
0.126175
0.130514
0.131326
0.12895
0.12388
0.116619
0.107655
0.0973209
0.085975
0.074156
0.0850173
0.0856946
0.0854436
0.0844848
0.0827716
0.0802577
0.0766397
0.0723089
0.0680298
0.0638778
0.0600177
0.0567076
0.054314
0.0535923
0.0563776
0.064941
0.078549
0.0950651
0.111054
0.124047
0.132915
0.137603
0.138502
0.136075
0.130914
0.123583
0.1146
0.104334
0.0931134
0.0814325
0.0956319
0.0966389
0.0966838
0.0959157
0.0943049
0.0918378
0.0884569
0.0839373
0.0783863
0.0726828
0.0670529
0.0618647
0.0576139
0.0551216
0.0560072
0.0638526
0.0785478
0.0968477
0.114668
0.128988
0.138618
0.143688
0.14472
0.142292
0.137086
0.129733
0.120783
0.11064
0.099629
0.088147
0.106769
0.107954
0.108127
0.107388
0.105719
0.103112
0.0995613
0.0950289
0.0891826
0.0825462
0.0756299
0.0688273
0.0627362
0.0583173
0.0572214
0.063226
0.0781493
0.0978492
0.117262
0.132913
0.143344
0.148841
0.150064
0.147696
0.142501
0.13517
0.126294
0.11632
0.105555
0.0943132
0.118448
0.119648
0.119783
0.118941
0.117096
0.114235
0.110364
0.105491
0.0995749
0.0923246
0.0845879
0.0766439
0.0690643
0.0628672
0.059832
0.0634511
0.0777228
0.0982695
0.118989
0.135847
0.147149
0.153124
0.154602
0.152365
0.147242
0.139982
0.13122
0.121445
0.110928
0.0999599
0.130625
0.131678
0.131642
0.130592
0.128488
0.125304
0.121042
0.115719
0.109354
0.101711
0.0934018
0.08466
0.0759847
0.0683394
0.0635638
0.0649625
0.077683
0.0983327
0.119998
0.137875
0.150066
0.156581
0.158388
0.156359
0.151377
0.144243
0.13564
0.126061
0.115803
0.105128
0.143217
0.14396
0.143651
0.142312
0.139893
0.136351
0.131667
0.125859
0.118961
0.110957
0.10205
0.0926319
0.083122
0.0743526
0.06813
0.0676253
0.0781932
0.0982529
0.120417
0.13913
0.152099
0.159257
0.161465
0.159727
0.15496
0.148011
0.139597
0.13023
0.120238
0.109877
0.156138
0.156422
0.155741
0.154061
0.151293
0.147379
0.142278
0.135992
0.12855
0.120031
0.110575
0.100543
0.0903345
0.0806742
0.0732877
0.0711842
0.0794134
0.0982514
0.12041
0.139702
0.153371
0.161184
0.163867
0.162504
0.158028
0.151332
0.143147
0.13402
0.124296
0.114261
0.169371
0.169088
0.167932
0.165837
0.162696
0.158407
0.152906
0.146166
0.138201
0.129114
0.119146
0.108514
0.0976491
0.0872243
0.0788851
0.0754444
0.0814358
0.0985234
0.120111
0.139714
0.153947
0.162372
0.165617
0.164718
0.160607
0.154242
0.14634
0.137481
0.128036
0.118343
0.18298
0.182018
0.180297
0.177723
0.174171
0.1695
0.163614
0.156448
0.147994
0.138393
0.127937
0.116706
0.105173
0.0940315
0.0848662
0.0802806
0.0842598
0.0992289
0.119688
0.139235
0.153932
0.162922
0.16676
0.166393
0.162728
0.156764
0.149208
0.140661
0.131515
0.122166
0.197062
0.195298
0.192956
0.189862
0.185865
0.180806
0.17455
0.166987
0.158091
0.148206
0.137191
0.125312
0.11307
0.101202
0.0912592
0.0856514
0.0878752
0.100475
0.119325
0.138393
0.153354
0.162911
0.167308
0.167541
0.164422
0.158925
0.151781
0.143596
0.13478
0.125779
0.211379
0.209079
0.206159
0.202524
0.198066
0.192626
0.186037
0.178138
0.168901
0.158762
0.147213
0.13463
0.121603
0.108951
0.0982162
0.0916635
0.0923154
0.10239
0.119242
0.137355
0.152306
0.162334
0.167353
0.168186
0.165684
0.160735
0.154077
0.146314
0.137872
0.129234
0.225703
0.222889
0.219605
0.215725
0.211113
0.205581
0.198905
0.190917
0.181812
0.171209
0.158891
0.145374
0.131362
0.117823
0.106234
0.0987108
0.0976706
0.105127
0.11959
0.136293
0.150905
0.161252
0.166884
0.168356
0.166528
0.162205
0.156106
0.148833
0.140819
0.132575
0.239938
0.236607
0.232977
0.228899
0.224226
0.218734
0.212219
0.204672
0.195727
0.184694
0.171722
0.157368
0.142407
0.127938
0.115427
0.106817
0.103981
0.108761
0.120515
0.135382
0.149293
0.159752
0.165923
0.168066
0.166954
0.163332
0.157877
0.15117
0.14365
0.135851
0.254004
0.25018
0.246231
0.242002
0.237375
0.232103
0.226342
0.219229
0.210079
0.198765
0.18537
0.170427
0.154689
0.139353
0.125857
0.11603
0.111297
0.113365
0.122114
0.134792
0.147616
0.157922
0.164501
0.167315
0.166927
0.164092
0.159366
0.153313
0.146368
0.139079
0.267796
0.263566
0.259413
0.255188
0.251086
0.246686
0.241019
0.233748
0.224533
0.213173
0.199664
0.184469
0.168233
0.152183
0.137669
0.126475
0.119701
0.118982
0.124596
0.135
0.146368
0.156149
0.162839
0.166138
0.166483
0.164451
0.160538
0.155243
0.148975
0.142286
0.281252
0.276936
0.273122
0.269547
0.265505
0.26076
0.254966
0.247743
0.238704
0.227602
0.214348
0.199315
0.182956
0.166438
0.150945
0.138243
0.129254
0.125585
0.128312
0.136235
0.14605
0.155022
0.16161
0.165233
0.166015
0.164456
0.161342
0.156905
0.151449
0.145485
0.29459
0.290505
0.286522
0.28249
0.278168
0.27329
0.267507
0.26046
0.25177
0.241179
0.228535
0.214071
0.198036
0.181432
0.165168
0.151017
0.139813
0.133525
0.133746
0.139074
0.147051
0.155053
0.161265
0.164948
0.166021
0.164839
0.161981
0.158252
0.153697
0.148622
0.305584
0.301145
0.296852
0.292516
0.28793
0.282917
0.277179
0.270379
0.262142
0.252216
0.240402
0.226847
0.211592
0.195431
0.179115
0.164627
0.152687
0.144792
0.142465
0.145056
0.150687
0.157116
0.162541
0.165962
0.167136
0.166204
0.163557
0.159855
0.155802
0.151655
0.314872
0.309194
0.303998
0.299209
0.294682
0.290223
0.285539
0.280234
0.273843
0.265956
0.256229
0.244579
0.231088
0.216331
0.20099
0.18643
0.173553
0.163808
0.158619
0.157996
0.160592
0.164628
0.168435
0.170913
0.17163
0.170509
0.167793
0.163969
0.159584
0.15507
0.333452
0.327603
0.322099
0.317247
0.313145
0.309674
0.306547
0.303282
0.299301
0.29407
0.287042
0.278005
0.266976
0.254332
0.240755
0.226809
0.213212
0.201644
0.193338
0.188753
0.18726
0.187594
0.188372
0.18858
0.187615
0.185237
0.181549
0.176909
0.171746
0.166623
0.373474
0.368311
0.364045
0.361527
0.360658
0.360978
0.361948
0.362883
0.363122
0.362117
0.358922
0.353647
0.34636
0.337373
0.327004
0.315376
0.302558
0.290339
0.279741
0.271428
0.26533
0.260822
0.257064
0.25326
0.24886
0.243332
0.236781
0.229653
0.222354
0.215572
0.523602
0.520188
0.521641
0.52727
0.53291
0.537361
0.540761
0.543317
0.544973
0.545247
0.542201
0.538378
0.533907
0.529095
0.523513
0.517762
0.510252
0.503257
0.497012
0.492302
0.488913
0.486731
0.485254
0.484041
0.482577
0.47854
0.472696
0.466456
0.460837
0.455172
0.0710746
0.0826091
0.0876527
0.0895111
0.0890751
0.0871263
0.0842426
0.0808806
0.0773514
0.0739072
0.0706988
0.0678939
0.0655441
0.063851
0.0628282
0.0628085
0.0638361
0.0658846
0.06867
0.0715724
0.0736096
0.0737837
0.0714195
0.0662687
0.0586429
0.0491415
0.0388398
0.0281111
0.0221441
0.020874
0.124251
0.136307
0.137858
0.134074
0.127441
0.119395
0.110866
0.102463
0.0945859
0.0875652
0.0815769
0.0768057
0.0733311
0.0714458
0.0712982
0.0734771
0.0777708
0.083822
0.0905855
0.096944
0.101675
0.103807
0.102618
0.097531
0.0887188
0.0769422
0.0636066
0.0493077
0.0372553
0.0301976
0.144054
0.158526
0.161861
0.159076
0.152376
0.143562
0.133873
0.124091
0.114831
0.106568
0.0995807
0.0941603
0.0904788
0.0889952
0.0901331
0.0947266
0.102255
0.111875
0.121781
0.130388
0.136368
0.138904
0.137404
0.131286
0.12075
0.10652
0.0901233
0.0721554
0.0556985
0.0438405
0.134806
0.155892
0.164907
0.165209
0.160188
0.152521
0.143649
0.134249
0.125381
0.117415
0.11072
0.105752
0.102795
0.102494
0.105634
0.113183
0.124218
0.137288
0.149927
0.160249
0.166956
0.169488
0.167423
0.160341
0.148496
0.132589
0.114151
0.0936545
0.0740756
0.0586249
0.114394
0.134656
0.147025
0.151771
0.15098
0.146728
0.1406
0.133841
0.126789
0.120194
0.114878
0.111328
0.109892
0.111522
0.117333
0.128379
0.143256
0.159723
0.174823
0.186524
0.193666
0.196012
0.193313
0.185393
0.172587
0.155572
0.135816
0.113703
0.0920058
0.0739956
0.0918138
0.108049
0.121022
0.128012
0.130555
0.1298
0.126717
0.123005
0.119021
0.115265
0.112586
0.111401
0.112228
0.11649
0.125561
0.140625
0.159674
0.179482
0.196802
0.209625
0.217019
0.219084
0.215732
0.207066
0.193531
0.175819
0.155234
0.132205
0.109186
0.0894267
0.0795034
0.0911015
0.100754
0.107143
0.110897
0.112337
0.111823
0.110175
0.107945
0.105728
0.105194
0.106588
0.110402
0.117846
0.130762
0.150341
0.173803
0.19693
0.216249
0.229987
0.237507
0.239246
0.235249
0.225904
0.211797
0.193647
0.172588
0.14915
0.125418
0.10453
0.0743123
0.0814167
0.0884185
0.0938713
0.0975487
0.0995192
0.0999894
0.0993943
0.0982046
0.0969416
0.0968835
0.0992137
0.105183
0.116175
0.133398
0.1579
0.185907
0.212349
0.233457
0.247949
0.255518
0.256917
0.252306
0.242351
0.227781
0.209361
0.188082
0.164581
0.140589
0.119018
0.075109
0.0787031
0.0836211
0.087774
0.0908442
0.0927375
0.0932195
0.0926907
0.0916027
0.0904341
0.0902167
0.0923599
0.0986935
0.112183
0.133969
0.163659
0.196246
0.225908
0.248649
0.263775
0.271353
0.27242
0.267253
0.256764
0.241824
0.223248
0.20193
0.178593
0.154651
0.13273
0.0838442
0.0847511
0.0876675
0.0902723
0.0918374
0.0923912
0.0920289
0.0907981
0.0890148
0.0871629
0.0861682
0.087438
0.0929541
0.107423
0.133047
0.167971
0.20503
0.23772
0.262014
0.27767
0.285241
0.286013
0.280368
0.269438
0.254217
0.235577
0.214349
0.191333
0.167689
0.145616
0.101908
0.101554
0.102415
0.102584
0.101794
0.100011
0.0974461
0.0942862
0.0908805
0.0875493
0.0851539
0.08502
0.0893927
0.103239
0.131442
0.17124
0.212453
0.247892
0.273681
0.289789
0.297361
0.297894
0.291874
0.280611
0.265205
0.246585
0.225547
0.20299
0.179709
0.157669
0.129162
0.127935
0.126663
0.124372
0.120829
0.116048
0.110351
0.104102
0.0978664
0.0920633
0.0874562
0.0853581
0.0881162
0.100546
0.130152
0.173887
0.218704
0.256541
0.283711
0.300243
0.307847
0.308222
0.301947
0.290476
0.274991
0.256478
0.235761
0.213604
0.190762
0.168918
0.162631
0.161244
0.158509
0.154073
0.147906
0.14002
0.13081
0.120724
0.110621
0.101224
0.0934945
0.0887695
0.0893089
0.0999549
0.129753
0.176221
0.223972
0.263773
0.292146
0.309121
0.316799
0.317119
0.310726
0.299183
0.283739
0.265426
0.245063
0.22335
0.200999
0.179452
0.198189
0.19744
0.194317
0.188145
0.179842
0.169319
0.15689
0.14317
0.128996
0.115385
0.103624
0.0955483
0.0933224
0.102121
0.131139
0.178806
0.228489
0.269704
0.299021
0.316508
0.324298
0.324677
0.318316
0.306849
0.291573
0.273596
0.25359
0.232377
0.21056
0.189432
0.232412
0.232058
0.229391
0.223269
0.213507
0.201141
0.186301
0.169569
0.151796
0.134104
0.118017
0.106013
0.100556
0.107089
0.134585
0.182102
0.232516
0.274478
0.304435
0.322437
0.330407
0.330966
0.324796
0.313554
0.298566
0.281037
0.261512
0.240824
0.219552
0.198973
0.265593
0.265357
0.262822
0.256785
0.246948
0.233529
0.217149
0.198245
0.177615
0.156431
0.136376
0.120196
0.111273
0.115021
0.14036
0.186461
0.236326
0.278266
0.30849
0.32697
0.335204
0.336032
0.330286
0.319407
0.304839
0.287873
0.268925
0.248817
0.228131
0.208182
0.297727
0.297427
0.294938
0.288948
0.279314
0.26555
0.248363
0.228049
0.205334
0.181382
0.157994
0.13796
0.125519
0.126055
0.148626
0.192133
0.240209
0.281356
0.311386
0.330165
0.338832
0.340147
0.334856
0.324512
0.310406
0.29419
0.275941
0.256493
0.236447
0.217182
0.328749
0.3284
0.325956
0.320062
0.310562
0.296962
0.27948
0.258338
0.234197
0.208191
0.182126
0.15888
0.143072
0.140219
0.159441
0.199299
0.244478
0.284111
0.313544
0.332428
0.341576
0.343361
0.338654
0.328995
0.31554
0.300121
0.282673
0.263958
0.244618
0.226065
0.358933
0.358224
0.355803
0.350103
0.340866
0.327673
0.310239
0.288717
0.26372
0.236301
0.208237
0.182394
0.163611
0.157414
0.172797
0.208136
0.249529
0.286896
0.3155
0.33423
0.343662
0.345956
0.34195
0.333031
0.320436
0.305789
0.289197
0.27128
0.252703
0.234894
0.388639
0.387478
0.384841
0.379145
0.370095
0.357342
0.34023
0.318798
0.293541
0.265374
0.236013
0.20825
0.186972
0.177588
0.188757
0.218961
0.255977
0.290518
0.317791
0.336067
0.345654
0.34848
0.345258
0.33695
0.325435
0.311528
0.295697
0.278556
0.260778
0.243761
0.418181
0.416582
0.413671
0.407949
0.399157
0.386948
0.370456
0.349617
0.324713
0.296435
0.266395
0.237289
0.213928
0.201588
0.208162
0.232811
0.265006
0.296204
0.321522
0.339035
0.348727
0.352103
0.349655
0.341898
0.331295
0.318072
0.302929
0.286461
0.269402
0.253026
0.448218
0.446255
0.443062
0.43738
0.429175
0.417737
0.402418
0.382899
0.359132
0.331529
0.301566
0.27176
0.246726
0.231672
0.233299
0.251961
0.279022
0.306423
0.329363
0.345585
0.354853
0.358324
0.356206
0.34899
0.338875
0.32603
0.311306
0.295306
0.278749
0.262928
0.479955
0.477833
0.474642
0.469519
0.462463
0.452457
0.439071
0.42179
0.400311
0.374639
0.345973
0.316478
0.290412
0.2728
0.26947
0.281865
0.302771
0.325221
0.344456
0.358224
0.366157
0.368982
0.366449
0.3596
0.349474
0.336697
0.321955
0.305975
0.289528
0.273971
0.515991
0.514222
0.511769
0.508325
0.502982
0.495513
0.485525
0.472227
0.455026
0.43356
0.40845
0.381227
0.355471
0.335732
0.327473
0.332479
0.345243
0.360467
0.37358
0.38279
0.387642
0.388407
0.384281
0.376512
0.365559
0.352127
0.336759
0.320194
0.30318
0.287338
0.561554
0.561208
0.561165
0.560197
0.558425
0.555747
0.551782
0.545714
0.536434
0.522991
0.505279
0.483866
0.461239
0.440969
0.428133
0.42383
0.425675
0.429802
0.432334
0.433031
0.431315
0.426622
0.418089
0.406442
0.39233
0.376443
0.35933
0.341209
0.322783
0.305949
0.625908
0.629691
0.634027
0.638815
0.644356
0.650688
0.657419
0.66337
0.66671
0.665958
0.660323
0.649241
0.633944
0.616516
0.600961
0.587013
0.573658
0.561216
0.547896
0.53391
0.519086
0.502886
0.484701
0.464719
0.443485
0.421627
0.399658
0.377964
0.356478
0.337641
0.732642
0.743446
0.756213
0.771084
0.788239
0.807724
0.828994
0.850153
0.868421
0.882342
0.890151
0.890978
0.885609
0.874869
0.860506
0.841526
0.816165
0.787466
0.755725
0.722519
0.688747
0.654708
0.620324
0.58575
0.551431
0.517957
0.48587
0.455843
0.428
0.405891
0.919292
0.9368
0.957914
0.983895
1.01396
1.04692
1.08144
1.11386
1.14103
1.16256
1.17689
1.18485
1.18712
1.18409
1.1749
1.15775
1.1309
1.09695
1.05664
1.01202
0.964863
0.916295
0.8672
0.818286
0.770065
0.72309
0.677975
0.636154
0.598097
0.569846
1.14687
1.15512
1.18114
1.21836
1.25775
1.29696
1.33392
1.36161
1.3812
1.39494
1.40134
1.40378
1.40379
1.40212
1.39526
1.38156
1.36204
1.33684
1.3067
1.27267
1.23617
1.19777
1.1585
1.1193
1.0803
1.04094
1.00119
0.963671
0.927743
0.89977
1.20555
1.20784
1.23072
1.26334
1.29549
1.32171
1.33996
1.35107
1.3568
1.35866
1.35605
1.35143
1.34513
1.33912
1.32742
1.31043
1.29552
1.27904
1.26215
1.24531
1.2298
1.21635
1.20551
1.19776
1.19289
1.1893
1.18627
1.18253
1.17474
1.16036
0.0986877
0.114574
0.120961
0.12341
0.122745
0.119906
0.115699
0.110796
0.105681
0.100727
0.0961112
0.0920942
0.0887947
0.0865814
0.0855534
0.0861162
0.0880966
0.0915663
0.0966339
0.102719
0.107726
0.109373
0.106368
0.0984123
0.0861696
0.0707163
0.0536937
0.0361834
0.0228034
0.0207706
0.159312
0.18359
0.190795
0.188845
0.181984
0.1725
0.161851
0.151051
0.140758
0.13145
0.123403
0.117002
0.112402
0.110109
0.110224
0.113311
0.118461
0.125627
0.134791
0.145343
0.154837
0.160356
0.159945
0.152229
0.137591
0.117432
0.0941534
0.0690132
0.0474469
0.0345165
0.187429
0.214897
0.225742
0.226797
0.221514
0.212277
0.200897
0.188743
0.176842
0.165936
0.156536
0.149233
0.144374
0.142707
0.144573
0.150491
0.158787
0.168895
0.18043
0.192757
0.203466
0.209624
0.209272
0.200598
0.183853
0.160297
0.132355
0.101358
0.0732175
0.0525023
0.194911
0.222207
0.237272
0.242499
0.240299
0.233212
0.223107
0.211507
0.199842
0.188996
0.17973
0.172831
0.168881
0.168884
0.17349
0.182842
0.194337
0.206941
0.219945
0.232828
0.243436
0.249154
0.248202
0.238761
0.220876
0.195558
0.1651
0.130784
0.0981658
0.0718947
0.190617
0.214812
0.232386
0.241506
0.243367
0.23935
0.231701
0.221784
0.211714
0.202109
0.194101
0.188645
0.186588
0.189334
0.197629
0.211029
0.225838
0.24067
0.254643
0.267391
0.277153
0.281848
0.279886
0.269654
0.251102
0.225009
0.193421
0.15741
0.122025
0.09183
0.179343
0.197284
0.214687
0.22654
0.232178
0.232342
0.228322
0.22181
0.213785
0.206378
0.200689
0.197634
0.198461
0.204988
0.217858
0.235867
0.254114
0.270946
0.285521
0.297715
0.306234
0.309558
0.306292
0.295193
0.276176
0.249856
0.217984
0.18142
0.144569
0.111734
0.160605
0.171558
0.186992
0.200103
0.208786
0.212764
0.212831
0.210233
0.206227
0.202682
0.20027
0.200562
0.205304
0.216629
0.234832
0.257925
0.279771
0.298376
0.313292
0.324671
0.331715
0.333467
0.328712
0.316649
0.29724
0.270988
0.239335
0.203019
0.165663
0.131172
0.141773
0.147434
0.160063
0.172717
0.182677
0.188958
0.19183
0.192264
0.19157
0.191727
0.193495
0.198251
0.207795
0.22481
0.249137
0.277671
0.303166
0.323349
0.338406
0.348827
0.354296
0.354349
0.348001
0.334909
0.315121
0.289082
0.257954
0.222439
0.185343
0.149845
0.129063
0.129311
0.138006
0.148918
0.158721
0.166118
0.170879
0.173548
0.175271
0.177591
0.182321
0.191438
0.206519
0.230226
0.261309
0.295468
0.324542
0.346122
0.361181
0.37057
0.374476
0.372719
0.364772
0.350632
0.330465
0.304699
0.274281
0.239803
0.203255
0.167498
0.123212
0.118873
0.123418
0.131514
0.14003
0.147268
0.152712
0.156705
0.160044
0.163925
0.170225
0.182028
0.202724
0.233697
0.271864
0.311601
0.344067
0.366891
0.38185
0.390177
0.392563
0.388989
0.379484
0.364327
0.343793
0.318313
0.288721
0.255219
0.219537
0.184045
0.125949
0.118104
0.118172
0.122864
0.129165
0.13506
0.140022
0.144037
0.147766
0.152401
0.159614
0.1726
0.19764
0.236102
0.281294
0.326311
0.361849
0.38581
0.400566
0.407854
0.408777
0.403463
0.392501
0.376404
0.355539
0.330383
0.301441
0.269002
0.234389
0.199548
0.136779
0.127086
0.123811
0.124904
0.127952
0.131488
0.134668
0.13735
0.140247
0.144467
0.151733
0.165564
0.193292
0.238317
0.290057
0.339808
0.37799
0.402973
0.417443
0.42377
0.423275
0.41638
0.404115
0.3872
0.366058
0.341222
0.312845
0.281485
0.248078
0.214198
0.156726
0.146443
0.140935
0.138838
0.138343
0.13826
0.13813
0.138096
0.138779
0.14136
0.147764
0.161933
0.190779
0.24113
0.29857
0.352285
0.392621
0.418441
0.43258
0.438043
0.436221
0.427948
0.414577
0.397
0.375666
0.351052
0.323366
0.293044
0.26081
0.228115
0.185387
0.175243
0.168638
0.16427
0.160257
0.155876
0.151265
0.147274
0.144497
0.144047
0.148162
0.161429
0.190981
0.245443
0.307227
0.36394
0.405883
0.432313
0.446093
0.450786
0.447798
0.43837
0.424117
0.406067
0.38466
0.360356
0.333351
0.303974
0.272843
0.241528
0.221453
0.212086
0.205584
0.19926
0.191815
0.183036
0.173497
0.164792
0.157647
0.153337
0.154334
0.166433
0.196484
0.252121
0.316385
0.374999
0.417957
0.444745
0.458139
0.462167
0.458209
0.447875
0.43298
0.41464
0.393377
0.369454
0.343101
0.314563
0.284635
0.254774
0.263825
0.256099
0.249046
0.240449
0.229969
0.217276
0.203088
0.189626
0.177808
0.169159
0.166578
0.176525
0.206257
0.261401
0.326337
0.385742
0.429116
0.455991
0.468968
0.472442
0.467727
0.456738
0.441443
0.423023
0.402094
0.378639
0.352904
0.325316
0.296685
0.268145
0.311539
0.304055
0.29566
0.284963
0.27184
0.25608
0.237971
0.22027
0.203922
0.190912
0.184697
0.191699
0.220254
0.273446
0.337425
0.396583
0.439795
0.466456
0.478983
0.482011
0.476751
0.465348
0.449896
0.431628
0.411174
0.388405
0.363467
0.336873
0.309221
0.281791
0.362526
0.35406
0.344271
0.331615
0.316128
0.297683
0.276542
0.255314
0.23489
0.217902
0.208261
0.211862
0.238429
0.288512
0.350187
0.408171
0.450678
0.476797
0.488844
0.491517
0.485928
0.474349
0.458989
0.44107
0.421269
0.399402
0.3754
0.349512
0.322504
0.2959
0.414358
0.405127
0.394054
0.379656
0.362122
0.341444
0.317986
0.293783
0.27008
0.24973
0.237053
0.237228
0.260988
0.307263
0.365581
0.421582
0.462862
0.488073
0.499622
0.50202
0.49637
0.484869
0.469991
0.452625
0.433314
0.411998
0.388491
0.363152
0.336681
0.310611
0.466972
0.456843
0.44458
0.428742
0.409601
0.387243
0.36216
0.335726
0.309631
0.286714
0.27149
0.268616
0.288992
0.33131
0.385389
0.438663
0.478172
0.502051
0.513123
0.515346
0.510098
0.499093
0.484371
0.467044
0.447702
0.426396
0.402941
0.377727
0.351515
0.325905
0.519521
0.508965
0.495761
0.478944
0.45884
0.435574
0.409633
0.382109
0.354768
0.330348
0.313347
0.308079
0.324877
0.363478
0.412947
0.462685
0.499749
0.52182
0.532596
0.534895
0.529419
0.518149
0.502884
0.484854
0.464773
0.442817
0.418881
0.393337
0.367052
0.341767
0.572858
0.561792
0.548141
0.53105
0.510915
0.487868
0.462362
0.435301
0.408346
0.384003
0.366547
0.359939
0.373567
0.40855
0.454216
0.499612
0.533194
0.553107
0.562406
0.563398
0.556651
0.544132
0.527346
0.507633
0.48585
0.462338
0.437168
0.410646
0.383821
0.358552
0.628427
0.61704
0.60356
0.587218
0.568422
0.547288
0.52421
0.499918
0.475806
0.454036
0.438339
0.432197
0.443908
0.475092
0.517454
0.557905
0.586307
0.602545
0.608747
0.606531
0.59686
0.581303
0.561343
0.538388
0.513472
0.487132
0.459627
0.431201
0.403049
0.377226
0.689239
0.678333
0.666116
0.652143
0.636741
0.620038
0.602347
0.584184
0.566541
0.55107
0.540543
0.537819
0.549598
0.57719
0.616023
0.649985
0.671385
0.681522
0.681996
0.673627
0.658239
0.637013
0.611314
0.582716
0.552486
0.521418
0.489903
0.45837
0.427611
0.400372
0.76177
0.753077
0.744131
0.735041
0.726086
0.717393
0.709133
0.70151
0.695
0.690378
0.689081
0.693568
0.707789
0.732739
0.766686
0.792385
0.804756
0.806056
0.796896
0.778901
0.75411
0.723619
0.688636
0.65104
0.6124
0.573854
0.535933
0.499141
0.464198
0.434448
0.859196
0.855562
0.85339
0.85274
0.85422
0.857829
0.863395
0.870515
0.878815
0.888146
0.898912
0.912414
0.930628
0.95389
0.981758
0.997733
0.999851
0.989666
0.968481
0.938299
0.901206
0.858385
0.81106
0.761322
0.711109
0.662058
0.614829
0.570042
0.528467
0.494992
1.00394
1.00802
1.01694
1.02957
1.04515
1.0638
1.08458
1.10635
1.12793
1.14874
1.16864
1.18856
1.20949
1.23058
1.2507
1.25567
1.24689
1.22588
1.19467
1.15463
1.10739
1.05447
0.997068
0.936949
0.876118
0.816698
0.759529
0.705378
0.655453
0.617379
1.21599
1.22467
1.24395
1.27125
1.30235
1.33364
1.36335
1.39077
1.41492
1.43629
1.45513
1.47294
1.49025
1.50415
1.5116
1.49928
1.4786
1.45013
1.41718
1.37828
1.33339
1.2845
1.23258
1.17882
1.12358
1.06702
1.01027
0.954705
0.901957
0.861798
1.42498
1.43263
1.45934
1.49535
1.53258
1.56626
1.59266
1.61181
1.6247
1.634
1.64054
1.64616
1.65041
1.6492
1.63682
1.60453
1.57271
1.53829
1.50602
1.47479
1.44563
1.4187
1.39442
1.37499
1.35851
1.33897
1.31489
1.28769
1.25699
1.2277
1.41255
1.42917
1.4615
1.50064
1.53735
1.56618
1.58581
1.59598
1.59941
1.59896
1.5954
1.59021
1.58188
1.5665
1.53519
1.4883
1.44853
1.40956
1.37739
1.35149
1.33378
1.32388
1.32162
1.32809
1.34179
1.35972
1.37824
1.39372
1.40112
1.39686
0.132364
0.151104
0.15633
0.158077
0.156686
0.15284
0.147388
0.141108
0.134528
0.12808
0.121998
0.116654
0.112158
0.109004
0.107241
0.10744
0.109484
0.114434
0.123996
0.13702
0.14822
0.152974
0.149617
0.13847
0.121083
0.0990859
0.0744431
0.0485559
0.0236988
0.0203317
0.214735
0.241867
0.248524
0.245428
0.23679
0.225209
0.212439
0.199582
0.187299
0.176144
0.166402
0.158529
0.15257
0.149124
0.148027
0.150064
0.154335
0.163428
0.179944
0.202105
0.222648
0.23475
0.235359
0.223464
0.200889
0.170124
0.13427
0.0949058
0.0601906
0.0359704
0.25617
0.285562
0.296379
0.296194
0.289461
0.278635
0.265626
0.251796
0.238134
0.225482
0.214415
0.205636
0.199403
0.196492
0.196804
0.200986
0.20765
0.21903
0.238042
0.26276
0.285609
0.299387
0.300901
0.28834
0.263264
0.228094
0.185829
0.137955
0.0937643
0.0572101
0.277125
0.304169
0.316975
0.320106
0.316955
0.309096
0.298149
0.285555
0.272575
0.260318
0.249677
0.241582
0.236574
0.235503
0.238398
0.245301
0.254177
0.267184
0.286938
0.311651
0.334069
0.347428
0.348769
0.3359
0.310101
0.273238
0.22801
0.175948
0.125826
0.0809041
0.283368
0.302966
0.316958
0.325007
0.326709
0.322915
0.315231
0.305123
0.2941
0.283519
0.274589
0.268458
0.265967
0.268052
0.27461
0.284824
0.295896
0.310185
0.329948
0.353318
0.373781
0.385466
0.385779
0.372464
0.346495
0.309328
0.263232
0.209572
0.156165
0.105727
0.280408
0.292478
0.305631
0.316457
0.322596
0.323617
0.319657
0.312871
0.304771
0.296909
0.290771
0.287774
0.2891
0.295606
0.306804
0.32082
0.334168
0.34952
0.368794
0.39008
0.407756
0.416989
0.415513
0.401411
0.375416
0.338641
0.292927
0.239412
0.184736
0.130594
0.271353
0.27328
0.284009
0.296775
0.306976
0.312516
0.313177
0.310393
0.306017
0.301685
0.299322
0.300634
0.307083
0.319194
0.335867
0.354092
0.369786
0.386057
0.404502
0.42324
0.437599
0.443898
0.440111
0.424891
0.398809
0.362719
0.318133
0.265861
0.210615
0.154632
0.254529
0.245688
0.253372
0.267261
0.28093
0.291021
0.296507
0.29851
0.298812
0.298991
0.301216
0.308092
0.32081
0.339658
0.362396
0.38517
0.403239
0.420262
0.437597
0.453528
0.464293
0.467352
0.460912
0.444319
0.418027
0.382735
0.339703
0.28862
0.233837
0.177466
0.234642
0.218514
0.222941
0.236256
0.251582
0.264551
0.273569
0.279397
0.28419
0.289628
0.297587
0.311167
0.331113
0.357614
0.386916
0.414419
0.434866
0.452379
0.468334
0.481376
0.48847
0.488073
0.478826
0.460715
0.4341
0.399658
0.357683
0.308194
0.254563
0.198852
0.218191
0.196362
0.196502
0.207574
0.222826
0.237326
0.248928
0.257954
0.266216
0.275605
0.289405
0.310191
0.338838
0.373747
0.409878
0.442087
0.464922
0.482679
0.497172
0.507108
0.51057
0.506544
0.494528
0.474884
0.447856
0.413927
0.37286
0.325207
0.273165
0.218747
0.208515
0.182135
0.177332
0.184785
0.198303
0.212692
0.225545
0.236791
0.247898
0.260835
0.27888
0.307419
0.345078
0.388742
0.431671
0.468422
0.493555
0.511442
0.5242
0.530962
0.53081
0.523218
0.508587
0.487506
0.460043
0.426218
0.386215
0.340328
0.290121
0.237425
0.207622
0.179743
0.168675
0.171095
0.181059
0.193769
0.20646
0.218522
0.231503
0.247258
0.269387
0.30401
0.350858
0.403215
0.452635
0.493643
0.520868
0.538712
0.54951
0.553176
0.54937
0.53848
0.521503
0.499165
0.471205
0.437542
0.398489
0.354286
0.30621
0.25519
0.214159
0.186756
0.171866
0.168833
0.174374
0.183788
0.194229
0.20567
0.219265
0.236741
0.262738
0.301592
0.357164
0.417715
0.473082
0.51797
0.546976
0.564522
0.573254
0.57388
0.566589
0.552741
0.533762
0.5104
0.481983
0.448561
0.410438
0.368095
0.321723
0.272259
0.229542
0.203542
0.186963
0.179656
0.179588
0.183673
0.191149
0.200375
0.213241
0.231277
0.259274
0.301378
0.364814
0.432723
0.493323
0.541651
0.572074
0.589009
0.595693
0.593276
0.582853
0.566473
0.545868
0.521743
0.493216
0.460022
0.423119
0.382072
0.336983
0.288873
0.255342
0.231092
0.213575
0.202729
0.197512
0.196227
0.198536
0.203787
0.213222
0.230226
0.259413
0.30686
0.374861
0.448687
0.513709
0.565001
0.596378
0.61241
0.617103
0.611812
0.598674
0.580249
0.558416
0.533753
0.50558
0.47309
0.436838
0.396478
0.352183
0.305142
0.291608
0.268495
0.250138
0.236203
0.226285
0.219665
0.216351
0.216587
0.222221
0.237268
0.267619
0.31767
0.387845
0.466057
0.534692
0.588448
0.620255
0.635256
0.637974
0.630131
0.614774
0.59483
0.57217
0.547197
0.519941
0.488076
0.451717
0.411382
0.367263
0.321168
0.336631
0.31399
0.294512
0.277699
0.263548
0.251885
0.243135
0.238309
0.239327
0.25137
0.28176
0.33311
0.404254
0.485391
0.556909
0.612615
0.644278
0.658163
0.659093
0.64919
0.632204
0.611302
0.588392
0.563802
0.536473
0.504337
0.467417
0.426509
0.38236
0.337134
0.388654
0.365698
0.344709
0.32509
0.30711
0.290902
0.277195
0.267517
0.264025
0.272491
0.301619
0.353406
0.424933
0.50753
0.581312
0.638446
0.669747
0.682295
0.68176
0.670489
0.652545
0.63166
0.608222
0.583243
0.554836
0.521423
0.483488
0.441857
0.397559
0.353215
0.445741
0.421899
0.399107
0.376782
0.355389
0.335246
0.317259
0.30321
0.295748
0.300434
0.327484
0.379145
0.45076
0.533776
0.609366
0.667382
0.69792
0.709387
0.708107
0.696487
0.678643
0.656618
0.632207
0.605027
0.574556
0.539285
0.499984
0.457448
0.412955