/*--------------------------------*- C++ -*----------------------------------*\
  =========                 |
  \\      /  F ield         | OpenFOAM: The Open Source CFD Toolbox
   \\    /   O peration     | Website:  https://openfoam.org
    \\  /    A nd           | Version:  12
     \\/     M anipulation  |
\*---------------------------------------------------------------------------*/
FoamFile
{
    format      ascii;
    class       volScalarField;
    location    "1200/air";
    object      nut;
}
// * * * * * * * * * * * * * * * * * * * * * * * * * * * * * * * * * * * * * //

dimensions      [0 2 -1 0 0 0 0];

internalField   nonuniform List<scalar> 
243000
(
0.000107356
0.000112244
0.000111842
0.000109627
0.000106305
0.000102402
9.82868e-05
9.42017e-05
9.02993e-05
8.66839e-05
8.34017e-05
8.05287e-05
7.80922e-05
7.61395e-05
7.4527e-05
0.000319307
0.00032033
7.46522e-05
7.57997e-05
7.72452e-05
7.90705e-05
8.07652e-05
8.18526e-05
8.19615e-05
8.09519e-05
7.87427e-05
7.56157e-05
0.000322286
0.000313813
0.000300226
0.000384158
0.000397613
0.000391628
0.000378799
0.000362486
0.0003449
0.000327334
0.00031055
0.000295004
0.000281058
0.000268841
0.000258569
0.000250334
0.000244409
0.000241444
0.000240721
0.000245398
0.000252266
0.00026174
0.000273287
0.000284901
0.000295149
0.00030287
0.000306989
0.000307027
0.000302635
0.000294328
0.000282314
0.000263215
0.000243608
0.00043492
0.000484902
0.000505811
0.000513172
0.000512138
0.000506154
0.000497281
0.000486852
0.000475646
0.000464951
0.000454747
0.000445735
0.000438372
0.000433532
0.00043201
0.000435691
0.000445153
0.000459872
0.000477443
0.000494593
0.000508112
0.000516037
0.000517337
0.000511143
0.000497524
0.000476748
0.000450066
0.00041616
0.000377367
0.000333361
0.000404379
0.000444349
0.000471636
0.000488854
0.000495588
0.000495521
0.000491233
0.000484448
0.000476815
0.000468763
0.000461124
0.000454605
0.000449732
0.000447614
0.000449423
0.000457429
0.000472002
0.000492395
0.000515038
0.000535947
0.000551795
0.000560964
0.000562868
0.000556992
0.000543516
0.000522778
0.00049584
0.000461682
0.000421829
0.000375385
0.000411861
0.000424741
0.000444002
0.000459452
0.000468394
0.000471594
0.000470729
0.000467114
0.000463477
0.00045957
0.000455612
0.000452536
0.000451084
0.000452627
0.000458686
0.000471811
0.000492286
0.000518461
0.00054586
0.000569991
0.000587619
0.000597579
0.00059973
0.000593949
0.000580582
0.000560083
0.000533362
0.000499807
0.000460357
0.00041485
0.00044132
0.000440333
0.000439225
0.000445928
0.000451967
0.000455232
0.000455796
0.000453955
0.000451182
0.000447935
0.000444643
0.000443702
0.000445111
0.000450319
0.000460999
0.000479887
0.000506856
0.000539129
0.000571149
0.000598213
0.000617357
0.00062791
0.000630166
0.000624377
0.000611103
0.000590942
0.000564695
0.000532139
0.000493869
0.000450332
0.000475837
0.000474349
0.000469886
0.000463657
0.0004593
0.000456856
0.000454435
0.000451294
0.000447276
0.000443046
0.000438975
0.000436287
0.000436519
0.000443332
0.000457879
0.000482621
0.000516459
0.000555112
0.00059177
0.000621627
0.000642176
0.000653262
0.000655594
0.000649769
0.000636585
0.000616797
0.000591168
0.000559785
0.000523056
0.000481711
0.000510378
0.000510655
0.000507859
0.000503004
0.000495288
0.000485128
0.000475725
0.000466815
0.00045815
0.000449792
0.000442102
0.000435958
0.000432732
0.000435997
0.000451595
0.000481177
0.000521746
0.000566923
0.000608339
0.000640953
0.000662895
0.000674538
0.00067698
0.000671149
0.000658071
0.000638662
0.000613723
0.000583558
0.000548495
0.000509345
0.000544116
0.000545912
0.000544786
0.000541425
0.000535594
0.000527117
0.000514512
0.000499952
0.000485303
0.000470814
0.000457071
0.000445097
0.000436407
0.000434162
0.000445441
0.000477161
0.000523495
0.000575048
0.000621259
0.000656728
0.000680112
0.000692386
0.000695022
0.00068925
0.000676318
0.000657299
0.000633073
0.000604109
0.000570725
0.000533694
0.000577285
0.000580015
0.000579886
0.000577363
0.0005723
0.000564585
0.000553865
0.000539023
0.000520922
0.000501783
0.000482318
0.000463853
0.000448359
0.000439278
0.000443201
0.000472623
0.000523068
0.000579925
0.000630876
0.000669348
0.000694267
0.000707284
0.000710231
0.000704618
0.000691896
0.000673288
0.00064978
0.000621974
0.000590259
0.000555186
0.000610136
0.000613257
0.000613534
0.000611273
0.000606371
0.000598743
0.000588245
0.000574554
0.000556205
0.000535138
0.000512323
0.000488987
0.00046729
0.000451092
0.000447248
0.000469667
0.000521106
0.000582387
0.000637486
0.000679071
0.000705699
0.000719594
0.000722991
0.000717663
0.000705237
0.000687079
0.000664284
0.000637609
0.000607441
0.000574183
0.00064278
0.000645808
0.000646
0.000643597
0.000638494
0.000630583
0.000619766
0.000605895
0.000588582
0.000566641
0.000542328
0.000516274
0.000490256
0.000468036
0.000456829
0.00046991
0.000518963
0.000583038
0.000641674
0.000686082
0.000714664
0.00072959
0.000733595
0.000728697
0.000716674
0.000699022
0.000676956
0.000651357
0.000622584
0.000591016
0.000675146
0.000677672
0.000677438
0.000674625
0.000669098
0.000660719
0.000649374
0.000634946
0.000617254
0.000595234
0.000570383
0.000543038
0.000514504
0.000488016
0.000470636
0.000475202
0.000518303
0.000582618
0.000643852
0.000690748
0.000721342
0.000737476
0.00074226
0.000737956
0.000726463
0.000709396
0.000688099
0.00066347
0.000635979
0.000605986
0.00070707
0.000708742
0.000707858
0.000704463
0.000698393
0.000689468
0.000677527
0.00066245
0.000644094
0.000621995
0.000596604
0.000568453
0.000538495
0.000509265
0.000487256
0.00048471
0.000519573
0.000581779
0.000644416
0.000693415
0.000725778
0.000743424
0.000749158
0.000745621
0.000734797
0.000718415
0.000697888
0.000674194
0.0006479
0.0006194
0.000738397
0.000738932
0.000737218
0.000733153
0.000726491
0.000717013
0.000704507
0.000688811
0.000669773
0.00064728
0.000621351
0.00059257
0.000561716
0.000530761
0.000505512
0.000497304
0.000523294
0.00058124
0.00064387
0.000694351
0.0007284
0.000747545
0.000754413
0.000751823
0.000741817
0.000726235
0.000706532
0.000683774
0.000658596
0.000631509
0.000769153
0.000768393
0.000765674
0.000760818
0.000753538
0.000743524
0.000730516
0.000714282
0.000694632
0.00067152
0.0006452
0.000615856
0.000584287
0.000552152
0.000524661
0.000512067
0.000529773
0.000581616
0.000642502
0.000693923
0.000729352
0.000749928
0.000758126
0.000756666
0.000747619
0.000732984
0.000714189
0.000692387
0.000668282
0.000642563
0.000799529
0.000797329
0.000793476
0.000787738
0.000779791
0.000769253
0.000755797
0.000739111
0.000718954
0.000695376
0.000668738
0.000638855
0.000606578
0.000573503
0.000544382
0.000528375
0.000538909
0.000583422
0.000640882
0.000692207
0.00072892
0.000750833
0.000760421
0.000760231
0.000752304
0.000738746
0.000720972
0.000700186
0.000677152
0.000652719
0.000829768
0.000825974
0.000820942
0.000814285
0.000805637
0.000794588
0.000780741
0.000763696
0.000743172
0.000719754
0.000692631
0.000662124
0.000629081
0.000595123
0.000564679
0.000545912
0.000550515
0.00058697
0.000639532
0.000689634
0.000727093
0.000750459
0.000761333
0.000762564
0.000755968
0.000743611
0.000726979
0.000707292
0.00068536
0.000662166
0.000859455
0.000854673
0.000848609
0.00084104
0.000831697
0.000820186
0.00080608
0.00078885
0.000768235
0.000744971
0.000717551
0.000686387
0.000652485
0.000617593
0.000585925
0.000564739
0.000564502
0.000592626
0.000639108
0.000686659
0.000724178
0.000748726
0.000761141
0.000763752
0.000758618
0.000747623
0.000732274
0.000713796
0.000693034
0.000671068
0.000888159
0.000882528
0.000875942
0.000868125
0.000858769
0.000847437
0.000833587
0.000816747
0.000797191
0.000773725
0.000745556
0.000713331
0.000678229
0.000642291
0.0006094
0.00058617
0.000580978
0.000600773
0.000640033
0.000683727
0.000720464
0.000745843
0.000759728
0.000763849
0.000760301
0.000750823
0.000736904
0.000719761
0.000700266
0.000679564
0.000915788
0.00090935
0.000902301
0.000894341
0.000885151
0.00087425
0.000861166
0.000845828
0.000827233
0.00080373
0.000775183
0.000742272
0.000706246
0.000669356
0.000635299
0.000609977
0.000599895
0.000611535
0.00064269
0.000681311
0.00071631
0.000742018
0.000757203
0.000762903
0.000761027
0.00075322
0.000740896
0.000725242
0.000707145
0.000687798
0.000942285
0.000935123
0.000927685
0.000919669
0.000910839
0.000900684
0.000889517
0.000875487
0.000857131
0.000833892
0.000805506
0.000772557
0.000736162
0.00069867
0.000663514
0.000636017
0.000621175
0.00062499
0.000647317
0.000679911
0.000712103
0.000737476
0.000753656
0.000760919
0.000760692
0.00075475
0.000744203
0.000730221
0.000713687
0.000695825
0.000967555
0.000959857
0.000952252
0.000944466
0.00093689
0.000928692
0.000917994
0.000904109
0.000886229
0.00086369
0.000836085
0.00080385
0.000767811
0.000730237
0.000694141
0.000664385
0.000644831
0.000641049
0.000654587
0.000680914
0.000709318
0.00073338
0.000749779
0.000758021
0.000759479
0.000755364
0.000746753
0.000734652
0.000719895
0.000703709
0.00099158
0.000983951
0.000977167
0.000970771
0.000963468
0.000954851
0.00094424
0.000930859
0.000913855
0.000892531
0.000866375
0.000835666
0.000800812
0.000763821
0.000727092
0.000695043
0.000670777
0.000659448
0.000665083
0.000684552
0.000708871
0.000730835
0.000746926
0.000755933
0.000758375
0.000755227
0.000748456
0.000738426
0.000725726
0.000711483
0.00101483
0.00100775
0.00100083
0.000993781
0.000986187
0.000977558
0.000967238
0.000954522
0.000938612
0.00091885
0.000894666
0.000866137
0.000833276
0.000797659
0.000760866
0.000726932
0.000698392
0.000680844
0.000679897
0.000692332
0.000711674
0.000731104
0.000746183
0.000755293
0.000758367
0.000756137
0.000749948
0.000741494
0.000730982
0.000719019
0.00103356
0.00102604
0.00101872
0.00101129
0.00100338
0.000994679
0.000984633
0.000972601
0.000957829
0.000939715
0.000917668
0.000891675
0.000861411
0.000828011
0.000792519
0.000759304
0.000730381
0.000709857
0.000702644
0.000707904
0.000721017
0.000736287
0.000749286
0.000757669
0.000760895
0.000759264
0.000753579
0.000745279
0.000735915
0.000726242
0.00104928
0.0010398
0.00103106
0.00102294
0.00101521
0.00100756
0.000999476
0.000990254
0.000979037
0.000965011
0.000947411
0.000925858
0.000900189
0.000871136
0.000839621
0.000808299
0.000779215
0.000755912
0.000742512
0.000739892
0.00074524
0.000754325
0.000763155
0.000769121
0.000771168
0.000769089
0.000763305
0.000754846
0.000744882
0.000734441
0.00107987
0.0010704
0.00106141
0.00105344
0.00104665
0.0010409
0.00103571
0.00103028
0.00102362
0.00101479
0.00100277
0.000987068
0.000967491
0.000944455
0.000918913
0.00089171
0.000864112
0.00083955
0.000821036
0.000810201
0.000806175
0.000806459
0.000808027
0.000808603
0.000806795
0.000801975
0.000794237
0.000784267
0.000772925
0.000761469
0.00114304
0.00113517
0.00112862
0.00112476
0.00112345
0.00112401
0.00112559
0.00112713
0.0011276
0.00112615
0.0011213
0.00111318
0.00110179
0.00108751
0.0010707
0.00105141
0.00102958
0.00100814
0.000988955
0.000973471
0.000961851
0.000953201
0.000946068
0.000938977
0.000930838
0.000920534
0.000908185
0.000894547
0.00088034
0.000866921
0.001354
0.00134958
0.00135145
0.00135872
0.001366
0.00137173
0.00137609
0.00137937
0.0013815
0.00138189
0.00137807
0.00137326
0.0013676
0.00136147
0.0013543
0.00134684
0.00133699
0.00132768
0.00131926
0.00131281
0.0013081
0.00130503
0.00130297
0.0013013
0.00129933
0.00129378
0.00128588
0.00127744
0.00126982
0.00126205
0.000140729
0.000146238
0.000145201
0.000141576
0.00013645
0.000130599
0.00012453
0.000118599
0.000113026
0.000107986
0.000103568
9.98722e-05
9.69213e-05
9.48558e-05
9.37043e-05
9.36114e-05
9.47664e-05
9.70337e-05
0.000100257
0.000104026
0.000107616
0.000110273
0.000111374
0.000110421
0.000107156
0.000101385
9.32978e-05
8.2283e-05
0.000335185
0.000337977
0.000539902
0.000587325
0.000566556
0.000524067
0.000478554
0.000435361
0.000396358
0.000361761
0.0003315
0.000305903
0.000284985
0.000269041
0.000258067
0.000253052
0.000253927
0.000262804
0.000277163
0.00029494
0.00031115
0.000323265
0.000331469
0.000337533
0.000341328
0.000339516
0.000330156
0.000313041
0.000289701
0.000260089
0.000245572
0.000264295
0.000787913
0.000872259
0.000871287
0.00083381
0.000781204
0.000724928
0.000670822
0.00062076
0.000576306
0.000538674
0.000508365
0.000486568
0.000473986
0.000473113
0.00048558
0.000515405
0.000554477
0.000595527
0.000625712
0.000640308
0.000643042
0.000640932
0.000636345
0.000624749
0.000603204
0.000568854
0.0005236
0.000465645
0.000410713
0.000389072
0.000822893
0.000954993
0.000999979
0.000988601
0.000947047
0.00089587
0.000843678
0.000791627
0.000746505
0.000708307
0.000678303
0.000659411
0.00065345
0.000664749
0.00069883
0.000759814
0.000832279
0.000899883
0.000944463
0.000961212
0.000957631
0.000945248
0.000927779
0.000902794
0.000866519
0.000815482
0.000750865
0.000669992
0.000586637
0.000535904
0.000786011
0.000913021
0.000978783
0.000996269
0.000982052
0.000950775
0.000912853
0.000875803
0.000838921
0.000806658
0.000784729
0.00077617
0.000783277
0.000813773
0.00087726
0.000976756
0.00108847
0.00118535
0.00124497
0.00126431
0.00125469
0.00123208
0.00120154
0.00116338
0.00111349
0.00104784
0.000967514
0.000869535
0.000764913
0.000692542
0.00072282
0.000824691
0.000892494
0.00092418
0.000930546
0.000919726
0.000898832
0.000877706
0.0008573
0.000840521
0.000833929
0.000841358
0.000866462
0.000922459
0.00102122
0.00116527
0.0013205
0.00144619
0.00151962
0.0015416
0.00152732
0.0014962
0.00145369
0.00140346
0.0013414
0.00126428
0.00117192
0.0010619
0.000942425
0.000853522
0.000690885
0.00076323
0.00081631
0.000848225
0.000863978
0.000867122
0.000860894
0.000850742
0.000839696
0.000831208
0.000837219
0.000861172
0.000909033
0.000994882
0.00113462
0.00132851
0.00152953
0.00168338
0.00176863
0.00179269
0.00177486
0.00173691
0.001684
0.00162303
0.00155055
0.00146448
0.00136325
0.00124532
0.00111615
0.00101497
0.000682419
0.000725482
0.000764476
0.000793626
0.000811955
0.000820971
0.000822456
0.000819398
0.000814871
0.000812407
0.000821419
0.000851849
0.000916858
0.00103616
0.00122187
0.0014694
0.00171721
0.00189909
0.00199385
0.00201925
0.00199876
0.00195538
0.00189363
0.00182329
0.0017424
0.00164907
0.00154146
0.00141842
0.00128358
0.00117314
0.000709049
0.00072001
0.000745083
0.000767263
0.000783666
0.00079441
0.000798084
0.000797412
0.000795205
0.000794895
0.00080442
0.000834725
0.000904898
0.00105121
0.00128725
0.00159219
0.00188658
0.00209493
0.00219762
0.00222373
0.00220121
0.00215346
0.00208433
0.00200578
0.00191792
0.00181894
0.00170694
0.00158125
0.00144339
0.00132564
0.000797052
0.00077825
0.000781448
0.000789872
0.000796786
0.000799938
0.000799483
0.000795328
0.000790655
0.000787953
0.000794172
0.000821375
0.000889016
0.00105206
0.00133508
0.00169977
0.0020402
0.00227246
0.00238279
0.00240893
0.00238448
0.00233337
0.00225813
0.00217275
0.00207887
0.0019754
0.00186048
0.00173405
0.00159622
0.00147248
0.000962282
0.000926124
0.000904484
0.000888685
0.000875303
0.000860858
0.00084502
0.000827925
0.000811948
0.000799216
0.000797581
0.00081805
0.000882269
0.0010502
0.00137218
0.00179574
0.00217859
0.00243382
0.00255251
0.00257777
0.00255109
0.0024973
0.0024173
0.00232609
0.00222705
0.00211997
0.00200315
0.0018779
0.00174045
0.00161272
0.00120089
0.00116153
0.00111986
0.00107926
0.00103825
0.000996394
0.000954141
0.000912359
0.000873972
0.000842232
0.000824084
0.000831272
0.000888648
0.00105567
0.0014085
0.00188389
0.00230363
0.00257872
0.00270713
0.0027328
0.0027036
0.00264733
0.00256348
0.0024675
0.00236415
0.00225413
0.00213695
0.00201138
0.00187516
0.0017458
0.00148884
0.00145902
0.00140999
0.00134992
0.00128265
0.00121038
0.00113559
0.00106048
0.000989432
0.000927645
0.000883412
0.000870445
0.000913961
0.00107406
0.00144819
0.00196662
0.00241676
0.00270859
0.00284638
0.00287382
0.00284385
0.00278507
0.00269782
0.00259842
0.00249161
0.00237927
0.00226138
0.00213576
0.00200142
0.00187206
0.00179473
0.00178185
0.0017376
0.00166673
0.00158107
0.00148375
0.00137853
0.0012696
0.0011621
0.00106334
0.000984137
0.000942917
0.000965658
0.00112189
0.00150555
0.00205022
0.00252122
0.0028245
0.00297015
0.00300173
0.00297131
0.00291198
0.00282261
0.0027203
0.00261066
0.00249709
0.00237753
0.00225242
0.00212049
0.00199305
0.00208884
0.0020909
0.00206004
0.00199629
0.00190187
0.00178928
0.001662
0.00152511
0.00138441
0.00124867
0.00113108
0.00105571
0.00105247
0.00119866
0.00158467
0.00213747
0.00261833
0.00292661
0.00307791
0.00311497
0.00308498
0.00302753
0.00293956
0.00283446
0.0027221
0.00260768
0.00248751
0.00236291
0.00223325
0.00210934
0.00236956
0.00238315
0.00236345
0.00230916
0.00222065
0.0021029
0.00196388
0.00180828
0.00164208
0.00147498
0.00132199
0.00121105
0.00118035
0.00130845
0.00168623
0.00223244
0.00270802
0.00301721
0.00317199
0.00321623
0.00318833
0.00313363
0.00304752
0.0029414
0.00282801
0.00271274
0.00259247
0.00246862
0.00234132
0.00222163
0.00263219
0.00265427
0.00264409
0.00259903
0.00252032
0.0024064
0.00226502
0.0021002
0.00191788
0.0017281
0.0015471
0.00140497
0.00134809
0.00145151
0.00181051
0.0023342
0.00279138
0.00309655
0.00325354
0.00330585
0.00328274
0.00323014
0.00314603
0.00304096
0.00292792
0.00281308
0.00269348
0.00257087
0.00244614
0.00233089
0.00287039
0.00289915
0.00289646
0.0028599
0.00279049
0.00268599
0.00254876
0.00238239
0.00219268
0.0019897
0.00179004
0.00162491
0.00154529
0.00162141
0.00195047
0.0024367
0.00286747
0.00316054
0.0033237
0.00338189
0.00336611
0.00331594
0.00323442
0.00313262
0.00302183
0.00290867
0.00279094
0.00267037
0.00254869
0.00243792
0.00308573
0.00311102
0.00311208
0.00308284
0.00302246
0.00292845
0.0027984
0.00263538
0.00244505
0.00223716
0.00202829
0.00184915
0.00175208
0.00180092
0.00209116
0.00252863
0.00292858
0.0032073
0.00337132
0.00343967
0.00343423
0.00338947
0.00331186
0.0032157
0.00310935
0.00299872
0.00288397
0.00276658
0.0026489
0.00254305
0.00328048
0.00329704
0.00329366
0.00326399
0.0032065
0.00311803
0.00299421
0.00283658
0.00264981
0.00244301
0.0022327
0.00204781
0.00193901
0.00196118
0.00220826
0.00259188
0.00296026
0.00323171
0.00339695
0.00347103
0.00347574
0.00344462
0.00337826
0.00328999
0.00319086
0.00308377
0.00297205
0.00285856
0.00274604
0.00264591
0.00345216
0.00345706
0.0034455
0.00341152
0.00335303
0.00326569
0.00314505
0.00299141
0.0028082
0.00260368
0.00239401
0.00220618
0.0020867
0.00208359
0.00227936
0.00260805
0.00294567
0.00321176
0.00338533
0.00347387
0.00349509
0.00347815
0.00342378
0.00334403
0.00325443
0.00315689
0.00305413
0.002948
0.00284215
0.00274475
0.00359517
0.00358637
0.00356451
0.00352396
0.00346151
0.00337189
0.00325167
0.00309954
0.00291769
0.00271372
0.00250357
0.00231209
0.0021803
0.00215171
0.00228702
0.0025581
0.00286334
0.00312445
0.00331031
0.00341834
0.00346289
0.00346774
0.00343382
0.00337162
0.00329587
0.00320836
0.00311586
0.00301863
0.00292153
0.00283276
0.00369933
0.00367593
0.00364306
0.00359427
0.00352496
0.00343119
0.00330891
0.00315534
0.002972
0.00276639
0.00255452
0.00235863
0.00221333
0.00215629
0.00222939
0.00243619
0.00269626
0.00294227
0.003137
0.00326841
0.00334387
0.00337922
0.00337674
0.00334459
0.00329243
0.00322553
0.00314777
0.00306366
0.00297927
0.0029016
0.00374874
0.00371156
0.00366774
0.00360776
0.00353191
0.00343391
0.00330838
0.00315182
0.00296664
0.0027614
0.00255217
0.002357
0.00220303
0.00211915
0.00213522
0.0022661
0.00245968
0.00266971
0.00285737
0.00300395
0.00310867
0.00318039
0.00321486
0.00322103
0.00320547
0.00317269
0.0031232
0.00306151
0.00299418
0.002931
0.00371943
0.00367305
0.0036169
0.00355182
0.00347297
0.00337345
0.00324715
0.0030923
0.00291375
0.00272112
0.00253009
0.00235132
0.00220367
0.0021057
0.00207775
0.00212877
0.0022424
0.00238601
0.00253193
0.00266615
0.0027801
0.00287189
0.00293655
0.0029779
0.00299993
0.00300593
0.00299733
0.00297127
0.00293282
0.00288888
0.0035815
0.0035326
0.00348105
0.00342278
0.00335206
0.00326209
0.00314858
0.00301281
0.00286119
0.00270177
0.002547
0.00240231
0.00227925
0.00218587
0.00213468
0.00212643
0.00215869
0.00222038
0.00229635
0.00237847
0.0024601
0.00253614
0.00260078
0.00265313
0.00269396
0.00272455
0.00274571
0.00275619
0.00275228
0.00273637
0.00334628
0.00331802
0.00328969
0.00325656
0.00321042
0.00314544
0.00306107
0.00296101
0.00285208
0.00274029
0.00263086
0.00252544
0.0024319
0.00235505
0.00230099
0.00226583
0.00224787
0.00224759
0.00225888
0.0022792
0.002306
0.00233628
0.00236611
0.00239339
0.00241721
0.00243781
0.00245563
0.00247041
0.0024804
0.00248892
0.00310979
0.00310737
0.00311441
0.00311883
0.00310646
0.00307394
0.00302449
0.0029609
0.00289024
0.00281693
0.00274324
0.00267147
0.00260428
0.00254504
0.00249966
0.00246185
0.00242915
0.00240488
0.00238658
0.00237402
0.00236665
0.0023631
0.00236131
0.00235958
0.00235654
0.00235187
0.00234612
0.00234058
0.00233547
0.00234176
0.00294997
0.00295675
0.00297834
0.00299864
0.00300551
0.00299678
0.00297361
0.00293798
0.00289454
0.00284723
0.00279604
0.00274491
0.00269527
0.00264988
0.00261147
0.00257882
0.00255057
0.0025275
0.00250944
0.00249674
0.00248951
0.0024866
0.00248631
0.00248721
0.00248769
0.00248646
0.00248384
0.00248238
0.0024806
0.00248748
0.00283987
0.00285483
0.0028772
0.00289473
0.00290077
0.00289559
0.00288117
0.0028594
0.00283225
0.00280204
0.00276691
0.00273099
0.00269488
0.00266205
0.00263
0.00260599
0.00258795
0.00257496
0.00256763
0.00256676
0.0025725
0.00258383
0.00259833
0.00261437
0.00263033
0.00264444
0.00265767
0.00267147
0.0026803
0.00268219
0.000166187
0.000172295
0.000170513
0.000166125
0.000160042
0.000153068
0.000145797
0.000138669
0.000131975
0.000125933
0.000120626
0.000116192
0.000112687
0.000110337
0.000109194
0.000109521
0.000111217
0.000114331
0.000118941
0.000124674
0.000130266
0.00013435
0.000136018
0.000134673
0.000130031
0.000121801
0.000109934
9.3617e-05
7.20313e-05
0.000340978
0.000664265
0.000763043
0.000761201
0.00071335
0.000655841
0.000600032
0.000549575
0.000505478
0.000467753
0.000436455
0.000411367
0.000393571
0.000382575
0.000380061
0.000384217
0.000396935
0.000411106
0.000426165
0.00043975
0.000452699
0.000466282
0.000479931
0.000490533
0.000489655
0.00047208
0.000437597
0.000391647
0.000335429
0.000288083
0.000280407
0.00102249
0.00118974
0.00121985
0.00118455
0.00112111
0.00104922
0.000978711
0.000913906
0.000857292
0.000810349
0.000773977
0.000750871
0.000741645
0.000750151
0.000775005
0.000816893
0.000856293
0.000887334
0.000902792
0.00090627
0.000907779
0.000911482
0.00091517
0.000899916
0.000862577
0.000800685
0.0007155
0.000609157
0.000509654
0.00045361
0.00120959
0.00140492
0.00147738
0.00147273
0.00142398
0.00135697
0.00128568
0.00121642
0.00115558
0.00110544
0.00106891
0.00105067
0.00105344
0.0010836
0.00114254
0.0012244
0.00129479
0.00134029
0.00135243
0.00134352
0.00132949
0.00131686
0.00130638
0.0012789
0.00122416
0.00113776
0.00102284
0.000879978
0.000736301
0.000640819
0.00129008
0.00148222
0.00158124
0.00160641
0.00158567
0.00153413
0.00147408
0.00141045
0.00135767
0.00131402
0.00128643
0.00128142
0.00130428
0.00136627
0.00146951
0.00159739
0.00169834
0.00175448
0.00176052
0.00173683
0.00170482
0.0016779
0.00165319
0.00161401
0.00154615
0.00144383
0.00130918
0.00114218
0.000966929
0.000836987
0.00132195
0.00147736
0.00157593
0.00162016
0.00162394
0.00160003
0.00156035
0.00151912
0.00147471
0.00144398
0.00143367
0.00144937
0.00150075
0.00160464
0.00176065
0.00193792
0.00206626
0.00212647
0.0021223
0.00208353
0.00203657
0.00199588
0.00195673
0.0019075
0.00183092
0.00171964
0.00157399
0.00139283
0.00119717
0.0010381
0.00129174
0.00139721
0.00148434
0.00153978
0.00156546
0.00156702
0.00155316
0.00153352
0.00151352
0.00150693
0.00151928
0.0015622
0.00165098
0.00180743
0.00202213
0.00224993
0.00240225
0.00245957
0.00244215
0.00238825
0.00232762
0.00227487
0.00222319
0.0021648
0.00208247
0.00196723
0.00181735
0.00163094
0.00142351
0.00124263
0.00123954
0.00130547
0.00137653
0.00143405
0.00147234
0.00149149
0.00149648
0.00149504
0.00149514
0.00151166
0.00155207
0.00162934
0.00176295
0.0019805
0.00226012
0.00253752
0.00270892
0.00275767
0.00272509
0.00265698
0.00258449
0.00252079
0.00245847
0.00239188
0.00230554
0.00218955
0.00204034
0.00185588
0.00164563
0.00144708
0.00121553
0.0012373
0.00128282
0.00133317
0.00137586
0.00140636
0.0014258
0.00143949
0.0014553
0.00148569
0.00154659
0.00165822
0.00184231
0.00213138
0.00247979
0.00280363
0.00298822
0.00302433
0.00297632
0.00289578
0.00281389
0.00273933
0.00266813
0.00259434
0.00250501
0.00239009
0.00224491
0.00206578
0.00185522
0.00164743
0.00123464
0.00121429
0.00122908
0.00126266
0.00130119
0.00133481
0.00136189
0.00138565
0.00141275
0.0014544
0.00152785
0.0016631
0.00190334
0.00226895
0.00268751
0.00305033
0.0032416
0.00326306
0.0032007
0.00311026
0.00302124
0.00293653
0.00285692
0.00277733
0.0026856
0.00257241
0.00243347
0.00225871
0.00205194
0.00184134
0.00131635
0.00126444
0.00124234
0.00125114
0.00127631
0.0013022
0.00132794
0.00135311
0.00138392
0.00143183
0.0015146
0.00166484
0.00195638
0.00240162
0.00288515
0.00327858
0.00346994
0.00347741
0.00340294
0.00330554
0.00321127
0.00311774
0.00303091
0.00294583
0.00285183
0.00274093
0.00260531
0.00243657
0.00223645
0.00202819
0.00146667
0.00139926
0.00135154
0.00132886
0.00132432
0.00133541
0.00134817
0.00136252
0.00138699
0.00143289
0.00151938
0.00168581
0.00202019
0.00253562
0.00307601
0.00348885
0.0036745
0.00367064
0.00358733
0.00348634
0.00338764
0.00328787
0.00319438
0.00310427
0.00300774
0.00289836
0.00276413
0.00260186
0.0024107
0.0022095
0.00170292
0.00162914
0.00156471
0.00151718
0.00148202
0.00145937
0.00144308
0.00143389
0.00143938
0.00147297
0.00155702
0.00174016
0.0020997
0.00267621
0.00326251
0.00368105
0.00385706
0.00384546
0.00375752
0.00365626
0.00355398
0.00344955
0.00335103
0.00325645
0.00315695
0.00304623
0.00291477
0.0027584
0.00257607
0.00238552
0.00200795
0.00194163
0.00187412
0.00180966
0.00174565
0.00168437
0.00162825
0.00158355
0.00155823
0.00156475
0.00162994
0.00181357
0.00219472
0.00282731
0.00344
0.00385446
0.00401919
0.00400433
0.0039163
0.00381771
0.00371367
0.0036058
0.00350414
0.00340567
0.0033028
0.00319058
0.00306084
0.00290929
0.00273524
0.00255745
0.00236392
0.00231403
0.00225357
0.00217902
0.00209086
0.00199423
0.00189667
0.00181064
0.00174643
0.00172056
0.00176258
0.00195131
0.00235881
0.00300495
0.00361036
0.0040081
0.00416188
0.0041488
0.0040652
0.00397227
0.00386878
0.00375996
0.00365591
0.00355392
0.0034491
0.0033348
0.00320569
0.00305776
0.00289195
0.00272739
0.00275146
0.00272028
0.00266549
0.00258395
0.00247921
0.00235582
0.00222334
0.00209892
0.00199577
0.00193562
0.00195098
0.00213393
0.00255173
0.00318259
0.00376566
0.00413926
0.00428478
0.00427871
0.00420406
0.00411996
0.00401901
0.00391231
0.00380657
0.00370293
0.00359791
0.00348181
0.00335254
0.00320794
0.0030501
0.0028972
0.00314952
0.00312823
0.00307554
0.00298979
0.00287448
0.00273376
0.00257606
0.00242128
0.00228428
0.00219225
0.00218234
0.00234818
0.00275885
0.0033529
0.00389691
0.00424328
0.0043852
0.0043913
0.0043303
0.00425847
0.00416213
0.00406149
0.0039576
0.00385482
0.00375043
0.00363597
0.00350643
0.00336409
0.00321168
0.00306854
0.00353659
0.00351616
0.00346282
0.00337323
0.00325064
0.00309856
0.00292462
0.00274788
0.00258414
0.00246522
0.00243304
0.00256786
0.00295757
0.00349678
0.0039918
0.00431232
0.00445668
0.00447988
0.00443818
0.00438142
0.00429322
0.00419863
0.00410182
0.00400455
0.00390385
0.0037931
0.0036681
0.00352782
0.00337849
0.00324244
0.00389404
0.00386948
0.00381186
0.00371731
0.00358867
0.00342877
0.00324423
0.00305124
0.00286729
0.00272548
0.00267151
0.0027662
0.00311604
0.00359107
0.00403425
0.00433405
0.00448764
0.00453268
0.00451636
0.00447732
0.00440312
0.00431601
0.00422357
0.00413051
0.00403673
0.00393626
0.00382066
0.00368871
0.00354739
0.00341662
0.00420926
0.00417562
0.00411041
0.00400934
0.00387462
0.00370821
0.00351557
0.00330948
0.00310857
0.00294503
0.00286501
0.00291515
0.00320578
0.00361366
0.00400568
0.00429129
0.00446039
0.00453202
0.00454324
0.0045271
0.00447316
0.00440037
0.00431853
0.00423318
0.00414566
0.00405315
0.00394716
0.0038292
0.00370195
0.0035801
0.00446605
0.00442126
0.00434665
0.00423825
0.00409734
0.00392462
0.00372403
0.00350593
0.00328857
0.00310223
0.0029911
0.00299372
0.00320718
0.00355175
0.00389106
0.00416591
0.00435373
0.00444921
0.00449076
0.00450134
0.00447498
0.00442511
0.00436183
0.00429139
0.00421638
0.0041351
0.00404206
0.00393697
0.00382519
0.0037199
0.00465046
0.00459211
0.00450803
0.00439263
0.00424595
0.00406718
0.00385865
0.00362905
0.00339574
0.0031871
0.00304405
0.00299992
0.00313153
0.00340761
0.00369369
0.00395244
0.00414705
0.00426235
0.00433295
0.0043755
0.00438205
0.00436308
0.00432718
0.00428066
0.00422663
0.00416412
0.00408909
0.00400173
0.00390996
0.00382501
0.00474557
0.00467402
0.00458178
0.00446138
0.00431096
0.00412806
0.00391381
0.00367637
0.00343231
0.00320888
0.00304228
0.0029604
0.00302133
0.00321852
0.00345359
0.00368071
0.00385769
0.00398337
0.0040763
0.00414636
0.00418416
0.00419783
0.00419399
0.00417795
0.00415247
0.00411672
0.00406807
0.00400318
0.00393545
0.00387439
0.00473508
0.00465431
0.00455816
0.00443788
0.00428916
0.00410816
0.00389588
0.00366174
0.00342114
0.00320088
0.00302956
0.00292738
0.00293948
0.00306126
0.003241
0.00341627
0.00355719
0.00367023
0.0037695
0.00384746
0.00390299
0.00393994
0.00396258
0.00397484
0.00397859
0.00397257
0.0039539
0.00392058
0.0038775
0.00383675
0.00461223
0.00452978
0.00443864
0.00432948
0.00419338
0.00402675
0.00383141
0.00361817
0.00340408
0.00321076
0.00305671
0.00296016
0.00294465
0.00300761
0.0031252
0.00323912
0.00333088
0.00341528
0.00349047
0.00355365
0.00360411
0.00364351
0.00367438
0.00369949
0.00372
0.00373419
0.00373873
0.00373152
0.00371416
0.00368978
0.00439703
0.00432335
0.00425047
0.00416467
0.00405673
0.00392319
0.00376616
0.00359665
0.0034294
0.0032796
0.00315942
0.0030795
0.00305121
0.00307303
0.00313456
0.00318959
0.0032351
0.00327656
0.00331435
0.00334704
0.00337366
0.00339523
0.00341307
0.00342932
0.00344478
0.00345773
0.00346492
0.0034646
0.00345718
0.00344396
0.00414598
0.00409483
0.0040529
0.00400776
0.00394575
0.00385877
0.00375011
0.00363094