/*--------------------------------*- C++ -*----------------------------------*\
  =========                 |
  \\      /  F ield         | OpenFOAM: The Open Source CFD Toolbox
   \\    /   O peration     | Website:  https://openfoam.org
    \\  /    A nd           | Version:  12
     \\/     M anipulation  |
\*---------------------------------------------------------------------------*/
FoamFile
{
    format      ascii;
    class       volScalarField;
    location    "1200/air";
    object      p_rgh;
}
// * * * * * * * * * * * * * * * * * * * * * * * * * * * * * * * * * * * * * //

dimensions      [1 -1 -2 0 0 0 0];

internalField   nonuniform List<scalar> 
243000
(
29.5696
29.5812
29.5959
29.5572
29.5086
29.4585
29.4093
29.3657
29.3296
29.3061
29.2973
29.3049
29.3243
29.3601
29.4066
29.4781
29.5596
29.6545
29.7509
29.8475
29.9349
30.0116
30.0756
30.1268
30.169
30.1998
30.2318
30.247
30.3052
30.2923
29.5725
29.5677
29.5847
29.5502
29.509
29.4606
29.4125
29.3695
29.3337
29.3108
29.3038
29.3124
29.3322
29.3694
29.4182
29.4881
29.5662
29.6617
29.7587
29.8555
29.9432
30.02
30.0838
30.1346
30.1764
30.2064
30.2384
30.2526
30.3116
30.281
29.5768
29.543
29.5575
29.5194
29.4808
29.4361
29.3918
29.3526
29.3198
29.2999
29.2956
29.3059
29.3263
29.3631
29.4099
29.4783
29.5582
29.6557
29.7585
29.857
29.9454
30.0229
30.0872
30.1383
30.1804
30.21
30.2418
30.2513
30.3097
30.2696
29.5756
29.5301
29.5343
29.4923
29.4546
29.412
29.3701
29.3333
29.3024
29.2842
29.2813
29.2924
29.3128
29.349
29.3957
29.4635
29.5421
29.6386
29.7401
29.8387
29.9275
30.007
30.0741
30.1285
30.1745
30.2071
30.2416
30.247
30.3044
30.2587
29.5689
29.5285
29.5221
29.4787
29.4386
29.3958
29.3548
29.3188
29.288
29.2698
29.2665
29.2767
29.2959
29.3304
29.375
29.4409
29.5171
29.6118
29.7117
29.8101
29.8992
29.9797
30.049
30.1064
30.1563
30.1919
30.231
30.2345
30.2947
30.2472
29.5439
29.5094
29.516
29.4788
29.435
29.3899
29.3469
29.309
29.2779
29.2587
29.2541
29.2626
29.2795
29.311
29.352
29.4147
29.4875
29.5794
29.677
29.7746
29.8634
29.9448
30.0163
30.0771
30.1312
30.1707
30.2143
30.2166
30.2808
30.2347
29.5036
29.4652
29.4869
29.4658
29.4342
29.3896
29.3443
29.3031
29.2692
29.2491
29.2433
29.2499
29.264
29.2918
29.328
29.3857
29.4535
29.5414
29.6358
29.7313
29.8192
29.9015
29.9754
30.0398
30.0986
30.1424
30.1911
30.1944
30.262
30.2186
29.4528
29.4081
29.4326
29.4254
29.4073
29.3734
29.334
29.2934
29.26
29.2396
29.2328
29.2375
29.2489
29.2732
29.3043
29.3554
29.416
29.4986
29.5885
29.6808
29.7674
29.8502
29.9267
29.9949
30.0586
30.1074
30.1617
30.168
30.238
30.198
29.394
29.3422
29.3693
29.3697
29.3587
29.3359
29.3069
29.2742
29.2455
29.2275
29.2204
29.2241
29.2335
29.2544
29.2806
29.3252
29.3769
29.4518
29.5358
29.6239
29.7086
29.792
29.871
29.9432
30.0121
30.066
30.1262
30.1371
30.2091
30.1727
29.33
29.2715
29.3
29.3064
29.3027
29.2872
29.2661
29.2424
29.2207
29.2076
29.2038
29.2078
29.2164
29.2347
29.2564
29.2944
29.3373
29.4023
29.4788
29.5617
29.6439
29.7275
29.8091
29.8854
29.9597
30.0191
30.0851
30.1022
30.1763
30.1443
29.2633
29.1986
29.2278
29.239
29.241
29.2333
29.2196
29.2031
29.1882
29.1794
29.1796
29.1864
29.1957
29.2132
29.231
29.2628
29.2969
29.3512
29.4182
29.4953
29.5743
29.6579
29.742
29.8225
29.9022
29.9674
30.0391
30.0637
30.1401
30.114
29.1945
29.1249
29.1539
29.1691
29.1759
29.1748
29.1685
29.1592
29.1508
29.1466
29.1489
29.1588
29.1702
29.1882
29.2035
29.2301
29.2553
29.2993
29.3552
29.4256
29.5009
29.5842
29.6706
29.7553
29.8404
29.9116
29.989
30.0221
30.1011
30.0819
29.125
29.0517
29.0796
29.0978
29.109
29.1136
29.1137
29.1116
29.109
29.1102
29.1148
29.1262
29.1399
29.1586
29.1731
29.1953
29.2126
29.2465
29.2909
29.3536
29.4248
29.5073
29.5958
29.6847
29.7751
29.8523
29.9354
29.9775
30.0596
30.0484
29.0562
28.9811
29.0075
29.0275
29.0421
29.0519
29.0572
29.0612
29.0645
29.0703
29.0777
29.0905
29.1051
29.1247
29.1387
29.1578
29.1683
29.1924
29.2262
29.2802
29.3469
29.4281
29.5184
29.6114
29.7069
29.7902
29.8789
29.9304
30.0158
30.0135
28.9878
28.9126
28.9374
28.9589
28.9761
28.9902
29.0003
29.009
29.0172
29.0272
29.0379
29.0521
29.067
29.0869
29.0999
29.1171
29.1219
29.1373
29.1616
29.2063
29.2681
29.3478
29.4393
29.536
29.6365
29.7259
29.82
29.8808
29.9691
29.9783
28.9182
28.8459
28.8691
28.8916
28.9107
28.928
28.9424
28.9551
28.9673
28.9809
28.995
29.011
29.0261
29.0456
29.0572
29.0726
29.073
29.0813
29.097
29.1326
29.1891
29.2665
29.3591
29.459
29.5642
29.6596
29.7592
29.8288
29.92
29.9424
28.8457
28.7797
28.802
28.8254
28.846
28.8657
28.8835
28.8995
28.9148
28.9312
28.9478
28.966
28.9819
29.0007
29.0107
29.024
29.0214
29.0241
29.0323
29.0596
29.1101
29.1852
29.2785
29.3812
29.4903
29.5917
29.6965
29.7749
29.869
29.9056
28.7698
28.7123
28.7344
28.7592
28.7815
28.8034
28.8239
28.8427
28.8606
28.8793
28.8977
28.9174
28.934
28.9524
28.9605
28.9717
28.9667
28.9653
28.9671
28.9873
29.032
29.1048
29.1979
29.3026
29.4152
29.5222
29.6321
29.7193
29.8158
29.8668
28.6898
28.6429
28.6649
28.6912
28.7154
28.7395
28.7625
28.7838
28.8038
28.8248
28.8447
28.8653
28.8821
28.8999
28.9063
28.9155
28.9088
28.9042
28.9012
28.9162
28.9555
29.0252
29.1175
29.2232
29.3387
29.4511
29.5658
29.6613
29.7601
29.8247
28.6028
28.5691
28.5916
28.6201
28.6465
28.673
28.6986
28.7222
28.7447
28.768
28.7889
28.8101
28.8268
28.8433
28.8478
28.8554
28.8475
28.8409
28.835
28.8458
28.8805
28.9466
29.0374
29.1433
29.261
29.3782
29.4969
29.6002
29.7018
29.7787
28.5059
28.4865
28.5102
28.5415
28.5713
28.6012
28.6294
28.6565
28.683
28.7084
28.7303
28.752
28.7679
28.7829
28.7858
28.7917
28.7831
28.7757
28.7681
28.7756
28.8068
28.8693
28.9576
29.0632
29.1821
29.3031
29.4249
29.5348
29.6405
29.7279
28.3939
28.389
28.4151
28.4507
28.4844
28.5179
28.5519
28.5849
28.6154
28.6429
28.6662
28.6886
28.7038
28.7179
28.7195
28.7243
28.7153
28.7079
28.7001
28.7055
28.7336
28.7926
28.8778
28.9823
29.1017
29.2247
29.3489
29.4646
29.5743
29.6708
28.2614
28.2693
28.2996
28.3405
28.3821
28.4243
28.4663
28.5049
28.5388
28.5692
28.5947
28.6183
28.6335
28.6473
28.648
28.6526
28.6431
28.6366
28.6298
28.6345
28.6603
28.7161
28.7985
28.9017
29.0199
29.1433
29.2688
29.3885
29.5017
29.6058
28.0946
28.1139
28.1542
28.208
28.2626
28.316
28.3652
28.4098
28.4492
28.4842
28.5132
28.5393
28.5559
28.5705
28.5716
28.5767
28.5675
28.5621
28.5562
28.5615
28.5871
28.6408
28.7209
28.8221
28.9374
29.0592
29.1836
29.3051
29.4204
29.5301
27.9007
27.9374
27.9932
28.061
28.1268
28.1896
28.2476
28.3003
28.347
28.388
28.4219
28.4516
28.4711
28.4878
28.4908
28.4979
28.4913
28.4884
28.4841
28.4914
28.518
28.5707
28.6478
28.7446
28.8554
28.9737
29.0952
29.2158
29.3312
29.4445
27.6478
27.7015
27.7774
27.8658
27.9526
28.0347
28.1092
28.176
28.2343
28.2845
28.3259
28.3617
28.3862
28.407
28.4129
28.423
28.4203
28.421
28.4197
28.4296
28.4563
28.5074
28.5793
28.6689
28.7723
28.884
28.9993
29.1151
29.2254
29.3361
27.3963
27.4775
27.5799
27.6922
27.8013
27.9012
27.9901
28.0691
28.1369
28.1947
28.242
28.2833
28.3131
28.339
28.3492
28.3634
28.3655
28.3713
28.3745
28.3874
28.4138
28.4622
28.5297
28.6135
28.7094
28.8135
28.9221
29.033
29.1381
29.2468
26.9205
27.0645
27.2346
27.41
27.5737
27.7152
27.8354
27.9398
28.0279
28.1011
28.1606
28.212
28.2497
28.2821
28.2965
28.3136
28.3182
28.326
28.3305
28.3427
28.3653
28.4062
28.4639
28.5353
28.617
28.705
28.7957
28.889
28.9736
29.0674
26.9141
27.1058
27.3056
27.4959
27.6651
27.8041
27.9157
28.0094
28.088
28.1543
28.2089
28.2575
28.2937
28.3247
28.3386
28.3576
28.3672
28.3832
28.3977
28.4222
28.4566
28.5083
28.5758
28.6559
28.7468
28.844
28.9423
29.0436
29.1338
29.2398
25.5782
25.8823
26.2349
26.5795
26.877
27.112
27.2934
27.4388
27.5564
27.6548
27.7334
27.8021
27.8514
27.8918
27.9079
27.9242
27.9266
27.9304
27.9287
27.932
27.9425
27.9639
27.9933
28.0285
28.0673
28.106
28.1412
28.1753
28.204
28.2645
29.3429
29.3275
29.3297
29.2923
29.2644
29.2406
29.2202
29.2031
29.1906
29.1857
29.1887
29.2041
29.2239
29.2563
29.2888
29.3366
29.3893
29.4591
29.5324
29.615
29.7014
29.7912
29.8786
29.9607
30.038
30.1034
30.1672
30.2004
30.2638
30.2464
29.3402
29.3187
29.3214
29.2918
29.2669
29.2445
29.2247
29.2082
29.1964
29.1922
29.1957
29.2112
29.2309
29.2629
29.2956
29.3438
29.3956
29.4653
29.5394
29.6229
29.7101
29.8008
29.8887
29.9707
30.0478
30.1123
30.1755
30.2058
30.2699
30.233
29.342
29.3121
29.3135
29.2858
29.2641
29.244
29.225
29.2086
29.1967
29.1926
29.1961
29.2109
29.2302
29.2619
29.2934
29.3406
29.3906
29.4593
29.5329
29.6154
29.7015
29.7927
29.8818
29.9654
30.0442
30.1091
30.1742
30.2002
30.2702
30.2236
29.3391
29.3078
29.3078
29.2827
29.2636
29.2445
29.2259
29.2095
29.1972
29.193
29.1959
29.2102
29.2288
29.2599
29.2896
29.3351
29.382
29.4479
29.5183
29.5974
29.6805
29.7703
29.8607
29.947
30.0293
30.0965
30.1654
30.1876
30.2626
30.2128
29.3164
29.2981
29.3025
29.2825
29.2647
29.2462
29.2275
29.2106
29.1977
29.1927
29.195
29.2084
29.2257
29.255
29.2819
29.3245
29.367
29.4285
29.4944
29.5695
29.6493
29.7375
29.8279
29.9155
30.0004
30.0709
30.1443
30.1669
30.249
30.1994
29.2771
29.2654
29.2849
29.2749
29.2648
29.2479
29.2295
29.2121
29.1984
29.1925
29.1938
29.2059
29.2214
29.2484
29.2719
29.3104
29.3471
29.403
29.4632
29.5331
29.6093
29.6961
29.787
29.8764
29.9645
30.0379
30.1167
30.1401
30.2301
30.1821
29.2346
29.2178
29.2453
29.2489
29.2502
29.2404
29.2264
29.2119
29.1985
29.1919
29.1923
29.2027
29.216
29.2407
29.2601
29.2936
29.3235
29.3723
29.4254
29.4896
29.562
29.6476
29.7394
29.831
29.9227
29.9995
30.0838
30.1093
30.2061
30.161
29.1918
29.1705
29.2
29.2088
29.2177
29.2178
29.2118
29.2024
29.1925
29.1882
29.1893
29.1989
29.2098
29.2317
29.2469
29.2749
29.2971
29.3375
29.3825
29.4403
29.5087
29.5933
29.6861
29.7804
29.876
29.9566
30.0462
30.0754
30.1777
30.1365
29.15
29.1245
29.1572
29.1698
29.1811
29.1848
29.1848
29.1819
29.1779
29.178
29.1815
29.1924
29.2022
29.2214
29.2318
29.2543
29.2683
29.2995
29.3354
29.3863
29.4506
29.5342
29.6283
29.7254
29.8252
29.9099
30.0047
30.039
30.1453
30.1091
29.1105
29.0791
29.1147
29.1316
29.146
29.1524
29.1541
29.1544
29.1553
29.1601
29.167
29.1805
29.1916
29.2092
29.215
29.2316
29.2373
29.2589
29.2853
29.3289
29.3889
29.4715
29.5671
29.6672
29.7712
29.8602
29.96
30.0003
30.1097
30.0791
29.0724
29.0313
29.0678
29.0881
29.1068
29.118
29.1233
29.126
29.1287
29.1366
29.1467
29.1629
29.1762
29.1939
29.1955
29.2066
29.2042
29.2163
29.2331
29.2691
29.3247
29.4063
29.5033
29.6064
29.7147
29.8083
29.9129
29.96
30.0714
30.0475
29.0347
28.98
29.0161
29.0388
29.0608
29.0767
29.0876
29.0954
29.1009
29.1104
29.1225
29.1406
29.1556
29.1744
29.1726
29.1787
29.1689
29.1722
29.1795
29.2079
29.2589
29.3394
29.4378
29.5441
29.6566
29.7548
29.8639
29.9186
30.0313
30.0153
28.9958
28.9282
28.9642
28.988
29.0119
29.031
29.0461
29.0589
29.0697
29.0825
29.0956
29.1153
29.1306
29.1504
29.1457
29.1474
29.1309
29.1266
29.125
29.1461
29.1925
29.2718
29.3715
29.4808
29.5974
29.7003
29.8135
29.8767
29.9898
29.9825
28.9542
28.8755
28.9123
28.9373
28.9622
28.9842
29.0029
29.0187
29.0336
29.0511
29.0668
29.0872
29.1025
29.1223
29.1147
29.1124
29.0901
29.0794
29.0704
29.0845
29.1264
29.2044
29.305
29.4172
29.5378
29.6454
29.762
29.8343
29.9467
29.9496
28.9107
28.822
28.8589
28.8855
28.9122
28.9364
28.9586
28.9779
28.9956
29.0159
29.0358
29.0572
29.0721
29.0907
29.0798
29.0739
29.0465
29.0308
29.0158
29.0236
29.0613
29.1374
29.2391
29.354
29.4783
29.5905
29.71
29.79
29.9014
29.9175
28.8649
28.7711
28.808
28.8345
28.8628
28.8889
28.9138
28.9365
28.9573
28.9796
29.0012
29.0257
29.0398
29.0565
29.0419
29.0322
29.0004
28.981
28.9616
28.9634
28.9973
29.0718
29.1748
29.2921
29.4191
29.5361
29.6569
29.7444
29.8552
29.8863
28.8161
28.7219
28.7589
28.7859
28.8148
28.843
28.8699
28.8955
28.9193
28.944
28.9659
28.9921
29.0058
29.0205
29.0017
28.9884
28.9523
28.9307
28.9071
28.9041
28.9358
29.0098
29.1127
29.2319
29.3604
29.4815
29.6035
29.699
29.809
29.8566
28.7623
28.6728
28.7104
28.7388
28.7687
28.7987
28.8278
28.8561
28.8823
28.9092
28.9321
28.9579
28.971
28.9834
28.9604
28.9431
28.9032
28.8786
28.8524
28.8488
28.8785
28.9508
29.053
29.1738
29.3031
29.427
29.5513
29.6538
29.763
29.827
28.6996
28.6207
28.6606
28.6917
28.7235
28.756
28.7876
28.8187
28.8473
28.8762
28.9
28.9251
28.9365
28.9462
28.919
28.8976
28.8535
28.826
28.8016
28.7978
28.8244
28.8947
28.9962
29.1171
29.2478
29.3741
29.5012
29.6105
29.7191
29.7949
28.6271
28.5628
28.6055
28.6407
28.6758
28.7117
28.7469
28.7814
28.8127
28.844
28.8688
28.8936
28.9027
28.9099
28.8785
28.8528
28.8047
28.7779
28.7547
28.749
28.7739
28.8427
28.9431
29.0629
29.1961
29.3253
29.4547
29.5682
29.6755
29.7605
28.5441
28.4989
28.5447
28.5844
28.6237
28.6639
28.7029
28.7412
28.7764
28.811
28.8373
28.8621
28.8696
28.8748
28.84
28.8118
28.7606
28.734
28.7095
28.7039
28.7288
28.7965
28.8963
29.0142
29.1477
29.279
29.4084
29.524
29.6309
29.7235
28.4482
28.4258
28.476
28.5218
28.5669
28.6134
28.6578
28.7007
28.7398
28.7776
28.8062
28.8316
28.8385
28.8423
28.8054
28.7775
28.7254
28.6955
28.6697
28.6656
28.6917
28.7581
28.8548
28.9699
29.0994
29.2301
29.3585
29.477
29.5849
29.6841
28.3382
28.3404
28.3967
28.4507
28.5049
28.5598
28.6124
28.6619
28.7044
28.7448
28.776
28.8031
28.8104
28.814
28.7765
28.7482
28.6972
28.6672
28.6413
28.6379
28.663
28.7255
28.8138
28.9245
29.049
29.1795
29.308
29.4283
29.5369
29.6424
28.2108
28.2362
28.302
28.3662
28.4303
28.4936
28.5556
28.6154
28.6666
28.7129
28.7477
28.7777
28.7866
28.7914
28.7557
28.7261
28.6727
28.6442
28.6192
28.6168
28.6384
28.6934
28.7747
28.8804
29.0013
29.13
29.2586
29.3802
29.4887
29.598
28.0649
28.1171
28.1951
28.2724
28.3491
28.4241
28.497
28.5666
28.6275
28.6822
28.7223
28.7565
28.7678
28.7749
28.7428
28.7148
28.6583
28.6282
28.6024
28.6009
28.6204
28.6698
28.7487
28.8485
28.9652
29.089
29.2133
29.3348
29.4425
29.5543
27.8996
27.9833
28.0772
28.1703
28.2645
28.3579
28.4468
28.5273
28.5946
28.6547
28.699
28.7373
28.751
28.7606
28.7318
28.7087
28.6559
28.6273
28.6019
28.6036
28.6243
28.6741
28.7515
28.8464
28.9535
29.0662
29.1785
29.2937
29.3984
29.5121
27.7377
27.8585
27.9689
28.0801
28.1932
28.304
28.4072
28.4979
28.5715
28.637
28.6853
28.7274
28.7435
28.7558
28.7299
28.7117
28.6654
28.6427
28.6217
28.6288
28.6523
28.7001
28.7714
28.8629
28.9657
29.0731
29.1794
29.2844
29.3807
29.4875
27.5639
27.7188
27.8524
27.994
28.138
28.2749
28.3957
28.4992
28.5908
28.6641
28.7172
28.7633
28.7813
28.7966
28.7749
28.7615
28.7164
28.6957
28.6757
28.6828
28.7055
28.7508
28.817
28.9009
28.994
29.0925
29.1891
29.2832
29.3614
29.4561
27.6267
27.8118
27.9696
28.1393
28.3061
28.461
28.5936
28.7052
28.8007
28.8797
28.9369
28.9847
29.0031
29.0198
28.9996
28.9856
28.9374
28.9159
28.8936
28.8978
28.9162
28.9564
29.0161
29.0928
29.1791
29.2708
29.361
29.4481
29.5187
29.6011
28.3723
28.5281
28.6524
28.8007
28.9533
29.0944
29.2096
29.3017
29.3747
29.4328
29.4706
29.5016
29.5057
29.5115
29.4852
29.4688
29.4215
29.4063
29.3922
29.4062
29.4367
29.4903
29.5637
29.6548
29.7566
29.8612
29.9611
30.0566
30.1352
30.2305
29.3763
29.2506
29.2264
29.159
29.1199
29.1002
29.0891
29.0841
29.0841
29.0962
29.1151
29.1467
29.1754
29.2152
29.2393
29.2774
29.2974
29.3316
29.3592
29.4043
29.4684
29.5553
29.6579
29.7693
29.8845
29.9896
30.089
30.1444
30.2074
30.1912
29.3537
29.2219
29.2078
29.155
29.1232
29.1067
29.0984
29.0946
29.0954
29.1079
29.1269
29.1582
29.1864
29.2261
29.2499
29.2891
29.3103
29.3466
29.3756
29.4206
29.4831
29.5702
29.6727
29.7837
29.8982
30.0014
30.0992
30.1504
30.2137
30.1779
29.3245
29.2024
29.1915
29.1485
29.1234
29.1087
29.1022
29.0996
29.1014
29.1145
29.1336
29.1647
29.1922
29.2314
29.2542
29.2934
29.3133
29.3491
29.3769
29.4209
29.4823
29.5699
29.6731
29.7844
29.8991
30.0018
30.0997
30.1476
30.2171
30.1736
29.2884
29.1796
29.1709
29.1354
29.1193
29.1095
29.1051
29.1042
29.1073
29.1211
29.1401
29.1709
29.1974
29.2361
29.257
29.2957
29.3136
29.3467
29.3702
29.4096
29.4662
29.5529
29.6582
29.7719
29.8884
29.9908
30.0909
30.1359
30.2132
30.1657
29.2459
29.155
29.1505
29.123
29.1139
29.1088
29.1063
29.1069
29.1112
29.1255
29.1442
29.1747
29.1993
29.2373
29.2556
29.2925
29.3059
29.3349
29.3526
29.3865
29.4379
29.5209
29.6243
29.7403
29.8611
29.9658
30.0705
30.1143
30.2014
30.1541
29.1983
29.1253
29.1269
29.1091
29.1071
29.1063
29.1065
29.1088
29.1141
29.1285
29.1457
29.1759
29.1988
29.2363
29.2508
29.2849
29.2922
29.3152
29.326
29.3538
29.4001
29.4801
29.5822
29.6982
29.8216
29.9303
30.0396
30.0856
30.1832
30.138
29.1534
29.0966
29.1028
29.0938
29.0976
29.1007
29.1036
29.1079
29.1138
29.1285
29.1454
29.1756
29.1973
29.2337
29.2434
29.2737
29.2732
29.2888
29.2918
29.3131
29.3543
29.4319
29.5335
29.6501
29.7754
29.8877
30.0018
30.052
30.1591
30.1176
29.1146
29.0695
29.0794
29.0767
29.0847
29.0913
29.0974
29.1042
29.1118
29.1268
29.1437
29.1743
29.1948
29.2296
29.2334
29.259
29.2497
29.2565
29.2513
29.266
29.3021
29.3778
29.4795
29.5973
29.7249
29.8397
29.9596
30.015
30.1294
30.0933
29.0781
29.0416
29.0552
29.0579
29.0689
29.0782
29.0872
29.097
29.1073
29.1236
29.1405
29.1716
29.1908
29.2241
29.2212
29.2413
29.2218
29.2195
29.2058
29.2138
29.2448
29.3189
29.4214
29.541
29.6712
29.7888
29.914
29.9754
30.0952
30.0656
29.0424
29.0113
29.0296
29.0373
29.0521
29.0638
29.0749
29.0869
29.0998
29.1182
29.1359
29.1672
29.1848
29.2168
29.2067
29.2207
29.1901
29.1786
29.1563
29.1576
29.1836
29.2566
29.3603
29.4821
29.6154
29.7358
29.8656
29.934
30.0574
30.0354
29.0085
28.9775
29.0006
29.0135
29.0326
29.0481
29.0615
29.0757
29.0902
29.1107
29.1293
29.161
29.1766
29.2074
29.1899
29.1975
29.1549
29.1345
29.1035
29.0987
29.1198
29.1919
29.2973
29.4218
29.5582
29.6815
29.815
29.8914
30.0168
30.0037
28.975
28.9406
28.9686
28.9864
29.0096
29.029
29.0457
29.0627
29.0793
29.1015
29.1209
29.1529
29.1663
29.1954
29.1705
29.1717
29.1168
29.0878
29.0481
29.0379
29.0543
29.1259
29.2333
29.3608
29.5005
29.6267
29.7626
29.8477
29.9742
29.9717
28.9412
28.9022
28.9355
28.9569
28.9834
29.0064
29.0265
29.0465
29.066
29.0903
29.1108
29.1428
29.154
29.1806
29.1482
29.1434
29.0763
29.0391
28.9912
28.9761
28.9881
29.0595
29.1693
29.3002
29.443
29.5724
29.7091
29.8028
29.9298
29.9422
28.9081
28.862
28.8995
28.9238
28.9533
28.9799
29.0041
29.0274
29.0498
29.0767
29.0985
29.1307
29.1393
29.1632
29.1229
29.1127
29.034
28.989
28.9334
28.9141
28.9223
28.9937
29.106
29.2406
29.3863
29.5191
29.6553
29.7589
29.8847
29.9135
28.874
28.8194
28.8605
28.887
28.9191
28.9494
28.9779
29.0054
29.031
29.0605
29.0836
29.1165
29.1222
29.1431
29.0949
29.08
28.9903
28.9381
28.8756
28.8525
28.8576
28.9292
29.0445
29.1829
29.3307
29.4669
29.6052
29.7163
29.8384
29.885
28.836
28.7752
28.8195
28.8481
28.8823
28.916
28.9486
28.9807
29.0097
29.0423
29.0662
29.0998
29.1024
29.1206
29.0644
29.0456
28.946
28.8873
28.8183
28.7922
28.7948
28.8674
28.9852
29.1262
29.2759
29.4178
29.5588
29.6737
29.7922
29.8579
28.7931
28.7306
28.7775
28.8088
28.8455
28.8816
28.9179
28.9541
28.9868
29.0223
29.0472
29.0807
29.0801
29.096
29.0321
29.0104
28.9015
28.8376
28.7622
28.7342
28.7351
28.8083
28.9281
29.0708
29.2239
29.3721
29.514
29.6332
29.7509
29.8303
28.7445
28.6849
28.7347
28.7695
28.809
28.8477
28.8873
28.9272
28.9632
29.0015
29.0273
29.0604
29.0561
29.0699
28.999
28.9753
28.8582
28.7896
28.7086
28.6792
28.6787
28.752
28.8723
29.0182
29.1756
29.3286
29.4717
29.5957
29.7125
29.8029
28.6899
28.6376
28.6906
28.7296
28.7724
28.8146
28.8575
28.9013
28.9403
28.9813
29.0075
29.0405
29.0317
29.0439
28.9666
28.9419
28.8179
28.7449
28.6585
28.627
28.6259
28.6994
28.8196
28.968
29.1284
29.2855
29.4316
29.5597
29.6758
29.7747
28.6282
28.5884
28.6448
28.6888
28.7356
28.7819
28.8285
28.8766
28.919
28.963
28.9895
29.0221
29.0091
29.02
28.9372
28.9119
28.7815
28.7047
28.6123
28.5791
28.5778
28.6492
28.7693
28.9174
29.0804
29.2419
29.3919
29.5238
29.6397
29.7448
28.557
28.5351
28.5962
28.6461
28.698
28.7497
28.8011
28.854
28.9006
28.9476
28.9749
29.0075
28.9911
29.0008
28.9138
28.8885
28.752
28.6707
28.5712
28.5357
28.5309
28.6016
28.721
28.8688
29.0343
29.1987
29.3522
29.488
29.6037
29.7135
28.4766
28.476
28.5434
28.6004
28.6587
28.7173
28.7756
28.8343
28.8859
28.9361
28.9651
28.9982
28.9801
28.9891
28.899
28.8741
28.7315
28.6454
28.5381
28.4971
28.4906
28.561
28.6781
28.8266
28.9925
29.1576
29.3124
29.4516
29.5683
29.6815
28.3881
28.4082
28.4851
28.5511
28.6185
28.6859
28.7523
28.8177
28.874
28.9283
28.9605
28.9956
28.9772
28.987
28.8943
28.871
28.7237
28.6332
28.5179
28.4693
28.4653
28.5307
28.6437
28.792
28.9557
29.1197
29.274
29.4144
29.5325
29.6482
28.2874
28.3332
28.4221
28.5007
28.5792
28.6563
28.7309
28.8025
28.8641
28.9232
28.9591
28.999
28.9821
28.9939
28.9007
28.8804
28.7296
28.6334
28.513
28.4595
28.4543
28.5147
28.6232
28.7672
28.927
29.0879
29.2402
29.3797
29.4968
29.6156
28.1754
28.2543
28.3583
28.451
28.5418
28.6297
28.7117
28.7897
28.8572
28.921
28.9635
29.0077
28.9934
29.0095
28.9175
28.9027
28.7503
28.653
28.5268
28.4673
28.4577
28.517
28.6219
28.7593
28.9132
29.0689
29.2167
29.353
29.4673
29.5856
28.0562
28.177
28.2966
28.4054
28.51
28.6077
28.6977
28.7823
28.8554
28.9282
28.9766
29.0248
29.0134
29.0362
28.9469
28.9393
28.7856
28.6871
28.5545
28.4879
28.4735
28.5281
28.6308
28.7654
28.9163
29.0692
29.2116
29.3424
29.4506
29.5638
27.9514
28.1142
28.2492
28.3737
28.4903
28.5977
28.696
28.7937
28.8766
28.9536
29.0061
29.059
29.0506
29.0817
28.9963
28.9992
28.8474
28.7507
28.6143
28.5418
28.5204
28.5643
28.6544
28.7842
28.9318
29.0815
29.2211
29.3491
29.4541
29.5632
27.8825
28.074
28.2193
28.3562
28.4848
28.6085
28.7248
28.8307
28.9191
28.9998
29.0558
29.1129
29.1084
29.1484
29.0675
29.084
28.9341
28.84
28.6997
28.6199
28.5902
28.6268
28.7048
28.8223
28.9634
29.1115
29.2491
29.3745
29.4757
29.5813
27.8846
28.1045
28.2648
28.4152
28.5524
28.6815
28.8004
28.9062
28.9939
29.0738
29.1308
29.1913
29.1927
29.2434
29.1705
29.2089
29.064
28.9759
28.8323
28.7479
28.7101
28.7388
28.8075
28.9119
29.0403
29.1765
29.3061
29.4281
29.5292
29.6376
27.9997
28.1998
28.3585
28.5125
28.6528
28.7823
28.8976
28.999
29.083
29.16
29.2165
29.2794
29.289
29.3524
29.2924
29.3623
29.2324
29.1616
29.0257
28.9443
28.9013
28.9226
28.9825
29.0774
29.1992
29.3357
29.4703
29.5992
29.7074
29.8156
29.4125
29.1639
29.1111
28.9993
28.9291
28.9015
28.897
28.9093
28.9332
28.9707
29.0103
29.0613
29.0975
29.1428
29.1472
29.1618
29.1257
29.1041
29.0674
29.0704
29.1125
29.2095
29.3427
29.4987
29.6663
29.8293
29.9873
30.1012
30.1865
30.1956
29.3647
29.0974
29.0693
28.9758
28.9248
28.9047
28.9066
28.9223
28.9477
28.9856
29.0249
29.0751
29.1101
29.1549
29.1591
29.1753
29.1411
29.1233
29.0888
29.0901
29.1278
29.2243
29.3575
29.513
29.6797
29.8416
29.9982
30.1074
30.1944
30.1762
29.3055
29.0541
29.0338
28.9545
28.9169
28.9051
28.9125
28.9311
28.9581
28.9964
29.0355
29.085
29.1185
29.1623
29.1643
29.1795
29.1432
29.1241
29.0877
29.0842
29.1205
29.2215
29.3578
29.5139
29.6806
29.8408
29.9963
30.0972
30.1962
30.1671
29.2322
29.0059
28.9923
28.9269
28.9047
28.9031
28.9167
28.939
28.9678
29.0068
29.0456
29.0946
29.1262
29.1687
29.1676
29.181
29.1396
29.1175
29.0773
29.068
29.0975
29.1962
29.3381
29.4974
29.6647
29.8231
29.9784
30.0748
30.1856
30.1523
29.1538
28.9604
28.9514
28.9012
28.8928
28.8998
28.917
28.9436
28.9745
29.0148
29.0533
29.1017
29.1309
29.1717
29.1658
29.1756
29.1258
29.098
29.0519
29.0374
29.0611
29.156
29.2964
29.4617
29.6318
29.7908
29.9484
30.0424
30.1638
30.1311
29.0747
28.9181
28.9135
28.8787
28.8818
28.8956
28.9164
28.9463
28.9791
29.0206
29.0589
29.1072
29.133
29.1719
29.1599
29.1642
29.1036
29.0677
29.0143
28.9951
29.0139
29.1067
29.2458
29.4128
29.5866
29.7478
29.9084
30.0041
30.135
30.1061
28.9991
28.8779
28.8792
28.8596
28.872
28.8913
28.9158
28.9487
28.9829
29.0252
29.0629
29.1114
29.1327
29.1703
29.1503
29.1477
29.0739
29.028
28.9666
28.9429
28.9578
29.05
29.1891
29.3559
29.5335
29.6968
29.8607
29.9617
30.1
30.078
28.9304
28.8451
28.8508
28.8439
28.8633
28.8866
28.9146
28.9497
28.9857
29.0294
29.0664
29.1146
29.1315
29.1669
29.1375
29.1265
29.0371
28.98
28.9098
28.8823
28.8944
28.9874
29.1279
29.2954
29.4755
29.641
29.8079
29.9157
30.0598
30.0473
28.8738
28.8199
28.83
28.8326
28.8562
28.8825
28.9133
28.9501
28.9873
29.0323
29.069
29.117
29.1296
29.1618
29.1218
29.1008
28.9939
28.9242
28.8451
28.8149
28.8252
28.9203
29.0635
29.2326
29.4147
29.5825
29.7518
29.867
30.0155
30.0147
28.8299
28.7999
28.8135
28.8233
28.85
28.879
28.9121
28.9504
28.9888
29.0349
29.0705
29.1185
29.1269
29.155
29.1032
29.0711
28.9447
28.8614
28.7748
28.742
28.7518
28.8503
28.9974
29.169
29.3529
29.5231
29.6937
29.8162
29.9668
29.9814
28.7944
28.7807
28.7994
28.8151
28.8446
28.8762
28.9112
28.9511
28.9903
29.0373
29.0714
29.1184
29.1232
29.1467
29.0818
29.0377
28.8904
28.7941
28.7
28.665
28.6755
28.7787
28.9308
29.1057
29.2917
29.4644
29.6352
29.7652
29.9156
29.9488
28.7653
28.7629
28.7866
28.807
28.8391
28.8734
28.9103
28.9521
28.9919
29.0395
29.0717
29.1178
29.1184
29.1368
29.0579
29.0007
28.8314
28.7229
28.6213
28.585
28.5976
28.7069
28.865
29.0433
29.2329
29.408
29.5793
29.7163
29.8637
29.917
28.7416
28.7457
28.7736
28.7981
28.833
28.87
28.9089
28.9522
28.9929
29.0411
29.0715
29.1166
29.1116
29.1252
29.0314
28.9606
28.7684
28.6486
28.5397
28.5034
28.5196
28.6362
28.801
28.9835
29.1773
29.3559
29.5292
29.6706
29.8136
29.8876
28.7207
28.7252
28.7587
28.7872
28.8254
28.8654
28.9065
28.9514
28.9928
29.0417
29.0706
29.1148
29.103
29.1122
29.0028
28.9176
28.7027
28.5719
28.4568
28.4214
28.4429
28.5677
28.7387
28.9271
29.1263
29.3103
29.4847
29.6286
29.7687
29.8591
28.697
28.7005
28.741
28.7736
28.8156
28.859
28.9029
28.9497
28.9919
29.0413
29.0688
29.1119
29.0927
29.0976
28.9722
28.8727
28.6353
28.4943
28.3737
28.3404
28.3684
28.5021
28.6787
28.8761
29.0825
29.2711
29.4442
29.5913
29.7285
29.831
28.6705
28.673
28.7206
28.7575
28.8035
28.8506
28.8977
28.9469
28.9901
29.04
29.066
29.1076
29.0812
29.082
28.9403
28.8264
28.5662
28.4179
28.2918
28.2615
28.2972
28.4395
28.6216
28.833
29.0443
29.2354
29.4082
29.5573
29.6916
29.8039
28.6419
28.6434
28.6982
28.7397
28.79
28.841
28.8915
28.9431
28.9874
29.0379
29.0625
29.1024
29.069
29.0655
28.9078
28.7797
28.4976
28.3438
28.2127
28.1864
28.2305
28.3817
28.5749
28.793
29.007
29.2021
29.3754
29.5263
29.6593
29.7782
28.6101
28.6118
28.674
28.7209
28.7756
28.8307
28.8848
28.9391
28.9845
29.0357
29.0591
29.0974
29.0573
29.0489
28.8757
28.7341
28.4331
28.2739
28.1384
28.1167
28.1712
28.3293
28.5313
28.7506
28.9696
29.1703
29.3462
29.4997
29.6316
29.7546
28.5735
28.5782
28.6481
28.7012
28.7608
28.8204
28.8783
28.9354
28.9822
29.0342
29.0566
29.0939
29.0471
29.0339
28.8456
28.6915
28.3739
28.2111
28.0725
28.0558
28.1171
28.2783
28.4811
28.709
28.9344
29.1413
29.3217
29.4771
29.6078
29.7326
28.532
28.5429
28.6206
28.6808
28.7458
28.8103
28.8723
28.9327
28.9809
29.0344
29.0563
29.0941
29.0404
29.0226
28.8195
28.6549
28.3229
28.1605
28.016
27.9997
28.0659
28.2266
28.4332
28.6716
28.9034
29.1153
29.3003
29.4578
29.5874
29.7122
28.4845
28.5055
28.5914
28.6596
28.7307
28.8006
28.867
28.9312
28.982
29.0403
29.0633
29.0994
29.0409
29.0188
28.8001
28.6291
28.2858
28.1231
27.9678
27.9507
28.0189
28.1751
28.3915
28.6374
28.8751
29.0912
29.2806
29.4416
29.57
29.6929
28.4304
28.4656
28.5606
28.6377
28.7157
28.7912
28.8625
28.9309
28.9875
29.0512
29.0756
29.1112
29.0475
29.0234
28.7898
28.6163
28.2627
28.097
27.9302
27.9146
27.9752
28.1304
28.3539
28.6059
28.8492
29.0692
29.2606
29.425
29.555
29.6751
28.3685
28.4228
28.5283
28.6151
28.7004
28.7821
28.8589
28.9331
28.997
29.0662
29.0936
29.1297
29.0629
29.0364
28.7916
28.6149
28.2517
28.0848
27.9088
27.8887
27.9432
28.1018
28.3235
28.5785
28.8262
29.0498
29.2431
29.4083
29.5396
29.6608
28.2964
28.3793
28.4944
28.5919
28.6849
28.7734
28.8562
28.9374
29.0094
29.0843
29.116
29.1545
29.0875
29.0598
28.8048
28.6318
28.2556
28.0881
27.9033
27.8779
27.9345
28.0908
28.3056
28.5568
28.8075
29.0346
29.23
29.3963
29.5281
29.6493
28.2166
28.3352
28.4602
28.5688
28.6703
28.7658
28.8544
28.9433
29.0239
29.105
29.1418
29.1845
29.12
29.0938
28.831
28.6689
28.2871
28.1216
27.9257
27.8934
27.9457
28.0977
28.3065
28.5501
28.7974
29.027
29.2247
29.3919
29.5238
29.6428
28.1339
28.2903
28.4273
28.5477
28.6578
28.76
28.8544
28.9532
29.043
29.1292
29.1714
29.2197
29.1598
29.1395
28.8709
28.7251
28.3345
28.1702
27.9636
27.925
27.9669
28.1142
28.3185
28.5571
28.7994
29.0289
29.2275
29.3954
29.5274
29.645
28.0611
28.2504
28.3982
28.5306
28.6493
28.7585
28.8642
28.9738
29.0688
29.16
29.208
29.2633
29.2077
29.1955
28.9225
28.7977
28.3981
28.2378
28.0207
27.9751
28.0082
28.1439
28.3406
28.5727
28.8121
29.0382
29.2375
29.4063
29.5385
29.6563
28.0058
28.2191
28.377
28.5203
28.6485
28.7733
28.8914
29.0057
29.1041
29.199
29.2516
29.3147
29.2625
29.2619
28.9874
28.8977
28.4954
28.3459
28.1219
28.0702
28.0904
28.2047
28.3814
28.6046
28.8354
29.0565
29.2544
29.4258
29.5605
29.6806
27.9861
28.2066
28.371
28.5246
28.6655
28.8
28.9239
29.0404
29.1401
29.2364
29.2914
29.3602
29.3116
29.3287
29.0579
29.013
28.613
28.4806
28.2538
28.1981
28.207
28.3027
28.458
28.6625
28.8823
29.098
29.2912
29.4588
29.5944
29.7219
28.0181
28.224
28.3912
28.5504
28.6951
28.831
28.9544
29.0705
29.1697
29.266
29.3219
29.3949
29.3503
29.3879
29.1295
29.1436
28.7567
28.6466
28.4233
28.3664
28.3625
28.4415
28.5732
28.7552
28.9565
29.1606
29.3503
29.521
29.6652
29.7983
29.5596
29.188
29.1034
28.9338
28.8189
28.7632
28.7542
28.7731
28.8093
28.8663
28.9257
29.0078
29.0682
29.1588
29.184
29.2287
29.1574
29.0801
28.9543
28.8895
28.8915
28.9722
29.1081
29.2766
29.4661
29.6641
29.8705
30.0352
30.1798
30.1903
29.4868
29.0779
29.0357
28.8885
28.8017
28.7633
28.7618
28.7864
28.8254
28.8838
28.9433
29.025
29.0843
29.1754
29.1997
29.2471
29.1785
29.1072
28.9826
28.9126
28.904
28.981
29.1169
29.2865
29.4772
29.6761
29.8826
30.0439
30.1887
30.1935
29.3985
29.007
28.9804
28.852
28.7843
28.7596
28.7673
28.7969
28.8383
28.8977
28.9571
29.039
29.0966
29.1889
29.2107
29.2608
29.1893
29.1171
28.9817
28.9101
28.8957
28.9743
29.1146
29.2867
29.478
29.6759
29.88
30.0349
30.1873
30.1858
29.2889
28.9342
28.9184
28.8076
28.7624
28.753
28.7686
28.8047
28.8491
28.9106
28.9698
29.0522
29.1076
29.202
29.2202
29.2732
29.195
29.1144
28.9716
28.8962
28.8727
28.9432
29.0873
29.2647
29.4577
29.6542