/*--------------------------------*- C++ -*----------------------------------*\
  =========                 |
  \\      /  F ield         | OpenFOAM: The Open Source CFD Toolbox
   \\    /   O peration     | Website:  https://openfoam.org
    \\  /    A nd           | Version:  12
     \\/     M anipulation  |
\*---------------------------------------------------------------------------*/
FoamFile
{
    format      ascii;
    class       volScalarField;
    location    "1200/air";
    object      T;
}
// * * * * * * * * * * * * * * * * * * * * * * * * * * * * * * * * * * * * * //

dimensions      [0 0 0 1 0 0 0];

internalField   nonuniform List<scalar> 
243000
(
300.325
300.299
300.286
300.278
300.271
300.265
300.259
300.255
300.25
300.246
300.241
300.237
300.233
300.228
300.223
300.218
300.212
300.205
300.198
300.19
300.182
300.173
300.165
300.156
300.149
300.143
300.138
300.134
300.132
300.13
300.426
300.355
300.325
300.306
300.293
300.283
300.275
300.268
300.262
300.256
300.251
300.245
300.24
300.234
300.228
300.221
300.214
300.206
300.198
300.189
300.18
300.171
300.163
300.155
300.147
300.141
300.136
300.132
300.131
300.13
300.597
300.454
300.392
300.356
300.332
300.315
300.302
300.291
300.282
300.274
300.266
300.258
300.251
300.243
300.235
300.227
300.218
300.208
300.199
300.189
300.18
300.171
300.162
300.154
300.147
300.14
300.135
300.131
300.129
300.128
300.881
300.646
300.519
300.446
300.4
300.369
300.346
300.329
300.314
300.301
300.29
300.279
300.268
300.257
300.246
300.235
300.224
300.212
300.201
300.19
300.18
300.17
300.161
300.153
300.146
300.14
300.134
300.13
300.127
300.127
301.069
300.898
300.721
300.6
300.52
300.465
300.425
300.394
300.37
300.348
300.328
300.311
300.294
300.278
300.263
300.248
300.233
300.218
300.205
300.192
300.181
300.17
300.161
300.153
300.146
300.139
300.134
300.129
300.126
300.125
301.131
301.077
300.95
300.816
300.704
300.619
300.553
300.501
300.459
300.422
300.39
300.361
300.334
300.31
300.287
300.266
300.246
300.227
300.21
300.195
300.182
300.171
300.162
300.153
300.146
300.14
300.134
300.129
300.126
300.124
301.145
301.121
301.082
301.012
300.916
300.821
300.734
300.659
300.592
300.534
300.481
300.435
300.393
300.355
300.321
300.291
300.263
300.239
300.218
300.2
300.186
300.173
300.163
300.154
300.146
300.14
300.134
300.129
300.125
300.123
301.145
301.127
301.107
301.081
301.044
300.987
300.914
300.836
300.756
300.678
300.603
300.535
300.473
300.418
300.369
300.325
300.287
300.255
300.228
300.207
300.19
300.176
300.165
300.155
300.147
300.14
300.135
300.13
300.125
300.123
301.141
301.124
301.108
301.09
301.071
301.047
301.012
300.961
300.896
300.82
300.737
300.653
300.572
300.497
300.43
300.37
300.318
300.276
300.242
300.216
300.196
300.18
300.167
300.157
300.149
300.141
300.135
300.13
300.126
300.123
301.136
301.119
301.104
301.088
301.072
301.055
301.036
301.011
300.974
300.92
300.849
300.766
300.677
300.587
300.503
300.425
300.357
300.302
300.26
300.227
300.203
300.185
300.171
300.159
300.15
300.143
300.136
300.131
300.126
300.123
301.131
301.115
301.099
301.083
301.067
301.052
301.036
301.019
300.999
300.967
300.919
300.853
300.77
300.677
300.581
300.488
300.403
300.334
300.281
300.242
300.213
300.191
300.175
300.162
300.152
300.144
300.138
300.132
300.127
300.123
301.128
301.111
301.094
301.078
301.062
301.046
301.031
301.016
301.001
300.981
300.952
300.906
300.84
300.755
300.658
300.555
300.456
300.372
300.307
300.259
300.224
300.199
300.18
300.166
300.155
300.146
300.139
300.133
300.128
300.124
301.125
301.107
301.09
301.073
301.057
301.04
301.025
301.01
300.996
300.981
300.962
300.931
300.883
300.814
300.724
300.62
300.511
300.414
300.336
300.279
300.238
300.209
300.187
300.171
300.159
300.149
300.141
300.135
300.129
300.125
301.123
301.104
301.087
301.069
301.052
301.035
301.019
301.004
300.989
300.976
300.961
300.94
300.906
300.853
300.776
300.678
300.566
300.458
300.369
300.303
300.255
300.22
300.195
300.177
300.163
300.152
300.144
300.137
300.131
300.126
301.121
301.102
301.083
301.065
301.047
301.03
301.013
300.998
300.983
300.97
300.956
300.94
300.915
300.876
300.814
300.726
300.617
300.503
300.405
300.329
300.273
300.234
300.205
300.184
300.168
300.156
300.147
300.139
300.133
300.128
301.119
301.099
301.08
301.061
301.043
301.025
301.008
300.992
300.977
300.964
300.95
300.936
300.917
300.887
300.838
300.763
300.662
300.547
300.442
300.358
300.295
300.249
300.216
300.192
300.174
300.161
300.15
300.142
300.135
300.13
301.116
301.096
301.077
301.057
301.039
301.02
301.003
300.986
300.971
300.957
300.944
300.93
300.913
300.89
300.851
300.789
300.698
300.588
300.479
300.388
300.318
300.267
300.229
300.202
300.182
300.166
300.155
300.145
300.138
300.132
301.112
301.092
301.072
301.053
301.034
301.015
300.998
300.981
300.965
300.951
300.936
300.922
300.907
300.888
300.857
300.805
300.726
300.623
300.515
300.42
300.344
300.286
300.244
300.213
300.19
300.173
300.16
300.149
300.141
300.134
301.108
301.087
301.067
301.048
301.028
301.01
300.992
300.974
300.958
300.943
300.927
300.913
300.899
300.881
300.856
300.814
300.746
300.653
300.549
300.452
300.371
300.308
300.261
300.226
300.2
300.181
300.166
300.154
300.145
300.137
301.102
301.082
301.061
301.041
301.022
301.003
300.984
300.966
300.948
300.931
300.915
300.9
300.886
300.871
300.85
300.815
300.758
300.677
300.579
300.483
300.399
300.331
300.279
300.241
300.211
300.189
300.172
300.159
300.149
300.141
301.096
301.075
301.055
301.036
301.016
300.996
300.977
300.957
300.938
300.919
300.901
300.886
300.872
300.857
300.839
300.81
300.764
300.694
300.606
300.512
300.427
300.356
300.3
300.257
300.224
300.199
300.18
300.166
300.154
300.145
301.088
301.069
301.049
301.03
301.01
300.99
300.97
300.949
300.928
300.908
300.889
300.872
300.857
300.842
300.826
300.802
300.764
300.706
300.627
300.54
300.455
300.382
300.322
300.275
300.239
300.211
300.19
300.173
300.16
300.149
301.079
301.06
301.042
301.023
301.004
300.984
300.962
300.941
300.919
300.898
300.878
300.86
300.843
300.828
300.813
300.792
300.761
300.713
300.645
300.564
300.482
300.408
300.345
300.295
300.255
300.224
300.2
300.181
300.167
300.155
301.068
301.051
301.033
301.015
300.996
300.976
300.955
300.934
300.912
300.891
300.87
300.85
300.833
300.816
300.801
300.782
300.757
300.717
300.659
300.586
300.508
300.434
300.37
300.316
300.273
300.239
300.212
300.191
300.174
300.161
301.055
301.039
301.022
301.005
300.988
300.969
300.949
300.929
300.908
300.886
300.865
300.844
300.825
300.808
300.792
300.775
300.752
300.719
300.669
300.604
300.532
300.46
300.395
300.339
300.293
300.256
300.226
300.203
300.184
300.168
301.04
301.026
301.012
300.997
300.981
300.964
300.946
300.927
300.906
300.885
300.863
300.842
300.822
300.803
300.786
300.769
300.748
300.719
300.676
300.62
300.554
300.485
300.421
300.363
300.315
300.275
300.242
300.216
300.194
300.177
301.023
301.012
301.001
300.988
300.974
300.959
300.941
300.922
300.902
300.88
300.858
300.835
300.814
300.794
300.776
300.759
300.74
300.714
300.678
300.63
300.571
300.508
300.445
300.388
300.337
300.295
300.259
300.23
300.206
300.187
300.99
300.981
300.972
300.962
300.949
300.935
300.918
300.898
300.877
300.853
300.83
300.806
300.783
300.763
300.744
300.728
300.711
300.691
300.662
300.623
300.574
300.518
300.461
300.406
300.356
300.313
300.276
300.244
300.219
300.197
300.894
300.885
300.875
300.865
300.851
300.834
300.814
300.791
300.765
300.739
300.713
300.688
300.666
300.646
300.629
300.616
300.606
300.593
300.575
300.55
300.516
300.475
300.431
300.386
300.344
300.305
300.271
300.242
300.217
300.196
300.434
300.429
300.43
300.429
300.423
300.412
300.398
300.383
300.367
300.351
300.336
300.323
300.31
300.3
300.292
300.286
300.283
300.279
300.273
300.264
300.252
300.236
300.218
300.199
300.18
300.163
300.147
300.133
300.121
300.11
300.285
300.272
300.264
300.257
300.252
300.247
300.242
300.237
300.233
300.229
300.225
300.22
300.216
300.211
300.206
300.2
300.194
300.187
300.179
300.171
300.161
300.151
300.141
300.132
300.124
300.118
300.112
300.108
300.11
300.117
300.33
300.305
300.288
300.276
300.266
300.258
300.252
300.246
300.24
300.234
300.229
300.224
300.218
300.212
300.206
300.199
300.192
300.184
300.176
300.167
300.158
300.148
300.139
300.131
300.124
300.117
300.112
300.108
300.108
300.114
300.401
300.356
300.328
300.307
300.292
300.28
300.27
300.262
300.254
300.246
300.239
300.232
300.225
300.217
300.209
300.201
300.192
300.182
300.173
300.164
300.155
300.146
300.138
300.13
300.123
300.117
300.112
300.108
300.106
300.11
300.516
300.442
300.393
300.36
300.336
300.318
300.302
300.289
300.278
300.267
300.256
300.246
300.236
300.226
300.215
300.204
300.193
300.182
300.172
300.162
300.153
300.144
300.136
300.129
300.123
300.117
300.112
300.108
300.105
300.107
300.649
300.573
300.503
300.45
300.41
300.38
300.356
300.335
300.316
300.3
300.284
300.269
300.254
300.24
300.226
300.211
300.197
300.183
300.171
300.161
300.151
300.143
300.135
300.128
300.122
300.117
300.112
300.108
300.105
300.105
300.763
300.705
300.636
300.572
300.518
300.474
300.438
300.406
300.377
300.351
300.326
300.303
300.281
300.26
300.24
300.221
300.203
300.186
300.172
300.16
300.15
300.142
300.134
300.128
300.122
300.116
300.112
300.108
300.105
300.104
300.839
300.8
300.748
300.694
300.639
300.587
300.541
300.498
300.459
300.422
300.386
300.351
300.319
300.289
300.261
300.235
300.212
300.191
300.174
300.161
300.15
300.141
300.134
300.127
300.121
300.116
300.112
300.108
300.105
300.103
300.885
300.865
300.83
300.789
300.744
300.697
300.649
300.601
300.553
300.506
300.46
300.414
300.369
300.326
300.288
300.254
300.223
300.198
300.178
300.162
300.15
300.141
300.133
300.127
300.121
300.116
300.112
300.108
300.105
300.103
300.907
300.907
300.887
300.857
300.822
300.783
300.74
300.694
300.645
300.593
300.539
300.484
300.428
300.373
300.321
300.276
300.238
300.207
300.183
300.165
300.152
300.142
300.133
300.127
300.121
300.116
300.112
300.108
300.105
300.103
300.906
300.924
300.92
300.902
300.876
300.844
300.808
300.767
300.722
300.671
300.615
300.555
300.492
300.425
300.36
300.303
300.255
300.218
300.19
300.169
300.154
300.143
300.134
300.127
300.121
300.116
300.112
300.108
300.105
300.103
300.891
300.919
300.929
300.924
300.908
300.885
300.855
300.82
300.779
300.733
300.679
300.619
300.553
300.48
300.403
300.332
300.275
300.231
300.199
300.175
300.158
300.145
300.135
300.128
300.122
300.117
300.112
300.109
300.105
300.103
300.869
300.897
300.915
300.921
300.917
300.902
300.881
300.853
300.819
300.778
300.729
300.672
300.607
300.531
300.445
300.363
300.297
300.246
300.209
300.182
300.162
300.148
300.137
300.129
300.123
300.117
300.113
300.109
300.106
300.103
300.847
300.87
300.89
300.902
300.905
300.901
300.888
300.868
300.841
300.807
300.764
300.712
300.65
300.576
300.485
300.394
300.319
300.262
300.22
300.189
300.167
300.151
300.14
300.131
300.124
300.118
300.114
300.11
300.106
300.104
300.833
300.849
300.864
300.876
300.883
300.885
300.88
300.868
300.848
300.821
300.785
300.74
300.683
300.611
300.52
300.423
300.341
300.279
300.232
300.199
300.174
300.156
300.143
300.133
300.125
300.119
300.115
300.11
300.107
300.104
300.827
300.836
300.846
300.854
300.86
300.864
300.863
300.856
300.843
300.823
300.794
300.756
300.705
300.637
300.549
300.45
300.363
300.296
300.246
300.209
300.182
300.162
300.147
300.136
300.128
300.121
300.116
300.112
300.108
300.105
300.828
300.832
300.836
300.839
300.841
300.843
300.842
300.838
300.83
300.815
300.793
300.761
300.716
300.654
300.57
300.472
300.383
300.314
300.26
300.22
300.191
300.169
300.152
300.14
300.13
300.123
300.117
300.113
300.109
300.106
300.835
300.833
300.832
300.83
300.828
300.826
300.824
300.819
300.812
300.801
300.784
300.758
300.719
300.663
300.584
300.49
300.402
300.331
300.275
300.232
300.2
300.176
300.158
300.145
300.134
300.126
300.12
300.114
300.11
300.107
300.845
300.839
300.832
300.826
300.819
300.814
300.808
300.801
300.794
300.784
300.77
300.748
300.715
300.665
300.592
300.503
300.418
300.347
300.29
300.246
300.211
300.185
300.165
300.15
300.138
300.129
300.122
300.116
300.112
300.108
300.857
300.847
300.836
300.826
300.815
300.805
300.796
300.787
300.778
300.767
300.755
300.735
300.706
300.661
300.595
300.513
300.433
300.363
300.306
300.26
300.224
300.195
300.174
300.157
300.144
300.134
300.125
300.119
300.114
300.11
300.868
300.854
300.841
300.828
300.815
300.802
300.789
300.777
300.765
300.753
300.74
300.722
300.695
300.655
300.596
300.521
300.446
300.378
300.321
300.274
300.237
300.207
300.183
300.165
300.15
300.139
300.129
300.122
300.116
300.112
300.876
300.861
300.846
300.831
300.816
300.8
300.785
300.77
300.755
300.741
300.726
300.708
300.684
300.648
300.595
300.527
300.458
300.393
300.337
300.29
300.251
300.219
300.194
300.173
300.157
300.144
300.134
300.126
300.12
300.114
300.881
300.865
300.849
300.833
300.816
300.8
300.782
300.764
300.747
300.731
300.714
300.696
300.673
300.64
300.593
300.533
300.469
300.408
300.353
300.306
300.266
300.233
300.205
300.183
300.166
300.151
300.14
300.131
300.123
300.117
300.882
300.866
300.85
300.833
300.816
300.798
300.779
300.759
300.74
300.722
300.704
300.685
300.662
300.632
300.59
300.537
300.478
300.421
300.369
300.322
300.282
300.248
300.219
300.195
300.175
300.16
300.147
300.136
300.128
300.121
300.877
300.862
300.846
300.829
300.811
300.792
300.772
300.752
300.732
300.712
300.692
300.673
300.651
300.623
300.586
300.539
300.487
300.434
300.385
300.341
300.301
300.266
300.235
300.209
300.188
300.17
300.155
300.143
300.133
300.126
300.866
300.851
300.835
300.819
300.801
300.782
300.762
300.742
300.721
300.7
300.679
300.659
300.637
300.611
300.579
300.539
300.494
300.448
300.403
300.361
300.322
300.287
300.255
300.227
300.203
300.182
300.166
300.152
300.14
300.131
300.847
300.832
300.817
300.801
300.784
300.766
300.746
300.726
300.705
300.683
300.662
300.64
300.619
300.595
300.568
300.536
300.499
300.461
300.422
300.385
300.348
300.312
300.279
300.249
300.222
300.199
300.179
300.163
300.149
300.138
300.814
300.8
300.785
300.771
300.755
300.739
300.72
300.701
300.68
300.658
300.636
300.614
300.593
300.572
300.55
300.525
300.498
300.469
300.438
300.406
300.373
300.339
300.305
300.274
300.244
300.218
300.196
300.177
300.161
300.148
300.758
300.743
300.731
300.719
300.706
300.691
300.673
300.653
300.631
300.608
300.586
300.565
300.545
300.526
300.509
300.491
300.474
300.455
300.434
300.41
300.383
300.353
300.322
300.291
300.261
300.234
300.21
300.189
300.171
300.156
300.632
300.617
300.607
300.598
300.588
300.575
300.559
300.539
300.519
300.498
300.478
300.458
300.441
300.425
300.412
300.4
300.39
300.381
300.369
300.355
300.337
300.316
300.292
300.267
300.243
300.22
300.199
300.181
300.165
300.151
300.357
300.352
300.352
300.353
300.352
300.347
300.338
300.328
300.316
300.304
300.292
300.281
300.27
300.26
300.252
300.244
300.238
300.232
300.225
300.216
300.205
300.192
300.177
300.162
300.147
300.133
300.12
300.109
300.1
300.091
300.269
300.259
300.253
300.247
300.242
300.238
300.234
300.23
300.225
300.221
300.217
300.213
300.208
300.203
300.198
300.192
300.185
300.178
300.169
300.159
300.148
300.137
300.126
300.117
300.11
300.104
300.099
300.095
300.095
300.108
300.279
300.268
300.26
300.253
300.247
300.241
300.236
300.231
300.226
300.221
300.216
300.211
300.206
300.2
300.194
300.187
300.18
300.172
300.163
300.154
300.144
300.134
300.124
300.116
300.109
300.103
300.099
300.095
300.094
300.103
300.293
300.281
300.271
300.263
300.255
300.248
300.242
300.236
300.23
300.224
300.218
300.212
300.206
300.199
300.192
300.183
300.175
300.166
300.158
300.149
300.14
300.131
300.123
300.115
300.109
300.103
300.099
300.095
300.093
300.098
300.311
300.3
300.289
300.279
300.27
300.261
300.253
300.245
300.238
300.23
300.223
300.216
300.208
300.2
300.191
300.181
300.172
300.162
300.154
300.145
300.137
300.129
300.121
300.114
300.108
300.103
300.099
300.095
300.093
300.095
300.338
300.33
300.319
300.307
300.294
300.283
300.272
300.261
300.251
300.242
300.232
300.223
300.213
300.203
300.192
300.18
300.169
300.159
300.15
300.142
300.134
300.126
300.119
300.113
300.108
300.103
300.099
300.095
300.093
300.093
300.379
300.38
300.368
300.353
300.336
300.319
300.302
300.287
300.273
300.26
300.247
300.234
300.221
300.208
300.195
300.181
300.169
300.157
300.148
300.139
300.131
300.124
300.118
300.112
300.107
300.103
300.099
300.096
300.093
300.092
300.441
300.453
300.442
300.422
300.399
300.375
300.351
300.329
300.308
300.288
300.269
300.251
300.234
300.217
300.2
300.184
300.169
300.156
300.146
300.137
300.13
300.123
300.117
300.111
300.107
300.103
300.099
300.096
300.093
300.092
300.506
300.528
300.52
300.499
300.472
300.443
300.413
300.384
300.356
300.328
300.3
300.275
300.251
300.23
300.208
300.188
300.171
300.156
300.145
300.136
300.128
300.122
300.116
300.111
300.106
300.102
300.099
300.096
300.093
300.092
300.558
300.594
300.593
300.575
300.547
300.514
300.481
300.446
300.412
300.377
300.341
300.307
300.274
300.245
300.218
300.194
300.174
300.157
300.145
300.135
300.127
300.121
300.115
300.11
300.106
300.102
300.099
300.096
300.094
300.092
300.597
300.645
300.654
300.642
300.616
300.584
300.548
300.51
300.471
300.43
300.388
300.345
300.302
300.265
300.231
300.202
300.178
300.159
300.145
300.135
300.127
300.12
300.115
300.11
300.106
300.102
300.099
300.096
300.094
300.092
300.623
300.679
300.699
300.695
300.675
300.645
300.609
300.57
300.528
300.483
300.436
300.387
300.335
300.287
300.245
300.211
300.183
300.163
300.147
300.136
300.127
300.12
300.115
300.11
300.106
300.102
300.099
300.096
300.094
300.092
300.637
300.695
300.725
300.73
300.718
300.693
300.661
300.623
300.58
300.533
300.482
300.428
300.369
300.31
300.261
300.221
300.19
300.167
300.15
300.137
300.128
300.12
300.115
300.11
300.106
300.102
300.099
300.097
300.094
300.092
300.643
300.697
300.731
300.746
300.742
300.726
300.699
300.664
300.623
300.576
300.524
300.466
300.403
300.335
300.277
300.232
300.198
300.172
300.154
300.14
300.129
300.121
300.115
300.11
300.106
300.103
300.1
300.097
300.095
300.093
300.647
300.692
300.726
300.745
300.75
300.741
300.722
300.693
300.655
300.611
300.559
300.499
300.432
300.358
300.294
300.244
300.206
300.179
300.158
300.143
300.132
300.123
300.116
300.111
300.107
300.103
300.1
300.097
300.095
300.093
300.651
300.688
300.717
300.737
300.746
300.744
300.73
300.707
300.676
300.635
300.585
300.526
300.457
300.379
300.31
300.256
300.216
300.186
300.164
300.147
300.135
300.126
300.118
300.112
300.108
300.104
300.101
300.098
300.096
300.094
300.657
300.685
300.709
300.726
300.736
300.738
300.73
300.712
300.685
300.648
300.602
300.544
300.475
300.396
300.324
300.268
300.225
300.194
300.17
300.153
300.139
300.129
300.121
300.114
300.109
300.105
300.102
300.099
300.096
300.094
300.668
300.686
300.704
300.717
300.725
300.728
300.723
300.709
300.687
300.654
300.61
300.555
300.488
300.41
300.338
300.28
300.236
300.203
300.178
300.159
300.144
300.133
300.124
300.117
300.111
300.107
300.103
300.1
300.097
300.095
300.681
300.692
300.702
300.71
300.715
300.716
300.712
300.701
300.682
300.654
300.613
300.56
300.496
300.421
300.35
300.292
300.247
300.213
300.187
300.166
300.151
300.138
300.128
300.12
300.114
300.109
300.104
300.101
300.098
300.095
300.697
300.7
300.704
300.706
300.707
300.706
300.701
300.691
300.673
300.648
300.612
300.562
300.5
300.429
300.361
300.304
300.259
300.224
300.197
300.175
300.158
300.144
300.133
300.124
300.117
300.111
300.106
300.102
300.099
300.096
300.712
300.71
300.708
300.706
300.702
300.698
300.691
300.68
300.663
300.639
300.606
300.56
300.502
300.436
300.372
300.316
300.271
300.236
300.208
300.185
300.167
300.152
300.139
300.129
300.121
300.114
300.109
300.104
300.1
300.098
300.726
300.72
300.714
300.707
300.7
300.692
300.682
300.67
300.653
300.63
300.599
300.557
300.503
300.442
300.382
300.329
300.285
300.25
300.221
300.197
300.177
300.161
300.147
300.136
300.127
300.119
300.112
300.107
300.103
300.099
300.738
300.729
300.719
300.709
300.698
300.687
300.675
300.661
300.644
300.621
300.591
300.553
300.504
300.448
300.393
300.342
300.3
300.265
300.235
300.211
300.19
300.172
300.157
300.144
300.134
300.124
300.117
300.111
300.105
300.101
300.746
300.734
300.723
300.711
300.698
300.684
300.67
300.654
300.635
300.613
300.584
300.549
300.505
300.454
300.404
300.357
300.317
300.283
300.253
300.228
300.205
300.186
300.169
300.155
300.143
300.132
300.123
300.115
300.109
300.104
300.749
300.737
300.725
300.711
300.697
300.681
300.664
300.647
300.627
300.605
300.578
300.545
300.505
300.461
300.416
300.374
300.336
300.303
300.274
300.248
300.224
300.204
300.185
300.169
300.154
300.141
300.131
300.122
300.114
300.108
300.745
300.733
300.72
300.706
300.69
300.674
300.657
300.638
300.618
300.595
300.569
300.539
300.505
300.466
300.427
300.39
300.356
300.325
300.297
300.271
300.247
300.225
300.204
300.186
300.169
300.154
300.141
300.13
300.121
300.114
300.731
300.719
300.706
300.692
300.677
300.661
300.643
300.624
300.603
300.58
300.556
300.528
300.498
300.466
300.433
300.401
300.372
300.345
300.319
300.295
300.271
300.248
300.226
300.205
300.186
300.169
300.153
300.14
300.129
300.121
300.7
300.688
300.675
300.662
300.649
300.633
300.616
300.597
300.576
300.553
300.529
300.504
300.478
300.451
300.425
300.399
300.375
300.353
300.332
300.311
300.29
300.269
300.246
300.224
300.203
300.184
300.167
300.152
300.139
300.129
300.637
300.625
300.613
300.602
300.591
300.577
300.561
300.542
300.522
300.5
300.478
300.455
300.433
300.411
300.389
300.369
300.351
300.335
300.32
300.304
300.287
300.269
300.25
300.23
300.211
300.192
300.174
300.159
300.145
300.134
300.514
300.506
300.499
300.493
300.486
300.476
300.463
300.447
300.43
300.411
300.392
300.374
300.356
300.338
300.321
300.305
300.292
300.281
300.27
300.259
300.247
300.233
300.218
300.203
300.187
300.172
300.158
300.145
300.134
300.124
300.312
300.312
300.314
300.317
300.318
300.316
300.311
300.303
300.293
300.282
300.271
300.259
300.247
300.235
300.223
300.211
300.201
300.192
300.184
300.176
300.167
300.157
300.146
300.135
300.124
300.113
300.104
300.095
300.087
300.081
300.262
300.254
300.248
300.243
300.238
300.234
300.23
300.226
300.222
300.218
300.214
300.209
300.205
300.199
300.194
300.187
300.18
300.172
300.162
300.15
300.137
300.124
300.114
300.106
300.099
300.094
300.09
300.087
300.09
300.104
300.266
300.257
300.25
300.244
300.238
300.233
300.228
300.224
300.219
300.214
300.21
300.205
300.199
300.193
300.187
300.18
300.172
300.164
300.154
300.144
300.132
300.122
300.112
300.105
300.099
300.094
300.09
300.088
300.087
300.098
300.271
300.262
300.254
300.247
300.241
300.235
300.23
300.224
300.219
300.213
300.208
300.202
300.196
300.189
300.181
300.173
300.165
300.157
300.148
300.138
300.128
300.119
300.111
300.104
300.098
300.094
300.09
300.088
300.086
300.093
300.278
300.269
300.261
300.254
300.247
300.24
300.234
300.227
300.221
300.215
300.208
300.201
300.194
300.186
300.177
300.168
300.16
300.151
300.143
300.134
300.125
300.117
300.109
300.103
300.098
300.094
300.09
300.088
300.086
300.089
300.286
300.28
300.272
300.265
300.257
300.249
300.241
300.233
300.226
300.218
300.211
300.202
300.194
300.184
300.174
300.164
300.155
300.146
300.138
300.13
300.122
300.115
300.108
300.102
300.097
300.094
300.09
300.088
300.086
300.087
300.298
300.295
300.289
300.281
300.272
300.263
300.253
300.244
300.234
300.225
300.216
300.206
300.195
300.184
300.173
300.161
300.151
300.142
300.134
300.127
300.119
300.113
300.107
300.101
300.097
300.093
300.09
300.088
300.086
300.086
300.315
300.317
300.314
300.307
300.296
300.284
300.272
300.26
300.248
300.236
300.224
300.212
300.199
300.186
300.172
300.159
300.148
300.139
300.131
300.124
300.117
300.111
300.105
300.101
300.097
300.093
300.09
300.088
300.086
300.086
300.339
300.353
300.355
300.347
300.333
300.317
300.3
300.284
300.267
300.252
300.236
300.221
300.205
300.189
300.173
300.158
300.146
300.136
300.128
300.121
300.115
300.109
300.104
300.1
300.096
300.093
300.09
300.088
300.086
300.085
300.372
300.397
300.404
300.397
300.38
300.36
300.338
300.317
300.295
300.274
300.253
300.233
300.213
300.193
300.175
300.158
300.145
300.135
300.126
300.119
300.113
300.108
300.104
300.1
300.096
300.093
300.09
300.088
300.086
300.085
300.407
300.443
300.457
300.451
300.433
300.409
300.383
300.356
300.329
300.302
300.275
300.249
300.224
300.2
300.177
300.159
300.145
300.134
300.125
300.118
300.112
300.107
300.103
300.099
300.096
300.093
300.091
300.088
300.087
300.085
300.44
300.484
300.506
300.504
300.488
300.462
300.432
300.401
300.368
300.335
300.302
300.268
300.237
300.207
300.182
300.161
300.145
300.133
300.124
300.117
300.111
300.107
300.103
300.099
300.096
300.093
300.091
300.089
300.087
300.085
300.469
300.518
300.547
300.551
300.538
300.513
300.482
300.446
300.409
300.371
300.332
300.291
300.251
300.216
300.187
300.163
300.146
300.133
300.124
300.117
300.111
300.106
300.102
300.099
300.096
300.093
300.091
300.089
300.087
300.086
300.494
300.543
300.577
300.588
300.58
300.558
300.527
300.49
300.45
300.407
300.362
300.315
300.267
300.226
300.192
300.167
300.148
300.134
300.124
300.117
300.111
300.106
300.102
300.099
300.096
300.093
300.091
300.089
300.087
300.086
300.516
300.561
300.596
300.612
300.61
300.593
300.565
300.528
300.487
300.44
300.39
300.337
300.283
300.236
300.199
300.171
300.151
300.137
300.126
300.118
300.112
300.107
300.103
300.099
300.096
300.094
300.091
300.089
300.088
300.086
300.535
300.574
300.607
300.626
300.628
300.616
300.592
300.559
300.517
300.469
300.416
300.358
300.298
300.246
300.206
300.176
300.155
300.14
300.129
300.12
300.114
300.109
300.104
300.1
300.097
300.094
300.092
300.09
300.088
300.086
300.553
300.584
300.613
300.632
300.637
300.629
300.61
300.579
300.54
300.491
300.436
300.375
300.313
300.257
300.214
300.182
300.16
300.144
300.132
300.123
300.116
300.111
300.106
300.102
300.098
300.095
300.092
300.09
300.088
300.087
300.571
300.594
300.616
300.632
300.639
300.634
300.618
300.591
300.554
300.507
300.451
300.389
300.325
300.267
300.222
300.189
300.166
300.149
300.137
300.127
300.12
300.113
300.108
300.104
300.1
300.096
300.093
300.091
300.089
300.087
300.589
300.604
300.62
300.632
300.638
300.635
300.621
300.597
300.562
300.517
300.462
300.4
300.336
300.277
300.231
300.197
300.173
300.156
300.143
300.133
300.124
300.117
300.111
300.106
300.102
300.098
300.094
300.092
300.089
300.088
300.607
300.616
300.625
300.632
300.635
300.632
300.621
300.599
300.566
300.523
300.469
300.408
300.346
300.287
300.241
300.207
300.183
300.164
300.15
300.139
300.13
300.122
300.116
300.11
300.105
300.1
300.096
300.093
300.09
300.089
300.625
300.628
300.631
300.633
300.633
300.629
300.617
300.598
300.567
300.526
300.475
300.416
300.355
300.298
300.253
300.218
300.193
300.175
300.16
300.147
300.137
300.129
300.121
300.114
300.108
300.103
300.098
300.095
300.092
300.09
300.641
300.639
300.638
300.636
300.632
300.625
300.613
300.594
300.566
300.528
300.479
300.423
300.365
300.31
300.266
300.232
300.206
300.187
300.171
300.158
300.147
300.137
300.128
300.12
300.113
300.107
300.102
300.097
300.094
300.091
300.655
300.65
300.644
300.638
300.631
300.622
300.609
300.591
300.564
300.528
300.483
300.43
300.375
300.324
300.281
300.247
300.222
300.202
300.185
300.171
300.159
300.148
300.138
300.128
300.12
300.112
300.106
300.1
300.096
300.093
300.664
300.657
300.649
300.641
300.632
300.62
300.606
300.587
300.562
300.528
300.486
300.437
300.386
300.338
300.297
300.265
300.24
300.219
300.202
300.187
300.174
300.161
300.149
300.138
300.128
300.119
300.111
300.104
300.099
300.095
300.668
300.66
300.652
300.642
300.63
300.617
300.601
300.581
300.557
300.527
300.488
300.443
300.397
300.353
300.315
300.284
300.259
300.239
300.222
300.206
300.191
300.177
300.164
300.15
300.138
300.127
300.118
300.11
300.103
300.099
300.665
300.657
300.648
300.636
300.624
300.609
300.592
300.573
300.549
300.521
300.487
300.446
300.405
300.365
300.331
300.302
300.278
300.259
300.241
300.226
300.21
300.195
300.18
300.165
300.15
300.137
300.126
300.116
300.109
300.103
300.65
300.642
300.633
300.622
300.608
300.593
300.577
300.557
300.534
300.508
300.477
300.442
300.407
300.371
300.341
300.313
300.291
300.273
300.257
300.242
300.227
300.212
300.196
300.179
300.164
300.149
300.136
300.125
300.116
300.109
300.617
300.609
300.599
300.589
300.577
300.563
300.547
300.528
300.506
300.482
300.454
300.425
300.394
300.364
300.337
300.311
300.29
300.273
300.259
300.246
300.233
300.22
300.205
300.19
300.174
300.159
300.145
300.133
300.123
300.115
300.551
300.544
300.537
300.529
300.52
300.508
300.494
300.476
300.457
300.435
300.412
300.387
300.362
300.336
300.312
300.288
300.269
300.255
300.243
300.232
300.222
300.211
300.199
300.186
300.173
300.159
300.147
300.135
300.125
300.117
300.439
300.437
300.435
300.432
300.428
300.421
300.41
300.397
300.381
300.364
300.345
300.326
300.306
300.285
300.265
300.243
300.227
300.214
300.204
300.195
300.187
300.178
300.169
300.16
300.15
300.14
300.13
300.121
300.113
300.106
300.279
300.283
300.288
300.293
300.297
300.297
300.294
300.288
300.279
300.269
300.257
300.245
300.231
300.215
300.198
300.18
300.166
300.155
300.147
300.139
300.132
300.125
300.118
300.111
300.104
300.097
300.09
300.084
300.078
300.073
300.258
300.251
300.245
300.241
300.237
300.232
300.228
300.224
300.22
300.216
300.212
300.207
300.202
300.197
300.191
300.184
300.177
300.167
300.155
300.14
300.126
300.113
300.104
300.097
300.092
300.088
300.085
300.083
300.081
300.089
300.26
300.251
300.244
300.238
300.233
300.228
300.224
300.219
300.215
300.21
300.205
300.2
300.195
300.189
300.182
300.175
300.167
300.158
300.147
300.134
300.122
300.111
300.102
300.096
300.091
300.087
300.085
300.083
300.081
300.086
300.263
300.254
300.247
300.24
300.234
300.228
300.223
300.218
300.212
300.207
300.201
300.196
300.189
300.182
300.175
300.167
300.159
300.15
300.14
300.129
300.118
300.108
300.101
300.095
300.09
300.087
300.084
300.082
300.081
300.084
300.267
300.259
300.251
300.244
300.237
300.231
300.224
300.218
300.212
300.206
300.199
300.193
300.185
300.177
300.169
300.161
300.152
300.144
300.135
300.125
300.115
300.106
300.099
300.094
300.09