/*--------------------------------*- C++ -*----------------------------------*\
  =========                 |
  \\      /  F ield         | OpenFOAM: The Open Source CFD Toolbox
   \\    /   O peration     | Website:  https://openfoam.org
    \\  /    A nd           | Version:  12
     \\/     M anipulation  |
\*---------------------------------------------------------------------------*/
FoamFile
{
    format      ascii;
    class       volScalarField;
    location    "500/porous";
    object      rho;
}
// * * * * * * * * * * * * * * * * * * * * * * * * * * * * * * * * * * * * * //

dimensions      [1 -3 0 0 0 0 0];

internalField   nonuniform List<scalar> 
140000
(
933.891
933.891
933.891
933.891
933.891
933.891
933.891
933.891
933.892
933.899
934.195
934.421
934.62
934.806
934.983
935.154
935.322
935.486
935.648
935.808
935.966
936.122
936.277
936.431
936.584
936.735
936.885
937.033
937.18
937.325
937.469
937.61
937.749
937.886
938.021
938.153
938.284
938.414
938.543
938.673
938.804
938.938
939.074
939.214
939.357
939.505
939.659
939.819
939.988
940.166
940.356
940.557
940.773
941.004
941.25
941.515
941.798
942.101
942.425
942.748
942.634
942.69
942.832
943.034
943.287
943.585
943.924
944.301
944.711
945.117
933.891
933.891
933.891
933.891
933.891
933.891
933.891
933.891
933.891
933.896
934.123
934.303
934.462
934.612
934.755
934.894
935.031
935.165
935.298
935.429
935.56
935.689
935.817
935.945
936.072
936.198
936.324
936.449
936.574
936.697
936.82
936.941
937.062
937.181
937.299
937.416
937.531
937.646
937.76
937.875
937.991
938.108
938.226
938.347
938.468
938.592
938.718
938.847
938.98
939.117
939.26
939.409
939.566
939.73
939.904
940.087
940.282
940.489
940.709
940.93
940.849
940.87
940.944
941.056
941.203
941.381
941.59
941.828
942.096
942.376
933.891
933.891
933.891
933.891
933.891
933.891
933.891
933.891
933.891
933.895
934.104
934.266
934.408
934.539
934.664
934.784
934.901
935.016
935.128
935.239
935.349
935.457
935.564
935.671
935.777
935.882
935.987
936.091
936.194
936.297
936.399
936.5
936.601
936.7
936.799
936.896
936.992
937.088
937.183
937.279
937.376
937.475
937.574
937.674
937.774
937.875
937.976
938.078
938.181
938.285
938.391
938.498
938.608
938.722
938.838
938.958
939.083
939.213
939.348
939.483
939.357
939.312
939.306
939.329
939.374
939.441
939.528
939.635
939.764
939.906
933.891
933.891
933.891
933.891
933.891
933.891
933.891
933.891
933.891
933.895
934.1
934.258
934.394
934.52
934.637
934.75
934.859
934.966
935.069
935.171
935.271
935.37
935.467
935.563
935.659
935.753
935.846
935.939
936.031
936.122
936.213
936.302
936.391
936.478
936.564
936.649
936.733
936.816
936.9
936.983
937.068
937.154
937.241
937.327
937.414
937.501
937.587
937.673
937.759
937.845
937.931
938.017
938.104
938.19
938.278
938.366
938.456
938.547
938.641
938.73
938.573
938.489
938.439
938.41
938.398
938.402
938.419
938.452
938.499
938.558
933.891
933.891
933.891
933.891
933.891
933.891
933.891
933.891
933.891
933.895
934.1
934.256
934.392
934.515
934.631
934.741
934.848
934.951
935.052
935.15
935.246
935.341
935.434
935.526
935.617
935.706
935.795
935.883
935.97
936.056
936.141
936.225
936.308
936.389
936.469
936.548
936.626
936.703
936.78
936.858
936.937
937.016
937.096
937.177
937.256
937.336
937.415
937.493
937.571
937.649
937.725
937.802
937.878
937.953
938.029
938.104
938.179
938.254
938.329
938.399
938.232
938.132
938.062
938.012
937.976
937.952
937.94
937.939
937.95
937.971
933.891
933.891
933.891
933.891
933.891
933.891
933.891
933.891
933.891
933.895
934.1
934.257
934.392
934.516
934.631
934.741
934.847
934.949
935.049
935.146
935.241
935.334
935.426
935.516
935.605
935.692
935.779
935.865
935.949
936.033
936.116
936.198
936.278
936.357
936.434
936.51
936.585
936.659
936.734
936.809
936.886
936.963
937.04
937.117
937.194
937.27
937.346
937.421
937.495
937.569
937.642
937.714
937.786
937.856
937.927
937.996
938.065
938.134
938.203
938.266
938.094
937.989
937.913
937.855
937.81
937.776
937.752
937.739
937.735
937.741
933.891
933.891
933.891
933.891
933.891
933.891
933.891
933.891
933.891
933.895
934.101
934.258
934.394
934.517
934.632
934.742
934.848
934.95
935.049
935.146
935.241
935.334
935.425
935.514
935.602
935.689
935.775
935.859
935.943
936.026
936.108
936.189
936.268
936.346
936.422
936.497
936.571
936.644
936.718
936.792
936.868
936.944
937.02
937.096
937.172
937.247
937.321
937.395
937.467
937.539
937.611
937.681
937.751
937.82
937.888
937.956
938.022
938.089
938.155
938.214
938.042
937.935
937.857
937.796
937.748
937.711
937.683
937.665
937.656
937.657
933.891
933.891
933.891
933.891
933.891
933.891
933.891
933.891
933.891
933.895
934.102
934.259
934.395
934.518
934.634
934.744
934.85
934.952
935.051
935.148
935.243
935.336
935.426
935.515
935.603
935.689
935.774
935.859
935.942
936.025
936.106
936.187
936.265
936.343
936.419
936.493
936.567
936.64
936.714
936.788
936.864
936.94
937.016
937.091
937.166
937.241
937.314
937.388
937.46
937.531
937.602
937.672
937.741
937.809
937.876
937.943
938.009
938.074
938.138
938.197
938.025
937.917
937.838
937.777
937.727
937.689
937.66
937.64
937.629
937.628
933.891
933.891
933.891
933.891
933.891
933.891
933.891
933.891
933.891
933.895
934.102
934.26
934.396
934.52
934.635
934.746
934.851
934.954
935.053
935.15
935.245
935.337
935.428
935.517
935.604
935.69
935.775
935.859
935.942
936.025
936.106
936.186
936.265
936.342
936.418
936.493
936.567
936.641
936.714
936.789
936.865
936.941
937.017
937.092
937.167
937.241
937.315
937.388
937.46
937.531
937.602
937.672
937.74
937.808
937.875
937.941
938.007
938.071
938.136
938.193
938.021
937.914
937.835
937.772
937.723
937.684
937.654
937.634
937.622
937.62
933.891
933.891
933.891
933.891
933.891
933.891
933.891
933.891
933.891
933.895
934.103
934.261
934.397
934.521
934.637
934.747
934.853
934.956
935.055
935.152
935.247
935.339
935.43
935.518
935.605
935.691
935.776
935.859
935.942
936.025
936.106
936.186
936.265
936.343
936.419
936.495
936.569
936.643
936.717
936.792
936.868
936.944
937.02
937.096
937.17
937.245
937.318
937.391
937.463
937.535
937.605
937.675
937.743
937.811
937.878
937.944
938.009
938.074
938.138
938.195
938.023
937.916
937.837
937.774
937.725
937.685
937.656
937.635
937.623
937.621
933.891
933.891
933.891
933.891
933.891
933.891
933.891
933.891
933.891
933.895
934.103
934.261
934.398
934.522
934.638
934.748
934.854
934.957
935.057
935.154
935.248
935.341
935.431
935.519
935.606
935.691
935.776
935.859
935.942
936.024
936.105
936.185
936.265
936.343
936.42
936.497
936.572
936.646
936.721
936.796
936.872
936.948
937.024
937.099
937.174
937.249
937.322
937.395
937.467
937.539
937.609
937.679
937.748
937.816
937.883
937.948
938.014
938.078
938.142
938.199
938.027
937.92
937.841
937.778
937.729
937.689
937.659
937.639
937.627
937.624
933.891
933.891
933.891
933.891
933.891
933.891
933.891
933.891
933.891
933.895
934.103
934.262
934.398
934.522
934.638
934.749
934.855
934.958
935.058
935.155
935.25
935.342
935.432
935.52
935.607
935.691
935.775
935.858
935.941
936.023
936.104
936.185
936.265
936.344
936.422
936.499
936.575
936.65
936.725
936.8
936.876
936.952
937.028
937.103
937.178
937.253
937.326
937.399
937.472
937.543
937.614
937.683
937.752
937.82
937.887
937.953
938.018
938.083
938.147
938.204
938.032
937.924
937.845
937.783
937.733
937.694
937.664
937.643
937.632
937.629
933.891
933.891
933.891
933.891
933.891
933.891
933.891
933.891
933.891
933.895
934.103
934.262
934.398
934.523
934.639
934.749
934.856
934.958
935.058
935.156
935.25
935.343
935.433
935.521
935.607
935.691
935.774
935.857
935.939
936.021
936.103
936.184
936.265
936.345
936.424
936.502
936.578
936.654
936.729
936.804
936.88
936.956
937.032
937.107
937.182
937.256
937.33
937.403
937.475
937.547
937.618
937.687
937.756
937.824
937.891
937.957
938.023
938.087
938.151
938.208
938.036
937.929
937.85
937.787
937.738
937.699
937.669
937.648
937.636
937.633
933.891
933.891
933.891
933.891
933.891
933.891
933.891
933.891
933.891
933.895
934.104
934.262
934.398
934.523
934.639
934.749
934.856
934.959
935.059
935.156
935.251
935.343
935.433
935.521
935.607
935.691
935.773
935.856
935.938
936.02
936.102
936.184
936.266
936.346
936.426
936.505
936.582
936.658
936.734
936.809
936.884
936.96
937.035
937.111
937.186
937.26
937.334
937.406
937.479
937.55
937.621
937.691
937.76
937.828
937.895
937.961
938.026
938.091
938.155
938.212
938.04
937.933
937.854
937.792
937.742
937.703
937.673
937.652
937.64
937.637
933.891
933.891
933.891
933.891
933.891
933.891
933.891
933.891
933.891
933.895
934.103
934.262
934.398
934.522
934.639
934.749
934.856
934.959
935.059
935.156
935.251
935.343
935.433
935.521
935.606
935.69
935.772
935.854
935.936
936.019
936.101
936.184
936.267
936.348
936.429
936.508
936.586
936.663
936.739
936.814
936.889
936.964
937.039
937.114
937.189
937.263
937.337
937.41
937.482
937.553
937.624
937.694
937.763
937.831
937.898
937.964
938.03
938.094
938.158
938.216
938.044
937.936
937.857
937.795
937.746
937.706
937.677
937.656
937.644
937.641
933.891
933.891
933.891
933.891
933.891
933.891
933.891
933.891
933.891
933.895
934.103
934.261
934.398
934.522
934.638
934.749
934.855
934.959
935.059
935.156
935.251
935.344
935.433
935.521
935.606
935.689
935.771
935.853
935.935
936.018
936.101
936.185
936.268
936.35
936.432
936.511
936.59
936.668
936.744
936.819
936.894
936.968
937.043
937.118
937.192
937.266
937.339
937.412
937.485
937.556
937.627
937.697
937.766
937.834
937.901
937.967
938.033
938.097
938.161
938.219
938.047
937.939
937.86
937.798
937.749
937.71
937.68
937.659
937.647
937.644
933.891
933.891
933.891
933.891
933.891
933.891
933.891
933.891
933.891
933.895
934.103
934.261
934.397
934.521
934.637
934.748
934.855
934.958
935.059
935.156
935.251
935.343
935.433
935.521
935.606
935.689
935.771
935.852
935.934
936.018
936.102
936.187
936.27
936.353
936.435
936.515
936.594
936.672
936.749
936.824
936.899
936.973
937.047
937.121
937.195
937.269
937.342
937.415
937.487
937.558
937.629
937.699
937.768
937.836
937.903
937.97
938.035
938.1
938.164
938.221
938.049
937.942
937.863
937.801
937.751
937.712
937.682
937.661
937.65
937.647
933.891
933.891
933.891
933.891
933.891
933.891
933.891
933.891
933.891
933.895
934.102
934.26
934.396
934.52
934.637
934.747
934.854
934.958
935.058
935.156
935.251
935.343
935.433
935.521
935.606
935.688
935.77
935.852
935.934
936.018
936.103
936.189
936.273
936.356
936.438
936.518
936.598
936.677
936.754
936.83
936.903
936.977
937.05
937.124
937.198
937.271
937.344
937.417
937.489
937.56
937.631
937.701
937.77
937.838
937.905
937.971
938.037
938.102
938.166
938.223
938.051
937.944
937.865
937.803
937.753
937.714
937.684
937.663
937.652
937.648
933.891
933.891
933.891
933.891
933.891
933.891
933.891
933.891
933.891
933.895
934.102
934.26
934.395
934.519
934.635
934.747
934.853
934.957
935.058
935.155
935.251
935.343
935.433
935.521
935.606
935.688
935.77
935.852
935.935
936.019
936.105
936.191
936.276
936.359
936.44
936.521
936.601
936.68
936.758
936.834
936.908
936.98
937.053
937.126
937.2
937.273
937.346
937.418
937.49
937.562
937.632
937.702
937.771
937.839
937.906
937.973
938.038
938.103
938.167
938.224
938.053
937.945
937.866
937.804
937.754
937.715
937.685
937.664
937.653
937.649
933.891
933.891
933.891
933.891
933.891
933.891
933.891
933.891
933.891
933.895
934.102
934.259
934.395
934.518
934.635
934.746
934.853
934.956
935.057
935.155
935.25
935.343
935.433
935.521
935.606
935.689
935.77
935.852
935.936
936.021
936.107
936.193
936.278
936.361
936.442
936.522
936.602
936.682
936.761
936.837
936.911
936.983
937.055
937.128
937.201
937.274
937.346
937.419
937.491
937.562
937.633
937.702
937.772
937.84
937.907
937.973
938.038
938.103
938.167
938.225
938.053
937.946
937.867
937.804
937.755
937.716
937.686
937.665
937.653
937.65
933.891
933.891
933.891
933.891
933.891
933.891
933.891
933.891
933.891
933.895
934.101
934.257
934.393
934.517
934.633
934.745
934.852
934.956
935.056
935.155
935.25
935.343
935.433
935.521
935.606
935.689
935.771
935.853
935.937
936.022
936.109
936.195
936.279
936.362
936.443
936.524
936.604
936.683
936.762
936.839
936.913
936.985
937.057
937.129
937.201
937.274
937.346
937.418
937.49
937.562
937.632
937.702
937.771
937.839
937.906
937.973
938.038
938.103
938.167
938.225
938.053
937.946
937.866
937.804
937.755
937.715
937.685
937.664
937.653
937.649
933.891
933.891
933.891
933.891
933.891
933.891
933.891
933.891
933.891
933.895
934.101
934.257
934.392
934.516
934.633
934.744
934.851
934.955
935.056
935.154
935.25
935.343
935.434
935.522
935.607
935.69
935.772
935.854
935.939
936.024
936.111
936.197
936.281
936.363
936.445
936.525
936.605
936.684
936.763
936.84
936.914
936.986
937.057
937.129
937.201
937.273
937.346
937.418
937.49
937.561
937.632
937.701
937.77
937.838
937.905
937.972
938.037
938.102
938.166
938.225
938.053
937.945
937.866
937.804
937.754
937.715
937.685
937.664
937.652
937.648
933.891
933.891
933.891
933.891
933.891
933.891
933.891
933.891
933.891
933.895
934.099
934.256
934.391
934.515
934.631
934.743
934.85
934.954
935.056
935.154
935.25
935.343
935.434
935.522
935.608
935.691
935.774
935.856
935.94
936.026
936.113
936.198
936.282
936.364
936.446
936.526
936.606
936.685
936.763
936.84
936.915
936.987
937.058
937.129
937.2
937.272
937.345
937.417
937.489
937.56
937.631
937.7
937.769
937.837
937.904
937.971
938.036
938.101
938.165
938.224
938.052
937.945
937.865
937.803
937.754
937.714
937.684
937.663
937.651
937.648
933.891
933.891
933.891
933.891
933.891
933.891
933.891
933.891
933.891
933.895
934.099
934.255
934.39
934.514
934.631
934.742
934.85
934.954
935.055
935.154
935.25
935.344
935.435
935.523
935.609
935.693
935.775
935.858
935.943
936.029
936.115
936.2
936.283
936.366
936.447
936.527
936.607
936.686
936.764
936.841
936.916
936.988
937.058
937.129
937.2
937.272
937.344
937.416
937.488
937.559
937.63
937.699
937.768
937.836
937.903
937.969
938.035
938.1
938.165
938.224
938.052
937.944
937.865
937.803
937.753
937.714
937.684
937.662
937.65
937.647
933.891
933.891
933.891
933.891
933.891
933.891
933.891
933.891
933.891
933.895
934.099
934.254
934.39
934.513
934.63
934.742
934.85
934.954
935.055
935.154
935.25
935.344
935.435
935.524
935.61
935.695
935.777
935.86
935.945
936.031
936.117
936.202
936.285
936.367
936.449
936.529
936.608
936.687
936.765
936.842
936.917
936.989
937.059
937.129
937.199
937.271
937.343
937.415
937.487
937.558
937.629
937.698
937.767
937.835
937.902
937.969
938.034
938.099
938.164
938.223
938.051
937.943
937.864
937.802
937.753
937.713
937.683
937.662
937.65
937.646
933.891
933.891
933.891
933.891
933.891
933.891
933.891
933.891
933.891
933.895
934.097
934.253
934.388
934.512
934.629
934.741
934.849
934.954
935.055
935.154
935.251
935.345
935.436
935.525
935.612
935.696
935.779
935.862
935.947
936.033
936.119
936.204
936.287
936.369
936.45
936.531
936.61
936.689
936.767
936.844
936.918
936.99
937.059
937.129
937.199
937.27
937.342
937.414
937.486
937.557
937.627
937.697
937.766
937.834
937.901
937.967
938.033
938.098
938.164
938.225
938.052
937.944
937.865
937.803
937.753
937.713
937.683
937.662
937.65
937.646
933.891
933.891
933.891
933.891
933.891
933.891
933.891
933.891
933.891
933.895
934.097
934.253
934.388
934.512
934.629
934.741
934.849
934.954
935.055
935.154
935.251
935.345
935.437
935.526
935.613
935.698
935.781
935.865
935.949
936.035
936.121
936.206
936.289
936.371
936.452
936.532
936.612
936.691
936.769
936.845
936.919
936.99
937.06
937.129
937.199
937.27
937.342
937.414
937.485
937.556
937.627
937.696
937.765
937.833
937.9
937.967
938.032
938.098
938.164
938.224
938.052
937.944
937.865
937.803
937.753
937.714
937.683
937.662
937.65
937.647
933.891
933.891
933.891
933.891
933.891
933.891
933.891
933.891
933.891
933.895
934.097
934.252
934.388
934.512
934.629
934.741
934.849
934.954
935.056
935.155
935.251
935.346
935.438
935.527
935.615
935.7
935.783
935.867
935.951
936.037
936.123
936.207
936.291
936.373
936.454
936.534
936.613
936.692
936.77
936.847
936.92
936.991
937.06
937.129
937.199
937.27
937.341
937.413
937.484
937.555
937.626
937.696
937.764
937.832
937.899
937.966
938.032
938.098
938.164
938.225
938.052
937.944
937.865
937.803
937.753
937.714
937.684
937.663
937.651
937.647
933.891
933.891
933.891
933.891
933.891
933.891
933.891
933.891
933.891
933.895
934.096
934.252
934.387
934.511
934.628
934.741
934.849
934.954
935.055
935.155
935.252
935.346
935.438
935.528
935.616
935.701
935.785
935.869
935.953
936.038
936.124
936.209
936.292
936.374
936.455
936.535
936.614
936.693
936.771
936.848
936.921
936.992
937.06
937.129
937.198
937.269
937.34
937.412
937.483
937.554
937.625
937.694
937.763
937.831
937.898
937.965
938.031
938.097
938.164
938.227
938.054
937.945
937.866
937.804
937.754
937.715
937.685
937.663
937.651
937.648
933.891
933.891
933.891
933.891
933.891
933.891
933.891
933.891
933.891
933.895
934.096
934.252
934.387
934.511
934.628
934.741
934.849
934.954
935.056
935.155
935.252
935.346
935.439
935.529
935.617
935.703
935.787
935.871
935.954
936.039
936.124
936.209
936.293
936.375
936.455
936.535
936.615
936.694
936.772
936.848
936.921
936.991
937.06
937.128
937.198
937.268
937.339
937.411
937.482
937.553
937.624
937.693
937.762
937.83
937.897
937.964
938.03
938.097
938.164
938.227
938.053
937.945
937.866
937.804
937.754
937.715
937.685
937.664
937.652
937.648
933.891
933.891
933.891
933.891
933.891
933.891
933.891
933.891
933.891
933.895
934.096
934.251
934.386
934.511
934.628
934.74
934.848
934.953
935.055
935.155
935.252
935.347
935.439
935.529
935.618
935.704
935.789
935.872
935.955
936.039
936.124
936.209
936.293
936.374
936.455
936.535
936.615
936.694
936.772
936.847
936.92
936.99
937.058
937.126
937.196
937.267
937.338
937.409
937.48
937.551
937.622
937.691
937.76
937.828
937.896
937.962
938.029
938.097
938.165
938.229
938.054
937.946
937.866
937.804
937.754
937.715
937.685
937.664
937.652
937.649
933.891
933.891
933.891
933.891
933.891
933.891
933.891
933.891
933.891
933.895
934.096
934.251
934.386
934.51
934.628
934.74
934.848
934.953
935.055
935.155
935.252
935.346
935.439
935.53
935.618
935.705
935.79
935.874
935.956
936.04
936.124
936.208
936.292
936.373
936.454
936.534
936.613
936.692
936.77
936.845
936.917
936.987
937.055
937.124
937.193
937.264
937.335
937.407
937.478
937.549
937.619
937.689
937.758
937.826
937.894
937.961
938.028
938.095
938.164
938.228
938.054
937.945
937.866
937.804
937.754
937.714
937.684
937.663
937.651
937.648
933.891
933.891
933.891
933.891
933.891
933.891
933.891
933.891
933.891
933.895
934.096
934.251
934.386
934.51
934.627
934.74
934.848
934.953
935.055
935.154
935.251
935.346
935.439
935.53
935.619
935.706
935.791
935.875
935.957
936.04
936.123
936.206
936.289
936.371
936.452
936.531
936.611
936.689
936.766
936.84
936.912
936.982
937.051
937.12
937.19
937.261
937.332
937.403
937.475
937.546
937.616
937.686
937.755
937.823
937.891
937.959
938.026
938.095
938.163
938.227
938.053
937.944
937.865
937.802
937.753
937.713
937.683
937.662
937.651
937.647
933.891
933.891
933.891
933.891
933.891
933.891
933.891
933.891
933.891
933.895
934.095
934.25
934.385
934.51
934.627
934.739
934.847
934.952
935.054
935.154
935.251
935.346
935.439
935.53
935.619
935.706
935.792
935.875
935.958
936.04
936.122
936.204
936.286
936.367
936.448
936.528
936.607
936.684
936.761
936.835
936.907
936.977
937.046
937.116
937.186
937.257
937.328
937.4
937.471
937.542
937.613
937.683
937.752
937.82
937.888
937.956
938.024
938.092
938.162
938.227
938.052
937.943
937.864
937.801
937.751
937.712
937.682
937.661
937.649
937.646
933.891
933.891
933.891
933.891
933.891
933.891
933.891
933.891
933.891
933.895
934.095
934.25
934.385
934.509
934.626
934.738
934.847
934.951
935.053
935.153
935.25
935.345
935.438
935.529
935.618
935.706
935.792
935.876
935.958
936.04
936.121
936.202
936.283
936.364
936.444
936.523
936.602
936.679
936.755
936.829
936.901
936.971
937.041
937.112
937.182
937.253
937.325
937.396
937.468
937.539
937.609
937.679
937.748
937.817
937.885
937.953
938.022
938.09
938.16
938.225
938.05
937.941
937.861
937.799
937.749
937.71
937.68
937.659
937.647
937.644
933.891
933.891
933.891
933.891
933.891
933.891
933.891
933.891
933.891
933.895
934.095
934.25
934.385
934.509
934.626
934.738
934.846
934.951
935.053
935.152
935.249
935.344
935.437
935.528
935.618
935.705
935.791
935.876
935.958
936.039
936.119
936.2
936.28
936.36
936.439
936.518
936.596
936.673
936.748
936.822
936.895
936.966
937.037
937.107
937.178
937.249
937.321
937.393
937.464
937.535
937.606
937.676
937.745
937.814
937.882
937.95
938.019
938.088
938.158
938.223
938.048
937.939
937.859
937.797
937.747
937.707
937.677
937.656
937.645
937.642
933.891
933.891
933.891
933.891
933.891
933.891
933.891
933.891
933.891
933.895
934.095
934.249
934.384
934.508
934.625
934.737
934.845
934.95
935.052
935.151
935.248
935.343
935.436
935.527
935.617
935.705
935.791
935.875
935.957
936.038
936.118
936.197
936.276
936.356
936.434
936.513
936.59
936.667
936.742
936.816
936.889
936.961
937.032
937.104
937.175
937.246
937.318
937.389
937.461
937.532
937.602
937.672
937.742
937.81
937.879
937.947
938.016
938.085
938.155
938.221
938.045
937.936
937.856
937.794
937.744
937.704
937.674
937.653
937.642
937.639
933.891
933.891
933.891
933.891
933.891
933.891
933.891
933.891
933.891
933.895
934.094
934.249
934.383
934.507
934.624
934.736
934.844
934.948
935.05
935.15
935.247
935.342
935.435
935.526
935.615
935.703
935.789
935.874
935.956
936.037
936.116
936.195
936.273
936.351
936.429
936.507
936.584
936.661
936.736
936.81
936.884
936.956
937.028
937.1
937.172
937.243
937.315
937.386
937.458
937.529
937.599
937.669
937.738
937.807
937.876
937.944
938.013
938.082
938.152
938.218
938.042
937.933
937.853
937.79
937.74
937.701
937.671
937.65
937.638
937.635
933.891
933.891
933.891
933.891
933.891
933.891
933.891
933.891
933.891
933.895
934.094
934.248
934.383
934.507
934.623
934.735
934.843
934.947
935.049
935.148
935.245
935.34
935.433
935.524
935.614
935.702
935.788
935.872
935.955
936.035
936.114
936.192
936.27
936.347
936.425
936.502
936.579
936.655
936.731
936.805
936.879
936.952
937.025
937.097
937.169
937.24
937.312
937.384
937.455
937.526
937.596
937.666
937.735
937.804
937.872
937.941
938.01
938.079
938.149
938.215
938.039
937.929
937.849
937.787
937.737
937.697
937.667
937.646
937.634
937.632
933.891
933.891
933.891
933.891
933.891
933.891
933.891
933.891
933.891
933.895
934.094
934.248
934.382
934.506
934.622
934.734
934.841
934.946
935.047
935.146
935.243
935.338
935.431
935.522
935.612
935.7
935.786
935.87
935.953
936.033
936.112
936.189
936.266
936.343
936.42
936.497
936.574
936.65
936.726
936.801
936.875
936.949
937.022
937.094
937.166
937.238
937.31
937.381
937.452
937.523
937.593
937.663
937.732
937.801
937.869
937.938
938.007
938.076
938.146
938.211
938.035
937.926
937.846
937.783
937.733
937.693
937.663
937.642
937.631
937.628
933.891
933.891
933.891
933.891
933.891
933.891
933.891
933.891
933.891
933.895
934.093
934.247
934.382
934.505
934.621
934.733
934.84
934.944
935.046
935.145
935.241
935.336
935.429
935.52
935.61
935.697
935.783
935.868
935.95
936.03
936.109
936.186
936.262
936.338
936.415
936.492
936.569
936.645
936.721
936.797
936.871
936.946
937.019
937.092
937.164
937.236
937.308
937.379
937.45
937.521
937.591
937.66
937.729
937.798
937.867
937.935
938.004
938.073
938.143
938.208
938.032
937.923
937.842
937.779
937.729
937.69
937.66
937.639
937.627
937.625
933.891
933.891
933.891
933.891
933.891
933.891
933.891
933.891
933.891
933.895
934.093
934.247
934.381
934.504
934.62
934.731
934.838
934.942
935.044
935.143
935.239
935.334
935.427
935.518
935.607
935.695
935.781
935.865
935.947
936.027
936.105
936.182
936.258
936.334
936.411
936.488
936.565
936.641
936.718
936.794
936.869
936.943
937.017
937.09
937.162
937.234
937.306
937.378
937.449
937.519
937.589
937.659
937.728
937.797
937.865
937.934
938.003
938.072
938.142
938.207
938.031
937.921
937.841
937.778
937.728
937.689
937.659
937.638
937.627
937.624
933.891
933.891
933.891
933.891
933.891
933.891
933.891
933.891
933.891
933.895
934.093
934.246
934.38
934.503
934.619
934.73
934.837
934.941
935.042
935.141
935.237
935.332
935.424
935.515
935.605
935.692
935.778
935.862
935.945
936.025
936.103
936.179
936.255
936.332
936.409
936.486
936.563
936.64
936.717
936.793
936.868
936.943
937.017
937.091
937.163
937.236
937.308
937.379
937.451
937.521
937.592
937.661
937.731
937.8
937.868
937.937
938.006
938.076
938.146
938.211
938.035
937.926
937.846
937.783
937.733
937.694
937.665
937.645
937.634
937.632
933.891
933.891
933.891
933.891
933.891
933.891
933.891
933.891
933.891
933.895
934.093
934.246
934.379
934.502
934.618
934.729
934.835
934.939
935.04
935.139
935.235
935.33
935.422
935.514
935.603
935.691
935.777
935.861
935.943
936.023
936.102
936.179
936.255
936.332
936.409
936.487
936.565
936.642
936.72
936.797
936.873
936.948
937.023
937.097
937.171
937.244
937.316
937.389
937.46
937.532
937.602
937.673
937.743
937.812
937.882
937.951
938.021
938.092
938.163
938.229
938.053
937.944
937.865
937.803
937.755
937.717
937.689
937.67
937.662
937.662
933.891
933.891
933.891
933.891
933.891
933.891
933.891
933.891
933.891
933.895
934.093
934.246
934.379
934.502
934.617
934.728
934.835
934.939
935.04
935.139
935.236
935.33
935.424
935.515
935.605
935.693
935.78
935.865
935.948
936.028
936.107
936.185
936.263
936.341
936.42
936.499
936.578
936.657
936.735
936.813
936.891
936.968
937.044
937.12
937.195
937.269
937.343
937.417
937.49
937.563
937.635
937.707
937.779
937.851
937.922
937.994
938.066
938.138
938.212
938.281
938.106
937.999
937.922
937.862
937.817
937.782
937.758
937.745
937.741
937.747
933.891
933.891
933.891
933.891
933.891
933.891
933.891
933.891
933.891
933.895
934.093
934.246
934.379
934.502
934.618
934.73
934.837
934.942
935.044
935.144
935.242
935.338
935.432
935.525
935.617
935.707
935.795
935.882
935.966
936.049
936.131
936.211
936.292
936.373
936.454
936.536
936.618
936.699
936.781
936.862
936.942
937.022
937.102
937.18
937.259
937.336
937.414
937.491
937.568
937.644
937.721
937.797
937.873
937.949
938.026
938.102
938.18
938.259
938.339
938.415
938.244
938.142
938.071
938.02
937.983
937.959
937.946
937.945
937.956
937.977
933.891
933.891
933.891
933.891
933.891
933.891
933.891
933.891
933.891
933.895
934.094
934.248
934.383
934.508
934.626
934.74
934.85
934.957
935.063
935.166
935.267
935.367
935.466
935.563
935.659
935.753
935.846
935.938
936.027
936.115
936.202
936.288
936.375
936.462
936.549
936.637
936.725
936.813
936.9
936.987
937.074
937.161
937.247
937.332
937.418
937.503
937.588
937.672
937.757
937.842
937.928
938.014
938.1
938.187
938.276
938.366
938.458
938.553
938.65
938.745
938.585
938.499
938.448
938.418
938.405
938.408
938.426
938.458
938.504
938.563
933.891
933.891
933.891
933.891
933.891
933.891
933.891
933.891
933.891
933.895
934.099
934.258
934.399
934.53
934.655
934.775
934.893
935.009
935.123
935.235
935.346
935.456
935.564
935.671
935.778
935.883
935.987
936.089
936.19
936.29
936.388
936.487
936.585
936.684
936.784
936.884
936.984
937.084
937.184
937.284
937.383
937.482
937.581
937.68
937.779
937.878
937.978
938.078
938.18
938.283
938.388
938.495
938.605
938.719
938.836
938.958
939.084
939.218
939.357
939.496
939.367
939.32
939.314
939.336
939.38
939.446
939.533
939.64
939.768
939.909
933.891
933.891
933.891
933.891
933.891
933.891
933.891
933.891
933.891
933.896
934.118
934.296
934.455
934.604
934.747
934.888
935.025
935.161
935.295
935.427
935.559
935.689
935.819
935.947
936.074
936.2
936.325
936.448
936.57
936.69
936.809
936.928
937.047
937.166
937.285
937.404
937.524
937.643
937.762
937.88
937.998
938.117
938.235
938.355
938.475
938.597
938.721
938.849
938.98
939.115
939.257
939.405
939.561
939.726
939.9
940.084
940.281
940.491
940.714
940.941
940.856
940.875
940.948
941.059
941.205
941.383
941.591
941.828
942.095
942.375
933.891
933.891
933.891
933.891
933.891
933.891
933.891
933.891
933.892
933.899
934.192
934.417
934.614
934.8
934.977
935.149
935.318
935.484
935.647
935.809
935.968
936.126
936.282
936.436
936.589
936.739
936.888
937.033
937.177
937.318
937.457
937.596
937.734
937.871
938.007
938.143
938.278
938.413
938.548
938.681
938.815
938.95
939.086
939.224
939.365
939.51
939.661
939.819
939.985
940.161
940.35
940.55
940.765
940.996
941.243
941.509
941.794
942.1
942.426
942.753
942.636
942.691
942.831
943.032
943.285
943.581
943.919
944.295
944.705
945.11
933.891
933.891
933.891
933.891
933.891
933.891
933.891
933.891
933.891
933.896
934.12
934.327
934.519
934.701
934.877
935.047
935.214
935.379
935.541
935.701
935.859
936.016
936.172
936.326
936.479
936.631
936.782
936.931
937.079
937.225
937.369
937.511
937.651
937.789
937.924
938.058
938.189
938.32
938.45
938.58
938.711
938.845
938.981
939.121
939.264
939.411
939.564
939.724
939.892
940.07
940.259
940.459
940.673
940.903
941.148
941.411
941.693
941.994
942.316
942.642
942.594
942.658
942.799
942.999
943.249
943.543
943.878
944.251
944.659
945.067
933.891
933.891
933.891
933.891
933.891
933.891
933.891
933.891
933.891
933.894
934.054
934.211
934.36
934.504
934.643
934.779
934.913
935.046
935.177
935.307
935.436
935.565
935.692
935.819
935.946
936.071
936.197
936.322
936.446
936.569
936.692
936.813
936.934
937.053
937.171
937.288
937.404
937.519
937.633
937.748
937.864
937.98
938.099
938.218
938.339
938.462
938.588
938.716
938.847
938.983
939.124
939.272
939.426
939.588
939.759
939.939
940.131
940.334
940.55
940.771
940.755
940.789
940.864
940.975
941.118
941.291
941.493
941.725
941.985
942.261
933.891
933.891
933.891
933.891
933.891
933.891
933.891
933.891
933.891
933.894
934.038
934.178
934.309
934.435
934.555
934.672
934.787
934.9
935.011
935.12
935.228
935.336
935.442
935.548
935.653
935.757
935.861
935.964
936.067
936.169
936.271
936.372
936.472
936.571
936.669
936.766
936.863
936.958
937.053
937.149
937.246
937.343
937.442
937.541
937.64
937.74
937.841
937.942
938.044
938.147
938.252
938.358
938.467
938.579
938.693
938.812
938.934
939.062
939.195
939.329
939.267
939.237
939.235