/*--------------------------------*- C++ -*----------------------------------*\
  =========                 |
  \\      /  F ield         | OpenFOAM: The Open Source CFD Toolbox
   \\    /   O peration     | Website:  https://openfoam.org
    \\  /    A nd           | Version:  12
     \\/     M anipulation  |
\*---------------------------------------------------------------------------*/
FoamFile
{
    format      ascii;
    class       volScalarField;
    location    "500/porous";
    object      T;
}
// * * * * * * * * * * * * * * * * * * * * * * * * * * * * * * * * * * * * * //

dimensions      [0 0 0 1 0 0 0];

internalField   nonuniform List<scalar> 
140000
(
400
400
400
400
400
400
400
400
400
399.992
399.675
399.431
399.217
399.017
398.826
398.641
398.46
398.282
398.107
397.934
397.762
397.593
397.424
397.257
397.091
396.926
396.762
396.6
396.44
396.281
396.124
395.969
395.817
395.666
395.518
395.373
395.229
395.086
394.943
394.8
394.655
394.508
394.357
394.202
394.043
393.879
393.709
393.531
393.343
393.144
392.933
392.708
392.467
392.208
391.932
391.635
391.315
390.974
390.608
390.242
390.371
390.308
390.147
389.917
389.63
389.29
388.903
388.472
388
387.533
400
400
400
400
400
400
400
400
400
399.995
399.751
399.558
399.387
399.226
399.072
398.922
398.774
398.629
398.486
398.344
398.203
398.063
397.924
397.786
397.648
397.51
397.374
397.237
397.102
396.967
396.834
396.701
396.569
396.439
396.31
396.182
396.056
395.93
395.805
395.679
395.552
395.423
395.292
395.16
395.026
394.889
394.75
394.608
394.461
394.309
394.151
393.986
393.812
393.63
393.437
393.233
393.015
392.785
392.538
392.29
392.381
392.358
392.276
392.149
391.985
391.785
391.55
391.282
390.98
390.663
400
400
400
400
400
400
400
400
400
399.996
399.772
399.598
399.445
399.304
399.17
399.041
398.914
398.791
398.669
398.55
398.431
398.314
398.198
398.082
397.968
397.854
397.74
397.627
397.515
397.403
397.292
397.182
397.072
396.964
396.857
396.751
396.646
396.541
396.437
396.332
396.225
396.118
396.009
395.9
395.79
395.679
395.568
395.456
395.343
395.228
395.112
394.993
394.871
394.747
394.618
394.485
394.348
394.203
394.054
393.904
394.044
394.094
394.1
394.075
394.024
393.951
393.854
393.735
393.592
393.434
400
400
400
400
400
400
400
400
400
399.996
399.776
399.607
399.46
399.325
399.199
399.077
398.959
398.845
398.733
398.623
398.515
398.408
398.303
398.199
398.096
397.994
397.892
397.792
397.692
397.593
397.494
397.397
397.301
397.206
397.112
397.02
396.928
396.837
396.747
396.655
396.562
396.468
396.374
396.279
396.184
396.089
395.995
395.9
395.806
395.712
395.617
395.523
395.428
395.332
395.236
395.138
395.039
394.939
394.836
394.738
394.91
395.003
395.058
395.09
395.103
395.099
395.08
395.044
394.992
394.927
400
400
400
400
400
400
400
400
400
399.996
399.777
399.608
399.463
399.33
399.206
399.087
398.972
398.861
398.752
398.646
398.542
398.439
398.339
398.239
398.141
398.044
397.948
397.853
397.759
397.665
397.573
397.481
397.391
397.303
397.216
397.13
397.045
396.961
396.877
396.792
396.706
396.619
396.532
396.444
396.357
396.27
396.183
396.097
396.012
395.927
395.843
395.759
395.676
395.593
395.51
395.427
395.345
395.262
395.179
395.102
395.287
395.396
395.473
395.528
395.568
395.594
395.607
395.608
395.596
395.573
400
400
400
400
400
400
400
400
400
399.996
399.776
399.607
399.462
399.33
399.206
399.087
398.973
398.863
398.755
398.65
398.548
398.447
398.348
398.25
398.154
398.059
397.965
397.872
397.78
397.689
397.6
397.511
397.424
397.338
397.254
397.171
397.089
397.008
396.927
396.845
396.762
396.678
396.593
396.509
396.425
396.342
396.259
396.177
396.095
396.015
395.935
395.855
395.777
395.699
395.622
395.546
395.469
395.394
395.319
395.249
395.438
395.553
395.637
395.701
395.75
395.787
395.813
395.828
395.832
395.825
400
400
400
400
400
400
400
400
400
399.996
399.775
399.606
399.461
399.328
399.204
399.086
398.972
398.862
398.755
398.65
398.548
398.447
398.349
398.252
398.157
398.063
397.97
397.878
397.787
397.697
397.608
397.521
397.435
397.35
397.267
397.185
397.105
397.025
396.945
396.864
396.781
396.698
396.615
396.532
396.449
396.367
396.286
396.205
396.126
396.047
395.969
395.891
395.815
395.739
395.664
395.59
395.517
395.444
395.371
395.306
395.495
395.613
395.699
395.765
395.818
395.859
395.89
395.909
395.919
395.918
400
400
400
400
400
400
400
400
400
399.996
399.774
399.605
399.459
399.327
399.202
399.084
398.97
398.86
398.752
398.648
398.545
398.445
398.347
398.251
398.156
398.063
397.97
397.879
397.788
397.699
397.61
397.523
397.437
397.353
397.27
397.189
397.109
397.029
396.949
396.868
396.786
396.703
396.62
396.537
396.455
396.374
396.293
396.213
396.134
396.056
395.978
395.902
395.826
395.751
395.677
395.604
395.532
395.46
395.389
395.325
395.514
395.632
395.719
395.787
395.841
395.883
395.915
395.937
395.948
395.95
400
400
400
400
400
400
400
400
400
399.996
399.774
399.604
399.458
399.325
399.201
399.082
398.968
398.858
398.75
398.646
398.543
398.443
398.345
398.249
398.155
398.062
397.97
397.878
397.788
397.699
397.611
397.524
397.438
397.354
397.271
397.189
397.109
397.029
396.948
396.867
396.785
396.702
396.619
396.536
396.454
396.373
396.292
396.213
396.134
396.056
395.978
395.902
395.827
395.752
395.679
395.606
395.534
395.463
395.392
395.329
395.518
395.636
395.723
395.791
395.846
395.889
395.921
395.944
395.956
395.959
400
400
400
400
400
400
400
400
400
399.996
399.773
399.604
399.457
399.324
399.199
399.081
398.966
398.856
398.748
398.643
398.541
398.441
398.343
398.248
398.153
398.061
397.969
397.878
397.788
397.699
397.611
397.524
397.438
397.353
397.27
397.188
397.107
397.026
396.945
396.864
396.781
396.698
396.615
396.533
396.451
396.369
396.289
396.209
396.13
396.052
395.975
395.898
395.823
395.749
395.675
395.603
395.531
395.46
395.39
395.327
395.516
395.634
395.721
395.789
395.844
395.887
395.92
395.942
395.955
395.958
400
400
400
400
400
400
400
400
400
399.996
399.773
399.603
399.457
399.323
399.198
399.079
398.965
398.854
398.747
398.642
398.54
398.44
398.342
398.246
398.153
398.06
397.969
397.879
397.789
397.7
397.612
397.524
397.438
397.353
397.269
397.186
397.104
397.023
396.942
396.86
396.777
396.694
396.611
396.528
396.446
396.365
396.284
396.205
396.126
396.047
395.97
395.894
395.818
395.744
395.67
395.598
395.526
395.455
395.385
395.322
395.511
395.629
395.716
395.785
395.839
395.882
395.915
395.938
395.951
395.954
400
400
400
400
400
400
400
400
400
399.996
399.773
399.602
399.456
399.323
399.198
399.079
398.964
398.853
398.746
398.641
398.538
398.438
398.341
398.246
398.152
398.06
397.969
397.879
397.79
397.701
397.613
397.525
397.438
397.352
397.267
397.183
397.101
397.019
396.937
396.855
396.773
396.689
396.607
396.524
396.442
396.361
396.28
396.2
396.121
396.043
395.965
395.889
395.813
395.739
395.666
395.593
395.521
395.45
395.38
395.317
395.506
395.624
395.711
395.78
395.834
395.877
395.91
395.933
395.946
395.949
400
400
400
400
400
400
400
400
400
399.996
399.773
399.602
399.456
399.322
399.197
399.078
398.964
398.853
398.745
398.64
398.537
398.438
398.34
398.245
398.152
398.061
397.97
397.881
397.792
397.703
397.614
397.526
397.438
397.351
397.265
397.18
397.097
397.014
396.933
396.851
396.768
396.685
396.602
396.52
396.438
396.357
396.276
396.196
396.117
396.039
395.961
395.885
395.809
395.734
395.661
395.588
395.517
395.446
395.376
395.313
395.502
395.62
395.707
395.775
395.829
395.872
395.905
395.928
395.941
395.944
400
400
400
400
400
400
400
400
400
399.996
399.772
399.602
399.456
399.322
399.197
399.078
398.963
398.852
398.744
398.639
398.537
398.437
398.34
398.245
398.152
398.061
397.971
397.882
397.793
397.704
397.615
397.526
397.437
397.349
397.263
397.177
397.093
397.01
396.927
396.845
396.763
396.681
396.598
396.516
396.434
396.353
396.272
396.192
396.113
396.035
395.957
395.881
395.805
395.73
395.657
395.584
395.512
395.441
395.371
395.308
395.497
395.615
395.702
395.77
395.825
395.868
395.9
395.923
395.936
395.939
400
400
400
400
400
400
400
400
400
399.996
399.773
399.602
399.456
399.322
399.197
399.078
398.963
398.852
398.744
398.639
398.537
398.437
398.34
398.245
398.153
398.062
397.973
397.884
397.795
397.705
397.615
397.526
397.436
397.347
397.26
397.173
397.088
397.005
396.922
396.84
396.758
396.676
396.594
396.512
396.43
396.349
396.269
396.189
396.11
396.031
395.954
395.877
395.802
395.727
395.653
395.58
395.509
395.438
395.367
395.304
395.493
395.611
395.698
395.766
395.821
395.864
395.896
395.919
395.932
395.935
400
400
400
400
400
400
400
400
400
399.996
399.773
399.603
399.457
399.323
399.198
399.079
398.964
398.852
398.744
398.639
398.537
398.437
398.34
398.245
398.153
398.063
397.974
397.885
397.796
397.706
397.615
397.525
397.434
397.345
397.257
397.17
397.084
396.999
396.916
396.834
396.753
396.672
396.59
396.508
396.427
396.346
396.266
396.186
396.107
396.028
395.951
395.874
395.798
395.724
395.65
395.577
395.505
395.434
395.364
395.301
395.49
395.608
395.695
395.763
395.817
395.86
395.893
395.916
395.929
395.932
400
400
400
400
400
400
400
400
400
399.996
399.773
399.603
399.457
399.324
399.199
399.079
398.964
398.853
398.745
398.639
398.537
398.437
398.34
398.245
398.153
398.063
397.975
397.886
397.797
397.706
397.615
397.523
397.432
397.342
397.253
397.166
397.079
396.994
396.911
396.829
396.748
396.667
396.586
396.505
396.424
396.343
396.263
396.183
396.104
396.026
395.948
395.872
395.796
395.721
395.647
395.575
395.503
395.432
395.361
395.298
395.487
395.605
395.692
395.76
395.814
395.857
395.89
395.913
395.926
395.929
400
400
400
400
400
400
400
400
400
399.996
399.774
399.604
399.458
399.325
399.2
399.08
398.965
398.853
398.745
398.64
398.537
398.437
398.34
398.245
398.153
398.063
397.975
397.887
397.797
397.706
397.613
397.521
397.429
397.339
397.25
397.162
397.076
396.99
396.905
396.823
396.742
396.662
396.582
396.501
396.421
396.341
396.261
396.181
396.102
396.024
395.946
395.87
395.794
395.719
395.645
395.573
395.501
395.43
395.359
395.296
395.485
395.603
395.69
395.758
395.812
395.855
395.888
395.911
395.924
395.927
400
400
400
400
400
400
400
400
400
399.996
399.774
399.605
399.459
399.326
399.201
399.081
398.966
398.854
398.746
398.64
398.537
398.437
398.34
398.245
398.153
398.063
397.975
397.887
397.797
397.705
397.611
397.518
397.426
397.336
397.247
397.16
397.073
396.986
396.901
396.818
396.738
396.658
396.579
396.499
396.419
396.339
396.259
396.18
396.101
396.023
395.945
395.868
395.793
395.718
395.644
395.571
395.5
395.429
395.358
395.295
395.484
395.602
395.689
395.757
395.811
395.854
395.887
395.91
395.923
395.926
400
400
400
400
400
400
400
400
400
399.996
399.775
399.605
399.46
399.327
399.201
399.082
398.967
398.855
398.746
398.64
398.537
398.437
398.34
398.245
398.153
398.063
397.975
397.886
397.796
397.703
397.609
397.516
397.424
397.334
397.245
397.158
397.071
396.984
396.898
396.815
396.734
396.655
396.576
396.497
396.418
396.338
396.258
396.179
396.1
396.022
395.945
395.868
395.792
395.718
395.644
395.571
395.499
395.428
395.358
395.294
395.483
395.601
395.688
395.756
395.811
395.854
395.887
395.909
395.922
395.926
400
400
400
400
400
400
400
400
400
399.996
399.776
399.607
399.462
399.328
399.203
399.083
398.968
398.856
398.747
398.641
398.538
398.437
398.34
398.245
398.152
398.063
397.974
397.885
397.794
397.701
397.607
397.514
397.422
397.332
397.244
397.156
397.069
396.983
396.897
396.813
396.732
396.653
396.575
396.496
396.417
396.338
396.258
396.179
396.101
396.022
395.945
395.868
395.793
395.718
395.644
395.572
395.5
395.428
395.358
395.294
395.483
395.601
395.688
395.756
395.811
395.854
395.887
395.91
395.923
395.926
400
400
400
400
400
400
400
400
400
399.996
399.776
399.608
399.462
399.329
399.204
399.084
398.968
398.856
398.747
398.641
398.538
398.437
398.339
398.244
398.152
398.061
397.973
397.884
397.792
397.699
397.605
397.512
397.421
397.331
397.242
397.155
397.068
396.982
396.896
396.812
396.731
396.652
396.574
396.496
396.417
396.338
396.259
396.18
396.101
396.023
395.946
395.869
395.793
395.719
395.645
395.573
395.501
395.429
395.359
395.294
395.484
395.602
395.689
395.757
395.811
395.854
395.887
395.91
395.923
395.927
400
400
400
400
400
400
400
400
400
399.996
399.777
399.609
399.464
399.33
399.205
399.085
398.969
398.857
398.748
398.641
398.538
398.437
398.339
398.243
398.151
398.06
397.971
397.882
397.79
397.697
397.603
397.51
397.419
397.33
397.241
397.154
397.067
396.981
396.895
396.811
396.73
396.651
396.574
396.496
396.418
396.339
396.26
396.181
396.102
396.024
395.947
395.87
395.795
395.72
395.646
395.574
395.502
395.43
395.359
395.295
395.484
395.602
395.689
395.757
395.812
395.855
395.888
395.911
395.924
395.928
400
400
400
400
400
400
400
400
400
399.996
399.778
399.61
399.465
399.332
399.206
399.086
398.97
398.857
398.748
398.641
398.538
398.437
398.338
398.242
398.149
398.059
397.969
397.88
397.788
397.695
397.601
397.509
397.418
397.328
397.24
397.152
397.065
396.979
396.894
396.81
396.729
396.65
396.573
396.496
396.419
396.34
396.261
396.182
396.103
396.025
395.948
395.871
395.796
395.721
395.648
395.575
395.503
395.431
395.36
395.295
395.485
395.603
395.69
395.758
395.813
395.856
395.889
395.912
395.925
395.929
400
400
400
400
400
400
400
400
400
399.996
399.778
399.611
399.465
399.332
399.206
399.086
398.97
398.857
398.748
398.641
398.537
398.436
398.337
398.241
398.148
398.057
397.967
397.877
397.786
397.692
397.599
397.507
397.416
397.326
397.238
397.151
397.064
396.978
396.893
396.809
396.728
396.649
396.573
396.496
396.419
396.341
396.262
396.183
396.104
396.026
395.949
395.872
395.797
395.722
395.649
395.576
395.504
395.432
395.361
395.296
395.485
395.604
395.69
395.759
395.813
395.856
395.889
395.912
395.926
395.93
400
400
400
400
400
400
400
400
400
399.996
399.779
399.612
399.467
399.333
399.207
399.087
398.971
398.858
398.748
398.641
398.537
398.436
398.337
398.24
398.146
398.055
397.965
397.875
397.783
397.69
397.597
397.504
397.414
397.324
397.236
397.149
397.062
396.976
396.891
396.808
396.726
396.648
396.572
396.496
396.419
396.341
396.263
396.184
396.105
396.028
395.95
395.874
395.798
395.724
395.65
395.577
395.505
395.433
395.361
395.294
395.484
395.603
395.69
395.758
395.813
395.856
395.889
395.912
395.925
395.929
400
400
400
400
400
400
400
400
400
399.996
399.779
399.612
399.467
399.334
399.208
399.087
398.971
398.858
398.748
398.641
398.537
398.435
398.336
398.239
398.145
398.053
397.963
397.873
397.781
397.688
397.594
397.502
397.412
397.323
397.234
397.147
397.06
396.974
396.889
396.806
396.725
396.647
396.572
396.496
396.419
396.342
396.263
396.185
396.106
396.028
395.951
395.875
395.799
395.725
395.651
395.578
395.506
395.434
395.362
395.295
395.485
395.603
395.69
395.758
395.813
395.856
395.889
395.912
395.925
395.929
400
400
400
400
400
400
400
400
400
399.996
399.78
399.613
399.467
399.334
399.208
399.087
398.971
398.858
398.748
398.641
398.536
398.435
398.335
398.238
398.143
398.051
397.961
397.87
397.779
397.686
397.593
397.501
397.41
397.321
397.233
397.145
397.059
396.973
396.888
396.804
396.724
396.646
396.571
396.496
396.42
396.342
396.264
396.185
396.107
396.029
395.952
395.876
395.8
395.726
395.652
395.579
395.506
395.434
395.361
395.294
395.484
395.602
395.689
395.758
395.812
395.855
395.888
395.911
395.925
395.929
400
400
400
400
400
400
400
400
400
399.996
399.78
399.613
399.468
399.334
399.208
399.087
398.971
398.858
398.748
398.641
398.536
398.434
398.334
398.237
398.142
398.049
397.958
397.868
397.777
397.684
397.591
397.499
397.409
397.319
397.231
397.144
397.058
396.972
396.886
396.803
396.723
396.646
396.571
396.496
396.42
396.343
396.265
396.186
396.108
396.03
395.953
395.877
395.801
395.727
395.653
395.58
395.507
395.434
395.361
395.292
395.482
395.601
395.689
395.757
395.811
395.855
395.888
395.911
395.924
395.928
400
400
400
400
400
400
400
400
400
399.996
399.78
399.614
399.468
399.335
399.208
399.087
398.971
398.858
398.748
398.641
398.536
398.434
398.334
398.236
398.141
398.048
397.956
397.866
397.775
397.683
397.591
397.498
397.408
397.319
397.231
397.143
397.057
396.971
396.885
396.802
396.723
396.647
396.572
396.497
396.421
396.344
396.266
396.188
396.109
396.032
395.955
395.878
395.803
395.728
395.654
395.581
395.508
395.435
395.361
395.292
395.483
395.601
395.689
395.757
395.811
395.855
395.888
395.911
395.924
395.928
400
400
400
400
400
400
400
400
400
399.996
399.781
399.614
399.469
399.335
399.209
399.088
398.971
398.858
398.748
398.641
398.536
398.434
398.334
398.236
398.14
398.046
397.955
397.864
397.774
397.683
397.591
397.498
397.408
397.319
397.231
397.144
397.057
396.971
396.886
396.803
396.724
396.648
396.574
396.499
396.423
396.346
396.268
396.189
396.111
396.034
395.957
395.88
395.805
395.73
395.656
395.583
395.509
395.435
395.36
395.29
395.482
395.601
395.688
395.756
395.811
395.854
395.887
395.91
395.923
395.927
400
400
400
400
400
400
400
400
400
399.996
399.781
399.614
399.469
399.335
399.209
399.088
398.972
398.858
398.748
398.641
398.536
398.434
398.333
398.235
398.139
398.045
397.953
397.863
397.773
397.683
397.591
397.5
397.409
397.32
397.232
397.145
397.058
396.972
396.888
396.806
396.728
396.651
396.577
396.502
396.425
396.348
396.27
396.192
396.114
396.036
395.959
395.883
395.807
395.732
395.658
395.584
395.511
395.436
395.361
395.29
395.482
395.601
395.689
395.757
395.812
395.855
395.888
395.911
395.924
395.928
400
400
400
400
400
400
400
400
400
399.996
399.781
399.615
399.469
399.336
399.209
399.089
398.972
398.859
398.749
398.641
398.536
398.434
398.333
398.235
398.139
398.045
397.952
397.862
397.772
397.682
397.592
397.502
397.411
397.323
397.235
397.148
397.061
396.976
396.892
396.811
396.733
396.656
396.581
396.505
396.429
396.352
396.274
396.196
396.118
396.04
395.963
395.886
395.81
395.735
395.661
395.587
395.512
395.437
395.362
395.291
395.483
395.602
395.69
395.758
395.813
395.856
395.889
395.912
395.925
395.929
400
400
400
400
400
400
400
400
400
399.996
399.781
399.615
399.47
399.336
399.21
399.089
398.973
398.859
398.749
398.642
398.537
398.434
398.334
398.235
398.139
398.044
397.952
397.861
397.771
397.683
397.593
397.504
397.415
397.326
397.239
397.152
397.066
396.981
396.898
396.817
396.739
396.662
396.586
396.51
396.434
396.356
396.278
396.2
396.122
396.044
395.966
395.89
395.814
395.739
395.664
395.59
395.515
395.44
395.363
395.291
395.484
395.604
395.691
395.76
395.814
395.858
395.891
395.914
395.926
395.93
400
400
400
400
400
400
400
400
400
399.996
399.782
399.615
399.47
399.337
399.211
399.09
398.973
398.86
398.75
398.643
398.538
398.435
398.334
398.236
398.139
398.045
397.952
397.86
397.771
397.683
397.595
397.506
397.418
397.33
397.243
397.157
397.072
396.987
396.905
396.824
396.745
396.668
396.592
396.515
396.438
396.36
396.282
396.204
396.126
396.048
395.97
395.894
395.818
395.742
395.668
395.593
395.518
395.442
395.366
395.294
395.486
395.606
395.694
395.762
395.817
395.86
395.893
395.916
395.929
395.932
400
400
400
400
400
400
400
400
400
399.996
399.782
399.616
399.471
399.337
399.211
399.091
398.974
398.861
398.751
398.644
398.539
398.436
398.335
398.237
398.14
398.045
397.952
397.861
397.771
397.683
397.596
397.509
397.422
397.335
397.248
397.163
397.078
396.994
396.911
396.831
396.752
396.674
396.597
396.52
396.442
396.364
396.286
396.208
396.129
396.052
395.974
395.897
395.821
395.746
395.671
395.596
395.521
395.445
395.368
395.296
395.489
395.608
395.696
395.765
395.82
395.863
395.896
395.919
395.931
395.935
400
400
400
400
400
400
400
400
400
399.996
399.782
399.616
399.471
399.338
399.212
399.091
398.975
398.862
398.752
398.645
398.54
398.437
398.337
398.238
398.141
398.046
397.953
397.861
397.772
397.684
397.598
397.511
397.425
397.339
397.254
397.168
397.084
397
396.918
396.838
396.758
396.679
396.602
396.524
396.446
396.368
396.29
396.211
396.133
396.055
395.978
395.901
395.825
395.75
395.675
395.599
395.524
395.448
395.371
395.298
395.491
395.611
395.699
395.768
395.823
395.866
395.899
395.922
395.935
395.938
400
400
400
400
400
400
400
400
400
399.996
399.782
399.617
399.472
399.339
399.213
399.092
398.976
398.863
398.754
398.646
398.541
398.439
398.338
398.239
398.142
398.047
397.954
397.863
397.773
397.685
397.599
397.514
397.429
397.344
397.259
397.174
397.09
397.007
396.925
396.844
396.764
396.685
396.606
396.528
396.449
396.371
396.293
396.215
396.136
396.059
395.981
395.905
395.829
395.753
395.678
395.603
395.527
395.451
395.374
395.302
395.495
395.615
395.703
395.772
395.827
395.87
395.903
395.926
395.938
395.942
400
400
400
400
400
400
400
400
400
399.996
399.783
399.617
399.472
399.339
399.214
399.094
398.977
398.865
398.755
398.648
398.543
398.44
398.34
398.241
398.144
398.049
397.956
397.864
397.775
397.687
397.602
397.517
397.433
397.348
397.264
397.18
397.096
397.013
396.931
396.849
396.769
396.689
396.61
396.531
396.452
396.374
396.296
396.217
396.139
396.062
395.985
395.908
395.832
395.757
395.682
395.606
395.531
395.454
395.377
395.305
395.499
395.619
395.707
395.776
395.831
395.874
395.907
395.93
395.943
395.946
400
400
400
400
400
400
400
400
400
399.996
399.783
399.617
399.473
399.34
399.215
399.095
398.979
398.866
398.757
398.65
398.545
398.442
398.342
398.243
398.146
398.051
397.958
397.866
397.777
397.69
397.604
397.52
397.437
397.353
397.269
397.186
397.102
397.019
396.936
396.854
396.773
396.693
396.613
396.534
396.455
396.377
396.298
396.22
396.142
396.065
395.988
395.911
395.835
395.76
395.685
395.61
395.534
395.458
395.381
395.309
395.503
395.623
395.711
395.78
395.835
395.878
395.911
395.934
395.947
395.95
400
400
400
400
400
400
400
400
400
399.996
399.783
399.618
399.474
399.341
399.216
399.096
398.98
398.868
398.759
398.652
398.547
398.445
398.344
398.246
398.149
398.054
397.96
397.869
397.78
397.693
397.608
397.524
397.441
397.358
397.274
397.191
397.107
397.024
396.941
396.859
396.777
396.696
396.616
396.537
396.458
396.379
396.301
396.223
396.145
396.067
395.991
395.914
395.838
395.763
395.688
395.613
395.537
395.461
395.384
395.312
395.506
395.626
395.715
395.784
395.839
395.882
395.915
395.938
395.95
395.953
400
400
400
400
400
400
400
400
400
399.996
399.783
399.618
399.475
399.342
399.217
399.097
398.982
398.87
398.761
398.654
398.55
398.447
398.347
398.248
398.152
398.057
397.963
397.872
397.783
397.696
397.611
397.528
397.445
397.362
397.279
397.195
397.112
397.028
396.945
396.862
396.78
396.699
396.618
396.539
396.459
396.381
396.302
396.224
396.146
396.069
395.992
395.916
395.84
395.765
395.689
395.614
395.539
395.462
395.385
395.314
395.507
395.628
395.716
395.785
395.84
395.883
395.916
395.938
395.951
395.954
400
400
400
400
400
400
400
400
400
399.996
399.784
399.619
399.475
399.343
399.218
399.099
398.984
398.872
398.763
398.656
398.552
398.45
398.349
398.251
398.154
398.059
397.966
397.875
397.786
397.699
397.614
397.531
397.448
397.365
397.282
397.198
397.114
397.03
396.946
396.863
396.781
396.699
396.618
396.538
396.458
396.379
396.3
396.222
396.144
396.067
395.99
395.913
395.837
395.762
395.686
395.611
395.535
395.458
395.381
395.309
395.503
395.623
395.711
395.78
395.834
395.877
395.909
395.931
395.943
395.945
400
400
400
400
400
400
400
400
400
399.996
399.784
399.619
399.476
399.344
399.22
399.1
398.985
398.874
398.765
398.658
398.554
398.452
398.351
398.253
398.156
398.061
397.968
397.876
397.787
397.7
397.615
397.532
397.448
397.365
397.281
397.196
397.111
397.027
396.943
396.859
396.776
396.693
396.612
396.531
396.45
396.37
396.291
396.212
396.133
396.055
395.978
395.901
395.824
395.747
395.671
395.595
395.518
395.44
395.362
395.289
395.483
395.603
395.69
395.757
395.811
395.852
395.883
395.903
395.913
395.913
400
400
400
400
400
400
400
400
400
399.996
399.784
399.62
399.476
399.344
399.22
399.101
398.986
398.874
398.765
398.658
398.554
398.451
398.35
398.251
398.154
398.058
397.964
397.872
397.783
397.695
397.609
397.524
397.44
397.355
397.269
397.183
397.097
397.011
396.926
396.84
396.756
396.672
396.589
396.506
396.424
396.343
396.262
396.181
396.101
396.021
395.942
395.863
395.784
395.705
395.627
395.548
395.469
395.389
395.308
395.232
395.425
395.543
395.628
395.692
395.743
395.78
395.807
395.822
395.826
395.819
400
400
400
400
400
400
400
400
400
399.996
399.784
399.62
399.476
399.344
399.219
399.099
398.983
398.871
398.761
398.653
398.547
398.443
398.341
398.24
398.141
398.044
397.948
397.854
397.762
397.672
397.584
397.496
397.409
397.321
397.232
397.143
397.054
396.965
396.876
396.788
396.7
396.613
396.526
396.44
396.354
396.269
396.184
396.1
396.016
395.932
395.848
395.764
395.681
395.597
395.513
395.429
395.343
395.257
395.168
395.085
395.273
395.385
395.463
395.519
395.56
395.586
395.6
395.602
395.59
395.567
400
400
400
400
400
400
400
400
400
399.996
399.783
399.617
399.472
399.338
399.211
399.088
398.969
398.854
398.74
398.629
398.519
398.411
398.305
398.199
398.096
397.993
397.893
397.793
397.696
397.6
397.506
397.412
397.318
397.224
397.129
397.033
396.937
396.841
396.746
396.651
396.556
396.461
396.367
396.273
396.18
396.087
395.994
395.901
395.808
395.715
395.621
395.526
395.431
395.335
395.238
395.139
395.037
394.933
394.825
394.721
394.897
394.992
395.049
395.081
395.095
395.092
395.073
395.038
394.986
394.921
400
400
400
400
400
400
400
400
400
399.996
399.777
399.607
399.455
399.315
399.18
399.05
398.923
398.798
398.675
398.554
398.434
398.316
398.198
398.082
397.967
397.853
397.74
397.629
397.519
397.411
397.304
397.197
397.089
396.981
396.873
396.764
396.654
396.545
396.436
396.327
396.218
396.11
396.001
395.893
395.784
395.675
395.566
395.455
395.343
395.23
395.114
394.996
394.875
394.75
394.62
394.486
394.346
394.198
394.044
393.889
394.033
394.085
394.091
394.067
394.018
393.945
393.849
393.73
393.588
393.431
400
400
400
400
400
400
400
400
400
399.995
399.757
399.565
399.395
399.235
399.08
398.929
398.781
398.634
398.49
398.346
398.204
398.063
397.922
397.783
397.645
397.508
397.372
397.238
397.106
396.975
396.845
396.715
396.586
396.456
396.325
396.195
396.064
395.933
395.803
395.673
395.543
395.413
395.282
395.151
395.019
394.884
394.747
394.606
394.461
394.311
394.154
393.99
393.817
393.635
393.441
393.235
393.016
392.782
392.532
392.279
392.373
392.352
392.271
392.146
391.982
391.783
391.549
391.282
390.981
390.665
400
400
400
400
400
400
400
400
400
399.992
399.678
399.436
399.224
399.024
398.833
398.647
398.464
398.285
398.108
397.933
397.76
397.589
397.419
397.251
397.085
396.921
396.759
396.6
396.444
396.289
396.137
395.985
395.834
395.684
395.534
395.384
395.235
395.087
394.939
394.791
394.643
394.494
394.344
394.191
394.035
393.874
393.706
393.531
393.346
393.15
392.94
392.716
392.476
392.217
391.94
391.641
391.32
390.976
390.606
390.237
390.369
390.307
390.148
389.919
389.633
389.294
388.909
388.478
388.008
387.541
400
400
400
400
400
400
400
400
400
399.995
399.755
399.532
399.326
399.13
398.941
398.757
398.576
398.399
398.224
398.05
397.878
397.708
397.539
397.371
397.205
397.039
396.875
396.712
396.551
396.391
396.234
396.078
395.925
395.773
395.624
395.478
395.333
395.189
395.046
394.903
394.758
394.61
394.46
394.306
394.147
393.983
393.814
393.636
393.449
393.252
393.041
392.818
392.578
392.321
392.047
391.751
391.434
391.095
390.731
390.363
390.417
390.345
390.185
389.957
389.673
389.338
388.955
388.528
388.061
387.591
400
400
400
400
400
400
400
400
400
399.997
399.825
399.657
399.497
399.343
399.193
399.046
398.901
398.758
398.616
398.476
398.336
398.197
398.059
397.922
397.785
397.648
397.512
397.376
397.241
397.107
396.973
396.841
396.709
396.579
396.45
396.322
396.195
396.069
395.944
395.818
395.691
395.563
395.433
395.301
395.168
395.033
394.894
394.753
394.608
394.457
394.301
394.138
393.967
393.788
393.598
393.397
393.184
392.958
392.716
392.469
392.486
392.449
392.365
392.241
392.081
391.887
391.659
391.399
391.105
390.793
400
400
400
400
400
400
400
400
400
399.998
399.843
399.693
399.552
399.417
399.287
399.161
399.037
398.916
398.796
398.678
398.561
398.445
398.33
398.216
398.102
397.989
397.877
397.765
397.653
397.542
397.432
397.322
397.213
397.105
396.998
396.892
396.787
396.683
396.578
396.474
396.368
396.262
396.154
396.045
395.936
395.827
395.717
395.605
395.493
395.38
395.265
395.147
395.027
394.904
394.778
394.647
394.512
394.37
394.224
394.075
394.144
394.177
394.179
394.154
394.107
394.037
393.946
393.833
393.697
393.545
400
400
400
400
400
400
400
400
400
399.998
399.846
399.701
399.565
399.437
399.314
399.195
399.08
398.968
398.857
398.749
398.642
398.536
398.432
398.329
398.227
398.126
398.025
397.925
397.826
397.727
397.63
397.533
397.437
397.342
397.248
397.156
397.065
396.974
396.883
396.792
396.7
396.608
396.514
396.42
396.326
396.232
396.138
396.044
395.951
395.857
395.763
395.669
395.574
395.48
395.384
395.288
395.189
395.09
394.988
394.889
394.99
395.064
395.114
395.144
395.157
395.155
395.138
395.106
395.058
394.997
400
400
400
400
400
400
400
400
400
399.998
399.847
399.703
399.568
399.441
399.321
399.204
399.092
398.983
398.876
398.771
398.668
398.566
398.467
398.368
398.271
398.174
398.079
397.984
397.891
397.798
397.706
397.615
397.525
397.437
397.349
397.263
397.179
397.095
397.011
396.926
396.841
396.755
396.668
396.582
396.495
396.409
396.323
396.237
396.152
396.067
395.983
395.9
395.817
395.734
395.651
395.569
395.487
395.404
395.321
395.242
395.355
395.445
395.514
395.566
395.604
395.631
395.645
395.648
395.638
395.617
400
400
400
400
400
400
400
400
400
399.998
399.846
399.702
399.567
399.441
399.32
399.205
399.093
398.984
398.878
398.775
398.673
398.573
398.475
398.378
398.283
398.189
398.095
398.003
397.912
397.821
397.732
397.643
397.556
397.47
397.386
397.303
397.221
397.14
397.059
396.978
396.895
396.812
396.728
396.645
396.561
396.478
396.396
396.314
396.233
396.152
396.073
395.993
395.915
395.837
395.76
395.683
395.607
395.531
395.456
395.384
395.501
395.596
395.672
395.732
395.779
395.816
395.842
395.858
395.863
395.858
400
400
400
400
400
400
400
400
400
399.998
399.846
399.701
399.566
399.439
399.319
399.203
399.092
398.983
398.878
398.774
398.673
398.574
398.476
398.38
398.285
398.192
398.1
398.008
397.918
397.828
397.74
397.652
397.566
397.482
397.398
397.317
397.236
397.156
397.076
396.995
396.914
396.832
396.749