/*--------------------------------*- C++ -*----------------------------------*\
  =========                 |
  \\      /  F ield         | OpenFOAM: The Open Source CFD Toolbox
   \\    /   O peration     | Website:  https://openfoam.org
    \\  /    A nd           | Version:  12
     \\/     M anipulation  |
\*---------------------------------------------------------------------------*/
FoamFile
{
    format      ascii;
    class       volScalarField;
    location    "1150/air";
    object      alphat;
}
// * * * * * * * * * * * * * * * * * * * * * * * * * * * * * * * * * * * * * //

dimensions      [1 -1 -1 0 0 0 0];

internalField   nonuniform List<scalar> 
243000
(
0.000105244
0.00011688
0.00011622
0.000114238
0.000110997
0.000107116
0.000103015
9.90093e-05
9.52702e-05
9.19098e-05
8.89015e-05
0.000367482
0.000355894
0.000348518
0.000347609
0.000355706
0.000365303
8.56777e-05
8.74845e-05
8.92078e-05
9.11816e-05
9.28997e-05
9.39431e-05
9.40556e-05
9.32088e-05
9.14061e-05
8.88889e-05
8.68113e-05
8.31094e-05
0.000369134
0.000364156
0.000399469
0.000391122
0.000379731
0.000364496
0.000347664
0.000330749
0.00031504
0.000300973
0.000288911
0.000278972
0.000271577
0.000267089
0.000265544
0.000267329
0.000273338
0.000284372
0.000296627
0.000309933
0.000323631
0.000335746
0.000345444
0.000352039
0.000355046
0.000354391
0.000350051
0.000342464
0.000326186
0.000311017
0.00029219
0.000454544
0.000466376
0.000473807
0.000485956
0.000489282
0.000487296
0.000482359
0.000476222
0.000470142
0.000464929
0.000461246
0.00045997
0.00046175
0.000467672
0.000478777
0.000496857
0.000520738
0.000547522
0.000572747
0.000592604
0.000604865
0.000609178
0.000605606
0.000594422
0.000576389
0.000552077
0.000522698
0.000486139
0.000444663
0.000398646
0.00048111
0.000484141
0.000479155
0.000480585
0.000480807
0.000478982
0.000475485
0.000470899
0.000465767
0.000462333
0.0004614
0.000463312
0.00046912
0.000480368
0.00049824
0.000524612
0.000557246
0.000592095
0.000623389
0.000646965
0.000661024
0.000665838
0.000662038
0.000650297
0.000631529
0.000606321
0.000575693
0.000538223
0.000494677
0.000446383
0.000513783
0.000516681
0.000513079
0.000507586
0.000501253
0.000496016
0.000490199
0.000483726
0.000476666
0.000469909
0.000464782
0.00046355
0.000469895
0.000484985
0.000509601
0.000544936
0.000586963
0.000629561
0.000666154
0.000692672
0.000707927
0.000712832
0.000708545
0.000696173
0.000676804
0.000651087
0.000619912
0.000582294
0.000538363
0.000489402
0.000549377
0.000553689
0.000552905
0.000550114
0.000545019
0.000536492
0.000525534
0.000514518
0.000502853
0.000491113
0.000480413
0.000472642
0.00047163
0.000485801
0.000515236
0.000559409
0.000611047
0.000661314
0.000702696
0.000731671
0.000747793
0.000752593
0.000747733
0.000734725
0.00071485
0.000688868
0.00065755
0.000620331
0.000577002
0.000529134
0.000585908
0.000591673
0.000593058
0.000591817
0.000587796
0.000580828
0.000570718
0.000555982
0.000539455
0.00052234
0.000505573
0.000490967
0.000481914
0.000487795
0.000517902
0.000569596
0.00063061
0.000688349
0.000734142
0.000765254
0.000782056
0.000786686
0.000781258
0.000767646
0.000747344
0.000721232
0.000690034
0.000653503
0.0006113
0.000565075
0.000622587
0.000629505
0.000632241
0.000631781
0.000628141
0.000621303
0.000611131
0.000597288
0.000578351
0.000557619
0.000536013
0.000515349
0.000499038
0.000494992
0.000520401
0.000577084
0.000646618
0.000711403
0.000761309
0.000794335
0.000811725
0.000816191
0.000810249
0.000796102
0.000775438
0.000749283
0.000718361
0.00068265
0.000641815
0.000597396
0.000659253
0.000666888
0.000670315
0.000670109
0.00066637
0.000659142
0.000648379
0.000633986
0.000615643
0.000592413
0.000567613
0.00054248
0.000520219
0.000508203
0.000524862
0.000583356
0.000659932
0.000731062
0.000784822
0.00081959
0.000837528
0.00084188
0.000835517
0.000820925
0.000799975
0.000773838
0.00074327
0.000708426
0.000669029
0.000626452
0.000695892
0.000703783
0.000707382
0.000707052
0.000702934
0.000695064
0.000683442
0.000668071
0.000648854
0.000624651
0.000598019
0.000569913
0.000543225
0.000525072
0.000532285
0.000589633
0.000671338
0.000747861
0.000805128
0.000841516
0.000860004
0.000864325
0.000857659
0.000842732
0.000821582
0.000795519
0.000765353
0.000731374
0.000693415
0.000652634
0.000732459
0.000740105
0.000743429
0.000742701
0.000738039
0.000729425
0.000716861
0.000700378
0.000679972
0.000655457
0.000626942
0.000596547
0.000566646
0.000543963
0.000543704
0.000596973
0.000681517
0.000762265
0.000822585
0.000860492
0.00087956
0.000883953
0.000877119
0.000861984
0.000840735
0.000814804
0.000785074
0.000751955
0.00071543
0.000676337
0.000768805
0.000775732
0.000778411
0.000777066
0.000771746
0.000762368
0.000748899
0.000731331
0.000709674
0.000683998
0.000654127
0.000622026
0.000589799
0.000563823
0.000558308
0.000605993
0.000691044
0.000774668
0.000837453
0.000876836
0.000896506
0.000901088
0.000894233
0.000879031
0.000857795
0.000832066
0.00080281
0.000770542
0.000735357
0.000697863
0.000804713
0.000810545
0.000812309
0.000810196
0.000804156
0.000794035
0.000779725
0.000761168
0.000738343
0.000711353
0.000680236
0.000646648
0.000612611
0.000584177
0.000574983
0.000616858
0.000700342
0.000785405
0.00085001
0.000890752
0.000911072
0.00091597
0.000909257
0.000894139
0.000873044
0.000847598
0.000818864
0.000787468
0.000753476
0.000717469
0.000839999
0.000844391
0.000845061
0.000842114
0.000835345
0.000824536
0.000809489
0.000790083
0.000766242
0.000738047
0.000705791
0.000670841
0.000635263
0.000604926
0.000593072
0.0006295
0.000709702
0.000794736
0.000860487
0.000902412
0.000923433
0.000928781
0.000922376
0.000907503
0.000886689
0.000861627
0.000833471
0.000802897
0.000770037
0.000735423
0.000874759
0.000877468
0.000876858
0.000872949
0.000865443
0.000853998
0.000838331
0.000818226
0.00079353
0.000764308
0.000731096
0.000694953
0.000658002
0.000626159
0.000612232
0.000643751
0.000719306
0.000802888
0.000869054
0.000911934
0.000933722
0.000939648
0.000933723
0.000919262
0.000898885
0.000874331
0.000846824
0.000817052
0.000785273
0.000752
0.000909232
0.00091005
0.000908016
0.000903006
0.000894704
0.000882648
0.000866453
0.000845774
0.000820374
0.000790292
0.000756337
0.000719203
0.000681065
0.000647997
0.000632302
0.000659411
0.000729262
0.000810011
0.000875752
0.000919383
0.000942037
0.000948657
0.000943381
0.000929525
0.000909741
0.000885823
0.000859044
0.000830129
0.000799398
0.000767431
0.000943655
0.000942457
0.000938875
0.000932667
0.000923504
0.000910851
0.000894184
0.000873023
0.000847033
0.000816252
0.000781755
0.000743804
0.000704651
0.00067055
0.000653309
0.000676341
0.000739642
0.000816329
0.000880913
0.000924788
0.000948405
0.000955873
0.000951444
0.000938361
0.000919338
0.000896248
0.000870276
0.000842264
0.000812583
0.000781898
0.000977912
0.000975052
0.000969871
0.000962413
0.000952399
0.000939171
0.000922071
0.000900493
0.000874002
0.000842761
0.00080784
0.00076913
0.000729035
0.000694047
0.000675936
0.000694583
0.000750533
0.000822002
0.000884616
0.000928427
0.000952923
0.000961366
0.000957967
0.000945811
0.000927747
0.000905617
0.000880592
0.000853563
0.00082497
0.000795554
0.00101138
0.00100724
0.0010012
0.000993006
0.000982312
0.000968579
0.000951125
0.000929223
0.000902384
0.000871585
0.000835679
0.000795944
0.000754813
0.000719335
0.000700426
0.000714128
0.000762032
0.000827217
0.000887042
0.000930424
0.000955578
0.00096518
0.000962957
0.000951942
0.000935024
0.000913983
0.000890045
0.000864109
0.000836673
0.000808541
0.00104393
0.00103852
0.00103167
0.00102305
0.00101225
0.000998699
0.000981593
0.000960068
0.000933842
0.000903355
0.000866684
0.000825789
0.000783543
0.000747265
0.000726656
0.000734909
0.000774242
0.000832211
0.000888396
0.000930968
0.000956629
0.000967368
0.000966447
0.000956784
0.000941158
0.000921376
0.000898678
0.00087397
0.000847796
0.000820979
0.00107545
0.00106883
0.0010612
0.00105219
0.0010414
0.00102824
0.00101188
0.000991506
0.000967429
0.000936628
0.000899408
0.000857748
0.000814638
0.000777318
0.000754397
0.000756846
0.000787289
0.000837226
0.000888903
0.000930142
0.000956228
0.000967981
0.000968468
0.000960339
0.000946167
0.000927816
0.000906523
0.000883189
0.000858384
0.000832964
0.00110585
0.00109812
0.00108979
0.00108049
0.00106988
0.0010574
0.00104264
0.00102473
0.00100072
0.000970043
0.000932883
0.000891089
0.000847544
0.000809114
0.000783487
0.000779919
0.00080127
0.000842405
0.000888728
0.000927926
0.000954136
0.000967052
0.000968946
0.000962535
0.000950033
0.000933296
0.000913571
0.000891762
0.000868457
0.000844551
0.00113499
0.00112636
0.00111758
0.00110832
0.00109852
0.00108791
0.00107459
0.00105668
0.00103306
0.00100304
0.00096664
0.000925408
0.000881964
0.000842512
0.000813917
0.000804177
0.000816269
0.000847965
0.000887911
0.000924292
0.000950151
0.000964208
0.000967733
0.000963116
0.000952591
0.000937733
0.000919812
0.000899729
0.000878103
0.000855845
0.00116289
0.00115379
0.0011455
0.00113755
0.00112883
0.00111802
0.00110431
0.00108662
0.00106378
0.00103497
0.00100004
0.000960123
0.000917381
0.000877175
0.000845475
0.000829413
0.000832114
0.000853993
0.000886683
0.000919212
0.000944374
0.000959342
0.000964552
0.000961917
0.000953487
0.000940801
0.000925036
0.000907023
0.000887382
0.000867018
0.00118995
0.00118184
0.00117362
0.00116489
0.00115523
0.00114398
0.00113023
0.001113
0.00109116
0.00106402
0.00103108
0.000993149
0.000951739
0.000911407
0.000876946
0.000854893
0.000848817
0.000862825
0.000889141
0.000917826
0.000941274
0.000956327
0.000962502
0.000960999
0.000953515
0.000942238
0.000928755
0.000913226
0.000896037
0.000878034
0.00121254
0.00120356
0.00119454
0.00118507
0.00117474
0.0011631
0.00114941
0.00113277
0.00111212
0.00108684
0.00105626
0.00102087
0.000981486
0.000942935
0.00090908
0.000884968
0.000874436
0.000880952
0.000899745
0.000923034
0.000943721
0.00095779
0.000964094
0.000963413
0.000956775
0.00094607
0.000932705
0.000918433
0.00090375
0.000888612
0.00122871
0.00121712
0.00120636
0.00119621
0.00118632
0.0011762
0.00116514
0.00115215
0.00113609
0.00111597
0.00109096
0.00106105
0.00102707
0.000992282
0.000960137
0.000934685
0.000919464
0.000918249
0.00092828
0.000944033
0.000959518
0.000970617
0.000975631
0.000974596
0.000968074
0.000957485
0.000944064
0.000929167
0.000913603
0.000898599
0.00126332
0.00125145
0.00124016
0.00123
0.0012211
0.00121319
0.00120561
0.00119726
0.00118689
0.00117332
0.00115538
0.00113285
0.00110636
0.00107801
0.00105048
0.00102597
0.0010074
0.000998505
0.000998584
0.00100419
0.00101113
0.00101593
0.00101676
0.00101289
0.00100457
0.000992679
0.000978099
0.000961959
0.000945071
0.000928853
0.00133405
0.00132395
0.00131553
0.00131025
0.00130782
0.00130738
0.0013079
0.00130804
0.00130665
0.00130261
0.00129416
0.00128169
0.00126581
0.00124788
0.00122901
0.0012101
0.00119232
0.00117901
0.00117041
0.0011654
0.00116191
0.00115776
0.00115157
0.00114255
0.00113063
0.00111601
0.00109871
0.00108003
0.00106089
0.00104309
0.00157257
0.00156752
0.00157004
0.00157854
0.00158633
0.00159242
0.00159696
0.00160023
0.00160207
0.00160171
0.00159631
0.0015895
0.00158181
0.00157403
0.00156541
0.00155716
0.00154765
0.00153998
0.00153401
0.00153043
0.00152836
0.00152707
0.00152579
0.00152405
0.00152152
0.00151706
0.00150727
0.00149623
0.00148529
0.00147494
0.000158479
0.000163144
0.000161598
0.000157392
0.000151652
0.000145214
0.000138635
0.000132319
0.000126491
0.000121308
0.000116843
0.000113134
0.000110348
0.000108678
0.000108183
0.000109068
0.000111225
0.000114273
0.000117808
0.000121363
0.000124325
0.000126079
0.000126086
0.000123933
0.000119473
0.000112667
0.000103863
9.24939e-05
0.000379427
0.000382163
0.000585435
0.000605065
0.000574698
0.000532761
0.000488817
0.000446655
0.00040812
0.000374028
0.000344723
0.000320757
0.000302405
0.000290433
0.000285605
0.000289518
0.000302458
0.000325041
0.000350733
0.000374322
0.000389795
0.000396756
0.000398079
0.000397341
0.000394432
0.000386451
0.00037267
0.000352411
0.000326186
0.00029191
0.000277525
0.000287096
0.000806976
0.000860127
0.000853479
0.00081487
0.000764314
0.000712352
0.000661729
0.000616019
0.000577121
0.000546495
0.000525281
0.000515765
0.000519809
0.000542294
0.000585721
0.000649252
0.00071417
0.000765631
0.000791709
0.000793437
0.000780347
0.000762752
0.00074255
0.000719057
0.000687952
0.00064644
0.000595044
0.000529113
0.00046348
0.000437378
0.000848023
0.000928771
0.000943785
0.00092681
0.000890199
0.000844506
0.000798922
0.000758366
0.000726048
0.000702181
0.000690318
0.000693918
0.000716997
0.000769287
0.000856569
0.000973909
0.00108545
0.00116777
0.00120404
0.00119943
0.00117029
0.00113122
0.00108959
0.00104502
0.000993223
0.000930371
0.000855788
0.000763439
0.000663643
0.000602518
0.000818917
0.000900187
0.000925421
0.00092254
0.000901731
0.000871762
0.000840464
0.000812832
0.000792886
0.000784669
0.000789149
0.00081401
0.000864196
0.000955926
0.00109735
0.00127717
0.00143997
0.00155082
0.00159575
0.00158446
0.00154052
0.00148075
0.00141743
0.00135253
0.00128145
0.00119962
0.0011047
0.000991419
0.00086603
0.000779323
0.000773419
0.000852258
0.000882722
0.000889066
0.00087928
0.000859876
0.000837717
0.000817486
0.000808062
0.000813128
0.000834588
0.000881368
0.000964982
0.00110463
0.00130938
0.00155818
0.00177355
0.0019087
0.001959
0.00194057
0.00188348
0.00180477
0.00172146
0.00163782
0.00154967
0.00145133
0.00134035
0.00121141
0.0010677
0.000961136
0.000743608
0.000812821
0.000848066
0.000862154
0.000861778
0.000851471
0.000836494
0.000821179
0.000813814
0.000819285
0.000847649
0.000911598
0.00102549
0.00122166
0.00149846
0.00182077
0.0020872
0.00224109
0.00229293
0.00226684
0.0021979
0.00210213
0.00200108
0.00190067
0.00179754
0.00168566
0.00156216
0.00142196
0.00126571
0.00114403
0.000738263
0.00079534
0.00083117
0.000850268
0.000856553
0.000852689
0.000842817
0.000831193
0.000823918
0.000828215
0.000854042
0.000921022
0.00106008
0.00131626
0.00167116
0.00206875
0.00238209
0.00254912
0.00259863
0.00256461
0.00248474
0.00237376
0.00225724
0.00214213
0.0020254
0.0019029
0.00176995
0.00162204
0.00145786
0.00132505
0.000794177
0.000817988
0.000846082
0.000866601
0.00087389
0.00087139
0.00086297
0.000851954
0.000842852
0.000843352
0.000865849
0.00092911
0.00108205
0.00138946
0.00183267
0.00230502
0.00265832
0.00283441
0.00287794
0.00283587
0.00274581
0.00262148
0.00249163
0.00236381
0.00223564
0.00210432
0.00196409
0.00181082
0.00164204
0.00150167
0.000945857
0.00094354
0.000949028
0.00095175
0.000945584
0.000931623
0.000912746
0.000892748
0.000876067
0.000870016
0.000886327
0.000947394
0.00110446
0.00145833
0.00198951
0.0025317
0.00291662
0.00309753
0.00313257
0.00308277
0.00298318
0.0028475
0.00270627
0.0025676
0.00242998
0.00229101
0.00214529
0.00198869
0.00181765
0.00167151
0.00120539
0.00118658
0.0011637
0.00113698
0.00110365
0.00106234
0.00101716
0.000973909
0.000937943
0.000916536
0.000920848
0.000974531
0.00113747
0.00152909
0.00214626
0.00274997
0.00315719
0.00333896
0.00336425
0.00330721
0.0031992
0.00305395
0.0029032
0.00275521
0.00260955
0.0024643
0.00231439
0.00215657
0.00198627
0.0018352
0.00153843
0.00151923
0.00147522
0.00141955
0.00135193
0.00127485
0.00119368
0.00111404
0.00104411
0.000995031
0.000979752
0.00102191
0.00119014
0.00162315
0.00231002
0.00296031
0.00337977
0.00355916
0.00357462
0.00351086
0.00339595
0.00324293
0.00308447
0.00292828
0.00277593
0.0026256
0.00247262
0.00231483
0.00214525
0.00199223
0.00189995
0.00189729
0.00184737
0.00176875
0.00167128
0.00155922
0.00143929
0.00131855
0.00120633
0.00111723
0.00107176
0.00109599
0.00127325
0.00174417
0.00248237
0.00316166
0.0035837
0.00375832
0.00376495
0.00369533
0.00357523
0.0034163
0.00325194
0.00308876
0.00293079
0.0027764
0.00262188
0.00246324
0.00229541
0.00214255
0.0022405
0.00225502
0.00222002
0.00214327
0.00202786
0.00189038
0.0017377
0.00157875
0.00142428
0.00129058
0.0012062
0.00120782
0.00138831
0.00188884
0.0026625
0.0033521
0.00376802
0.00393604
0.00393648
0.00386192
0.00373847
0.00357553
0.00340661
0.00323791
0.00307551
0.00291796
0.00276226
0.00260317
0.00243807
0.00228681
0.00256305
0.00259136
0.00256947
0.00250321
0.00239101
0.00224091
0.00206716
0.00187892
0.00168808
0.00151339
0.00138802
0.00136438
0.00154082
0.00206165
0.00284822
0.00352884
0.00393144
0.00409202
0.00408949
0.00401141
0.00388652
0.00372186
0.00354836
0.00337661
0.00321115
0.00305183
0.00289458
0.00273619
0.0025748
0.0024265
0.00286586
0.00290456
0.00289373
0.00283819
0.00273772
0.0025885
0.0024066
0.00220073
0.00198358
0.00177596
0.00161502
0.00156628
0.00173089
0.00225894
0.00303374
0.00368794
0.00407207
0.00422571
0.00422336
0.00414387
0.00401961
0.00385526
0.00367979
0.00350572
0.00333889
0.00317906
0.00302105
0.00286363
0.00270579
0.00256252
0.00314488
0.00318995
0.00318887
0.00314424
0.00305512
0.00291702
0.00273747
0.00252522
0.00229325
0.00206353
0.00187676
0.00180681
0.00195233
0.00247129
0.00320982
0.00382415
0.00418711
0.00433547
0.00433654
0.00425864
0.00413716
0.00397551
0.00380032
0.00362626
0.00345988
0.00330002
0.00314245
0.00298664
0.00283263
0.00269539
0.00339897
0.00344134
0.00344816
0.00341404
0.00333626
0.00321273
0.00304208
0.0028327
0.0025968
0.00235673
0.0021549
0.00206894
0.0021907
0.00268325
0.00336303
0.00393048
0.00427226
0.00441821
0.00442615
0.00435402
0.00423928
0.00408122
0.00391013
0.00373802
0.00357385
0.00341497
0.00325923
0.00310611
0.00295666
0.0028258
0.0036327
0.0036631
0.00366687
0.00363631
0.00356809
0.00345808
0.00330111
0.00310136
0.00287051
0.00263066
0.00242418
0.00232729
0.00242192
0.00287114
0.00347949
0.00399792
0.00432104
0.00446855
0.00448799
0.00442713
0.00432186
0.00417014
0.00400707
0.00383957
0.00367861
0.00352263
0.00337053
0.00322182
0.00307817
0.00295368
0.00384376
0.00386002
0.00385524
0.00382149
0.00375557
0.00365258
0.0035052
0.00331511
0.0030923
0.00285781
0.00265235
0.00254767
0.00261353
0.00300963
0.0035433
0.00401439
0.00432345
0.00447836
0.004514
0.00447081
0.00437925
0.00423839
0.00408448
0.00392647
0.00377259
0.00362116
0.00347415
0.00333193
0.00319665
0.00307665
0.00402829
0.00402894
0.00401284
0.00397288
0.00390564
0.00380492
0.00366269
0.00347941
0.00326304
0.00303332
0.00282827
0.00271294
0.00274817
0.00307721
0.00353644
0.00396364
0.00426464
0.0044331
0.00449108
0.0044723
0.0044012
0.00427914
0.00413775
0.00399056
0.00384626
0.00370504
0.00356716
0.00343336
0.00330551
0.00319198
0.00417902
0.00416311
0.00413474
0.00408726
0.00401626
0.00391375
0.00377326
0.00359314
0.00337946
0.00315061
0.00294161
0.00280974
0.00281046
0.00305627
0.00344165
0.00382625
0.00412313
0.00431152
0.00439563
0.00441001
0.00436911
0.00427687
0.00415742
0.00402691
0.00389508
0.00376495
0.0036364
0.00351211
0.00339431
0.00329218
0.00428434
0.00425222
0.00421216
0.00415668
0.00407881
0.00397224
0.00383041
0.00364968
0.00343453
0.00320249
0.00298527
0.00283198
0.0027935
0.00294467
0.00325436
0.00358877
0.00387766
0.00407863
0.00419628
0.00425087
0.00425118
0.00419978
0.00411437
0.0040136
0.00390445
0.00379108
0.00367665
0.00356535
0.00345967
0.00336922
0.00432737
0.00428166
0.00423158
0.00416568
0.00408095
0.00397014
0.00382497
0.003641
0.00342343
0.00318958
0.0029669
0.00279549
0.002719
0.00278034
0.00300216
0.00327154
0.00352247
0.00372486
0.00386919
0.00396402
0.00400944
0.00400618
0.00396681
0.00390765
0.00383432
0.00375147
0.00366269
0.00357108
0.00348238
0.00340544
0.00428473
0.00423248
0.00417247
0.00410122
0.00401384
0.00390103
0.00375441
0.00357152
0.00335993
0.00313829
0.00292697
0.00275486
0.00265431
0.00265041
0.00277459
0.0029575
0.00314321
0.00331199
0.00345308
0.00356439
0.00363875
0.00367531
0.00368019
0.00366579
0.00363785
0.00359752
0.00354614
0.00348728
0.00342549
0.00336723
0.00413105
0.00407972
0.00402501
0.00396217
0.00388347
0.00378003
0.00364622
0.00348263
0.003298
0.00311015
0.00293328
0.00278495
0.0026847
0.00264502
0.00268566
0.00277481
0.00288089
0.00298795
0.00308605
0.00317181
0.00323863
0.00328275
0.00330529
0.00331392
0.0033135
0.0033061
0.00329327
0.00327143
0.00324206
0.00321122
0.00388326
0.00385497
0.00382488
0.00378747
0.00373257
0.00365338
0.00354943
0.00342486
0.0032885
0.00315091
0.00301992
0.00290664
0.00282181
0.00277264
0.0027675
0.00279206
0.00283018
0.00287254
0.00291357
0.00295092
0.00298032
0.00299837
0.00300472
0.00300301
0.00299679
0.00298863
0.0029803
0.00297122
0.00296231
0.00295758
0.00362713
0.00362507
0.00363254
0.00363513
0.00361556
0.00357116
0.00350613
0.00342391
0.00333318
0.00324064
0.00315032
0.00306987
0.00300522
0.00296128
0.00293887
0.00293328
0.00293534
0.00294097
0.0029465
0.00295049
0.00295043
0.00294401
0.00293126
0.00291327
0.00289193
0.00286928
0.00284684
0.00282596
0.00280826
0.00280697
0.00343908
0.00344623
0.00346952
0.00348991
0.0034933
0.00347758
0.0034447
0.00339744
0.00334151
0.00328207
0.0032191
0.00316121
0.00311146
0.00307406
0.00304531
0.00302948
0.00302022
0.00301528
0.00301255
0.00301125
0.00300997
0.00300622
0.00300177
0.0029949
0.00298667
0.0029775
0.00296665
0.00295719
0.00294809
0.00294999
0.00330337
0.00331954
0.00334456
0.00336305
0.00336764
0.00335894
0.00333948
0.00331163
0.00327785
0.0032413
0.00319857
0.0031581
0.00312068
0.00309169
0.00306292
0.00304639
0.0030369
0.00303218
0.00303165
0.00303548
0.00304326
0.00305457
0.00306585
0.00307875
0.00309222
0.00310527
0.00311672
0.00312966
0.0031364
0.00313695
0.000184771
0.0001937
0.000192897
0.000188361
0.000181724
0.000174049
0.000166074
0.000158333
0.000151136
0.000144713
0.000139156
0.000134642
0.000131249
0.000129258
0.000128688
0.000129689
0.000131871
0.000135022
0.00013913
0.00014399
0.000148518
0.0001514
0.000151598
0.000148453
0.000141689
0.000131204
0.0001172
9.93624e-05
8.49786e-05
0.000386924
0.000708375
0.000819686
0.000805947
0.000755692
0.000697089
0.000640226
0.000589761
0.0005466
0.000510709
0.00048258
0.000462282
0.000451387
0.0004494
0.000458333
0.000474892
0.000497141
0.000513546
0.000524085
0.000529381
0.000533664
0.000539305
0.000547184
0.000551904
0.000544882
0.000520333
0.000480149
0.000428595
0.000367439
0.000310197
0.000304374
0.00107186
0.00125777
0.00128548
0.00125076
0.00118643
0.00111429
0.00104535
0.000984277
0.000933521
0.000895446
0.000871693
0.000866217
0.000879747
0.000917295
0.000972427
0.00103474
0.00107631
0.00109523
0.00109149
0.00107498
0.00105721
0.00104651
0.0010344
0.00100587
0.000958469
0.000883226
0.000784682
0.000665044
0.000547829
0.000490015
0.00123699
0.00146122
0.00155189
0.00155519
0.00150749
0.00144236
0.00137506
0.00131331
0.00126303
0.00122828
0.00121321
0.00122471
0.00126654
0.00134679
0.00145511
0.00156606
0.00163572
0.00166023
0.00164194
0.00160088
0.00155635
0.00152017
0.00148706
0.00143909
0.0013651
0.00125894
0.00112315
0.000958784
0.000788924
0.00068847
0.0013033
0.00153065
0.00165409
0.00169236
0.00167771
0.00163182
0.0015785
0.00152778
0.00149038
0.00146938
0.00147286
0.00151103
0.00159335
0.00172913
0.0019008
0.00206323
0.00215715
0.00218221
0.00214635
0.00207944
0.00200884
0.00194723
0.0018901
0.00182428
0.00173103
0.0016029
0.00144127
0.00124555
0.00103609
0.000896606
0.00130483
0.00150777
0.0016396
0.00170233
0.00171589
0.00169951
0.00167037
0.00164563
0.00162524
0.00162622
0.00165695
0.00173275
0.00186736
0.00207176
0.00231399
0.0025275
0.00263864
0.00265663
0.00259878
0.00250607
0.00241182
0.00232657
0.00224797
0.00216543
0.00205852
0.00191643
0.00173828
0.00152264
0.00128572
0.00111132
0.00125053
0.0014151
0.00154528
0.00162399
0.00166078
0.00167175
0.00166971
0.00166888
0.00167647
0.0017096
0.00177576
0.00189981
0.00209909
0.00238468
0.00270132
0.00296297
0.00308291
0.00308582
0.00300292
0.00288528
0.0027695
0.00266265
0.00256568
0.00246856
0.00235168
0.00220153
0.00201467
0.00178808
0.00153383
0.00133127
0.00119768
0.00132162
0.00143888
0.00152524
0.00157908
0.00160898
0.00162604
0.00164287
0.00167171
0.00173291
0.00183937
0.0020144
0.00229832
0.00267638
0.00306914
0.00337213
0.00349251
0.00347318
0.00336379
0.00322352
0.0030875
0.00296134
0.00284886
0.00273958
0.00261507
0.00246081
0.00227088
0.00204177
0.0017797
0.00155428
0.00118078
0.00125772
0.00135187
0.00143517
0.00149722
0.0015404
0.00157281
0.00160471
0.00164983
0.00172805
0.00186602
0.00210265
0.00247984
0.0029548
0.00342148
0.00375611
0.00386889
0.00382185
0.00368667
0.00352659
0.00337192
0.00322895
0.00310344
0.00298401
0.00285337
0.00269739
0.00250793
0.00228103
0.00201517
0.00177658
0.00122235
0.00125718
0.00131924
0.001384
0.00144407
0.00149179
0.00153093
0.00157235
0.00162964
0.00172335
0.00188357
0.00217664
0.00265534
0.00322714
0.00376061
0.00411508
0.00421241
0.00413496
0.00397658
0.00380009
0.00362842
0.00347163
0.00333521
0.0032068
0.00307104
0.0029146
0.0027292
0.00250403
0.0022398
0.00199596
0.00134795
0.00133451
0.0013562
0.00140509
0.00145364
0.00149338
0.00152582
0.00156681
0.00162821
0.00173331
0.00191606
0.00226314
0.00282243
0.00349883
0.00408689
0.00444797
0.00452342
0.00441554
0.00423861
0.00404895
0.00386276
0.00369472
0.00354922
0.00341254
0.00327235
0.00311562
0.00293405
0.00271267
0.00245413
0.00221138
0.00156542
0.00153044
0.00152239
0.0015418
0.00155421
0.00156469
0.00158189
0.00161063
0.00166508
0.00177345
0.00198015
0.00236764
0.00300225
0.00377764
0.00439876
0.00475282
0.00480227
0.00466697
0.00447726
0.00427791
0.00408006
0.00390324
0.00374931
0.00360558
0.00346135
0.0033045
0.00312502
0.0029086
0.00265979
0.00242285
0.00187097
0.00183492
0.00180789
0.00179216
0.00176882
0.00174262
0.00172369
0.00172123
0.00175094
0.00184926
0.00206565
0.00248784
0.00321548
0.00406422
0.0046919
0.00502703
0.00504963
0.00489272
0.00469645
0.00449116
0.00428485
0.00410187
0.00393917
0.0037897
0.00364179
0.00348521
0.00330527
0.00309562
0.00285829
0.00263162
0.0022548
0.00223095
0.00219759
0.00215336
0.00209449
0.00202442
0.00195855
0.00191527
0.00191246
0.00198844
0.00221817
0.00269337
0.00347171
0.00433931
0.00495962
0.00526769
0.00526621
0.00509583
0.00489959
0.00469182
0.00448085
0.00429391
0.00412393
0.0039688
0.00381711
0.00365785
0.00347984
0.00327653
0.00305066
0.00283819
0.00269834
0.00268914
0.00265262
0.00259062
0.00250106
0.00239077
0.00227777
0.00218931
0.00214941
0.00219557
0.00243276
0.00296171
0.00375709
0.00460313
0.0051954
0.00547174
0.00545248
0.00527839
0.00508889
0.00488198
0.00467038
0.00448104
0.00430591
0.00414572
0.00399005
0.00382858
0.00365187
0.00345411
0.0032393
0.00304299
0.00317551
0.00317069
0.00313206
0.00305729
0.0029471
0.00280663
0.00265496
0.00252576
0.00244928
0.00246685
0.00269842
0.00324673
0.00402842
0.00483942
0.00539088
0.00563557
0.00560776
0.00544074
0.00526454
0.00506224
0.00485395
0.00466337
0.00448624
0.00432216
0.00416418
0.0040006
0.00382432
0.00363117
0.00342688
0.00324741
0.00365125
0.00364543
0.00360314
0.00351915
0.0033948
0.00323497
0.00305614
0.00289543
0.00278732
0.00278008
0.00299229
0.00353851
0.00428105
0.00503283
0.00553647
0.00575429
0.00572924
0.00558056
0.00542349
0.00523029
0.00502905
0.00483984
0.0046642
0.00449867
0.00434014
0.00417712
0.00400037
0.00381135
0.00361706
0.00345364
0.00410327
0.00409206
0.00404324
0.00395079
0.00381629
0.00364411
0.00344848
0.00326532
0.00313184
0.00310405
0.00328349
0.00380384
0.00448737
0.00516585
0.00562098
0.00582077
0.00581051
0.00569122
0.00555852
0.00538014
0.00519033
0.00500638
0.00483368
0.00467229
0.00451564
0.00435619
0.0041841
0.00399937
0.00381534
0.00366365
0.00451674
0.00449466
0.00443575
0.00433397
0.00419096
0.00401026
0.00380445
0.00360435
0.00345026
0.00340202
0.00353729
0.00400741
0.00461987
0.00521976
0.00563115
0.00582444
0.00584063
0.00575995
0.00565635
0.00550097
0.00532886
0.0051542
0.00498659
0.00482789
0.0046785
0.00452746
0.00436623
0.00419198
0.00401793
0.00387188
0.00487478
0.00483903
0.00476771
0.00465577
0.00450451
0.00431647
0.0041023
0.00388774
0.00371332
0.00363851
0.00372251
0.00411478
0.00465575
0.0051765
0.00555205
0.00575083
0.00580389
0.00576625
0.00569704
0.00557382
0.00542726
0.00527021
0.00511322
0.00496168
0.00481733
0.00467484
0.00452298
0.00436427
0.00420598
0.00407081
0.00516242
0.00511066
0.00502664
0.00490453
0.00474517
0.00454967
0.00432625
0.00409668
0.00389895
0.0037891
0.00381625
0.00411065
0.00457535
0.00502383
0.00537056
0.00558386
0.00567843
0.00568437
0.00565388
0.00557042
0.00545639
0.00532552
0.00518886
0.00505324
0.00492147
0.00479013
0.00465235
0.00450726
0.0043651
0.00424841
0.00536467
0.00529584
0.00519986
0.0050687
0.00490201
0.004699
0.00446533
0.00421933
0.00399578
0.00384594
0.00381383
0.00400589
0.00437685
0.00476934
0.00508625
0.00531545
0.0054439
0.00549035
0.00549873
0.00545825
0.00538415
0.00528847
0.00518167
0.00507167
0.00496213
0.00485092
0.00473353
0.00460682
0.004486
0.00438883
0.00546432
0.00538053
0.00527507
0.00513787
0.0049665
0.00475791
0.00451559
0.0042556
0.0040102
0.00382508
0.00373988
0.00383957
0.00410959
0.00444779
0.00473118
0.00496426
0.00510506
0.00518258
0.00522757
0.00522708
0.00519374
0.00513704
0.00506622
0.00498915
0.00490984
0.00482683
0.00473697
0.0046376
0.00454133
0.00446554
0.00544612
0.00535339
0.00524427
0.00510734
0.0049377
0.00473008
0.00448713
0.00422461
0.0039736
0.0037716
0.00365045
0.00368396
0.00386425
0.00413021
0.00437966
0.00459
0.00472462
0.00481476
0.00487952
0.00490573
0.00490293
0.00487843
0.00483996
0.00479487
0.00474706
0.00469533
0.0046367
0.0045697
0.00450127
0.00444356
0.00530658
0.00521445
0.0051123
0.00498777
0.00483243
0.00463921
0.00441245
0.00416889
0.00393601
0.00374325
0.003622
0.00361678
0.00372526
0.00391204
0.00411672
0.00428166
0.00438923
0.00447272
0.00453216
0.00456312
0.00457107
0.00456121
0.00453983
0.00451367
0.00448659
0.00445761
0.0044238
0.00438357
0.00434059
0.00430054
0.00507082
0.00499188
0.00491127
0.0048146
0.00468799
0.00452913
0.00434265
0.00414383
0.00395474
0.00379812
0.00369632
0.00367286
0.00372914
0.00384594
0.00399079
0.00410003
0.00417055
0.0042272
0.0042645
0.00428167
0.00428172
0.00426822
0.00424565
0.00421978
0.00419459
0.0041695
0.00414214
0.00411113
0.00407908
0.00405078
0.00480486
0.00474997
0.00470269
0.00464879
0.004572
0.0044639
0.00433038
0.00418629
0.00404773
0.00393056
0.00384946
0.00381802
0.00383846
0.0038998
0.00398256
0.00403523