/*--------------------------------*- C++ -*----------------------------------*\
  =========                 |
  \\      /  F ield         | OpenFOAM: The Open Source CFD Toolbox
   \\    /   O peration     | Website:  https://openfoam.org
    \\  /    A nd           | Version:  12
     \\/     M anipulation  |
\*---------------------------------------------------------------------------*/
FoamFile
{
    format      ascii;
    class       volScalarField;
    location    "1150/air";
    object      epsilon;
}
// * * * * * * * * * * * * * * * * * * * * * * * * * * * * * * * * * * * * * //

dimensions      [0 2 -3 0 0 0 0];

internalField   nonuniform List<scalar> 
243000
(
0.849877
1.33302
1.52029
1.66917
1.75945
1.80463
1.81759
1.81058
1.79135
1.765
1.73504
0.421119
0.428347
0.433656
0.440058
0.450688
0.454708
0.443595
1.80702
1.78825
1.76576
1.70453
1.58979
1.42455
1.22712
1.01681
0.81695
0.67302
0.133901
0.493733
0.433008
0.643719
0.703708
0.744191
0.756192
0.749173
0.730911
0.709487
0.687757
0.668582
0.653867
0.646331
0.648421
0.661611
0.689706
0.740839
0.814668
0.899841
0.98516
1.05153
1.08475
1.07722
1.02746
0.940272
0.826916
0.699511
0.571478
0.438065
0.324719
0.228341
0.445588
0.473105
0.486392
0.514
0.523332
0.518107
0.504785
0.48816
0.471937
0.458401
0.449995
0.448879
0.456737
0.47733
0.515195
0.578872
0.668468
0.778343
0.890688
0.984749
1.04479
1.06492
1.04429
0.986208
0.89856
0.789616
0.670666
0.540762
0.414699
0.299068
0.532624
0.541871
0.522865
0.519503
0.516527
0.508885
0.497209
0.482753
0.467331
0.455687
0.453569
0.460671
0.480369
0.518685
0.58235
0.68358
0.822009
0.986862
1.15038
1.28293
1.36492
1.39161
1.36508
1.29186
1.18221
1.04596
0.895609
0.732537
0.569583
0.419462
0.649547
0.661626
0.64914
0.630233
0.606366
0.583631
0.56097
0.53684
0.511786
0.488206
0.470908
0.465713
0.485372
0.535779
0.625211
0.768695
0.963415
1.1888
1.40575
1.57612
1.6779
1.7087
1.67445
1.58581
1.45567
1.29539
1.11812
0.927133
0.733391
0.55207
0.793492
0.813658
0.811774
0.800991
0.779934
0.746319
0.701812
0.655581
0.609368
0.565072
0.52651
0.499059
0.494295
0.540969
0.648643
0.834539
1.09009
1.38067
1.65221
1.85938
1.97909
2.01216
1.96909
1.86509
1.71595
1.53467
1.33452
1.12074
0.902373
0.696765
0.961399
0.991306
0.999528
0.994153
0.974661
0.941078
0.893261
0.827647
0.754521
0.683082
0.617253
0.563001
0.530509
0.550062
0.661343
0.884265
1.20173
1.56013
1.88656
2.12933
2.26543
2.29964
2.2473
2.12834
1.96166
1.76193
1.54259
1.31037
1.07278
0.847973
1.15224
1.19217
1.20863
1.20645
1.1859
1.14759
1.0921
1.01978
0.927263
0.829953
0.735839
0.652335
0.590772
0.576187
0.673238
0.923056
1.29951
1.72573
2.10658
2.38366
2.53499
2.56985
2.50835
2.37519
2.19239
1.97644
1.74103
1.49392
1.24158
1.00164
1.36676
1.41571
1.43818
1.43698
1.4129
1.36704
1.30068
1.21552
1.11291
0.991673
0.871771
0.760099
0.66938
0.624175
0.692434
0.956859
1.38563
1.87665
2.31094
2.62083
2.78658
2.82205
2.75206
2.60582
2.4084
2.17819
1.92925
1.67009
1.40652
1.15495
1.60618
1.66218
1.6881
1.68563
1.65594
1.60029
1.52057
1.41941
1.29969
1.15982
1.01709
0.879621
0.761288
0.688235
0.723104
0.991072
1.46296
2.01313
2.4984
2.83963
3.01931
3.05586
2.9785
2.82064
2.61024
2.3676
2.10726
1.83834
1.5664
1.30604
1.87143
1.93119
1.95744
1.95142
1.91432
1.84723
1.75241
1.63318
1.49345
1.33713
1.1693
1.00674
0.862637
0.764513
0.769652
1.03068
1.53453
2.13596
2.66817
3.03914
3.23257
3.27105
3.18786
3.02015
2.79861
2.54529
2.27543
1.99873
1.72091
1.45389
2.16238
2.22173
2.2448
2.23278
2.18655
2.10686
1.996
1.85749
1.69595
1.51723
1.32604
1.13949
0.971303
0.850502
0.832448
1.07947
1.60332
2.24616
2.8195
3.21886
3.42583
3.46742
3.38027
3.20479
2.9741
2.71192
2.43432
2.15155
1.86949
1.59769
2.47788
2.53232
2.54876
2.52846
2.47158
2.37843
2.25089
2.09255
1.90835
1.70512
1.48974
1.27879
1.08716
0.945145
0.908458
1.13917
1.67178
2.34487
2.95232
3.37807
3.59858
3.64472
3.55583
3.3749
3.1373
2.86816
2.58457
2.29748
2.01197
1.73684
2.81642
2.86085
2.8674
2.83699
2.76834
2.66122
2.51687
2.33865
2.13158
1.90312
1.66285
1.42663
1.21129
1.04878
0.996167
1.21051
1.74174
2.4331
3.06688
3.51619
3.7503
3.80264
3.71444
3.53064
3.28857
3.01456
2.72672
2.43635
2.14855
1.87129
3.17888
3.20839
3.2013
3.15806
3.07647
2.95494
2.79394
2.59611
2.36627
2.11249
1.8472
1.58518
1.34534
1.16259
1.09519
1.29377
1.81448
2.51185
3.16334
3.63262
3.88044
3.94071
3.85582
3.67193
3.4281
3.15154
2.86135
2.56874
2.27969
2.00158
3.56808
3.5774
3.55295
3.49373
3.39733
3.26071
3.08311
2.8659
2.61346
2.33436
2.04433
1.75624
1.49127
1.28805
1.20586
1.38908
1.89091
2.58178
3.241
3.72645
3.9886
4.05833
3.97948
3.79866
3.55585
3.27921
2.98852
2.69537
2.40607
2.1283
3.98745
3.97171
3.92603
3.84778
3.73446
3.58185
3.38732
3.15069
2.87554
2.57111
2.25663
1.94204
1.65117
1.42682
1.32967
1.4969
1.97178
2.64401
3.30167
3.79682
4.0738
4.15496
4.08528
3.91048
3.67168
3.39814
3.10885
2.81669
2.5283
2.25196
4.43584
4.3968
4.32662
4.22639
4.09469
3.92515
3.71303
3.45646
3.15804
2.82889
2.4893
2.14659
1.82809
1.58161
1.47262
1.61872
2.05797
2.69986
3.34599
3.84527
4.13618
4.23047
4.17287
4.00695
3.77557
3.50773
3.22233
2.93299
2.64694
2.37309
4.90536
4.84495
4.75775
4.64105
4.49163
4.30449
4.0742
3.79698
3.47472
3.12785
2.75455
2.37818
2.02829
1.76034
1.63728
1.75566
2.15049
2.7507
3.37539
3.87334
4.17476
4.28452
4.24152
4.0881
3.86743
3.60781
3.32889
3.04449
2.76246
2.49232
5.39272
5.30887
5.20377
5.07342
4.91324
4.71698
4.47683
4.18623
3.8492
3.48129
3.07134
2.65473
2.26791
1.97243
1.82594
1.90881
2.25064
2.7986
3.39178
3.88277
4.19193
4.31727
4.29099
4.15362
3.94646
3.69811
3.42842
3.15139
2.87539
2.61022
5.89476
5.78588
5.66177
5.5177
5.34836
5.14643
4.9025
4.60913
4.27833
3.87895
3.4312
2.97381
2.54759
2.21852
2.03999
2.07926
2.36013
2.84582
3.39759
3.87489
4.18992
4.32889
4.32126
4.20296
4.01227
3.77827
3.52072
3.25363
2.98573
2.72732
6.40747
6.2732
6.13031
5.97352
5.79757
5.59512
5.36124
5.08684
4.73394
4.30761
3.82733
3.33279
2.86734
2.49978
2.28114
2.26864
2.48057
2.89402
3.39421
3.84886
4.16558
4.31983
4.33116
4.2349
4.06419
3.84772
3.60524
3.35078
3.09335
2.84386
6.92624
6.76839
6.61
6.44561
6.27383
6.09145
5.86793
5.5761
5.20637
4.7608
4.25645
3.73116
3.22894
2.81917
2.55233
2.47922
2.61355
2.94478
3.38197
3.8043
4.11627
4.28528
4.31815
4.24587
4.09989
3.90515
3.68149
3.4429
3.19885
2.96056
7.44854
7.27376
7.1163
6.96711
6.80646
6.61038
6.36722
6.06237
5.6832
5.22856
4.7114
4.16494
3.63111
3.17753
2.85467
2.71124
2.75849
2.99944
3.36256
3.74126
4.04359
4.22379
4.27899
4.23297
4.11431
3.94612
3.74667
3.52901
3.30268
3.07913
7.97948
7.81573
7.65255
7.48123
7.29433
7.08059
6.82497
6.51318
6.13205
5.67968
5.16196
4.60739
4.05163
3.55964
3.1786
2.95916
2.91789
3.08318
3.38313
3.71861
4.00095
4.18326
4.25209
4.22138
4.11522
3.96621
3.79416
3.60382
3.40183
3.19925
8.44213
8.25457
8.06846
7.87594
7.66922
7.44044
7.17712
6.86514
6.49105
6.05171
5.54805
5.00232
4.44211
3.94021
3.53724
3.27579
3.17986
3.26983
3.4954
3.77536
4.02854
4.20079
4.2732
4.25379
4.15834
4.01482
3.84289
3.66718
3.49198
3.31767
8.78067
8.53288
8.30703
8.0973
7.89577
7.69266
7.47428
7.22289
6.9197
6.55223
6.11425
5.61809
5.09126
4.59062
4.16355
3.85192
3.68478
3.6885
3.82446
4.02774
4.22659
4.36739
4.42638
4.40303
4.30751
4.16203
3.9852
3.79698
3.60734
3.43168
9.53966
9.27159
9.02097
8.79903
8.6072
8.43818
8.27737
8.10234
7.88815
7.61422
7.26308
6.83914
6.36519
5.88653
5.44993
5.08598
4.83049
4.7219
4.73784
4.82654
4.92879
4.99536
5.00115
4.93691
4.80957
4.63549
4.43029
4.21191
3.992
3.78878
11.22
10.9648
10.7549
10.6236
10.5618
10.548
10.5561
10.5547
10.5153
10.4114
10.2025
9.90315
9.53404
9.13201
8.72514
8.33448
7.98485
7.73587
7.5819
7.49477
7.4318
7.35179
7.23092
7.05719
6.83368
6.56826
6.26428
5.94774
5.6352
5.3548
18.2912
18.1148
18.2031
18.5
18.7722
18.9861
19.1452
19.2587
19.3207
19.3025
19.1023
18.8538
18.5772
18.3014
18.0012
17.7195
17.402
17.1518
16.9596
16.8458
16.7793
16.7361
16.6917
16.6312
16.5455
16.402
16.0834
15.7299
15.3829
15.0599
2.91553
3.71607
4.19101
4.47117
4.59185
4.5975
4.52621
4.41152
4.27502
4.13278
3.99389
3.86761
3.77279
3.73014
3.74756
3.84689
4.01252
4.21408
4.39721
4.50331
4.46987
4.24791
3.82598
3.23828
2.56266
1.88432
1.28695
0.788903
0.5821
0.502437
2.84029
2.84285
2.93248
2.94637
2.87774
2.75133
2.59183
2.4222
2.25839
2.11086
1.98584
1.88888
1.82433
1.80345
1.83764
1.93948
2.10391
2.30747
2.516
2.69169
2.78612
2.75349
2.57688
2.27572
1.88906
1.47131
1.07692
0.726546
0.465112
0.335244
2.58057
2.62406
2.71263
2.69769
2.60347
2.46162
2.29432
2.12159
1.95768
1.81235
1.69131
1.60028
1.54328
1.53104
1.57385
1.6859
1.86102
2.07701
2.29759
2.48974
2.61219
2.62282
2.50416
2.26065
1.93164
1.56221
1.19826
0.860831
0.587186
0.410626
2.12642
2.21386
2.32463
2.34996
2.29318
2.1862
2.05456
1.91819
1.78957
1.67433
1.57598
1.50417
1.46434
1.46919
1.53071
1.66457
1.86272
2.09665
2.32925
2.52726
2.65504
2.67938
2.58055
2.36426
2.06162
1.71144
1.35614
1.01454
0.722782
0.512579
1.60874
1.71244
1.8231
1.87094
1.85742
1.80235
1.72644
1.64549
1.56622
1.49858
1.44617
1.41493
1.40659
1.43917
1.52971
1.6953
1.9229
2.1804
2.42621
2.62874
2.75592
2.78215
2.69034
2.48649
2.19837
1.86023
1.51134
1.16638
0.860555
0.62366
1.17861
1.31411
1.41233
1.46494
1.47162
1.44437
1.39963
1.34931
1.31086
1.28885
1.28096
1.29257
1.32929
1.40051
1.52992
1.73567
1.99872
2.28258
2.54289
2.74941
2.87361
2.89657
2.80507
2.60686
2.32763
1.99939
1.6551
1.30946
0.994427
0.738396
0.907946
1.04469
1.13871
1.19408
1.21418
1.20554
1.17803
1.14031
1.11286
1.09737
1.1082
1.15173
1.22614
1.34423
1.52104
1.77381
2.07665
2.38872
2.66431
2.87443
2.99458
3.0119
2.91694
2.72036
2.44678
2.12606
1.78624
1.44238
1.12275
0.853795
0.774843
0.890922
0.981606
1.04214
1.06937
1.06927
1.04948
1.0183
0.988344
0.968284
0.971985
1.01595
1.11375
1.27353
1.50224
1.80683
2.15215
2.49313
2.78414
2.99749
3.11315
3.12376
3.02329
2.8259
2.55649
2.24104
1.9056
1.5652
1.2445
0.967544
0.755174
0.854036
0.934789
0.990327
1.01469
1.01519
0.996295
0.961523
0.924715
0.894163
0.8846
0.912164
1.00897
1.1976
1.47755
1.83543
2.22376
2.59332
2.89931
3.11537
3.22642
3.22982
3.12302
2.92345
2.65629
2.34528
2.01442
1.67885
1.35957
1.07824
0.875284
0.964258
1.03335
1.07184
1.07531
1.05365
1.01461
0.966577
0.913883
0.866911
0.839691
0.848132
0.924125
1.12859
1.4529
1.8617
2.29135
2.68808
3.00803
3.22604
3.33253
3.32859
3.21542
3.01318
2.74718
2.4404
2.11422
1.78402
1.46819
1.18582
1.13294
1.21193
1.26794
1.28535
1.26246
1.20332
1.12226
1.0363
0.954026
0.882178
0.832004
0.818776
0.872788
1.07616
1.43367
1.88808
2.35528
2.77665
3.10889
3.32805
3.42994
3.41896
3.29992
3.09542
2.83057
2.52771
2.20636
1.88194
1.57058
1.28934
1.48236
1.53674
1.57458
1.57079
1.52443
1.43467
1.31523
1.18116
1.05078
0.940516
0.859021
0.820015
0.853026
1.04575
1.4245
1.9168
2.41605
2.85834
3.20053
3.4202
3.51738
3.5
3.37588
3.17029
2.90702
2.60826
2.29209
1.97381
1.66756
1.38886
1.86153
1.90695
1.92294
1.8947
1.82545
1.71043
1.55864
1.38389
1.20444
1.04278
0.920927
0.850696
0.860268
1.03641
1.42906
1.94992
2.47412
2.93264
3.28197
3.50133
3.59384
3.57089
3.44274
3.23732
2.97677
2.68281
2.37245
2.0607
1.76002
1.48473
2.21248
2.24493
2.25678
2.22152
2.1341
2.00033
1.82378
1.61733
1.39855
1.18691
1.01627
0.910439
0.89406
1.05336
1.45068
1.98906
2.53003
2.99921
3.35247
3.5706
3.65858
3.63095
3.50037
3.29641
3.03987
2.75185
2.44821
2.1435
1.84882
1.57751
2.54757
2.56436
2.56461
2.5243
2.43243
2.28627
2.09356
1.86394
1.61391
1.36323
1.14333
0.998435
0.953667
1.09519
1.4899
2.03543
2.58454
3.05828
3.41188
3.62764
3.71114
3.67944
3.54955
3.34705
3.09677
2.8159
2.52
2.22282
1.93452
1.66781
2.87473
2.87479
2.8632
2.81421
2.71997
2.56636
2.36336
2.11716
1.84275
1.56057
1.29921
1.11366
1.03923
1.16216
1.54759
2.09049
2.63908
3.11096
3.46092
3.67268
3.7518
3.71641
3.58743
3.39121
3.14778
2.87538
2.5882
2.29907
2.01751
1.75639
3.20267
3.18922
3.16685
3.10895
3.00817
2.85052
2.63976
2.38021
2.08551
1.77587
1.48144
1.25663
1.15194
1.25514
1.62521
2.15663
2.69634
3.15977
3.5018
3.70705
3.78094
3.7457
3.62027
3.42859
3.19343
2.93078
2.65325
2.37282
2.09865
1.84407
3.54075
3.51775
3.48697
3.42158
3.31443
3.15358
2.93515
2.66338
2.35013
2.01541
1.69159
1.43117
1.29617
1.37707
1.72629
2.2385
2.76131
3.20967
3.53873
3.73619
3.8087
3.77215
3.64813
3.46001
3.2349
2.98301
2.71604
2.44505
2.17909
1.93199
3.89592
3.867
3.83176
3.76205
3.6503
3.48596
3.26333
2.98151
2.65138
2.29302
1.94063
1.64737
1.48142
1.5362
1.85921
2.34517
2.84347
3.26957
3.58346
3.77113
3.8382
3.80033
3.67657
3.49095
3.27572
3.03455
2.7785
2.51745
2.26042
2.02164
4.27621
4.24441
4.2071
4.13563
4.0229
3.86089
3.63906
3.35282
3.01077
2.63205
2.25203
1.92641
1.7278
1.74995
2.04131
2.49447
2.96043
3.35997
3.65247
3.82372
3.88324
3.84236
3.71858
3.53286
3.32356
3.09099
2.84485
2.59349
2.34555
2.11584
4.69414
4.66263
4.62443
4.55358
4.4447
4.29394
4.08144
3.80138
3.45772
3.06611
2.66244
2.30548
2.07367
2.05463
2.30845
2.72196
3.1487
3.51263
3.77448
3.92375
3.97037
3.92095
3.79215
3.60564
3.3964
3.16578
2.92415
2.67901
2.4382
2.21633
5.17265
5.14652
5.11137
5.04568
4.94979
4.82104
4.63505
4.38075
4.05339
3.66447
3.24809
2.86466
2.5979
2.53024
2.73793
3.10249
3.47863
3.79381
4.01526
4.13202
4.15522
4.08569
3.93841
3.74255
3.52233
3.2829
3.03625
2.79035
2.55084
2.33125
5.76187
5.74938
5.72644
5.68125
5.62548
5.53503
5.39883
5.20064
4.92504
4.57351
4.17237
3.7791
3.48149
3.3629
3.50817
3.80711
4.11244
4.36297
4.52373
4.58651
4.55721
4.43886
4.24479
4.01438
3.75938
3.49153
3.22189
2.95733
2.7049
2.47933
6.57399
6.59104
6.60243
6.61812
6.62274
6.61032
6.57458
6.49498
6.34747
6.11216
5.79598
5.44297
5.13822
4.97086
5.03863
5.24319
5.43112
5.5569
5.59448
5.54129
5.39996
5.17696
4.88644
4.56795
4.2308
3.89178
3.5627
3.25054
2.96073
2.71062
7.85919
7.93814
8.0486
8.16333
8.2885
8.43804
8.61475
8.79687
8.93774
8.98391
8.90903
8.72527
8.49512
8.30679
8.27119
8.3123
8.28885
8.14095
7.90064
7.59243
7.21521
6.76423
6.25337
5.72779
5.20744
4.7102
4.24777
3.82618
3.44878
3.13857
10.1816
10.4135
10.6899
11.0092
11.4049
11.9105
12.5399
13.2569
13.9762
14.6102
15.0665
15.3077
15.3471
15.2442
15.104
14.8681
14.4057
13.7569
12.9711
12.1079
11.1895
10.2222
9.22868
8.25975
7.34555
6.50795
5.75726
5.09403
4.51786
4.07056
14.9454
15.4586
16.0626
16.7951
17.7219
18.9038
20.3531
21.9851
23.6366
25.1873
26.4697
27.4265
28.0249
28.2844
28.1887
27.6901
26.656
25.2431
23.5564
21.7217
19.8046
17.8534
15.924
14.0791
12.3649
10.8168
9.44597
8.25787
7.24591
6.48792
25.096
25.9558
26.9541
28.2721
30.0196
32.2082
34.7699
37.4815
40.0769
42.4646
44.4427
46.0657
47.3355
48.2515
48.4563
47.9393
46.6289
44.6832
42.2163
39.3903
36.3335
33.1579
29.9706
26.8827
23.9637
21.2771
18.8315
16.6628
14.7787
13.3758
40.3986
40.8054
42.2961
44.6303
47.3383
50.3533
53.4981
56.2222
58.5365
60.5401
62.0313
63.3786
64.6478
65.8033
66.2542
65.8869
64.9958
63.5124
61.5047
59.0518
56.2557
53.2085
50.0112
46.8264
43.7254
40.7404
37.7876
35.0089
32.4122
30.3213
45.6309
45.6913
47.1602
49.4289
51.847
53.9669
55.6184
56.8411
57.7515
58.4517
58.9146
59.3404
59.7405
60.1743
60.1284
59.4501
58.8854
58.0663
57.0627
55.8895
54.6303
53.3269
52.1006
51.0138
50.126
49.3772
48.6129
47.8005
46.7652
45.3637
4.65151
6.25114
7.16533
7.70566
7.94548
7.9608
7.8234
7.59785
7.32802
7.04881
6.7786
6.54892
6.37467
6.29869
6.3263
6.47918
6.69887
6.95109
7.22939
7.50045
7.59615
7.3313
6.6257
5.54187
4.25133
2.95414
1.83082
0.967157
0.579453
0.505225
3.16736
3.74534
4.13626
4.35262
4.41158
4.34656
4.19412
3.99335
3.77517
3.5619
3.36898
3.20957
3.09671
3.04507
3.06977
3.174
3.34367
3.55808
3.83332
4.15454
4.40907
4.45081
4.20925
3.71011
3.04929
2.31249
1.59926
0.97638
0.545112
0.354498
2.80946
3.27666
3.60628
3.79173
3.84535
3.79098
3.65723
3.47688
3.27827
3.08331
2.90776
2.76441
2.66469
2.62253
2.64918
2.74882
2.9077
3.10827
3.36559
3.67557
3.9464
4.04989
3.91973
3.56437
3.02653
2.40116
1.76768
1.18094
0.718125
0.44618
2.52331
2.9359
3.27304
3.48135
3.56344
3.54118
3.43855
3.28675
3.11357
2.94125
2.7866
2.66297
2.58293
2.56088
2.60591
2.7222
2.89031
3.09643
3.34993
3.64144
3.89408
4.00525
3.9062
3.60063
3.13297
2.56477
1.9668
1.38928
0.902072
0.568728
2.22599
2.57982
2.92376
3.15982
3.27683
3.29154
3.22631
3.11096
2.97191
2.83071
2.70532
2.6104
2.56043
2.56991
2.6471
2.79351
2.98364
3.20454
3.46051
3.73787
3.96714
4.06566
3.97631
3.69197
3.25927
2.72668
2.15395
1.5835
1.08059
0.703116
1.8702
2.16345
2.49907
2.75287
2.9024
2.95762
2.94013
2.8758
2.78216
2.6828
2.59725
2.54181
2.53293
2.58534
2.70642
2.89328
3.11417
3.35705
3.62124
3.88722
4.09161
4.16876
4.07277
3.79704
3.38287
2.87427
2.32248
1.76118
1.24988
0.842441
1.4853
1.72794
2.03626
2.28535
2.45163
2.54117
2.56847
2.55464
2.51688
2.47647
2.44469
2.44064
2.48285
2.58954
2.76515
3.00086
3.25912
3.52907
3.8046
4.06095
4.24018
4.29189
4.17992
3.9036
3.49924
3.00755
2.47273
1.92292
1.41028
0.982864
1.19286
1.37077
1.62998
1.86242
2.03325
2.13903
2.19163
2.20856
2.20965
2.21897
2.24548
2.30412
2.40777
2.57934
2.81856
3.10953
3.41014
3.71047
3.99846
4.24567
4.3996
4.42368
4.29034
4.00706
3.6072
3.12787
2.60734
2.07018
1.56091
1.12158
1.00275
1.11784
1.31955
1.5212
1.68038
1.79084
1.86092
1.899
1.92455
1.95735
2.02189
2.13923
2.31296
2.559
2.86764
3.21792
3.56415
3.89648
4.19639
4.43361
4.56209
4.55677
4.39933
4.10528
3.70665
3.23674
2.72881
2.20491
1.70211
1.25708
0.915108
0.980102
1.12214
1.28188
1.41856
1.5212
1.59248
1.64116
1.68187
1.73
1.81114
1.96512
2.20876
2.53485
2.91533
3.32672
3.72015
4.08461
4.39441
4.61937
4.7221
4.68578
4.50318
4.19722
3.79793
3.33567
2.8394
2.32897
1.83491
1.38875
0.922215
0.948213
1.04581
1.16391
1.26765
1.34857
1.40706
1.45076
1.49181
1.54604
1.63661
1.80523
2.10623
2.51364
2.96524
3.43756
3.87802
4.273
4.5889
4.79847
4.87467
4.80693
4.59943
4.28199
3.88142
3.42599
2.94092
2.44405
1.96041
1.51668
1.02082
1.02219
1.08376
1.16025
1.23156
1.28084
1.31297
1.33712
1.36509
1.41285
1.50415
1.68145
2.02165
2.50065
3.0212
3.5525
4.03798
4.45952
4.77653
4.96724
5.01595
4.91717
4.68719
4.35891
3.95748
3.50891
3.0351
2.5518
2.07977
1.64134
1.2041
1.19117
1.22863
1.27535
1.30693
1.3158
1.31079
1.30364
1.30583
1.33482
1.41726
1.60107
1.96823
2.50202
3.08749
3.67395
4.20049
4.64231
4.95461
5.12309
5.14332
5.01419
4.76566
4.42774
4.02666
3.58571
3.1235
2.65386
2.19417
1.76323
1.46507
1.44729
1.4727
1.49199
1.4834
1.44762
1.39659
1.34874
1.3154
1.31473
1.38116
1.56714
1.94514
2.53255
3.16895
3.80488
4.3665
4.82054
5.12156
5.26514
5.25572
5.09786
4.83291
4.48845
4.08981
3.65761
3.20753
2.75165
2.30474
1.88318
1.80995
1.79447
1.80013
1.78825
1.74254
1.66171
1.56036
1.46693
1.39191
1.3548
1.39558
1.57327
1.95928
2.59039
3.26988
3.94926
4.53824
4.99521
5.27815
5.3948
5.35464
5.17065
4.89101
4.54245
4.14833
3.72616
3.28884
2.84643
2.41239
2.00223
2.25418
2.2143
2.18739
2.142
2.06406
1.94259
1.79276
1.65231
1.53243
1.45582
1.46579
1.63826
2.02887
2.68275
3.39691
4.11327
4.72057
5.17069
5.42906
5.51677
5.4453
5.23827
4.94427
4.59299
4.2048
3.79368
3.36895
2.93936
2.51836
2.12107
2.76636
2.69358
2.63253
2.55103
2.43781
2.28156
2.08748
1.90203
1.73598
1.61847
1.59627
1.75707
2.15113
2.81833
3.56049
4.30738
4.92331
5.35652
5.58511
5.64174
5.5388
5.30975
5.001
4.64695
4.2647
3.86368
3.45066
3.03389
2.62603
2.24207
3.33432
3.23454
3.14068
3.02222
2.87188
2.68021
2.44736
2.21943
2.00671
1.84904
1.79578
1.94048
2.33808
3.01275
3.77843
4.54982
5.165
5.57164
5.76652
5.78896
5.65365
5.40177
5.07951
4.71817
4.33855
3.94446
3.54171
3.13619
2.74058
2.36971
3.96939
3.8447
3.71987
3.56596
3.37899
3.15175
2.8864
2.61576
2.36063
2.16577
2.084
2.21161
2.61462
3.29461
4.08212
4.87313
5.47856
5.8508
6.00876
5.99146
5.82065
5.54466
5.20819
4.83951
4.45403
4.05887
3.65851
3.25879
2.8702
2.50975
4.67837
4.53609
4.38335
4.1981
3.97874
3.72037
3.42724
3.12122
2.83176
2.60652
2.50202
2.61801
3.02815
3.71731
4.52898
5.33665
5.92297
6.25675
6.37345
6.30864
6.09714
5.79142
5.43651
5.05203
4.65264
4.24386
3.83213
3.42186
3.02744
2.66909
5.48311
5.32949
5.15563
4.94673
4.70441
4.42603
4.11619
3.79211
3.48514
3.24448
3.12995
3.24743
3.67409
4.38374
5.22805
6.05128
6.60947
6.90268
6.97213
6.85193
6.59641
6.24561
5.84053
5.40831
4.96623
4.52142
4.07849
3.64345
3.23061
2.86058
6.4377
6.27344
6.08736
5.86721
5.61921
5.34323
5.04388
4.7345
4.44427
4.22038
4.12422
4.27222
4.74011
5.49863
6.39455
7.22994
7.75332
8.00425
8.02125
7.82292
7.47408
7.02438
6.51674
5.98736
5.45879
4.94071
4.43793
3.95373
3.50162
3.10651
7.63629
7.46662
7.28004
7.07018
6.8482
6.61679
6.3811
6.14963
5.94426
5.80501
5.79064
6.02845
6.58301
7.42902
8.43608
9.29092
9.77827
9.95103
9.84233
9.48684
8.96593
8.33358
7.64147
6.93638
6.25002
5.59712
4.98339
4.41262
3.89321
3.45215
9.25619
9.09895
8.9374
8.77882
8.63996
8.53022
8.45686
8.42135
8.42986
8.50844
8.71353
9.1499
9.87018
10.8605
12.0241
12.8981
13.308
13.3317
12.9884
12.3544
11.528
10.5745
9.55925
8.54679
7.58324
6.69257
5.88244
5.15468
4.51322
3.99438
11.6554
11.5578
11.4768
11.4449
11.4918
11.6418
11.9054
12.2714
12.7241
13.2526
13.8929
14.7067
15.7216
16.9329
18.2845
19.1461
19.4094
19.1511
18.4116
17.3112
15.9731
14.4817
12.9212
11.3881
9.95068
8.65016
7.49724
6.49005
5.62749
4.96606
15.5761
15.6372
15.7589
15.9946
16.4143
17.0474
17.9109
18.9664
20.1556
21.4212
22.7491
24.1508
25.6207
27.1436
28.6736
29.4485
29.4646
28.7665
27.4472
25.671
23.5767
21.2793
18.8914
16.5476
14.3527
12.3829
10.6521
9.15758
7.89468
6.96892
22.4665
22.823
23.3667
24.127
25.1598
26.5421
28.2714
30.2441
32.3397
34.4624
36.5569
38.6165
40.6143
42.481
44.0802
44.6232
44.272
43.0549
41.1098
38.6163
35.6901
32.4898
29.1494
25.8119
22.6286
19.7379
17.1611
14.9006
12.9637
11.5646
34.2821
34.7999
35.832
37.3924
39.3821
41.6825
44.2145
46.8531
49.4605
51.9782
54.3773
56.7059
58.9383
60.8625
62.1302
61.9481
61.0159
59.3743
57.2663
54.5584
51.3994
47.9355
44.2921
40.5789
36.8986
33.3915
30.1014
27.0625
24.3168
22.2248
48.4927
48.7942
50.2876
52.5591
55.1724
57.8579
60.4269
62.71
64.7264
66.5636
68.284
69.9874
71.611
72.8011
72.9237
71.4139
69.7815
67.7748
65.7257
63.5545
61.3236
59.0628
56.8915
54.9141
53.0856
51.0564
48.8144
46.4453
43.9561
41.574
50.1864
51.0004
52.9416
55.5073
58.1513
60.4767
62.3059
63.6538
64.6524
65.5023
66.2534
66.9718
67.5335
67.6118
66.4387
63.8949
61.7425
59.4899
57.5311
55.8086
54.4323
53.3715
52.6826
52.3943
52.4761
52.828
53.1493
53.2312
52.8598
51.8789
7.55112
9.73388
10.8012
11.4965
11.8289
11.8563
11.6649
11.3388
10.9362
10.5091
10.0857
9.7132
9.40181
9.2066
9.11598
9.1646
9.29143
9.56943
10.2042
11.1549
11.8717
11.817
10.8154
9.04355
6.86809
4.66454
2.74545
1.32336
0.130555
0.511522
4.67366
5.30477
5.67006
5.92548
6.0348
6.00214
5.85428
5.63395
5.37784
5.11356
4.86341
4.64218
4.46804
4.35037
4.31004
4.34211
4.44606
4.66594
5.15605
5.89801
6.56697
6.8053
6.49293
5.7264
4.69187
3.54058
2.3872
1.36731
0.616757
0.324759
4.21881
4.63281
4.91117
5.09488
5.1717
5.14616
5.0296
4.84915
4.63366
4.40742
4.19013
3.9955
3.83917
3.73135
3.68922
3.7131
3.80278
3.99586
4.42175
5.075
5.69756
5.99241
5.84369
5.32682
4.5321
3.56712
2.57205
1.63238
0.88237
0.439555
3.91454
4.22467
4.49579
4.69876
4.80946
4.82673
4.75563
4.61778
4.44004
4.24616
4.05634
3.8841
3.74818
3.65816
3.62952
3.66596
3.76448
3.96959
4.38695
4.98396
5.53929
5.82222
5.7281
5.28175
4.58063
3.72276
2.79975
1.8925
1.12478
0.591804
3.58184
3.79091
4.07482
4.3266
4.49725
4.5707
4.55224
4.46095
4.32496
4.16849
4.01291
3.87292
3.76716
3.70718
3.70674
3.77196
3.89703
4.13657
4.56496
5.12548
5.61827
5.85947
5.75733
5.33621
4.68952
3.88978
3.01343
2.12998
1.35126
0.757651
3.21046
3.3255
3.61276
3.9125
4.14565
4.27876
4.31403
4.27282
4.18355
4.07129
3.95954
3.86186
3.79994
3.78236
3.82511
3.93264
4.09956
4.38918
4.84288
5.3768
5.80883
5.99563
5.86938
5.44376
4.81693
4.0502
3.20723
2.34463
1.56145
0.927976
2.79654
2.82363
3.10196
3.4399
3.73029
3.92006
4.00876
4.02097
3.98477
3.92466
3.86624
3.8233
3.81832
3.8571
3.95619
4.11848
4.34203
4.69376
5.17986
5.69072
6.06133
6.18553
6.01572
5.57402
4.94972
4.20104
3.38239
2.53891
1.75581
1.09706
2.3435
2.29594
2.55577
2.90757
3.23045
3.47103
3.61758
3.69079
3.71837
3.72016
3.72652
3.75131
3.81466
3.92439
4.09153
4.32041
4.61439
5.03675
5.55623
6.0426
6.34922
6.40433
6.17936
5.71185
5.08129
4.34193
3.5413
2.71551
1.93641
1.26182
1.96965
1.86283
2.07346
2.40542
2.73458
2.99815
3.18024
3.29725
3.38387
3.4585
3.54228
3.64741
3.79357
3.98576
4.23088
4.53738
4.91421
5.41106
5.95856
6.41581
6.65483
6.63456
6.34805
5.84931
5.2079
4.47308
3.68638
2.87755
2.10539
1.42167
1.69877
1.53788
1.68441
1.97042
2.28069
2.54829
2.75242
2.90404
3.03171
3.15869
3.32251
3.52037
3.76239
4.04637
4.3775
4.77175
5.24211
5.81394
6.38179
6.79762
6.96409
6.8626
6.51277
5.9815
5.32759
4.59533
3.82035
3.02813
2.26525
1.57742
1.51943
1.32522
1.40848
1.63459
1.90643
2.15637
2.36528
2.53852
2.69841
2.86896
3.09052
3.38427
3.7318
4.11311
4.53658
5.02778
5.59962
6.24333
6.81508
7.17589
7.26378
7.07877
6.66838
6.10539
5.43964
4.70946
3.94567
3.16983
2.41799
1.73092
1.44441
1.22917
1.2551
1.41463
1.63133
1.84975
2.04797
2.22592
2.40586
2.61086
2.88042
3.25435
3.7087
4.19364
4.71467
5.31097
5.98775
6.69169
7.24741
7.53997
7.54346
7.27569
6.81245
6.21987
5.5443
4.81718
4.06496
3.30504
2.56597
1.88407
1.46976
1.25476
1.2242
1.32382
1.47955
1.65018
1.81954
1.98761
2.17311
2.40094
2.71151
3.15283
3.70069
4.29707
4.91983
5.62787
6.40669
7.15102
7.66882
7.88292
7.79578
7.44998
6.94006
6.32451
5.64321
4.92159
4.18115
3.43651
2.71195
2.03883
1.58805
1.38139
1.3172
1.35444
1.44987
1.56846
1.69652
1.83651
2.01396
2.25116
2.59994
3.09369
3.73353
4.43517
5.16207
5.98622
6.85635
7.61379
8.07241
8.19988
8.02161
7.60586
7.05502
6.42276
5.74065
5.02606
4.2979
3.56932
2.86041
2.19589
1.81759
1.61875
1.5292
1.51433
1.54788
1.60407
1.67715
1.78047
1.93828
2.17628
2.54803
3.0771
3.81911
4.62013
5.45406
6.39574
7.33706
8.07562
8.45784
8.49418
8.22842
7.75417
7.16747
6.5228
5.84201
5.13637
4.42396
3.71036
3.01238
2.35564
2.17795
1.97028
1.85059
1.78804
1.76168
1.75462
1.76861
1.82015
1.93561
2.16224
2.54959
3.14394
3.96582
4.86746
5.81295
6.86948
7.85326
8.54471
8.83739
8.77951
8.4353
7.91264
7.29459
6.63597
5.95941
5.2695
4.56834
3.86147
3.16901
2.51852
2.66899
2.43643
2.27823
2.16513
2.08031
2.01242
1.96664
1.96164
2.03628
2.25102
2.66219
3.30257
4.192
5.19967
6.26343
7.42731
8.41805
9.03771
9.23698
9.08655
8.6754
8.11128
7.47169
6.81283
6.13604
5.44313
4.737
4.02606
3.33222
2.68539
3.2892
3.01857
2.81293
2.64478
2.50124
2.37358
2.26934
2.21131
2.24074
2.43826
2.87328
3.56475
4.52649
5.65141
6.84281
8.10196
9.07169
9.5985
9.70453
9.46957
9.00099
8.40288
7.75868
7.0979
6.39888
5.67014
4.93762
4.20848
3.50411
2.85705
4.03883
3.72027
3.46019
3.23354
3.03135
2.84655
2.68774
2.58137
2.56802
2.75202
3.21191
3.96815
5.01781
6.27782
7.60981
8.94896
9.86829
10.301
10.3216
10.0182
9.50982
8.88186
8.21526
7.50074
6.74443
5.95969
5.17589
4.41151
3.68733
3.03802
4.92314
4.55119
4.23348
3.94861
3.69143
3.45596
3.25105
3.10454
3.05997
3.24135
3.74031
4.57929
5.75168
7.16929
8.6602
10.0642
10.9184
11.2712
11.2272
10.898
10.3225
9.62566
8.86162
8.04008
7.18713
6.31928
5.46158
4.64642
3.89321
3.23792
5.96185
5.53527
5.16215
4.82584
4.52459
4.25313
4.01971
3.85171
3.79731
4.00145
4.56843
5.52232
6.866
8.47645
10.1552
11.6136
12.4152
12.7301
12.6846
12.2613
11.5344
10.7113
9.76826
8.77755
7.77941
6.78828
5.83913
4.94669
4.14741
3.48389
7.20314
6.72627
6.3077
5.93655
5.61441
5.33641
5.10883
4.95654
4.93467
5.21017
5.89524
7.02094
8.5905
10.4542
12.3718
13.8865
14.7109
15.0153
14.8737
14.2421
13.3575
12.2749
11.0642
9.82181
8.60775
7.44493
6.35723
5.3695
4.50633
3.80492
8.7523
8.23598
7.79394
7.42032
7.12002
6.88902
6.7297
6.66154
6.75914
7.18976
8.07423
9.45117
11.3222
13.5192
15.7656
17.3664
18.1697
18.3956
18.0774
17.18
16.0053
14.55
12.9587
11.3573
9.83133
8.41933
7.13404
5.99445
5.02763
4.2669
10.8126
10.2867
9.86343
9.54524
9.33869
9.24467
9.25911
9.40618
9.76557
10.4859
11.6897
13.4218
15.6769
18.2628
20.9107
22.5442
23.2574
23.3144
22.7172
21.4956
19.8605
17.9008
15.7911
13.7017
11.7371
9.96164
8.38702
7.01951
5.87883
5.02122
13.7658
13.3169
12.982
12.8108
12.806
12.9936
13.3585
13.9086
14.7235
15.914
17.5805
19.7733
22.4773
25.452
28.4971
29.9981
30.4972
30.2462
29.2613
27.5915
25.4181
22.8505
20.0916
17.3857
14.843
12.5617
10.5625
8.84472
7.4262
6.4096
18.3304
18.0754
17.9796
18.0819
18.4621
19.1086
20.0077
21.157
22.6063
24.4203
26.6465
29.3461
32.4946
35.7552
39.0115
40.0277
40.0633
39.2223
37.7579
35.688
33.0469
29.9365
26.5466
23.2135
20.0235
17.1282
14.5604
12.3334
10.4805
9.19766
25.5895
25.5912
25.9159
26.5768
27.5179
28.745
30.2609
32.0487
34.1188
36.5013
39.1893
42.268
45.6899
48.9535
51.8561
51.3927
50.2232
48.4701
46.5168
44.195
41.5348
38.5812
35.4227
31.9551
28.3996
25.0678
21.9548
19.1355
16.7109
15.0187
36.1142
36.3156
37.1246
38.4085
40.014
41.8372
43.8325
45.9796
48.2885
50.8064
53.4757
56.505
59.7522
62.2082
63.5757
60.8554
58.3184
55.6176
53.293
50.9964
48.7168
46.4551
44.2358
42.057
39.8335
37.1441
34.2476
31.307
28.5522
26.4079
46.3325
46.9118
48.3289
50.2289
52.2999
54.345
56.2812
58.1126
59.9407
61.9112
64.0663
66.4095
68.691
69.7712
68.9983
64.0201
60.2437
56.7782
54.1551
52.0756
50.4916
49.3447
48.6238
48.274
48.1625
47.9738
47.4409
46.4344
44.7543
42.7579
45.98
47.4167
49.5809
52.0753
54.5308
56.6752
58.4197
59.8375
61.1094
62.4373
63.8657
65.2976
66.3771
66.0381
63.2014
56.8244
52.4414
48.6603
45.9306
43.9111
42.7824
42.3577
42.6038
43.4813
44.8343
46.4283
47.8836
48.9138
49.2552
48.791
10.9525
13.828
15.0364
15.7297
16.0837
16.0854
15.8124
15.3616
14.8031
14.2016
13.5825
12.9955
12.435
11.9733
11.6057
11.4195
11.4052
11.9014
13.5929
16.2727
18.3991
18.8049
17.3277
14.5084
11.0643
7.57839
4.469
2.07165
0.647124
0.116677
6.46374
7.17409
7.49077
7.67654
7.7665
7.72418
7.55564
7.30187
7.00098
6.68013
6.36388
6.05816
5.78638
5.54442
5.37768
5.27274
5.28899
5.59661
6.62352
8.26093
9.67833
10.1887
9.71897
8.56438
7.04944
5.40249
3.71379
2.11097
0.852653
0.230235
5.94939
6.29311
6.47778
6.58498
6.61562
6.5625
6.42689
6.22608
5.9833
5.71778
5.44771
5.18236
4.9401
4.72818
4.58132
4.49674
4.51268
4.79437
5.68216
7.04928