/*--------------------------------*- C++ -*----------------------------------*\
  =========                 |
  \\      /  F ield         | OpenFOAM: The Open Source CFD Toolbox
   \\    /   O peration     | Website:  https://openfoam.org
    \\  /    A nd           | Version:  12
     \\/     M anipulation  |
\*---------------------------------------------------------------------------*/
FoamFile
{
    format      ascii;
    class       volScalarField;
    location    "1150/air";
    object      k;
}
// * * * * * * * * * * * * * * * * * * * * * * * * * * * * * * * * * * * * * //

dimensions      [0 2 -2 0 0 0 0];

internalField   nonuniform List<scalar> 
243000
(
0.0293309
0.0386926
0.0412071
0.0428056
0.0433182
0.0430951
0.0424111
0.0414948
0.0404832
0.0394651
0.0384798
0.0385737
0.0382709
0.0380906
0.0383027
0.0391933
0.040131
0.0401742
0.0389812
0.0390825
0.0392588
0.038934
0.0378114
0.035813
0.0330868
0.029822
0.0263581
0.0233167
0.0215188
0.0189001
0.0389659
0.0497653
0.0514798
0.0521561
0.0515052
0.0500632
0.0482263
0.0463644
0.0446097
0.0430845
0.0418582
0.0410487
0.0407616
0.0410422
0.0420319
0.044035
0.046961
0.0505687
0.0540609
0.0570612
0.0590325
0.0596747
0.0588378
0.0565279
0.052962
0.0484092
0.0432757
0.037198
0.0312819
0.025145
0.0440951
0.0460583
0.0471625
0.0490819
0.049687
0.0493261
0.0484296
0.0473085
0.0462035
0.0452698
0.0446597
0.0445265
0.0449841
0.0462631
0.0486112
0.0524717
0.0577039
0.0638507
0.0698523
0.0747116
0.0777537
0.0787858
0.0777958
0.0749044
0.0704069
0.0645926
0.0579222
0.0501651
0.0420182
0.033756
0.0495779
0.0501631
0.0490391
0.0489837
0.0488639
0.0484111
0.0476718
0.0467385
0.0457303
0.0449971
0.0448406
0.045271
0.0465006
0.0488748
0.0527187
0.0585847
0.0661919
0.0747504
0.0828102
0.0890952
0.0929001
0.0941542
0.0929944
0.0896657
0.0845319
0.0779087
0.0702464
0.0614252
0.0519238
0.0423181
0.0565747
0.0572486
0.0564976
0.0553588
0.0539606
0.0526781
0.0513472
0.0499025
0.0483713
0.046915
0.0458273
0.0455161
0.0467754
0.0499088
0.0552392
0.0633101
0.0735372
0.0845899
0.0946222
0.102176
0.106589
0.107946
0.106547
0.102786
0.0971024
0.0898443
0.0814474
0.0718782
0.0614663
0.0508404
0.0646616
0.0657227
0.0655877
0.0649738
0.063807
0.0619095
0.0594131
0.0568297
0.0541746
0.0515651
0.0492372
0.0475542
0.0472787
0.0501864
0.0565695
0.0668283
0.0798021
0.0934236
0.105352
0.114054
0.118971
0.120358
0.118689
0.114511
0.108347
0.100586
0.0916413
0.081568
0.0705865
0.0593925
0.0735063
0.0749958
0.0753834
0.0750925
0.0740919
0.0723631
0.0698776
0.066375
0.0624294
0.058456
0.0546752
0.051464
0.0494988
0.0507035
0.0572621
0.0694055
0.0851102
0.101311
0.11506
0.124817
0.130165
0.131547
0.129604
0.125033
0.118445
0.110277
0.100929
0.0905259
0.0792181
0.0677121
0.082955
0.084837
0.085597
0.0854812
0.0844999
0.0826653
0.0799747
0.0763954
0.0716725
0.0665824
0.0614693
0.0567531
0.0531498
0.0522721
0.0579089
0.0713673
0.0896114
0.108313
0.123808
0.134541
0.140275
0.14164
0.139438
0.134507
0.127545
0.119044
0.109401
0.0987889
0.0873239
0.0756687
0.0929724
0.0951592
0.0961492
0.0960882
0.0950089
0.0929425
0.0899128
0.0859468
0.0810373
0.0750349
0.0688621
0.0628603
0.0577663
0.0551275
0.0589768
0.0730477
0.0934706
0.114491
0.131654
0.143295
0.149385
0.15074
0.14831
0.143061
0.135775
0.127
0.11714
0.106403
0.0948926
0.083206
0.103552
0.105928
0.107016
0.106907
0.105648
0.103272
0.0998194
0.0953503
0.0899176
0.0833403
0.076359
0.069321
0.062959
0.0588447
0.0606941
0.0747343
0.0968595
0.119927
0.138642
0.151133
0.157565
0.158933
0.156317
0.1508
0.143242
0.134245
0.124227
0.113426
0.101948
0.0903108
0.114677
0.117092
0.118142
0.117897
0.116399
0.11367
0.109755
0.10473
0.0986797
0.0916698
0.0838399
0.0758838
0.0684568
0.0631317
0.0632941
0.0766827
0.0999407
0.124706
0.144813
0.158099
0.164873
0.166285
0.163537
0.15781
0.150035
0.140865
0.130738
0.11992
0.108539
0.0969992
0.126294
0.128582
0.129464
0.129
0.127215
0.124112
0.119729
0.114137
0.107435
0.0997618
0.091206
0.0824463
0.0741174
0.0677979
0.0667109
0.0790663
0.102861
0.128911
0.150194
0.164238
0.171351
0.172849
0.17003
0.164157
0.156225
0.146931
0.136741
0.125946
0.11469
0.103287
0.138318
0.140326
0.140927
0.140176
0.138068
0.134584
0.129739
0.123594
0.116247
0.107857
0.0985871
0.0890575
0.079921
0.0727543
0.0707287
0.0819496
0.105733
0.132615
0.154831
0.169574
0.177033
0.178665
0.175843
0.169893
0.161869
0.152503
0.142296
0.131565
0.120434
0.10919
0.150666
0.152238
0.152465
0.151383
0.148933
0.145072
0.139787
0.133122
0.12516
0.116069
0.106099
0.0958117
0.0859096
0.0779924
0.0752247
0.0853416
0.108639
0.13588
0.158769
0.174128
0.181942
0.18376
0.181008
0.175058
0.167011
0.157631
0.147451
0.1368
0.125811
0.114744
0.163349
0.16435
0.164104
0.162622
0.15981
0.155579
0.149885
0.142737
0.134201
0.124445
0.113815
0.102797
0.0921472
0.0835461
0.0801423
0.0892264
0.111632
0.138763
0.16204
0.177911
0.186095
0.188152
0.185546
0.179674
0.171681
0.162352
0.152248
0.141697
0.130867
0.119999
0.176438
0.176739
0.17593
0.173969
0.170756
0.166152
0.160072
0.152476
0.143404
0.133024
0.121785
0.110074
0.0987028
0.0894604
0.0854644
0.0935795
0.114749
0.141302
0.164643
0.180922
0.189502
0.191847
0.189465
0.183761
0.175898
0.166689
0.156709
0.146301
0.135646
0.125
0.190018
0.189513
0.188054
0.185547
0.181888
0.176904
0.170449
0.162429
0.152848
0.141882
0.130086
0.117714
0.105643
0.0957816
0.0912253
0.0983906
0.118014
0.143552
0.166662
0.183152
0.192156
0.194848
0.19278
0.187325
0.179676
0.170676
0.16087
0.150643
0.140187
0.129783
0.204023
0.202816
0.200647
0.197539
0.193417
0.188045
0.181218
0.172785
0.162711
0.151223
0.138889
0.125848
0.113066
0.102595
0.097651
0.103696
0.12146
0.145567
0.168127
0.184675
0.194075
0.197169
0.195497
0.190367
0.183027
0.174306
0.164744
0.154745
0.144524
0.134383
0.218191
0.216388
0.213779
0.210267
0.205731
0.199981
0.192794
0.183962
0.173423
0.161711
0.148598
0.134752
0.121184
0.110191
0.104816
0.109514
0.125122
0.147403
0.169096
0.185543
0.195245
0.198812
0.197606
0.192902
0.18596
0.177585
0.168338
0.158627
0.148684
0.138834
0.232424
0.230002
0.226953
0.223145
0.218426
0.212575
0.205308
0.196342
0.185685
0.173684
0.159794
0.145016
0.130558
0.118883
0.112749
0.115854
0.129041
0.14914
0.169638
0.185822
0.19575
0.199791
0.19911
0.194931
0.188461
0.180515
0.171659
0.162302
0.152694
0.143165
0.246643
0.243591
0.240093
0.236002
0.231152
0.225303
0.218138
0.209369
0.199251
0.18668
0.172055
0.156425
0.141093
0.128593
0.121435
0.122724
0.133272
0.15086
0.169838
0.18555
0.195658
0.20012
0.200015
0.196445
0.190527
0.183093
0.174708
0.165778
0.156562
0.147403
0.260751
0.257092
0.253172
0.248838
0.243932
0.238228
0.231559
0.223606
0.213168
0.200203
0.185066
0.168785
0.152679
0.139268
0.130873
0.130149
0.137862
0.152621
0.169746
0.184708
0.194874
0.19981
0.200289
0.19741
0.192142
0.18531
0.177475
0.169046
0.160288
0.15156
0.274647
0.270456
0.266221
0.261791
0.257129
0.252132
0.245937
0.237734
0.227135
0.214021
0.198665
0.181995
0.165279
0.150925
0.141109
0.138177
0.142856
0.154486
0.169376
0.183281
0.193312
0.198714
0.199858
0.197721
0.19324
0.187127
0.179951
0.172115
0.163899
0.155666
0.288289
0.283761
0.279657
0.275741
0.271489
0.266259
0.259704
0.251371
0.24081
0.227832
0.212594
0.195858
0.178758
0.163501
0.152113
0.146772
0.148212
0.156495
0.168795
0.181266
0.191016
0.196783
0.19862
0.197294
0.193667
0.188409
0.182048
0.174956
0.167413
0.159784
0.301833
0.297692
0.293535
0.289143
0.284315
0.278746
0.272015
0.263693
0.25334
0.240767
0.225956
0.209515
0.192334
0.176407
0.163489
0.1557
0.153986
0.159516
0.169571
0.180603
0.18971
0.195539
0.19779
0.196934
0.193694
0.189031
0.183563
0.177401
0.170731
0.163899
0.313384
0.308727
0.304075
0.299227
0.293979
0.288119
0.281303
0.27312
0.263145
0.251181
0.2371
0.22134
0.204519
0.188784
0.175606
0.166693
0.163187
0.166026
0.173421
0.182518
0.190629
0.19611
0.198452
0.197941
0.195041
0.190576
0.185133
0.179462
0.173719
0.167905
0.321728
0.315651
0.310062
0.304828
0.299759
0.294608
0.289025
0.282533
0.274605
0.264839
0.252955
0.239132
0.223971
0.209033
0.195802
0.185783
0.180163
0.180069
0.184296
0.190689
0.196914
0.201315
0.203195
0.202558
0.199683
0.19521
0.189678
0.183679
0.177528
0.171722
0.340021
0.333629
0.327597
0.32221
0.317521
0.313363
0.309387
0.305033
0.299665
0.292727
0.283705
0.272606
0.259897
0.246705
0.234313
0.223668
0.215947
0.2125
0.212808
0.215346
0.218336
0.22031
0.22052
0.218682
0.214956
0.209778
0.203572
0.196846
0.189948
0.183454
0.378891
0.373134
0.368363
0.365368
0.36396
0.363655
0.363859
0.363846
0.362966
0.360603
0.355802
0.348847
0.340152
0.33053
0.320618
0.310915
0.302044
0.295586
0.29151
0.289164
0.287479
0.285391
0.282261
0.277744
0.271875
0.264809
0.256592
0.247887
0.239137
0.231145
0.524924
0.521541
0.523229
0.528903
0.53409
0.538147
0.541155
0.543302
0.544479
0.544152
0.540401
0.535723
0.530485
0.525229
0.519469
0.51402
0.507819
0.502885
0.499065
0.496783
0.495443
0.494579
0.493699
0.492511
0.490824
0.487959
0.48163
0.474556
0.467574
0.461025
0.0665644
0.0762312
0.080569
0.0821267
0.0816951
0.0799897
0.0775455
0.074789
0.0719793
0.0693023
0.0668581
0.0647359
0.0631401
0.0622992
0.0622951
0.0633662
0.0653284
0.067879
0.0704062
0.0723227
0.0729347
0.0716081
0.0679673
0.0619983
0.0541543
0.045096
0.0357828
0.0264321
0.0216409
0.0199919
0.126514
0.128606
0.127304
0.122845
0.116278
0.108667
0.100806
0.0932811
0.0864593
0.0806158
0.0759067
0.0725262
0.0706507
0.0706883
0.0728939
0.0776014
0.0839446
0.090828
0.0968067
0.101047
0.103
0.102323
0.0986417
0.0917682
0.08211
0.0704677
0.0580013
0.0450744
0.0343275
0.0293154
0.141574
0.147422
0.149309
0.145446
0.13838
0.129883
0.120836
0.112096
0.104204
0.0975389
0.0923482
0.0889702
0.087664
0.0891262
0.0938524
0.102226
0.112638
0.123227
0.131829
0.137419
0.139624
0.138353
0.133409
0.12475
0.112801
0.0983355
0.0826274
0.066042
0.0509996
0.0414053
0.131695
0.140691
0.145366
0.14485
0.140214
0.133333
0.1257
0.118312
0.111785
0.106283
0.102197
0.100047
0.100275
0.103964
0.111902
0.124381
0.138906
0.152893
0.163684
0.170219
0.172377
0.170288
0.164043
0.153792
0.140017
0.123474
0.105415
0.0861188
0.0677757
0.0543872
0.112554
0.121797
0.127448
0.128925
0.127003
0.123005
0.118194
0.113451
0.109284
0.106302
0.104672
0.105084
0.107875
0.114671
0.126579
0.143714
0.162537
0.179669
0.192314
0.199527
0.201489
0.198525
0.191035
0.179423
0.164227
0.146172
0.126435
0.105227
0.0844858
0.0682359
0.0936081
0.103781
0.109509
0.111939
0.111579
0.109315
0.106208
0.103001
0.100915
0.100343
0.101294
0.104498
0.11079
0.121566
0.138239
0.160584
0.183887
0.203933
0.218139
0.225818
0.227493
0.223629
0.214965
0.202159
0.185828
0.166679
0.145741
0.123246
0.100842
0.0824538
0.0805523
0.0903401
0.0963408
0.0994741
0.100293
0.0993375
0.0973279
0.094862
0.0932806
0.0929144
0.0949332
0.100299
0.109666
0.125207
0.147405
0.175449
0.203319
0.226051
0.241563
0.249546
0.250864
0.246104
0.236338
0.222462
0.205192
0.185232
0.163453
0.140141
0.116664
0.0967303
0.0741417
0.0824953
0.0885124
0.0922467
0.0937956
0.0935835
0.0921748
0.0901598
0.0884228
0.0877248
0.0892192
0.094666
0.106233
0.12644
0.154648
0.188711
0.221104
0.246293
0.262878
0.271047
0.271959
0.266329
0.255539
0.240702
0.222633
0.202054
0.179701
0.155917
0.131819
0.110818
0.0758472
0.0818627
0.0871093
0.0907433
0.0922449
0.0921426
0.0908403
0.0886697
0.0864772
0.0850409
0.0856777
0.0900692
0.102118
0.125924
0.160553
0.20073
0.237411
0.264876
0.282307
0.290566
0.291044
0.284589
0.272866
0.257173
0.238421
0.21736
0.194627
0.170615
0.14622
0.124534
0.089052
0.0933462
0.0969245
0.0988702
0.0987221
0.0970134
0.0942391
0.0909725
0.0876231
0.0850322
0.0844366
0.0876715
0.0986922
0.125196
0.165823
0.211839
0.252418
0.281911
0.300003
0.308282
0.308313
0.301101
0.288548
0.272106
0.252779
0.231347
0.208381
0.184311
0.159865
0.13778
0.114323
0.117304
0.11883
0.118275
0.115505
0.110658
0.104586
0.098352
0.0926098
0.0880197
0.0856515
0.0873497
0.0973146
0.125095
0.171027
0.222316
0.266257
0.297478
0.316072
0.324314
0.323914
0.316028
0.30276
0.285687
0.265894
0.244187
0.2211
0.197127
0.172842
0.150535
0.147727
0.149451
0.14908
0.146076
0.140451
0.132331
0.122621
0.112276
0.102526
0.0946795
0.0897554
0.089494
0.0983626
0.126985
0.176799
0.232394
0.279015
0.311623
0.330577
0.338746
0.337953
0.329495
0.315638
0.298061
0.277914
0.256033
0.232927
0.209153
0.185082
0.162779
0.18402
0.1861
0.18439
0.1791
0.170894
0.159795
0.146571
0.132204
0.117976
0.105631
0.0971894
0.094383
0.102135
0.130996
0.183555
0.242233
0.290749
0.324366
0.343562
0.351632
0.350509
0.341595
0.327285
0.309336
0.288962
0.267015
0.244021
0.220448
0.196681
0.17453
0.217899
0.220184
0.219034
0.213516
0.203567
0.190296
0.174224
0.156394
0.138138
0.121125
0.108309
0.102494
0.108697
0.137407
0.191524
0.251923
0.301496
0.3357
0.355069
0.363015
0.361639
0.352393
0.337769
0.319591
0.299128
0.277234
0.254431
0.231125
0.207746
0.185852
0.250123
0.252313
0.251249
0.246024
0.236025
0.221533
0.203616
0.183179
0.161565
0.140581
0.123242
0.114081
0.118257
0.146378
0.200771
0.261499
0.311285
0.345654
0.36511
0.372925
0.371374
0.361926
0.347137
0.328861
0.308498
0.2868
0.264241
0.241296
0.218375
0.19684
0.280995
0.282876
0.281768
0.276646
0.267111
0.25229
0.233452
0.211304
0.187157
0.162953
0.141726
0.129105
0.130852
0.157868
0.211222
0.270956
0.320153
0.354282
0.373709
0.381386
0.379746
0.370203
0.35539
0.337291
0.317153
0.295789
0.273577
0.251045
0.228605
0.207577
0.310733
0.312277
0.311117
0.306085
0.296779
0.28229
0.263165
0.240016
0.214099
0.187392
0.16316
0.147314
0.146349
0.171662
0.222711
0.280289
0.328176
0.361676
0.380927
0.388447
0.386757
0.377415
0.362814
0.344925
0.325179
0.30425
0.2825
0.260454
0.238552
0.218132
0.339693
0.340682
0.339515
0.334634
0.325571
0.311632
0.292555
0.268924
0.241866
0.213356
0.18684
0.168251
0.164502
0.187446
0.235027
0.289553
0.335497
0.368002
0.386881
0.394323
0.392943
0.383751
0.369432
0.351801
0.332628
0.312247
0.291082
0.26962
0.248339
0.228601
0.368393
0.368549
0.367048
0.362164
0.353373
0.339956
0.321366
0.297737
0.270113
0.240449
0.212273
0.191481
0.184981
0.204891
0.248174
0.298955
0.342422
0.373549
0.392043
0.399481
0.398294
0.389359
0.375441
0.358138
0.339589
0.319856
0.299391
0.278627
0.258069
0.239071
0.397027
0.396379
0.394382
0.389293
0.380615
0.367716
0.349714
0.326445
0.298761
0.268513
0.239205
0.216676
0.207603
0.223983
0.262494
0.309007
0.34952
0.379111
0.396955
0.404245
0.403283
0.3947
0.381211
0.364336
0.346401
0.327298
0.307563
0.28759
0.267887
0.249612
0.425862
0.42446
0.421865
0.416522
0.408004
0.39581
0.378603
0.356117
0.328898
0.298584
0.268593
0.244642
0.233312
0.245491
0.27894
0.320784
0.358023
0.385675
0.402508
0.409573
0.408805
0.400633
0.387467
0.371061
0.35358
0.33505
0.315966
0.296709
0.277739
0.260208
0.455344
0.453322
0.450222
0.444734
0.436631
0.425368
0.409517
0.388499
0.362407
0.332683
0.302574
0.27757
0.264176
0.27158
0.299747
0.336516
0.370024
0.395277
0.410706
0.417365
0.416682
0.408849
0.395806
0.37976
0.362354
0.34394
0.325077
0.306263
0.28787
0.271022
0.486612
0.484253
0.480995
0.475914
0.4691
0.45918
0.445313
0.426618
0.402725
0.37472
0.345492
0.32012
0.304983
0.307431
0.330005
0.361045
0.390154
0.412264
0.425907
0.431695
0.430416
0.422276
0.408767
0.392649
0.374793
0.355927
0.336715
0.317676
0.299278
0.282749
0.52239
0.520287
0.517669
0.514215
0.509119
0.501672
0.491067
0.476194
0.456461
0.432326
0.405974
0.38176
0.365623
0.363363
0.379952
0.404581
0.427324
0.444591
0.454754
0.458169
0.454962
0.445359
0.430605
0.413257
0.393991
0.373794
0.353396
0.333316
0.314135
0.297231
0.568355
0.567695
0.567544
0.566654
0.564846
0.561834
0.556902
0.54887
0.536598
0.519912
0.499959
0.479901
0.46463
0.458852
0.468185
0.484458
0.498734
0.507417
0.510478
0.508494
0.500929
0.487529
0.469132
0.448153
0.425716
0.402667
0.379669
0.357345
0.33625
0.31803
0.635168
0.638338
0.64238
0.646771
0.6517
0.65704
0.662123
0.66534
0.664786
0.660041
0.650897
0.639193
0.628241
0.621269
0.622816
0.627902
0.629677
0.626629
0.618388
0.605737
0.588476
0.566354
0.540041
0.511627
0.482496
0.453685
0.425914
0.399326
0.374386
0.353677
0.746033
0.75594
0.767531
0.780968
0.796375
0.813718
0.832229
0.84964
0.863257
0.872278
0.875402
0.87414
0.870513
0.866693
0.864154
0.860031
0.849385
0.832612
0.809967
0.782724
0.751111
0.715344
0.676352
0.635833
0.595294
0.556058
0.518932
0.484484
0.453162
0.42847
0.934187
0.949759
0.968831
0.992579
1.02003
1.05005
1.08103
1.10915
1.1316
1.14853
1.15847
1.16422
1.16756
1.16999
1.16783
1.16027
1.14451
1.1213
1.09081
1.0543
1.01252
0.966194
0.916608
0.865459
0.814145
0.764158
0.716096
0.671135
0.630078
0.599289
1.15392
1.1609
1.18589
1.22174
1.25887
1.29541
1.32891
1.35294
1.36907
1.37985
1.38325
1.38551
1.38819
1.39197
1.39005
1.38244
1.37082
1.35385
1.33156
1.30438
1.2728
1.23704
1.19842
1.15831
1.11776
1.07727
1.0356
0.995219
0.956127
0.925075
1.20149
1.20521
1.22904
1.26174
1.29312
1.31759
1.33371
1.34264
1.34642
1.34697
1.34333
1.3396
1.33607
1.33461
1.3278
1.31666
1.30828
1.29807
1.28664
1.27411
1.26127
1.24845
1.23628
1.22588
1.21782
1.21123
1.20403
1.1964
1.18465
1.16686
0.0907531
0.107702
0.115064
0.117908
0.117599
0.115197
0.111548
0.107332
0.102981
0.0988262
0.0950297
0.0918727
0.0894867
0.0882679
0.0882594
0.0896616
0.0919322
0.0947641
0.0981118
0.101678
0.103934
0.103104
0.0980918
0.0887852
0.0759798
0.0609536
0.0453541
0.0303607
0.021116
0.0204048
0.146675
0.171612
0.178836
0.177637
0.171756
0.16337
0.154008
0.144656
0.135932
0.128324
0.12212
0.117751
0.115372
0.115501
0.118018
0.122778
0.128096
0.133521
0.139323
0.145662
0.150875
0.152709
0.149164
0.139162
0.123296
0.103146
0.0810431
0.0586361
0.040113
0.0312376
0.16999
0.198848
0.210892
0.213303
0.209204
0.201289
0.191472
0.181131
0.171257
0.162628
0.155781
0.151366
0.149713
0.151609
0.156857
0.164823
0.172924
0.180402
0.187447
0.194442
0.19984
0.201441
0.197055
0.185316
0.166699
0.142544
0.115288
0.0867606
0.0613826
0.0457404
0.173067
0.202873
0.220744
0.227899
0.227
0.221329
0.212925
0.203414
0.194119
0.186012
0.179889
0.176624
0.176824
0.181498
0.190276
0.201772
0.212533
0.221683
0.22936
0.23617
0.240843
0.241434
0.235845
0.222773
0.202407
0.175882
0.145491
0.112993
0.0826097
0.0612801
0.16688
0.194658
0.215405
0.226497
0.229637
0.226961
0.22097
0.213436
0.205999
0.199571
0.19527
0.194209
0.197425
0.205975
0.219154
0.234593
0.24797
0.258545
0.266518
0.272693
0.276163
0.275293
0.26826
0.253975
0.232468
0.204623
0.172473
0.137494
0.10362
0.0777587
0.153109
0.176957
0.198291
0.212037
0.218564
0.219556
0.21699
0.21297
0.208123
0.204372
0.202911
0.205184
0.21253
0.22609
0.244466
0.264231
0.280179
0.291969
0.299989
0.305271
0.307294
0.304695
0.296071
0.280604
0.25826
0.229711
0.196678
0.160319
0.124141
0.0947577
0.133617
0.15323
0.173777
0.188702
0.197625
0.201844
0.20277
0.202132
0.201035
0.20131
0.203772
0.210493
0.223038
0.24272
0.266955
0.291345
0.309811
0.322625
0.330525
0.334779
0.335206
0.330727
0.320422
0.303765
0.280734
0.251841
0.218472
0.181529
0.144022
0.112019
0.117191
0.131906
0.150038
0.165091
0.175491
0.181672
0.184835
0.186465
0.188089
0.191833
0.19873
0.210523
0.229765
0.256569
0.287255
0.316377
0.337302
0.350955
0.358612
0.361802
0.36051
0.354086
0.34206
0.324205
0.300558
0.271521
0.238169
0.201263
0.163204
0.129292
0.106682
0.116201
0.130848
0.144726
0.155341
0.162641
0.1675
0.170875
0.174369
0.179896
0.189901
0.207191
0.233872
0.268473
0.3059
0.339665
0.362938
0.377259
0.384599
0.386704
0.383636
0.375247
0.361511
0.342468
0.31824
0.289167
0.256045
0.219535
0.181341
0.146332
0.103682
0.108767
0.119177
0.130448
0.140155
0.147499
0.152859
0.157228
0.161987
0.16887
0.180533
0.201978
0.236416
0.279203
0.323341
0.361483
0.386907
0.401767
0.408742
0.409735
0.404873
0.394553
0.379154
0.358963
0.334184
0.305132
0.27245
0.236388
0.198486
0.163013
0.109261
0.110193
0.116636
0.125221
0.132899
0.138925
0.143426
0.147548
0.152474
0.16007
0.173041
0.197335
0.237935
0.289447
0.339938
0.382031
0.409358
0.424639
0.431222
0.431058
0.424433
0.412254
0.395278
0.37401
0.348723
0.319711
0.287484
0.252033
0.214739
0.179299
0.123845
0.122506
0.125769
0.13093
0.135423
0.138568
0.141052
0.143601
0.14748
0.154749
0.168588
0.194781
0.240342
0.299935
0.355983
0.401461
0.430403
0.445991
0.452161
0.450802
0.442481
0.428554
0.410114
0.38787
0.36214
0.333212
0.301395
0.266654
0.230245
0.195221
0.147021
0.144782
0.145908
0.147982
0.148813
0.148198
0.147099
0.146568
0.147899
0.15359
0.167126
0.194761
0.245383
0.311219
0.371683
0.419891
0.450152
0.46592
0.47165
0.469094
0.459169
0.443633
0.423871
0.400772
0.374684
0.345916
0.314437
0.280528
0.245139
0.210862
0.178002
0.175947
0.176114
0.175451
0.172523
0.167544
0.161852
0.157259
0.155135
0.15805
0.170931
0.20044
0.253454
0.323563
0.387174
0.437434
0.468712
0.484541
0.489795
0.486065
0.474654
0.457667
0.436744
0.41293
0.386586
0.357907
0.326935
0.293865
0.259539
0.22629
0.216401
0.215079
0.213932
0.210699
0.204347
0.195089
0.184508
0.175356
0.169188
0.168592
0.179921
0.210602
0.264673
0.337071
0.402564
0.454227
0.486233
0.502008
0.506746
0.50189
0.489128
0.470859
0.448949
0.424562
0.39806
0.369575
0.339129
0.306863
0.273599
0.241587
0.261969
0.259431
0.256259
0.250526
0.24144
0.228565
0.213539
0.199915
0.189516
0.185265
0.194208
0.225039
0.278945
0.35177
0.417994
0.470476
0.502932
0.518553
0.522741
0.516822
0.502854
0.483473
0.460741
0.435907
0.40941
0.381189
0.351238
0.319713
0.287508
0.256852
0.311186
0.306811
0.301537
0.29334
0.281634
0.265955
0.247241
0.229672
0.215203
0.207406
0.213451
0.243354
0.29617
0.367742
0.433722
0.486521
0.51917
0.534535
0.538155
0.531253
0.516222
0.495885
0.472479
0.447322
0.420936
0.393081
0.363556
0.332765
0.301611
0.272317
0.362171
0.356217
0.348901
0.338312
0.324119
0.305958
0.284389
0.263488
0.245284
0.234288
0.23721
0.265222
0.316206
0.385269
0.450238
0.502933
0.535534
0.550551
0.5536
0.545799
0.529844
0.508696
0.484749
0.459354
0.433065
0.405594
0.37668
0.346564
0.316437
0.288333
0.414597
0.40703
0.397727
0.38491
0.36844
0.348068
0.324411
0.300552
0.279261
0.265492
0.2653
0.290697
0.339367
0.405044
0.468445
0.520684
0.55299
0.567578
0.570069
0.561462
0.544738
0.522931
0.498548
0.472903
0.44663
0.419439
0.391079
0.361671
0.332308
0.305037
0.467615
0.458752
0.44762
0.432876
0.414504
0.392351
0.367093
0.340991
0.317337
0.301238
0.298296
0.32057
0.366716
0.428509
0.489973
0.541448
0.573171
0.58726
0.589222
0.579928
0.562642
0.540411
0.515775
0.489814
0.463193
0.435807
0.407364
0.37814
0.349175
0.322537
0.520974
0.511038
0.498475
0.482295
0.462619
0.439368
0.413153
0.385845
0.360774
0.343015
0.337898
0.356945
0.400506
0.458467
0.517774
0.568132
0.598887
0.612421
0.613922
0.604178
0.586771
0.56412
0.538518
0.511428
0.483676
0.455331
0.426208
0.396517
0.367446
0.3411
0.575474
0.564422
0.550917
0.533987
0.513903
0.490623
0.464655
0.43756
0.412469
0.394194
0.387846
0.404278
0.444994
0.500335
0.557275
0.605876
0.635077
0.648091
0.649358
0.639001
0.620403
0.596138
0.568414
0.539062
0.509159
0.478962
0.448431
0.417574
0.387793
0.361274
0.632569
0.62068
0.606828
0.590176
0.571054
0.549393
0.525579
0.500846
0.477924
0.461125
0.455204
0.470305
0.508248
0.561672
0.617348
0.663724
0.690599
0.702016
0.70129
0.688565
0.66733
0.63991
0.608578
0.575439
0.541902
0.508491
0.475339
0.442586
0.411393
0.384145
0.695287
0.683449
0.670402
0.65568
0.639563
0.621967
0.603153
0.58398
0.566579
0.554431
0.551807
0.567733
0.60366
0.654523
0.70919
0.751984
0.775028
0.783148
0.778273
0.761163
0.735137
0.702391
0.665247
0.626147
0.58689
0.548368
0.510915
0.474817
0.440963
0.412175
0.770138
0.760205
0.750063
0.739823
0.729681
0.71958
0.709656
0.700286
0.692822
0.689433
0.694179
0.713419
0.748317
0.795624
0.848046
0.884983
0.90219
0.904688
0.892995
0.868931
0.835478
0.794736
0.749004
0.701194
0.65353
0.607397
0.563355
0.521784
0.483502
0.452102
0.870257
0.865126
0.861422
0.859237
0.858896
0.860333
0.863493
0.867973
0.874069
0.882985
0.897498
0.921537
0.956121
0.999155
1.04591
1.07426
1.08372
1.07804
1.05769
1.02501
0.982374
0.931877
0.875776
0.817205
0.758856
0.702793
0.64972
0.600186
0.555108
0.519738
1.0173
1.01944
1.02634
1.03689
1.05006
1.06569
1.08327
1.10161
1.12009
1.13933
1.16113
1.18829
1.22163
1.25906
1.29584
1.31223
1.31248
1.29772
1.27003
1.23079
1.18148
1.12436
1.06139
0.994982
0.928091
0.863356
0.801529
0.743322
0.690036
0.649759
1.22789
1.23463
1.25193
1.277
1.30511
1.33271
1.35869
1.38225
1.40311
1.42276
1.44294
1.4665
1.49394
1.52142
1.54209
1.54058
1.5286
1.50642
1.47771
1.44029
1.39558
1.34526
1.29076
1.23327
1.17437
1.11465
1.05501
0.996611
0.940902
0.897962
1.4281
1.43581
1.46172
1.49666
1.53115
1.56041
1.58321
1.59884
1.60922
1.61777
1.62648
1.63813
1.65217
1.66314
1.66108
1.63738
1.61281
1.58392
1.55562
1.52683
1.49833
1.47056
1.44462
1.42145
1.40137
1.37835
1.35132
1.32103
1.28657
1.25271
1.40648
1.42491
1.45815
1.49627
1.53121
1.55792
1.57432
1.58187
1.58374
1.58342
1.58264
1.5832
1.58348
1.57814
1.55558
1.51568
1.48158
1.44683
1.41746
1.39301
1.37521
1.36373
1.35891
1.36087
1.37001
1.38341
1.39653
1.40668
1.40782
1.39894
0.125288
0.14465
0.151217
0.153885
0.153255
0.150159
0.14551
0.140094
0.134415
0.128907
0.123787
0.119425
0.115894
0.113644
0.112574
0.112976
0.114354
0.117311
0.123513
0.132548
0.140038
0.141797
0.136038
0.123112
0.104667
0.0827239
0.0595062
0.0374984
0.0231851
0.0203567
0.202151
0.229801
0.237836
0.2362
0.229115
0.219215
0.208269
0.197359
0.187156
0.178225
0.170814
0.165329
0.161644
0.160155
0.160254
0.162084
0.164308
0.169195
0.180122
0.196446
0.211759
0.219757
0.216909
0.20215
0.177502
0.145824
0.110535
0.0750138
0.0456905
0.0307674
0.23954
0.270165
0.283182
0.285313
0.280765
0.272267
0.261713
0.250488
0.239622
0.229994
0.22213
0.216623
0.213433
0.21298
0.214506
0.2178
0.221238
0.227108
0.239231
0.257055
0.27381
0.282772
0.280006
0.26371
0.235675
0.198555
0.155701
0.110861
0.0714941
0.0461251
0.255966
0.285509
0.301915
0.308427
0.30826
0.303317
0.29531
0.285818
0.276187
0.267588
0.260869
0.256777
0.255431
0.257164
0.260999
0.266176
0.27079
0.277338
0.289473
0.306768
0.322715
0.33092
0.32746
0.310361
0.280845
0.241029
0.194114
0.143752
0.0974014
0.0632468
0.257501
0.281341
0.30038
0.312964
0.318732
0.318303
0.313862
0.307209
0.3
0.293663
0.28937
0.287984
0.289842
0.294931
0.301938
0.309432
0.315278
0.322364
0.334101
0.349874
0.363779
0.370183
0.365364
0.347449
0.317232
0.276328
0.227538
0.174118
0.123074
0.0818383
0.251372
0.268663
0.288448
0.30504
0.315839
0.320384
0.320076
0.316984
0.313074
0.310019
0.309271
0.311921
0.318322
0.327868
0.338841
0.349029
0.356187
0.363767
0.374829
0.38857
0.399758
0.4037
0.396916
0.37797
0.34736
0.30625
0.256961
0.202269
0.148091
0.101355
0.237852
0.246921
0.266214
0.28623
0.301914
0.311324
0.31549
0.316598
0.316732
0.317892
0.32186
0.329809
0.342011
0.357067
0.372685
0.385868
0.394432
0.402492
0.412717
0.424119
0.4322
0.433223
0.424064
0.403837
0.372876
0.331983
0.283046
0.227981
0.171694
0.121178
0.215646
0.21783
0.236114
0.258257
0.277534
0.291662
0.300762
0.306792
0.312014
0.318028
0.328196
0.342634
0.361852
0.383387
0.404136
0.420546
0.430589
0.439096
0.448346
0.457243
0.462041
0.459735
0.447956
0.426261
0.39489
0.354402
0.306314
0.251185
0.193896
0.140962
0.195057
0.19122
0.206491
0.228651
0.249945
0.267045
0.279691
0.289627
0.29979
0.312026
0.328795
0.351363
0.378723
0.407559
0.433666
0.453492
0.465074
0.473903
0.482021
0.488375
0.489777
0.483878
0.469351
0.446066
0.414217
0.374193
0.326732
0.272154
0.214799
0.160646
0.179575
0.170058
0.181012
0.201186
0.222708
0.241505
0.256848
0.270191
0.284226
0.301365
0.325631
0.357412
0.393586
0.430125
0.461734
0.485044
0.498193
0.507256
0.51421
0.517851
0.515645
0.5061
0.488792
0.46388
0.431492
0.391929
0.344887
0.291322
0.234569
0.180064
0.170848
0.156905
0.162956
0.179646
0.199611
0.21842
0.235197
0.25107
0.268499
0.290137
0.320825
0.36204
0.407349
0.451701
0.488725
0.515489
0.530195
0.539486
0.545044
0.545824
0.539866
0.526736
0.506715
0.480229
0.447239
0.407739
0.361443
0.309117
0.253373
0.199256
0.171425
0.154407
0.155069
0.167202
0.183605
0.201012
0.217812
0.234875
0.254837
0.280585
0.316712
0.365457
0.420838
0.472799
0.51497
0.545092
0.561288
0.570685
0.574677
0.572356
0.562667
0.5461
0.523523
0.495585
0.461967
0.422406
0.376925
0.32589
0.271458
0.218331
0.17981
0.162365
0.158498
0.165008
0.177607
0.192457
0.207286
0.224047
0.245382
0.274297
0.314476
0.36986
0.434933
0.493862
0.540787
0.57412
0.591696
0.600982
0.603227
0.597631
0.58432
0.564536
0.539629
0.510399
0.476188
0.436617
0.391834
0.34204
0.289134
0.237458
0.197729
0.18116
0.174612
0.176187
0.183364
0.192514
0.204615
0.2198
0.241085
0.271348
0.315078
0.377626
0.450327
0.515271
0.566511
0.602875
0.621695
0.63059
0.630864
0.621943
0.605184
0.582453
0.555476
0.525132
0.490481
0.45085
0.406666
0.358097
0.306821
0.256764
0.226757
0.210757
0.202234
0.199504
0.201022
0.204991
0.212123
0.223494
0.24235
0.273438
0.322132
0.389486
0.467436
0.537381
0.59253
0.631758
0.651584
0.659825
0.657859
0.645718
0.625755
0.600385
0.571594
0.540283
0.505365
0.465679
0.422146
0.374645
0.324692
0.27632
0.26604
0.249971
0.239418
0.232832
0.229183
0.227639
0.229226
0.236088
0.252372
0.284028
0.335246
0.405143
0.486506
0.560588
0.61935
0.661281
0.681774
0.689266
0.684768
0.66958
0.646728
0.61905
0.58865
0.556432
0.521553
0.482241
0.438893
0.391891
0.342905
0.296085
0.314118
0.297143
0.284202
0.273844
0.265423
0.258723
0.254987
0.256804
0.269636
0.300554
0.353062
0.424429
0.507786
0.585439
0.647664
0.692123
0.712825
0.719402
0.712385
0.69445
0.66911
0.639442
0.607546
0.575053
0.540278
0.500861
0.457051
0.410005
0.361607
0.316158
0.36917
0.350538
0.334805
0.320663
0.307801
0.296308
0.287708
0.284709
0.293557
0.322583
0.37546
0.447516
0.531926
0.612798
0.678464
0.725223
0.74605
0.751273
0.741927
0.721722
0.694388
0.663126
0.630531
0.59752
0.561688
0.521258
0.476578
0.429033
0.380836
0.336534
0.429341
0.408532
0.389753
0.371893
0.354933
0.33913
0.326135
0.318963
0.323584
0.350048
0.402629
0.475024
0.560107
0.644028
0.713197
0.761914
0.782472
0.786411
0.775261
0.753561
0.72503
0.69254
0.659179
0.623795
0.585698
0.543232
0.497264
0.448754
0.400502
0.357312
0.492986