/*--------------------------------*- C++ -*----------------------------------*\
  =========                 |
  \\      /  F ield         | OpenFOAM: The Open Source CFD Toolbox
   \\    /   O peration     | Website:  https://openfoam.org
    \\  /    A nd           | Version:  12
     \\/     M anipulation  |
\*---------------------------------------------------------------------------*/
FoamFile
{
    format      ascii;
    class       volScalarField;
    location    "1150/air";
    object      nut;
}
// * * * * * * * * * * * * * * * * * * * * * * * * * * * * * * * * * * * * * //

dimensions      [0 2 -1 0 0 0 0];

internalField   nonuniform List<scalar> 
243000
(
9.11038e-05
0.000101079
0.000100522
9.87971e-05
9.59854e-05
9.26209e-05
8.90644e-05
8.55879e-05
8.23402e-05
7.94188e-05
7.68069e-05
0.000317995
0.000307741
0.000301116
0.000300048
0.000306754
0.000318764
0.000327454
7.56813e-05
7.68739e-05
7.85569e-05
8.0038e-05
8.09371e-05
8.10302e-05
8.02906e-05
7.87182e-05
7.65378e-05
7.27021e-05
0.00031124
6.51145e-05
0.000315584
0.000346257
0.000338941
0.000328979
0.000315728
0.000301091
0.000286382
0.000272689
0.000260416
0.000249879
0.000241165
0.000234632
0.000230615
0.00022914
0.000230535
0.000235567
0.000243633
0.000255765
0.000266995
0.000278677
0.00028913
0.000297523
0.000303242
0.000305854
0.000305288
0.000301511
0.000294938
0.000284278
0.000271219
0.000249208
0.000392726
0.000403553
0.000411576
0.000421816
0.000424572
0.000422645
0.000418175
0.000412627
0.000407107
0.000402359
0.000398902
0.000397512
0.000398745
0.000403545
0.000412803
0.000428065
0.000448304
0.000471415
0.000493035
0.000510145
0.000520781
0.000524589
0.000521598
0.000512022
0.000496508
0.000475545
0.000450221
0.000418831
0.000383164
0.000342906
0.000415334
0.000417941
0.000413941
0.000415679
0.000416032
0.000414489
0.000411365
0.000407256
0.00040274
0.000399893
0.000398971
0.000400398
0.000405121
0.000414485
0.000429524
0.000451879
0.000479707
0.000509581
0.000536502
0.000556862
0.000569072
0.00057333
0.00057016
0.000560118
0.000543987
0.000522274
0.000495874
0.00046356
0.000426009
0.00038424
0.000443483
0.000445821
0.000442552
0.000437639
0.000432176
0.000427922
0.000422995
0.000417486
0.000411462
0.000405754
0.000401379
0.000400363
0.000405699
0.000418419
0.000439248
0.000469283
0.000505176
0.000541714
0.000573221
0.000596139
0.000609397
0.000613747
0.000610171
0.000599597
0.000582958
0.000560821
0.00053396
0.000501527
0.000463641
0.000421373
0.000474235
0.000477784
0.000476927
0.000474342
0.000469809
0.000462203
0.000452675
0.00044337
0.000433466
0.000423498
0.000414403
0.000407819
0.000406994
0.000419027
0.000444019
0.000481634
0.000525787
0.000568939
0.00060459
0.000629644
0.000643664
0.000647935
0.000643875
0.000632761
0.000615698
0.000593343
0.000566367
0.000534289
0.000496935
0.000455637
0.00050581
0.000510633
0.000511681
0.000510485
0.000506909
0.000500784
0.000491972
0.000479078
0.00046489
0.000450223
0.000435872
0.00042339
0.000415661
0.000420637
0.000446221
0.000490284
0.000542499
0.000592102
0.000631574
0.000658487
0.000673107
0.000677242
0.000672699
0.000661073
0.00064365
0.000621192
0.000594326
0.000562851
0.000526481
0.000486624
0.000537509
0.000543346
0.000545589
0.000545099
0.000541885
0.000535922
0.000527091
0.000515078
0.000498591
0.000480738
0.000462142
0.000444377
0.000430354
0.000426795
0.000448295
0.000496607
0.000556145
0.000611833
0.000654876
0.000683454
0.000698593
0.000702596
0.000697617
0.000685536
0.000667807
0.000645319
0.000618699
0.000587939
0.000552758
0.000514472
0.000569192
0.000575663
0.000578523
0.00057827
0.000574988
0.000568708
0.000559389
0.000546941
0.00053107
0.000510977
0.000489555
0.00046787
0.000448661
0.0004382
0.000452092
0.000501889
0.000567471
0.000628642
0.00067503
0.000705125
0.000720751
0.000724663
0.000719328
0.000706869
0.000688898
0.000666431
0.000640124
0.000610117
0.000576183
0.000539496
0.00060085
0.000607555
0.000610576
0.000610227
0.000606625
0.0005998
0.000589749
0.000576472
0.000559877
0.000538965
0.000515946
0.000491673
0.000468608
0.000452815
0.000458495
0.000507197
0.000577159
0.000642989
0.000692422
0.000723931
0.000740043
0.000743936
0.000738344
0.000725601
0.000707464
0.000685065
0.00065911
0.000629855
0.000597168
0.000562036
0.000632448
0.000638952
0.000641743
0.000641055
0.000636987
0.000629523
0.000618663
0.000604432
0.000586822
0.000565617
0.000541026
0.000514784
0.000488931
0.000469195
0.000468463
0.000513467
0.000585805
0.000655279
0.000707362
0.000740196
0.00075682
0.000760781
0.00075505
0.000742132
0.000723914
0.000701634
0.000676058
0.000647551
0.000616104
0.000582434
0.00066386
0.00066975
0.000671988
0.000670769
0.000666133
0.000658009
0.000646368
0.000631202
0.000612517
0.000590365
0.000564588
0.000536875
0.000509013
0.000486407
0.000481148
0.000521215
0.000593909
0.000665854
0.000720072
0.000754198
0.000771349
0.000775479
0.000769736
0.000756764
0.00073856
0.000716457
0.000691295
0.000663527
0.000633237
0.000600949
0.000694898
0.000699847
0.000701297
0.000699414
0.000694155
0.000685387
0.000673017
0.000656996
0.000637304
0.000614026
0.000587182
0.000558195
0.000528775
0.000504036
0.000495597
0.000530578
0.000601841
0.000675004
0.000730797
0.000766109
0.000783829
0.000788236
0.00078262
0.000769724
0.000751646
0.00072979
0.000705082
0.000678067
0.000648809
0.000617806
0.000725398
0.000729108
0.000729614
0.000727009
0.000721118
0.000711752
0.000698744
0.000681987
0.000661415
0.000637099
0.000609277
0.000579121
0.000548376
0.000521988
0.000511248
0.000541498
0.000609857
0.00068296
0.000739739
0.000776078
0.00079441
0.00079921
0.000793864
0.000781184
0.00076335
0.000741828
0.000717621
0.000691317
0.000663036
0.000633237
0.000755441
0.000757698
0.000757101
0.000753665
0.000747135
0.000737216
0.000723669
0.000706305
0.000684994
0.00065979
0.000631145
0.000599962
0.000568034
0.000540343
0.000527808
0.000553823
0.000618115
0.000689919
0.000747035
0.000784205
0.000803211
0.000808511
0.000803582
0.00079126
0.000773806
0.000752725
0.000729078
0.000703469
0.000676122
0.000647479
0.000785226
0.000785854
0.000784027
0.000779641
0.000772422
0.000761974
0.000747967
0.000730105
0.000708184
0.000682237
0.00065295
0.000620912
0.000587957
0.000559205
0.000545148
0.000567381
0.000626709
0.000696013
0.000752751
0.000790552
0.000810311
0.000816213
0.000811847
0.000800049
0.000783109
0.000762579
0.000739561
0.000714691
0.000688249
0.000660734
0.000814959
0.000813849
0.000810687
0.000805266
0.000797304
0.000786338
0.000771921
0.000753641
0.000731209
0.000704657
0.000674904
0.000642159
0.000608325
0.000578677
0.000563288
0.000582047
0.000635702
0.000701448
0.00075715
0.000795141
0.000815736
0.000822372
0.000818738
0.000807611
0.000791328
0.000771514
0.000749194
0.000725103
0.000699566
0.000673157
0.000844553
0.000841999
0.00083745
0.000830956
0.000822259
0.000810796
0.000796003
0.000777361
0.000754497
0.00072755
0.000697429
0.000664027
0.000629377
0.000598959
0.000582781
0.000597853
0.000645169
0.000706359
0.000760316
0.000798233
0.000819564
0.000827048
0.000824305
0.000813979
0.000798526
0.000779541
0.000758038
0.000734795
0.000710196
0.000684882
0.000873464
0.000869801
0.000864511
0.00085737
0.000848081
0.00083618
0.000821082
0.000802162
0.000779001
0.000752443
0.000721469
0.000687179
0.00065163
0.00062078
0.000603918
0.000614806
0.000655197
0.000710908
0.000762405
0.000799923
0.00082181
0.000830285
0.000828555
0.000819212
0.000804749
0.000786704
0.00076614
0.00074384
0.000720237
0.000696032
0.000901564
0.000896818
0.00089083
0.00088332
0.00087394
0.000862192
0.000847392
0.000828795
0.000806168
0.000779865
0.000748235
0.000712943
0.000676428
0.000644886
0.000626586
0.000632851
0.000665873
0.000715305
0.000763595
0.000800378
0.000822684
0.000832119
0.000831515
0.000823337
0.000809988
0.00079303
0.000773537
0.000752296
0.000729781
0.000706708
0.000928779
0.000922988
0.000916323
0.000908484
0.000899117
0.000887707
0.000873551
0.000855949
0.000835159
0.000808585
0.000776481
0.000740529
0.000703269
0.000670835
0.000650581
0.000651918
0.000677305
0.000719754
0.000764082
0.000799663
0.000822305
0.000832622
0.000833216
0.000826357
0.000814261
0.000798538
0.000780257
0.000760201
0.000738866
0.000716997
0.000955011
0.000948268
0.000941006
0.000932925
0.00092371
0.00091289
0.000900119
0.000884629
0.000863897
0.000837429
0.000805376
0.00076931
0.00073168
0.000698304
0.000675763
0.000671989
0.000689577
0.000724388
0.000764019
0.000797777
0.00082049
0.000831787
0.000833592
0.000828209
0.000817551
0.000803221
0.000786293
0.000767553
0.000747511
0.000726945
0.000980154
0.000972636
0.000964995
0.000956951
0.000948445
0.000939246
0.000927697
0.000912207
0.000891815
0.000865918
0.000834519
0.000798943
0.000761409
0.000727178
0.000702127
0.000693107
0.000702759
0.000729399
0.000763447
0.000794701
0.000817062
0.000829315
0.000832511
0.000828666
0.000819716
0.000807006
0.000791634
0.000774383
0.000755789
0.000736644
0.00100422
0.000996298
0.000989096
0.00098218
0.000974601
0.000965218
0.000953348
0.00093806
0.000918333
0.000893489
0.000863363
0.000828929
0.000792015
0.00075717
0.000729492
0.000715088
0.000716704
0.000734859
0.000762591
0.000790415
0.000812109
0.000825118
0.00082975
0.00082761
0.000820454
0.000809612
0.000796099
0.000780634
0.000763752
0.00074624
0.00102755
0.00102049
0.00101334
0.00100576
0.000997369
0.00098762
0.000975724
0.000960832
0.000941986
0.000918572
0.000890175
0.000857469
0.000821724
0.000786805
0.000756803
0.000737314
0.00073137
0.000742764
0.000764945
0.000789424
0.000809584
0.000822608
0.000828034
0.000826854
0.000820504
0.000810834
0.000799273
0.000785945
0.000771176
0.000755699
0.00104699
0.0010392
0.00103137
0.00102315
0.0010142
0.00100413
0.000992292
0.000977913
0.0009601
0.000938292
0.000911936
0.000881436
0.000847461
0.000814056
0.000784612
0.000763414
0.000753713
0.000758697
0.000774368
0.000794133
0.000811841
0.00082397
0.000829465
0.000828972
0.000823335
0.000814167
0.0008027
0.000790416
0.000777795
0.000764782
0.00106094
0.0010509
0.00104158
0.00103279
0.00102422
0.00101545
0.00100587
0.000994647
0.000980778
0.000963424
0.000941856
0.000916069
0.000886753
0.000856649
0.00082873
0.000806449
0.000792796
0.00079117
0.000799294
0.000812512
0.000825667
0.000835171
0.000839501
0.000838664
0.000833105
0.000824029
0.000812505
0.000799689
0.0007863
0.000773373
0.00109074
0.00108048
0.0010707
0.00106191
0.0010542
0.00104734
0.00104077
0.00103354
0.00102457
0.00101285
0.000997372
0.000977937
0.000955065
0.000930546
0.000906658
0.000885271
0.000868854
0.000860685
0.00086028
0.000864729
0.000870466
0.000874466
0.00087512
0.00087179
0.000864642
0.000854412
0.000841869
0.000827973
0.000813434
0.000799463
0.00115154
0.0011428
0.00113551
0.00113092
0.00112879
0.00112837
0.00112877
0.00112884
0.00112759
0.00112407
0.00111674
0.00110596
0.00109223
0.00107671
0.00106034
0.00104387
0.00102829
0.00101649
0.00100872
0.00100409
0.00100083
0.000997077
0.000991629
0.000983787
0.000973481
0.000960855
0.000945923
0.000929817
0.000913326
0.000897987
0.00135579
0.00135141
0.00135358
0.00136089
0.00136758
0.0013728
0.00137666
0.00137943
0.00138097
0.0013806
0.00137591
0.00137001
0.00136335
0.00135661
0.00134915
0.00134199
0.00133371
0.001327
0.00132173
0.00131852
0.00131661
0.0013154
0.00131422
0.00131266
0.00131043
0.00130651
0.00129805
0.00128852
0.0012791
0.00127019
0.000136776
0.000140742
0.000139399
0.000135766
0.000130812
0.000125253
0.00011957
0.000114111
0.000109074
0.000104591
0.000100729
9.75192e-05
9.51022e-05
9.36444e-05
9.31971e-05
9.39394e-05
9.5726e-05
9.84034e-05
0.000101458
0.000104535
0.000107106
0.00010864
0.000108668
0.000106829
0.000102995
9.71323e-05
8.95421e-05
7.97042e-05
7.24093e-05
7.15926e-05
0.000507177
0.000523612
0.00049738
0.000460963
0.000422849
0.000386277
0.000352864
0.000323311
0.000297897
0.000277092
0.000261131
0.000250627
0.000246247
0.000249364
0.000260235
0.000279444
0.000301439
0.000321771
0.00033523
0.000341404
0.000342705
0.000342223
0.000339837
0.000333049
0.00032121
0.000303752
0.000281149
0.000251675
0.000228018
0.000230713
0.000699025
0.00074541
0.000739645
0.000705752
0.000661964
0.000616776
0.000572773
0.000533045
0.000499196
0.000472449
0.000453812
0.000445181
0.000448167
0.000466946
0.000503699
0.000557871
0.000613564
0.000657983
0.000680762
0.000682625
0.000671674
0.000656824
0.000639661
0.000619566
0.000592844
0.000557089
0.000512792
0.000456
0.000398657
0.000375757
0.000734063
0.000804679
0.000818118
0.00080356
0.000771586
0.000731863
0.00069214
0.000656764
0.000628434
0.000607202
0.00059644
0.000598898
0.000618003
0.00066211
0.000736242
0.00083647
0.000932266
0.00100344
0.00103523
0.00103184
0.00100723
0.000974044
0.000938525
0.000900355
0.000855852
0.000801733
0.000737464
0.000657913
0.000571984
0.000519368
0.000708728
0.000779656
0.000801865
0.000799574
0.00078155
0.000755529
0.000728248
0.000703986
0.000686283
0.000678656
0.000681836
0.000702395
0.000744594
0.000822314
0.00094266
0.00109647
0.00123649
0.00133246
0.00137194
0.001363
0.0013258
0.00127495
0.00122085
0.00116523
0.00110416
0.00103372
0.000951952
0.000854393
0.000746502
0.000671925
0.00066911
0.000737642
0.000764192
0.000769805
0.000761405
0.000744606
0.000725352
0.000707647
0.000699189
0.000703094
0.000720902
0.000760337
0.000831041
0.000949679
0.00112419
0.00133715
0.00152263
0.00163981
0.00168415
0.00166925
0.00162088
0.00155387
0.00148263
0.00141094
0.00133521
0.00125057
0.00115501
0.00104399
0.000920347
0.000828655
0.000643188
0.000703101
0.000733586
0.00074581
0.000745584
0.000736696
0.000723707
0.000710242
0.000703699
0.000708036
0.000731912
0.000786115
0.000882772
0.0010496
0.00128566
0.00156184
0.00179158
0.00192525
0.00197114
0.00194981
0.0018914
0.00180983
0.00172339
0.0016373
0.00154871
0.00145244
0.00134613
0.00122544
0.00109101
0.000986311
0.000638489
0.000687481
0.000718312
0.00073488
0.000740422
0.000737147
0.000728607
0.000718446
0.000711973
0.000715294
0.000737055
0.000793887
0.000911957
0.0011298
0.00143281
0.00177386
0.00204438
0.00218978
0.00223388
0.00220584
0.0021382
0.00204364
0.00194391
0.00184521
0.00174492
0.00163957
0.00152515
0.00139785
0.00125662
0.00114233
0.000685606
0.000706218
0.000730563
0.00074833
0.000754735
0.000752688
0.000745438
0.000735924
0.000727844
0.000727916
0.000746846
0.000800428
0.000930179
0.00119165
0.00157014
0.00197575
0.00228116
0.00243483
0.00247395
0.00243907
0.00236287
0.00225683
0.00214569
0.00203609
0.00192599
0.00181305
0.00169238
0.00156051
0.00141532
0.00129451
0.000815419
0.000813285
0.000818207
0.000820809
0.000815714
0.000803912
0.000787781
0.000770595
0.000756117
0.000750645
0.000764161
0.000815636
0.000948588
0.00124994
0.00170331
0.00216942
0.00250261
0.00266088
0.00269284
0.00265136
0.00256715
0.00245135
0.00233046
0.00221154
0.00209333
0.00197383
0.00184846
0.00171374
0.00156663
0.00144078
0.00103825
0.00102186
0.00100229
0.000979508
0.000951102
0.00091586
0.000877199
0.000840089
0.000809088
0.000790398
0.000793572
0.000838689
0.000976539
0.00130872
0.0018362
0.00235595
0.00270894
0.00286835
0.00289207
0.00284436
0.00275305
0.00262905
0.00249998
0.00237304
0.00224794
0.00212305
0.00199409
0.00185836
0.0017119
0.00158179
0.00132498
0.0013081
0.00127034
0.00122259
0.00116462
0.00109853
0.00102889
0.000960515
0.000900316
0.000857804
0.000844034
0.000879039
0.0010208
0.00138778
0.00197487
0.00253581
0.00289995
0.00305764
0.00307303
0.00301952
0.00292237
0.00279172
0.00265604
0.00252205
0.00239119
0.00226195
0.00213036
0.00199466
0.00184881
0.00171703
0.0016372
0.00163455
0.00159129
0.00152367
0.00143988
0.00134357
0.00124049
0.00113665
0.00104002
0.000963019
0.000923113
0.000942444
0.00109134
0.00149013
0.00212189
0.00270826
0.0030751
0.0032289
0.00323683
0.00317824
0.00307669
0.00294096
0.00280021
0.00266022
0.00252452
0.00239179
0.00225892
0.00212245
0.00197811
0.00184644
0.0019314
0.00194362
0.00191328
0.00184694
0.00174759
0.00162929
0.00149791
0.00136108
0.00122798
0.00111248
0.00103888
0.00103847
0.00118936
0.00161318
0.00227571
0.00287165
0.00323357
0.00338173
0.00338456
0.00332162
0.00321721
0.00307805
0.00293337
0.00278863
0.00264912
0.00251368
0.00237976
0.00224292
0.00210093
0.00197062
0.00221016
0.00223431
0.00221529
0.00215802
0.00206119
0.00193193
0.00178231
0.00162017
0.00145565
0.00130474
0.00119561
0.00117314
0.00131978
0.00176079
0.00243492
0.00302361
0.00337423
0.003516
0.00351638
0.00345033
0.0033447
0.00320405
0.00305542
0.00290806
0.00276591
0.00262897
0.0024937
0.00235744
0.00221858
0.00209086
0.00247197
0.00250511
0.0024956
0.00244756
0.00236082
0.00223216
0.00207543
0.00189803
0.00171076
0.00153139
0.00139143
0.00134702
0.00148284
0.00193004
0.00259457
0.00316076
0.00349548
0.00363118
0.00363177
0.00356443
0.00345932
0.00331894
0.00316862
0.00301924
0.0028759
0.00273849
0.00260258
0.00246713
0.0023313
0.00220791
0.00271335
0.00275193
0.00275082
0.00271215
0.00263515
0.00251599
0.00236121
0.00217825
0.00197816
0.00177965
0.00161729
0.00155426
0.00167337
0.00211299
0.00274674
0.00327853
0.00359485
0.00372586
0.00372937
0.00366334
0.00356057
0.00342253
0.00327242
0.00312304
0.00298009
0.00284263
0.00270708
0.00257301
0.00244044
0.00232222
0.00293305
0.00296945
0.00297518
0.00294548
0.00287822
0.00277155
0.00262438
0.00244381
0.00224027
0.00203277
0.00185732
0.00178019
0.00187898
0.00229634
0.0028798
0.00337086
0.00366865
0.00379736
0.00380671
0.00374557
0.00364858
0.00351361
0.00336699
0.00321928
0.00307822
0.0029416
0.00280762
0.00267584
0.00254717
0.00243442
0.00313513
0.00316125
0.00316438
0.00313782
0.0030788
0.00298377
0.00284827
0.00267591
0.00247663
0.00226925
0.00208973
0.0020031
0.00207883
0.00245946
0.00298146
0.00342988
0.00371122
0.00384103
0.00386017
0.00380859
0.00371983
0.00359022
0.0034505
0.00330673
0.00316842
0.00303429
0.00290342
0.00277542
0.00265171
0.00254445
0.0033176
0.00333155
0.00332731
0.00329802
0.00324097
0.00315196
0.00302467
0.00286058
0.00266816
0.00246536
0.0022867
0.00219339
0.00224501
0.00258017
0.00303789
0.00344509
0.0037139
0.00384981
0.00388274
0.00384631
0.00376936
0.00364905
0.00351719
0.00338158
0.00324936
0.00311912
0.00299262
0.00287015
0.00275361
0.00265026
0.00347715
0.00347765
0.00346363
0.00342898
0.00337077
0.00328367
0.00316079
0.00300252
0.00281563
0.00261691
0.00243867
0.00233639
0.00236252
0.00263984
0.0030335
0.00340241
0.00366381
0.00381112
0.00386308
0.00384773
0.00378831
0.00368421
0.00356308
0.00343677
0.00331282
0.00319139
0.00307273
0.00295752
0.00284738
0.00274948
0.00360752
0.00359371
0.0035691
0.00352795
0.00346646
0.00337778
0.00325636
0.0031008
0.0029162
0.00271826
0.00253674
0.00242054
0.00241772
0.00262347
0.00295346
0.00328506
0.00354238
0.00370656
0.00378087
0.00379412
0.0037606
0.00368217
0.00358003
0.00346811
0.0033549
0.00324302
0.0031324
0.00302533
0.00292382
0.00283573
0.00369866
0.00367084
0.00363612
0.00358803
0.00352058
0.00342837
0.00330577
0.00314966
0.00296381
0.00276317
0.00257475
0.0024405
0.00240451
0.00252943
0.00279385
0.00308155
0.00333131
0.00350599
0.0036089
0.00365691
0.00365865
0.00361547
0.00354272
0.00345647
0.00336286
0.0032655
0.00316706
0.00307122
0.00298017
0.00290209
0.00373597
0.00369637
0.00365295
0.00359581
0.00352244
0.00342657
0.00330108
0.00314218
0.00295426
0.00275213
0.00255925
0.00240984
0.00234152
0.00239051
0.00257862
0.00280968
0.00302599
0.00320134
0.00332687
0.00340944
0.00344987
0.00344818
0.00341514
0.00336482
0.00330213
0.00323115
0.0031549
0.00307609
0.0029997
0.00293334
0.00369917
0.00365387
0.00360181
0.00354006
0.00346439
0.0033668
0.00324009
0.00308215
0.00289944
0.00270792
0.00252511
0.00237557
0.00228711
0.00228115
0.00238512
0.00254117
0.00270076
0.00284641
0.00296848
0.00306502
0.00313001
0.00316247
0.00316752
0.00315579
0.00313226
0.00309809
0.00305416
0.00300367
0.00295054
0.00290033
0.0035662
0.00352164
0.00347417
0.00341969
0.00335154
0.00326208
0.00314648
0.00300529
0.00284589
0.00268367
0.00253077
0.00240213
0.00231456
0.00227875
0.00231138
0.00238656
0.0024771
0.00256889
0.00265331
0.00272736
0.00278541
0.00282406
0.00284417
0.00285222
0.00285236
0.00284647
0.00283577
0.00281732
0.00279222
0.00276568
0.00335159
0.00332695
0.00330079
0.00326834
0.00322083
0.00315241
0.00306266
0.00295517
0.00283751
0.00271876
0.00260561
0.00250746
0.0024336
0.00239016
0.00238424
0.00240406
0.00243588
0.00247164
0.0025065
0.00253844
0.0025638
0.0025796
0.00258545
0.00258437
0.00257937
0.00257267
0.00256576
0.00255819
0.00255068
0.0025467
0.00312972
0.00312777
0.00313411
0.00313628
0.00311935
0.00308102
0.0030249
0.00295395
0.00287565
0.00279577
0.00271775
0.0026481
0.00259188
0.00255326
0.0025331
0.00252736
0.0025283
0.00253246
0.00253666
0.0025397
0.00253944
0.00253387
0.00252298
0.00250762
0.00248939
0.00247
0.00245075
0.00243285
0.00241766
0.00241655
0.00296639
0.00297244
0.00299246
0.00301003
0.00301295
0.00299936
0.00297096
0.00293014
0.00288184
0.00283049
0.00277609
0.00272597
0.00268277
0.00265006
0.00262477
0.00261057
0.00260205
0.0025973
0.00259452
0.00259308
0.00259177
0.0025884
0.00258458
0.00257868
0.00257161
0.00256371
0.00255434
0.00254625
0.00253843
0.00254008
0.00284722
0.00286112
0.00288271
0.00289868
0.00290266
0.00289516
0.00287836
0.00285432
0.00282515
0.00279358
0.00275669
0.0027217
0.00268927
0.00266404
0.00263894
0.00262443
0.00261598
0.00261166
0.00261099
0.00261414
0.00262075
0.0026305
0.00264016
0.00265126
0.00266285
0.00267406
0.0026839
0.00269504
0.00270085
0.0027013
0.000159357
0.000167004
0.000166296
0.000162376
0.000156649
0.000150027
0.000143144
0.000136461
0.000130248
0.000124701
0.000119901
0.000115997
0.000113058
0.000111326
0.000110819
0.00011167
0.000113547
0.000116273
0.000119835
0.000124053
0.000127987
0.000130501
0.0001307
0.000128017
0.000122212
0.000113191
0.000101118
8.57765e-05
6.92541e-05
7.4169e-05
0.0006113
0.000707698
0.000695899
0.000652468
0.000601825
0.000552641
0.000508968
0.000471604
0.000440502
0.000416081
0.000398401
0.000388797
0.000386847
0.000394291
0.00040835
0.000427441
0.000441662
0.000450944
0.000455737
0.000459635
0.000464656
0.000471558
0.000475734
0.000469779
0.000448683
0.000414061
0.000369621
0.000316923
0.00026566
0.000247733
0.00092569
0.00108606
0.00110995
0.00107994
0.00102434
0.000961905
0.000902193
0.000849256
0.000805178
0.000771997
0.000751122
0.000745924
0.000757036
0.000788809
0.000835868
0.000889469
0.000925556
0.000942336
0.000939594
0.000925755
0.000910764
0.000901772
0.000891586
0.000867128
0.000826348
0.00076159
0.000676715
0.000573665
0.000472207
0.000422019
0.00106832
0.00126168
0.00133989
0.0013427
0.00130144
0.00124501
0.00118664
0.00113302
0.00108923
0.00105874
0.00104515
0.00105432
0.00108946
0.0011577
0.00125041
0.00134599
0.00140653
0.00142839
0.00141333
0.00137853
0.00134062
0.00130981
0.00128157
0.00124048
0.00117689
0.00108552
0.00096862
0.000827095
0.000680868
0.00059426
0.00112598
0.0013219
0.00142827
0.00146118
0.00144834
0.00140847
0.00136208
0.0013179
0.0012851
0.00126632
0.00126851
0.0013004
0.00137004
0.00148578
0.00163294
0.00177306
0.00185479
0.00187736
0.00184738
0.00179047
0.0017302
0.00167765
0.00162882
0.00157241
0.00149228
0.00138203
0.00124294
0.00107447
0.000894279
0.000773952
0.00112813
0.00130266
0.00141602
0.00146987
0.0014813
0.00146686
0.00144131
0.00141945
0.0014012
0.0014012
0.00142673
0.00149069
0.00160494
0.00177945
0.00198739
0.00217179
0.00226868
0.00228539
0.00223664
0.00215762
0.0020771
0.00200431
0.00193707
0.00186632
0.00177448
0.00165227
0.001499
0.00131344
0.00110969
0.00095925
0.00108181
0.00122292
0.00133474
0.0014023
0.00143374
0.00144291
0.00144071
0.00143941
0.00144519
0.00147279
0.00152864
0.00163385
0.00180323
0.00204753
0.00231953
0.00254574
0.00265055
0.00265447
0.00258429
0.00248388
0.00238497
0.00229367
0.00221065
0.00212741
0.00202703
0.00189793
0.00173722
0.00154232
0.00132371
0.00114903
0.00103619
0.00114237
0.00124297
0.00131708
0.00136321
0.00138868
0.00140296
0.00141687
0.00144093
0.00149259
0.00158292
0.00173116
0.00197332
0.00229689
0.00263481
0.00289705
0.00300266
0.00298756
0.00289468
0.00277484
0.00265867
0.00255079
0.00245446
0.00236078
0.00225387
0.00212129
0.001958
0.00176101
0.00153577
0.00134138
0.00102149
0.00108713
0.00116776
0.00123923
0.00129244
0.00132937
0.00135689
0.0013838
0.00142184
0.00148804
0.00160524
0.00180604
0.00212828
0.00253497
0.00293682
0.00322678
0.00332622
0.00328738
0.00317237
0.00303558
0.00290347
0.00278112
0.00267362
0.00257123
0.00245906
0.00232505
0.00216223
0.00196725
0.00173878
0.00153306
0.00105726
0.00108634
0.00113915
0.00119473
0.00124627
0.00128716
0.00132053
0.00135565
0.00140414
0.00148355
0.0016196
0.00186836
0.00227745
0.00276777
0.00322757
0.0035351
0.00362157
0.00355663
0.00342169
0.00327089
0.00312424
0.00299
0.00287313
0.002763
0.00264647
0.00251209
0.00235282
0.00215939
0.00193236
0.00172212
0.00116505
0.0011525
0.00117073
0.00121247
0.00125398
0.00128804
0.00131578
0.00135056
0.00140256
0.00149157
0.00164662
0.00194141
0.0024191
0.00299969
0.00350739
0.00382111
0.003889
0.00379795
0.003647
0.00348507
0.00332594
0.00318203
0.00305734
0.00294011
0.00281977
0.00268517
0.00252922
0.0023391
0.00211698
0.00190768
0.00135223
0.00132138
0.00131358
0.00132976
0.00134021
0.0013492
0.00136378
0.00138799
0.00143399
0.00152546
0.00170061
0.00203073
0.00257155
0.00323775
0.00377506
0.00408315
0.00412886
0.00401427
0.00385227
0.00368213
0.003513
0.00336153
0.00322953
0.00310626
0.00298247
0.00284781
0.00269365
0.00250781
0.00229408
0.00208977
0.00161563
0.00158378
0.00155948
0.00154536
0.00152499
0.00150224
0.00148569
0.00148307
0.00150761
0.00159054
0.0017737
0.00213225
0.00275331
0.00348404
0.00402701
0.00431899
0.00434171
0.00420853
0.00404086
0.00386571
0.0036893
0.00353255
0.00339302
0.00326479
0.00313782
0.00300336
0.00284884
0.00266881
0.00246489
0.0022695
0.00194641
0.00192509
0.00189547
0.00185692
0.00180584
0.00174521
0.00168814
0.00165023
0.00164666
0.00170999
0.00190389
0.0023073
0.00297228
0.0037205
0.00425735
0.00452612
0.00452816
0.00438337
0.0042157
0.00403851
0.00385802
0.0036979
0.00355212
0.003419
0.00328876
0.003152
0.00299914
0.00282453
0.00263041
0.00244726
0.00232859
0.00232008
0.00228818
0.00223428
0.00215673
0.00206136
0.00196357
0.00188657
0.00185084
0.00188817
0.00208763
0.00253724
0.00321785
0.00394747
0.00446045
0.00470189
0.00468861
0.00454057
0.00437866
0.00420228
0.00402122
0.00385904
0.00370884
0.00357137
0.00343769
0.00329902
0.00314724
0.00297737
0.0027927
0.00262347
0.00274002
0.00273559
0.00270193
0.00263711
0.00254179
0.00242035
0.00228915
0.00217691
0.00210938
0.00212188
0.0023158
0.00278211
0.00345163
0.00415127
0.00462911
0.00484318
0.00482245
0.00468038
0.00452993
0.00435753
0.00417932
0.00401605
0.00386416
0.00372335
0.00358769
0.00344717
0.00329572
0.00312976
0.00295408
0.00279933
0.00315047
0.00314524
0.0031085
0.00303578
0.00292829
0.00279015
0.00263548
0.00249598
0.002401
0.0023921
0.00256879
0.00303339
0.00366992
0.00431855
0.00475504
0.00494576
0.00492724
0.00480079
0.00466688
0.00450229
0.00433011
0.00416803
0.00401745
0.0038754
0.00373927
0.0035992
0.00344732
0.00328486
0.00311771
0.00297676
0.00354049
0.00353069
0.00348838
0.00340841
0.00329218
0.00314339
0.0029742
0.00281528
0.00269834
0.00267176
0.00282004
0.00326251
0.00384877
0.00443412
0.00482854
0.00500344
0.00499743
0.00489615
0.00478323
0.00463134
0.00446899
0.00431145
0.00416346
0.00402498
0.00389048
0.00375351
0.00360559
0.00344673
0.00328832
0.00315744
0.00389737
0.00387822
0.00382723
0.00373925
0.00361568
0.00345954
0.00328154
0.00310801
0.00297329
0.00292909
0.00303961
0.00343888
0.00396438
0.00448171
0.00483809
0.00500707
0.00502355
0.0049554
0.00486757
0.00473533
0.00458824
0.0044387
0.00429507
0.00415897
0.00403074
0.003901
0.00376242
0.00361255
0.00346268
0.00333671
0.00420653
0.00417559
0.00411391
0.00401714
0.00388645
0.00372397
0.00353876
0.00335278
0.00320058
0.00313329
0.00320071
0.00353279
0.00399692
0.00444564
0.00477074
0.00494409
0.00499197
0.00496084
0.00490259
0.00479793
0.00467283
0.00453844
0.00440396
0.00427404
0.00415018
0.00402782
0.00389733
0.00376084
0.00362454
0.00350782
0.00445501
0.00441025
0.00433758
0.00423204
0.00409434
0.00392541
0.00373223
0.00353336
0.00336119
0.0032638
0.00328305
0.00353106
0.00392926
0.00431533
0.00461511
0.00480058
0.00488389
0.00489018
0.00486523
0.00479468
0.00469756
0.00458575
0.0044688
0.00435261
0.0042396
0.00412688
0.00400853
0.00388378
0.00376137
0.00366059
0.00462981
0.0045703
0.0044873
0.00437393
0.00422989
0.00405447
0.00385247
0.00363952
0.00344529
0.00331369
0.0032826
0.0034431
0.00375978
0.00409741
0.00437091
0.00456957
0.00468173
0.00472274
0.00473118
0.00469761
0.00463482
0.00455332
0.00446213
0.00436803
0.00427419
0.00417883
0.00407805
0.00396921
0.00386521
0.00378132
0.00471603
0.00464359
0.0045524
0.00443379
0.00428569
0.00410546
0.00389604
0.00367114
0.0034583
0.00329668
0.00322054
0.00330214
0.00353159
0.00382188
0.00406595
0.00426736
0.00438968
0.00445727
0.00449718
0.00449791
0.00447021
0.00442231
0.00436212
0.00429642
0.00422867
0.00415762
0.0040806
0.00399522
0.00391245
0.00384719
0.00470043
0.00462023
0.00452587
0.00440748
0.00426087
0.00408148
0.00387159
0.00364466
0.00342723
0.00325152
0.00314501
0.00317041
0.00332279
0.00355011
0.00376455
0.00394578
0.00406223
0.00414041
0.0041971
0.00422064
0.00421916
0.00419894
0.00416662
0.00412849
0.0040879
0.00404385
0.00399376
0.00393634
0.00387757
0.00382786
0.00457988
0.00450017
0.00441181
0.00430414
0.00416987
0.00400296
0.0038071
0.00359666
0.00339516
0.00322794
0.00312171
0.00311469
0.00320565
0.00336454
0.00353995
0.00368156
0.00377422
0.00384634
0.00389807
0.00392541
0.00393299
0.00392525
0.00390757
0.0038857
0.00386297
0.00383852
0.00380983
0.00377552
0.00373873
0.00370427
0.00437603
0.00430766
0.00423788
0.00415427
0.00404484
0.00390767
0.00374665
0.00357494
0.00341145
0.00327571
0.00318673
0.00316474
0.00321128
0.00331009
0.0034336
0.00352694
0.00358736
0.00363603
0.00366831
0.00368344
0.00368394
0.00367284
0.00365396
0.00363221
0.003611
0.00358982
0.00356663
0.00354025
0.00351287
0.00348855
0.00414574
0.00409816
0.0040572
0.00401058
0.00394425
0.00385093