/*--------------------------------*- C++ -*----------------------------------*\
  =========                 |
  \\      /  F ield         | OpenFOAM: The Open Source CFD Toolbox
   \\    /   O peration     | Website:  https://openfoam.org
    \\  /    A nd           | Version:  12
     \\/     M anipulation  |
\*---------------------------------------------------------------------------*/
FoamFile
{
    format      ascii;
    class       volScalarField;
    location    "1150/air";
    object      p_rgh;
}
// * * * * * * * * * * * * * * * * * * * * * * * * * * * * * * * * * * * * * //

dimensions      [1 -1 -2 0 0 0 0];

internalField   nonuniform List<scalar> 
243000
(
29.5358
29.5539
29.5901
29.5612
29.5249
29.4823
29.4385
29.3972
29.3612
29.3371
29.3251
29.3303
29.3507
29.3883
29.4392
29.5164
29.6093
29.7097
29.8074
29.8995
29.9771
30.0398
30.0872
30.1208
30.1457
30.1626
30.1837
30.1946
30.2597
30.2555
29.5356
29.5473
29.5798
29.5516
29.5213
29.4819
29.4392
29.3986
29.3629
29.3391
29.3315
29.3408
29.3597
29.3979
29.4493
29.5254
29.6138
29.7129
29.8136
29.9069
29.9848
30.0474
30.0946
30.1279
30.1525
30.1685
30.1891
30.1975
30.265
30.239
29.5417
29.5434
29.5664
29.534
29.5042
29.466
29.4251
29.3863
29.3525
29.3306
29.3241
29.331
29.3495
29.3877
29.4393
29.5155
29.6052
29.7124
29.816
29.9106
29.9892
30.0523
30.0998
30.1332
30.1578
30.173
30.1931
30.1966
30.2596
30.2253
29.5382
29.5358
29.5576
29.5253
29.4918
29.4528
29.412
29.3742
29.3411
29.3204
29.315
29.323
29.3413
29.3776
29.4277
29.5032
29.5919
29.6986
29.8024
29.8993
29.98
30.0454
30.0955
30.1318
30.1585
30.1742
30.1947
30.1945
30.2527
30.2121
29.5197
29.5133
29.5409
29.517
29.4882
29.4483
29.4048
29.3649
29.3314
29.3107
29.3056
29.3132
29.3305
29.3646
29.411
29.4837
29.5705
29.6758
29.7796
29.8771
29.9588
30.026
30.0787
30.1184
30.149
30.1674
30.1901
30.1877
30.2435
30.1989
29.4852
29.4757
29.5058
29.4916
29.4702
29.4357
29.3959
29.3556
29.3227
29.302
29.2961
29.3031
29.319
29.351
29.3937
29.4615
29.5449
29.6482
29.7511
29.8487
29.9308
29.9996
30.0552
30.0986
30.1336
30.155
30.1807
30.1764
30.2321
30.1858
29.436
29.4241
29.4571
29.4517
29.4363
29.4079
29.375
29.3405
29.3111
29.2923
29.2862
29.2923
29.3067
29.3364
29.3753
29.4376
29.5153
29.6153
29.7162
29.8132
29.895
29.9653
30.0237
30.0712
30.1113
30.1366
30.1662
30.1611
30.2175
30.1727
29.3775
29.3621
29.3978
29.4002
29.3916
29.3696
29.343
29.3156
29.2919
29.2776
29.2739
29.2799
29.2932
29.3205
29.3555
29.4121
29.4822
29.5774
29.6754
29.7703
29.8514
29.923
29.9845
30.0364
30.0818
30.1121
30.1465
30.1422
30.1994
30.1579
29.3134
29.2928
29.3303
29.3395
29.3386
29.3247
29.3048
29.283
29.2652
29.2562
29.2564
29.2643
29.2778
29.3031
29.3344
29.3847
29.4466
29.5352
29.6289
29.7205
29.8005
29.8732
29.9378
29.9943
30.0455
30.0814
30.1215
30.1198
30.1777
30.1399
29.2458
29.219
29.2577
29.273
29.2787
29.2736
29.2615
29.2465
29.2341
29.2297
29.233
29.2444
29.259
29.2836
29.3114
29.3555
29.4091
29.4892
29.577
29.6646
29.7428
29.8164
29.8842
29.9455
30.0028
30.0449
30.0911
30.0939
30.1527
30.1189
29.1777
29.1442
29.183
29.2035
29.2149
29.2172
29.2134
29.2063
29.2
29.2001
29.2056
29.2199
29.2367
29.2615
29.286
29.3244
29.3694
29.4401
29.5204
29.603
29.6789
29.7533
29.8243
29.8905
29.954
30.0028
30.0553
30.0646
30.1247
30.0951
29.111
29.0703
29.1081
29.1324
29.1492
29.1579
29.1614
29.1621
29.1624
29.1672
29.1755
29.1915
29.2106
29.2359
29.258
29.291
29.3273
29.388
29.4598
29.5366
29.6097
29.6846
29.7588
29.83
29.8999
29.9555
30.0147
30.032
30.0941
30.07
29.0472
29.0004
29.0359
29.0623
29.0832
29.0979
29.1074
29.115
29.1216
29.1311
29.1432
29.1606
29.1808
29.2069
29.2271
29.2552
29.2829
29.3332
29.3957
29.4659
29.536
29.6111
29.6884
29.7646
29.8408
29.9035
29.9697
29.996
30.0612
30.0435
28.9861
28.9344
28.9675
28.9951
29.0188
29.0382
29.0529
29.066
29.0782
29.0923
29.1081
29.1277
29.1483
29.1749
29.193
29.2165
29.2361
29.2759
29.3286
29.3919
29.4586
29.5336
29.6138
29.6949
29.7773
29.8472
29.9204
29.9567
30.0258
30.0157
28.9264
28.872
28.9026
28.9306
28.956
28.9789
28.9982
29.0156
29.0325
29.0507
29.0701
29.0922
29.1135
29.1397
29.1557
29.1748
29.1868
29.2168
29.2592
29.3153
29.3782
29.4529
29.5356
29.6212
29.7098
29.7871
29.8673
29.914
29.9878
29.9863
28.8655
28.8117
28.8405
28.8688
28.8952
28.9204
28.9432
28.9643
28.9847
29.0063
29.0287
29.0531
29.0758
29.1011
29.115
29.1299
29.135
29.156
29.1882
29.2368
29.2958
29.3695
29.4541
29.5442
29.6388
29.7234
29.8106
29.8676
29.946
29.956
28.8026
28.7521
28.7798
28.8087
28.8361
28.863
28.8885
28.9123
28.9354
28.9595
28.9842
29.0107
29.0344
29.0592
29.0707
29.082
29.0809
29.0936
29.1162
29.1571
29.2111
29.2837
29.3702
29.4647
29.5644
29.6562
29.7503
29.8174
29.9007
29.9239
28.7373
28.6923
28.719
28.7488
28.7773
28.8058
28.8334
28.8595
28.8847
28.9106
28.9372
28.9656
28.9894
29.0136
29.0225
29.0307
29.0244
29.0299
29.0433
29.0761
29.1255
29.1971
29.2851
29.3826
29.4868
29.5858
29.6865
29.7635
29.8519
29.8895
28.6678
28.6314
28.6573
28.6879
28.7176
28.7477
28.7771
28.805
28.8317
28.8594
28.8874
28.9169
28.9407
28.9638
28.9705
28.9759
28.9655
28.9644
28.9694
28.9953
29.0407
29.1103
29.1984
29.2981
29.4064
29.5119
29.619
29.7059
29.799
29.8513
28.5912
28.5654
28.5915
28.6238
28.6552
28.6873
28.7186
28.7483
28.7762
28.8063
28.835
28.8647
28.8883
28.9099
28.9146
28.9175
28.9037
28.8971
28.8962
28.9159
28.9563
29.0234
29.1104
29.2115
29.3233
29.4345
29.5476
29.6438
29.7414
29.8078
28.5038
28.4902
28.517
28.5518
28.5859
28.6206
28.6544
28.6861
28.7181
28.7506
28.7799
28.8096
28.8322
28.8519
28.8548
28.8559
28.8397
28.8293
28.8242
28.8374
28.873
28.9366
29.0216
29.1232
29.2373
29.3532
29.4713
29.5761
29.6786
29.7578
28.3991
28.3985
28.4275
28.4665
28.5047
28.5426
28.5806
28.6183
28.6553
28.6895
28.7198
28.7496
28.771
28.7893
28.7908
28.791
28.7739
28.7613
28.7527
28.7607
28.7915
28.8502
28.9327
29.0335
29.1486
29.268
29.3898
29.5017
29.6097
29.7002
28.2722
28.2831
28.3166
28.3609
28.4056
28.452
28.4984
28.5432
28.5835
28.6204
28.6527
28.6832
28.7041
28.7217
28.7225
28.7218
28.7059
28.693
28.6824
28.6858
28.7117
28.7655
28.8444
28.9432
29.0577
29.1786
29.3024
29.4197
29.5326
29.6329
28.1079
28.1288
28.1719
28.2292
28.2877
28.3466
28.4022
28.453
28.4988
28.5404
28.5763
28.6089
28.6309
28.6492
28.6503
28.6495
28.6346
28.6236
28.6127
28.6136
28.6354
28.6851
28.7596
28.8548
28.9663
29.0852
29.2084
29.3284
29.4445
29.5521
27.9117
27.9503
28.0105
28.0836
28.1556
28.2245
28.2888
28.348
28.4013
28.4493
28.4904
28.5266
28.5516
28.5725
28.5756
28.5778
28.5653
28.5566
28.5473
28.5488
28.5686
28.6144
28.6835
28.773
28.8778
28.9914
29.1104
29.2295
29.3464
29.4592
27.6543
27.7135
27.7958
27.8906
27.9839
28.0723
28.1538
28.2279
28.2933
28.3511
28.4002
28.4431
28.4738
28.499
28.5058
28.5131
28.5057
28.5004
28.4936
28.4963
28.5142
28.555
28.6164
28.6963
28.7914
28.8958
29.006
29.1188
29.2295
29.3406
27.398
27.4869
27.5972
27.7171
27.8333
27.9403
28.037
28.1239
28.1993
28.2651
28.3207
28.3699
28.4069
28.4385
28.4514
28.4658
28.4653
28.4662
28.463
28.4669
28.4837
28.5198
28.5733
28.6436
28.7281
28.8224
28.9232
29.0282
29.1323
29.2419
26.913
27.0692
27.2503
27.4354
27.6069
27.7561
27.8851
27.9982
28.0938
28.1755
28.2438
28.304
28.3502
28.3898
28.4091
28.4291
28.4338
28.4385
28.4367
28.4401
28.4528
28.4796
28.5194
28.5725
28.638
28.7118
28.7905
28.8734
28.9546
29.0468
26.9015
27.1077
27.3198
27.52
27.6967
27.8433
27.963
28.0654
28.152
28.2271
28.2908
28.3487
28.3944
28.4341
28.4551
28.4801
28.4935
28.51
28.5221
28.5397
28.5643
28.6016
28.6497
28.7094
28.7816
28.8614
28.9448
29.032
29.1161
29.2212
25.5581
25.8811
26.2491
26.6049
26.9112
27.155
27.3445
27.4974
27.6236
27.7318
27.8205
27.8999
27.9608
28.0118
28.0371
28.0612
28.0695
28.0767
28.0756
28.0749
28.0749
28.0778
28.0834
28.0937
28.1071
28.1226
28.1351
28.1511
28.1654
28.2192
29.3152
29.3374
29.3635
29.3589
29.351
29.3378
29.3204
29.302
29.2854
29.2757
29.2728
29.2826
29.2982
29.3268
29.3553
29.4014
29.4521
29.5226
29.5956
29.6744
29.7535
29.8322
29.9047
29.9689
30.0264
30.0721
30.1172
30.1375
30.2054
30.1936
29.3261
29.347
29.3687
29.3643
29.3576
29.3441
29.3265
29.3081
29.2916
29.2823
29.2799
29.2905
29.3065
29.3352
29.3635
29.4098
29.4602
29.5298
29.6032
29.6828
29.7627
29.842
29.9147
29.9786
30.0356
30.0803
30.1249
30.1443
30.212
30.1729
29.3143
29.3477
29.3688
29.3667
29.3609
29.3475
29.3298
29.3109
29.2938
29.2844
29.2823
29.2925
29.3077
29.3354
29.363
29.4084
29.4573
29.5272
29.5998
29.6783
29.757
29.8369
29.9107
29.9761
30.0348
30.0799
30.1254
30.1397
30.207
30.163
29.2839
29.326
29.3569
29.3608
29.3595
29.3488
29.3316
29.3127
29.2954
29.2859
29.2842
29.2943
29.3087
29.3353
29.3615
29.405
29.4508
29.5177
29.587
29.6626
29.7391
29.8186
29.8946
29.9631
30.0252
30.0726
30.121
30.131
30.1987
30.1513
29.2488
29.2842
29.3228
29.3372
29.3438
29.338
29.3241
29.3075
29.2916
29.2837
29.2831
29.2932
29.3072
29.333
29.3565
29.3968
29.4377
29.5
29.5649
29.637
29.7111
29.79
29.8672
29.9381
30.0036
30.0545
30.107
30.1162
30.1869
30.139
29.2116
29.2378
29.2781
29.2976
29.3111
29.3126
29.3051
29.2932
29.2812
29.2763
29.2779
29.2892
29.3033
29.328
29.3487
29.3849
29.4197
29.4757
29.5352
29.6029
29.6743
29.7531
29.8319
29.906
29.9755
30.0299
30.0877
30.0967
30.1715
30.1251
29.1729
29.192
29.2343
29.2561
29.2731
29.2787
29.2765
29.2701
29.2638
29.2633
29.2677
29.2812
29.2963
29.3204
29.3381
29.3698
29.3975
29.4459
29.4986
29.5613
29.6301
29.7088
29.7898
29.8676
29.9417
30.0004
30.0638
30.0739
30.1529
30.1085
29.1348
29.149
29.1936
29.2171
29.2364
29.2447
29.2459
29.2433
29.2414
29.2451
29.2526
29.2688
29.2855
29.3098
29.3244
29.3516
29.3715
29.4113
29.4562
29.5134
29.5793
29.6582
29.7417
29.8235
29.9028
29.9661
30.0355
30.0488
30.1313
30.0897
29.0966
29.1073
29.1551
29.1808
29.2017
29.2117
29.2151
29.2156
29.2166
29.2234
29.2338
29.2525
29.2708
29.2958
29.3076
29.3303
29.3421
29.3725
29.4089
29.4602
29.5231
29.6023
29.6884
29.7746
29.8593
29.9278
30.0033
30.0213
30.1067
30.0691
29.0585
29.0613
29.1117
29.1411
29.1652
29.1783
29.1845
29.1871
29.1906
29.1997
29.2123
29.233
29.2526
29.2779
29.2874
29.3057
29.3093
29.3302
29.3574
29.4025
29.4624
29.5418
29.6308
29.7215
29.8119
29.8859
29.9674
29.9917
30.0797
30.0468
29.0209
29.0091
29.0591
29.0916
29.1205
29.1394
29.1511
29.1576
29.1635
29.1745
29.1888
29.2113
29.2314
29.2566
29.2636
29.2775
29.2732
29.2848
29.3026
29.3413
29.3979
29.4777
29.5696
29.6649
29.7609
29.8408
29.9283
29.96
30.0504
30.023
28.9836
28.9557
29.0037
29.0371
29.069
29.093
29.1107
29.1238
29.1345
29.1479
29.1635
29.1876
29.2078
29.2321
29.2359
29.2455
29.2339
29.2367
29.2453
29.2774
29.3307
29.4107
29.5054
29.6053
29.707
29.793
29.8864
29.9264
30.0191
29.9979
28.9451
28.902
28.9495
28.9836
29.0168
29.0441
29.0658
29.0841
29.1008
29.1195
29.1364
29.1617
29.1817
29.2046
29.2044
29.2097
29.1913
29.1862
29.186
29.2116
29.2615
29.3416
29.439
29.5434
29.6507
29.7429
29.842
29.8909
29.9861
29.9719
28.9065
28.8475
28.8943
28.9296
28.9647
28.9946
29.0205
29.0423
29.0629
29.0874
29.1082
29.1338
29.1533
29.1743
29.1693
29.1702
29.1454
29.1334
29.1257
29.1448
29.1911
29.2712
29.3712
29.4796
29.5924
29.691
29.7957
29.8542
29.9515
29.9454
28.8674
28.7974
28.8423
28.8766
28.9132
28.9455
28.9749
29.0007
29.0242
29.0515
29.0779
29.104
29.1226
29.1417
29.1313
29.1276
29.0966
29.0787
29.0647
29.0776
29.1207
29.2
29.3018
29.4144
29.5329
29.6376
29.7474
29.816
29.9151
29.9185
28.8269
28.7505
28.7943
28.8275
28.8639
28.8981
28.9301
28.9594
28.9862
29.0151
29.0443
29.0729
29.09
29.1068
29.0907
29.0822
29.0456
29.0228
29.0037
29.0107
29.0494
29.1282
29.232
29.3496
29.4725
29.5832
29.6975
29.7748
29.8755
29.8916
28.7835
28.7061
28.749
28.7819
28.8179
28.8534
28.8873
28.9195
28.9493
28.9802
29.0093
29.041
29.0558
29.07
29.0484
29.0348
28.993
28.9666
28.9425
28.9433
28.9787
29.0584
29.1644
29.2848
29.4114
29.5278
29.6451
29.7309
29.8335
29.8646
28.7339
28.6616
28.7051
28.7389
28.7751
28.8117
28.8474
28.8821
28.9141
28.9469
28.9757
29.0078
29.0209
29.032
29.005
28.9862
28.94
28.9091
28.8805
28.8786
28.9138
28.9918
29.098
29.2197
29.3499
29.471
29.5914
29.6857
29.7896
29.8369
28.6771
28.6128
28.6581
28.6949
28.7328
28.7715
28.8096
28.847
28.8812
28.9156
28.9446
28.9746
28.9864
28.9938
28.9615
28.9376
28.886
28.8511
28.8223
28.8201
28.8521
28.9272
29.0331
29.1554
29.2882
29.4133
29.5374
29.6388
29.7446
29.807
28.6119
28.5591
28.606
28.6462
28.6871
28.7292
28.771
28.8118
28.8489
28.8856
28.9152
28.9433
28.9529
28.9565
28.9192
28.8903
28.8334
28.7988
28.7699
28.7647
28.7929
28.866
28.9713
29.0929
29.2271
29.356
29.4832
29.5915
29.6992
29.7743
28.535
28.4989
28.5487
28.5929
28.6377
28.6836
28.7293
28.774
28.8148
28.8551
28.8859
28.9132
28.9202
28.9211
28.8794
28.846
28.787
28.7523
28.7203
28.7124
28.7389
28.8107
28.9142
29.0355
29.1695
29.3008
29.4299
29.5441
29.653
29.7384
28.444
28.4283
28.4826
28.5329
28.5834
28.6359
28.6868
28.736
28.7815
28.8245
28.8574
28.8849
28.8906
28.8894
28.8448
28.8092
28.7468
28.7095
28.6756
28.6679
28.6937
28.7646
28.865
28.9852
29.1166
29.2483
29.3773
29.4946
29.6046
29.6979
28.3378
28.3442
28.405
28.4637
28.5235
28.5848
28.6438
28.6998
28.7497
28.7953
28.8306
28.8596
28.8654
28.8636
28.8184
28.7826
28.718
28.6775
28.6421
28.6355
28.6615
28.728
28.8207
28.9371
29.0641
29.1951
29.3238
29.4425
29.5533
29.6537
28.2119
28.241
28.3112
28.3806
28.4506
28.5206
28.5897
28.6561
28.7147
28.7672
28.8064
28.8386
28.846
28.8459
28.8015
28.764
28.7009
28.6588
28.6209
28.613
28.6353
28.6924
28.7767
28.8874
29.0115
29.1409
29.2691
29.3895
29.5002
29.6058
28.0647
28.1205
28.2034
28.2869
28.3706
28.4534
28.5342
28.611
28.6788
28.7403
28.7854
28.8226
28.8332
28.8363
28.7946
28.7569
28.6915
28.6499
28.6105
28.5992
28.615
28.6638
28.7436
28.8472
28.9666
29.0923
29.2179
29.3381
29.4479
29.557
27.8958
27.9847
28.0853
28.1858
28.2881
28.3901
28.4868
28.5744
28.6492
28.7166
28.7668
28.8089
28.8234
28.8309
28.7945
28.7618
28.6975
28.6573
28.617
28.6065
28.6205
28.667
28.7442
28.838
28.9454
29.059
29.1749
29.2915
29.3985
29.5095
27.7291
27.8577
27.9764
28.096
28.2184
28.3386
28.4496
28.5473
28.6292
28.7028
28.7582
28.8053
28.8245
28.8369
28.8059
28.7805
28.7226
28.6861
28.6484
28.6429
28.6581
28.6995
28.7668
28.8553
28.9566
29.0634
29.168
29.2734
29.3709
29.4785
27.5513
27.7165
27.8603
28.0116
28.1655
28.3111
28.4395
28.5519
28.6517
28.7343
28.7955
28.8482
28.8712
28.8881
28.8643
28.8453
28.7905
28.7564
28.7187
28.7122
28.7254
28.763
28.8224
28.9007
28.9889
29.0835
29.1765
29.2668
29.3442
29.4404
27.6124
27.8108
27.9801
28.1598
28.337
28.5007
28.6409
28.7609
28.8649
28.9529
29.0181
29.0729
29.0971
29.1174
29.0977
29.081
29.0258
28.9926
28.9532
28.9428
28.9512
28.9824
29.0336
29.102
29.1813
29.2671
29.351
29.4318
29.4998
29.5834
28.3624
28.5298
28.6651
28.8228
28.9856
29.1346
29.2569
29.3565
29.4374
29.5039
29.5493
29.5869
29.5977
29.6089
29.5848
29.5678
29.5155
29.4898
29.4597
29.4608
29.4809
29.5253
29.5902
29.673
29.7684
29.868
29.9619
30.0521
30.1273
30.2219
29.2415
29.1645
29.1597
29.127
29.1141
29.1085
29.1068
29.1098
29.1157
29.1311
29.1517
29.1849
29.2148
29.2563
29.2825
29.3247
29.3497
29.3889
29.4215
29.4705
29.5353
29.6181
29.7105
29.8053
29.8981
29.9777
30.0495
30.0825
30.1366
30.1175
29.2167
29.1434
29.1483
29.1275
29.1199
29.1182
29.1184
29.1223
29.1285
29.1439
29.1645
29.1975
29.2268
29.2683
29.2944
29.3378
29.3639
29.4049
29.4387
29.4874
29.5504
29.6331
29.7251
29.8191
29.9107
29.9882
30.0585
30.0881
30.142
30.1021
29.1871
29.1273
29.1355
29.1209
29.1192
29.1205
29.1227
29.1276
29.1345
29.1506
29.1715
29.2044
29.2331
29.2745
29.2998
29.3434
29.3681
29.4083
29.4408
29.4886
29.551
29.634
29.7267
29.821
29.9129
29.9899
30.0601
30.0876
30.1433
30.0997
29.1493
29.1064
29.1187
29.1122
29.1167
29.1211
29.126
29.1323
29.1402
29.157
29.1781
29.2111
29.2389
29.2799
29.3037
29.3469
29.3693
29.4081
29.4353
29.4789
29.5379
29.6215
29.7169
29.8141
29.9081
29.9851
30.0565
30.0815
30.1394
30.0947
29.1082
29.0809
29.0969
29.0992
29.1099
29.1184
29.1254
29.1333
29.1428
29.1606
29.1814
29.2148
29.2411
29.2818
29.3029
29.3445
29.3624
29.3969
29.4188
29.4575
29.5119
29.593
29.6881
29.79
29.8887
29.9687
30.044
30.0678
30.131
30.0865
29.0704
29.0552
29.0732
29.082
29.0982
29.1109
29.1211
29.1312
29.1417
29.1602
29.1812
29.2154
29.2405
29.2809
29.2986
29.3375
29.3491
29.3779
29.3931
29.4264
29.4763
29.5557
29.6511
29.7548
29.8581
29.9428
30.0227
30.0481
30.1179
30.0751
29.0425
29.0355
29.0546
29.0673
29.0864
29.1017
29.1143
29.1264
29.1385
29.1579
29.1794
29.2143
29.2386
29.2782
29.291
29.3264
29.3302
29.3517
29.3594
29.387
29.4326
29.5107
29.6072
29.7134
29.8204
29.9101
29.9957
30.0242
30.101
30.0606
29.0198
29.0179
29.0386
29.0537
29.0748
29.0919
29.1066
29.1206
29.1341
29.1543
29.176
29.2117
29.2351
29.2735
29.2804
29.3114
29.3062
29.3194
29.3189
29.3406
29.382
29.4592
29.5574
29.6667
29.7781
29.8721
29.9644
29.9973
30.0803
30.0434
28.9951
28.9968
29.0211
29.039
29.0621
29.0806
29.0972
29.1132
29.1287
29.1501
29.1718
29.2079
29.2295
29.2668
29.267
29.2928
29.2776
29.2815
29.273
29.2884
29.3255
29.4023
29.5026
29.6156
29.7316
29.8305
29.9294
29.9678
30.0563
30.0238
28.9682
28.9702
29.0001
29.0218
29.048
29.0688
29.0867
29.1042
29.1218
29.1451
29.1671
29.2029
29.222
29.2579
29.2506
29.2707
29.2444
29.2392
29.2223
29.2315
29.2642
29.341
29.4439
29.5609
29.6819
29.7858
29.8912
29.9362
30.0294
30.0024
28.9394
28.938
28.973
28.9993
29.0295
29.054
29.0747
29.0945
29.1134
29.1387
29.1612
29.1968
29.2128
29.2466
29.2314
29.2453
29.2072
29.1931
29.1678
29.1709
29.1992
29.2762
29.382
29.5034
29.6295
29.7388
29.85
29.9032
30
29.9796
28.9107
28.9028
28.9419
28.9719
29.0063
29.0346
29.0589
29.0822
29.1038
29.1307
29.1537
29.1889
29.2017
29.2329
29.2093
29.2169
29.1665
29.1437
29.11
29.1074
29.1314
29.2087
29.3177
29.4438
29.5751
29.6897
29.8062
29.8688
29.9687
29.9557
28.8829
28.8662
28.9089
28.9413
28.9788
29.0114
29.0391
29.066
29.0914
29.1207
29.1444
29.1791
29.1885
29.2166
29.1842
29.1855
29.1227
29.0917
29.0497
29.042
29.0618
29.1396
29.2519
29.3827
29.5194
29.6389
29.7602
29.8328
29.9358
29.9312
28.8556
28.8278
28.8734
28.9073
28.9472
28.9837
29.016
29.0466
29.0754
29.1079
29.1328
29.167
29.173
29.1975
29.1563
29.1517
29.0766
29.0377
28.9879
28.9755
28.9914
29.0698
29.1854
29.321
29.4628
29.587
29.7121
29.795
29.9008
29.9076
28.8263
28.7883
28.8357
28.8704
28.9124
28.9524
28.9893
29.0242
29.0565
29.092
29.1182
29.1523
29.1547
29.1758
29.1256
29.1157
29.0288
28.9823
28.9251
28.9085
28.9209
29
29.1189
29.2596
29.4056
29.5349
29.6625
29.7565
29.8642
29.8862
28.7933
28.7484
28.7974
28.8332
28.8763
28.9191
28.9601
28.9994
29.0351
29.0735
29.1005
29.1348
29.1335
29.1514
29.0928
29.0782
28.9803
28.9266
28.8624
28.8421
28.8513
28.9312
29.0538
29.1983
29.3481
29.4829
29.6155
29.718
29.8261
29.8647
28.7566
28.7077
28.759
28.7968
28.8411
28.8853
28.9299
28.9731
29.012
29.0531
29.0804
29.1146
29.1095
29.1249
29.0583
29.0401
28.9313
28.8715
28.8004
28.777
28.7843
28.8648
28.9896
29.1362
29.2907
29.4327
29.5699
29.6775
29.7858
29.8416
28.7156
28.6668
28.7203
28.7606
28.8068
28.8525
28.9
28.9467
28.9885
29.0318
29.0593
29.0924
29.0839
29.0971
29.0234
29.0024
28.8835
28.818
28.7403
28.715
28.7203
28.8005
28.9249
29.0752
29.2336
29.3829
29.5224
29.6361
29.7472
29.8164
28.6683
28.6251
28.6808
28.7243
28.7729
28.8211
28.8711
28.9217
28.9659
29.0113
29.0383
29.0703
29.0581
29.0695
28.9895
28.9664
28.839
28.7678
28.6838
28.6559
28.6588
28.7376
28.8629
29.0168
29.1791
29.3338
29.4765
29.5968
29.7099
29.7901
28.6132
28.5809
28.6397
28.6874
28.7392
28.7909
28.8439
28.8985
28.9456
28.9931
29.0193
29.0508
29.0344
29.0444
28.9586
28.9341
28.7991
28.7227
28.6312
28.5998
28.6018
28.6787
28.8058
28.9605
29.1257
29.2855
29.4329
29.558
29.6725
29.7621
28.55
28.5322
28.5955
28.6483
28.7047
28.7617
28.8193
28.8778
28.9287
28.9784
29.0045
29.0359
29.0158
29.0247
28.9337
28.9079
28.766
28.6838
28.5842
28.5502
28.548
28.625
28.7505
28.9048
29.0716
29.2359
29.3884
29.5193
29.6347
29.7315
28.4766
28.4772
28.5465
28.6059
28.6688
28.7327
28.7968
28.8607
28.9162
28.9683
28.9958
29.0276
29.0052
29.0133
28.9182
28.8917
28.7428
28.654
28.5455
28.506
28.5001
28.5758
28.6986
28.8516
29.0195
29.1862
29.3416
29.4781
29.5957
29.6983
28.3934
28.413
28.4916
28.5602
28.6318
28.7042
28.7761
28.8458
28.906
28.9622
28.9931
29.0275
29.0043
29.0128
28.9138
28.888
28.732
28.6369
28.5185
28.4706
28.4657
28.5367
28.6553
28.8066
28.9734
29.1397
29.2955
29.4346
29.5543
29.6623
28.2964
28.3412
28.4316
28.5126
28.595
28.677
28.7563
28.8323
28.898
28.9595
28.9972
29.0359
29.0139
29.0227
28.9218
28.8981
28.7359
28.6339
28.5089
28.4543
28.4486
28.5124
28.6261
28.7739
28.9367
29.1004
29.2541
29.3932
29.5121
29.6256
28.1864
28.2644
28.3698
28.4651
28.5599
28.6518
28.7386
28.8211
28.8934
28.9614
29.0081
29.0514
29.0328
29.0442
28.9433
28.9232
28.7589
28.6537
28.5204
28.4582
28.4496
28.511
28.6183
28.7592
28.9161
29.0748
29.2239
29.3599
29.4756
29.5909
28.0673
28.1879
28.3093
28.4213
28.5294
28.6308
28.7259
28.8153
28.8948
28.9746
29.0271
29.076
29.0616
29.0793
28.98
28.9655
28.7987
28.6913
28.5501
28.4788
28.4641
28.5212
28.6263
28.7639
28.9174
29.071
29.2137
29.3436
29.4524
29.5642
27.9621
28.1259
28.2634
28.3906
28.5106
28.6218
28.7253
28.8296
28.9191
29.0039
29.0619
29.117
29.1072
29.1338
29.0384
29.0342
28.869
28.7622
28.6161
28.5365
28.5128
28.558
28.65
28.7828
28.9326
29.0828
29.222
29.3486
29.4534
29.5602
27.8924
28.0861
28.2344
28.3744
28.5065
28.6355
28.7566
28.8688
28.9641
29.0529
29.1157
29.1765
29.1719
29.2087
29.1194
29.1288
28.9657
28.8608
28.7096
28.6212
28.5882
28.6252
28.704
28.8232
28.9653
29.1135
29.2501
29.3738
29.4737
29.5778
27.8961
28.1191
28.2824
28.436
28.5765
28.7104
28.8342
28.9462
29.041
29.1294
29.194
29.2596
29.2626
29.3117
29.2313
29.2609
29.1035
29.0043
28.8498
28.7565
28.7135
28.741
28.8095
28.9144
29.0427
29.1784
29.3071
29.4265
29.5257
29.6339
28.0131
28.2168
28.3792
28.5364
28.6799
28.8136
28.9336
29.0409
29.132
29.2173
29.2816
29.3501
29.3626
29.4253
29.3597
29.422
29.2812
29.1999
29.0534
28.9624
28.9126
28.9312
28.9896
29.0836
29.204
29.3392
29.4717
29.5978
29.7035
29.8103
29.328
29.0931
29.0447
28.9575
28.9096
28.8995
28.9069
28.9298
28.9604
29.002
29.044
29.0976
29.1355
29.1838
29.1914
29.2098
29.1786
29.1635
29.135
29.1473
29.1985
29.2985
29.4286
29.5722
29.7178
29.8505
29.9653
30.0312
30.0794
30.0675
29.2765
29.0319
29.0084
28.9398
28.9099
28.9069
28.9202
28.9458
28.9773
29.0191
29.0607
29.1135
29.1502
29.1979
29.2053
29.2251
29.1954
29.1833
29.1564
29.1668
29.2136
29.3135
29.443
29.5858
29.7306
29.8619
29.975
30.038
30.085
30.0566
29.2166
28.9914
28.9764
28.92
28.9038
28.9085
28.9275
28.9555
28.9884
29.0307
29.0722
29.1245
29.1599
29.2069
29.2121
29.2309
29.1984
29.1853
29.1557
29.1614
29.2086
29.3134
29.4447
29.5882
29.7329
29.8634
29.9765
30.0375
30.0876
30.0556
29.1419
28.9438
28.9373
28.8963
28.8942
28.9065
28.9308
28.9635
28.9984
29.0415
29.083
29.135
29.1687
29.2148
29.2168
29.2337
29.1962
29.1797
29.146
29.1456
29.1866
29.2919
29.43
29.5777
29.7239
29.8538
29.9679
30.0282
30.0863
30.0528
29.0637
28.9002
28.899
28.8733
28.8827
28.9021
28.9298
28.9657
29.0033
29.0484
29.0906
29.1424
29.1739
29.2187
29.2159
29.2294
29.1838
29.1611
29.1216
29.1158
29.151
29.2536
29.3943
29.5494
29.6995
29.8313
29.9492
30.0101
30.0777
30.0459
28.9879
28.8604
28.8641
28.8527
28.8715
28.8965
28.9277
28.9654
29.0052
29.0522
29.0947
29.1477
29.1755
29.2195
29.2105
29.2189
29.1621
29.1316
29.0851
29.0741
29.1047
29.206
29.3469
29.5078
29.6634
29.7988
29.9223
29.986
30.0642
30.0351
28.917
28.8259
28.8338
28.835
28.8613
28.8907
28.9252
28.9649
29.006
29.0544
29.0968
29.1504
29.1745
29.2179
29.201
29.2026
29.1325
29.0924
29.0379
29.0223
29.0491
29.1505
29.2929
29.4571
29.6188
29.7583
29.8882
29.9578
30.0454
30.0212
28.8584
28.8004
28.8116
28.8218
28.8525
28.8852
28.9224
28.9638
29.0058
29.0559
29.0979
29.1515
29.1724
29.2139
29.1878
29.1812
29.0955
29.0444
28.9812
28.9616
28.9856
29.0883
29.2336
29.4009
29.5677
29.7124
29.8485
29.9258
30.0217
30.0045
28.8147
28.7845
28.798
28.8135
28.8466
28.8816
28.9205
28.9631
29.0056
29.0567
29.0981
29.1515
29.1693
29.2077
29.171
29.1549
29.0516
28.9881
28.916
28.8934
28.9154
29.0208
29.1701
29.3414
29.5122
29.6627
29.8045
29.8904
29.9941
29.9849
28.7809
28.771
28.7877
28.8069
28.842
28.8791
28.9195
28.963
29.0062
29.058
29.0978
29.1511
29.1649
29.1993
29.151
29.124
29.0011
28.9245
28.8443
28.8187
28.8399
28.9491
29.1034
29.2794
29.4541
29.6104
29.7571
29.8523
29.9625
29.9628
28.7547
28.757
28.7784
28.8011
28.8384
28.8775
28.9191
28.964
29.0077
29.0601
29.0976
29.15
29.1595
29.1891
29.1278
29.0889
28.9448
28.8553
28.767
28.7387
28.7602
28.8743
29.0346
29.2157
29.3948
29.5565
29.7073
29.8116
29.9267
29.9396
28.7344
28.7435
28.7689
28.7952
28.8346
28.8758
28.9188
28.9656
29.0095
29.0621
29.0972
29.1483
29.1526
29.177
29.1017
29.0499
28.8833
28.7812
28.6846
28.6545
28.6776
28.7977
28.9649
29.1514
29.3354
29.5018
29.6562
29.7697
29.8879
29.9161
28.7174
28.7291
28.7586
28.7884
28.83
28.8734
28.918
28.9662
29.0105
29.0634
29.0961
29.146
29.144
29.1633
29.0729
29.0073
28.8173
28.7027
28.5982
28.5673
28.5933
28.7206
28.8952
29.0866
29.277
29.4482
29.6068
29.7279
29.8489
29.893
28.7
28.7104
28.7457
28.7793
28.8238
28.87
28.9162
28.9655
29.0102
29.0634
29.0943
29.143
29.1335
29.148
29.0417
28.9616
28.7475
28.6206
28.5091
28.4784
28.5088
28.6439
28.8259
29.0226
29.2201
29.3972
29.5606
29.6884
29.811
29.8702
28.6803
28.688
28.7302
28.7674
28.8153
28.8644
28.9131
28.9639
29.0091
29.0624
29.0914
29.1384
29.1214
29.1316
29.0087
28.9134
28.6751
28.5364
28.4185
28.389
28.4252
28.5687
28.7574
28.9616
29.1668
29.3508
29.5185
29.6517
29.7755
29.847
28.6589
28.6638
28.7126
28.7535
28.8048
28.8569
28.9086
28.9611
29.0068
29.0602
29.0873
29.1328
29.1085
29.1145
28.9743
28.8635
28.5999
28.4523
28.3279
28.3005
28.3435
28.4953
28.6908
28.9064
29.1197
29.3096
29.4796
29.6179
29.7429
29.824
28.6352
28.6376
28.6932
28.7381
28.7929
28.8486
28.9031
28.9576
29.0036
29.0572
29.0826
29.1266
29.0954
29.0972
28.9395
28.8127
28.5244
28.3695
28.2387
28.2144
28.2651
28.4244
28.6306
28.8554
29.0766
29.2717
29.4443
29.5866
29.7117
29.8002
28.6081
28.6097
28.6724
28.7219
28.7805
28.8397
28.8975
28.9539
29.0005
29.0542
29.0783
29.1207
29.083
29.0804
28.9051
28.7624
28.4527
28.2897
28.153
28.1326
28.192
28.3612
28.5766
28.8052
29.0334
29.2356
29.4108
29.5557
29.6811
29.7758
28.5771
28.5806
28.6501
28.7051
28.7678
28.831
28.8922
28.9508
28.9981
29.0522
29.0753
29.1169
29.0727
29.0653
28.8726
28.7147
28.3854
28.2161
28.074
28.059
28.1274
28.3034
28.5166
28.754
28.9883
29.1982
29.378
29.5259
29.6524
29.7521
28.5411
28.5497
28.6264
28.6877
28.7552
28.8228
28.8877
28.9489
28.9973
29.0523
29.0749
29.1171
29.066
29.0536
28.8439
28.6722
28.3252
28.153
28.0074
27.9944
28.0695
28.2414
28.4561
28.7041
28.9445
29.1613
29.3475
29.4991
29.6263
29.7291
28.4994
28.5169
28.6011
28.6698
28.7427
28.8151
28.8843
28.9486
29.0007
29.0608
29.0822
29.1228
29.0663
29.0476
28.8213
28.6392
28.2794
28.1078
27.9532
27.9372
28.0116
28.1786
28.402
28.6581
28.9051
29.1268
29.3186
29.4755
29.6029
29.7071
28.4505
28.4813
28.5739
28.6509
28.7301
28.8081
28.8819
28.9514
29.0099
29.0748
29.0965
29.1354
29.0727
29.051
28.8076
28.6216
28.2508
28.0776
27.9076
27.8908
27.9572
28.1233
28.3539
28.616
28.8692
29.0956
29.2901
29.4513
29.5816
29.6866
28.3929
28.4422
28.5447
28.6309
28.7172
28.8013
28.8804
28.9575
29.0245
29.0938
29.1185
29.1562
29.0886
29.0633
28.8076
28.6182
28.2368
28.0606
27.8774
27.8567
27.9166
28.0815
28.3122
28.5788
28.8368
29.0678
29.2651
29.4288
29.5605
29.67
28.325
28.4016
28.5136
28.6101
28.704
28.7947
28.8798
28.966
29.0423
29.1169
29.1464
29.1852
29.1151
29.0872
28.8194
28.6329
28.2358
28.0583
27.8672
27.8391
27.8962
28.059
28.2847
28.549
28.8101
29.0449
29.245
29.4112
29.5437
29.6563
28.2472
28.3596
28.4817
28.589
28.6911
28.789
28.8803
28.9762
29.0623
29.1435
29.1793
29.2214
29.1526
29.1238
28.8467
28.6702
28.2667
28.0895
27.8857
27.85
27.9042
28.0623
28.279
28.5342
28.7936
29.0309
29.2333
29.4014
29.5338
29.6471
28.1653
28.316
28.4502
28.5695
28.6803
28.785
28.8843
28.9903
29.0858
29.1741
29.2168
29.2647
29.1998
29.1746
28.8906
28.7295
28.3164
28.1392
27.9231
27.8798
27.9234
28.0773
28.2899
28.5391
28.7917
29.0306
29.2341
29.403
29.5351
29.6483
28.0928
28.277
28.4224
28.5533
28.673
28.7849
28.8973
29.0145
29.116
29.2113
29.2617
29.3168
29.2568
29.2388
28.9495
28.8082
28.3855
28.2111
27.9831
27.9314
27.9653
28.107
28.3113
28.5536
28.8034
29.0378
29.2424
29.4122
29.5442
29.6589
28.0369
28.2465
28.4026
28.5447
28.6743
28.8026
28.9278
29.0497
29.1555
29.2559
29.313
29.3765
29.3211
29.3141
29.0231
28.9174
28.4925
28.3273
28.0909
28.0305
28.0499
28.1683
28.3519
28.5852
28.8253
29.0544
29.2573
29.4301
29.5644
29.6834
28.019
28.2357
28.3988
28.5537
28.6967
28.8344
28.9633
29.0876
29.1953
29.2984
29.3593
29.4302
29.3794
29.3895
29.103
29.0427
28.6205
28.4717
28.2316
28.1662
28.1729
28.2711
28.4313
28.6436
28.8718
29.0951
29.2934
29.4629
29.5987
29.7266
28.0531
28.258
28.425
28.5847
28.7306
28.8694
28.998
29.121
29.2284
29.3323
29.3946
29.4707
29.4244
29.4558
29.1824
29.1818
28.7739
28.6477
28.411
28.3438
28.3363
28.4163
28.5513
28.7391
28.9469
29.1573
29.3512
29.5233
29.668
29.802
29.4784
29.0996
29.0152
28.8651
28.7698
28.7317
28.7338
28.7629
28.8057
28.8677
28.9305
29.017
29.0812
29.1774
29.2083
29.2601
29.199
29.1337
29.0246
28.9766
28.9905
29.0799
29.2177
29.3818
29.5576
29.7323
29.8929
30.019
30.0833
30.101
29.398
28.994
28.9517
28.824
28.7558
28.7328
28.7443
28.7783
28.8236
28.8867
28.9498
29.036
29.099
29.1957
29.2257
29.28
29.2209
29.161
29.0524
28.9999
29.0036
29.09
29.2278
29.3926
29.5689
29.7439
29.9031
30.027
30.0909
30.0856
29.304
28.9276
28.8997
28.7895
28.7403
28.7314
28.7513
28.7898
28.8374
28.9015
28.9646
29.0512
29.1128
29.2108
29.2382
29.2947
29.2326
29.1717
29.053
28.9991
28.9978
29.0886
29.229
29.3948
29.5715
29.7451
29.903
30.0175
30.0908
30.0749
29.19
28.8565
28.8406
28.7496
28.7221
28.7272
28.7533
28.7979
28.8485
28.9151
28.9782
29.0655
29.125
29.2255
29.2492
29.3086
29.2397
29.1705
29.0449
28.9862
28.9758
29.0603
29.2088
29.3806
29.559
29.7304