/*--------------------------------*- C++ -*----------------------------------*\
  =========                 |
  \\      /  F ield         | OpenFOAM: The Open Source CFD Toolbox
   \\    /   O peration     | Website:  https://openfoam.org
    \\  /    A nd           | Version:  12
     \\/     M anipulation  |
\*---------------------------------------------------------------------------*/
FoamFile
{
    format      ascii;
    class       volScalarField;
    location    "1150/air";
    object      T;
}
// * * * * * * * * * * * * * * * * * * * * * * * * * * * * * * * * * * * * * //

dimensions      [0 0 0 1 0 0 0];

internalField   nonuniform List<scalar> 
243000
(
300.718
300.355
300.319
300.299
300.287
300.279
300.274
300.27
300.267
300.265
300.262
300.262
300.26
300.254
300.246
300.236
300.224
300.21
300.197
300.184
300.172
300.161
300.152
300.144
300.137
300.131
300.127
300.124
300.122
300.119
300.957
300.558
300.456
300.406
300.376
300.358
300.346
300.338
300.33
300.323
300.315
300.304
300.293
300.28
300.266
300.25
300.234
300.216
300.2
300.184
300.171
300.16
300.15
300.141
300.134
300.128
300.124
300.121
300.12
300.118
301.061
300.869
300.681
300.58
300.522
300.485
300.459
300.44
300.423
300.405
300.387
300.367
300.345
300.321
300.297
300.272
300.248
300.224
300.204
300.186
300.171
300.159
300.149
300.14
300.133
300.127
300.122
300.119
300.117
300.116
301.107
301.021
300.888
300.779
300.702
300.646
300.605
300.571
300.541
300.512
300.479
300.445
300.408
300.37
300.333
300.297
300.264
300.234
300.209
300.188
300.172
300.159
300.148
300.139
300.132
300.126
300.121
300.117
300.115
300.115
301.116
301.064
301.008
300.943
300.874
300.812
300.76
300.713
300.67
300.628
300.584
300.538
300.486
300.432
300.378
300.328
300.284
300.246
300.216
300.192
300.173
300.159
300.148
300.139
300.131
300.125
300.12
300.116
300.114
300.113
301.107
301.067
301.031
300.995
300.96
300.92
300.876
300.83
300.783
300.734
300.683
300.629
300.57
300.501
300.43
300.364
300.307
300.26
300.224
300.196
300.175
300.16
300.148
300.138
300.131
300.124
300.119
300.115
300.112
300.111
301.092
301.057
301.027
301
300.973
300.947
300.92
300.889
300.852
300.81
300.762
300.707
300.645
300.57
300.487
300.404
300.333
300.276
300.233
300.201
300.178
300.161
300.148
300.138
300.13
300.124
300.119
300.115
300.111
300.11
301.077
301.046
301.018
300.993
300.969
300.947
300.925
300.903
300.878
300.848
300.81
300.763
300.705
300.633
300.542
300.447
300.362
300.294
300.244
300.208
300.182
300.163
300.149
300.139
300.131
300.124
300.119
300.114
300.111
300.109
301.064
301.034
301.008
300.984
300.961
300.939
300.919
300.9
300.881
300.859
300.832
300.796
300.747
300.682
300.593
300.489
300.391
300.313
300.256
300.215
300.186
300.166
300.151
300.139
300.131
300.124
300.118
300.114
300.111
300.108
301.051
301.024
300.999
300.975
300.952
300.931
300.911
300.893
300.875
300.859
300.838
300.811
300.772
300.716
300.635
300.528
300.421
300.333
300.269
300.223
300.191
300.169
300.152
300.14
300.131
300.124
300.119
300.114
300.11
300.108
301.04
301.014
300.99
300.966
300.944
300.923
300.904
300.885
300.868
300.853
300.836
300.815
300.785
300.739
300.668
300.563
300.45
300.354
300.283
300.232
300.197
300.172
300.155
300.142
300.132
300.125
300.119
300.114
300.11
300.107
301.031
301.005
300.981
300.958
300.936
300.916
300.896
300.878
300.861
300.846
300.831
300.814
300.789
300.752
300.691
300.591
300.477
300.375
300.297
300.242
300.203
300.176
300.157
300.144
300.133
300.125
300.119
300.114
300.11
300.107
301.022
300.997
300.973
300.95
300.929
300.908
300.889
300.871
300.855
300.84
300.825
300.81
300.789
300.758
300.705
300.614
300.501
300.395
300.312
300.252
300.21
300.181
300.16
300.146
300.135
300.126
300.12
300.115
300.111
300.107
301.014
300.989
300.966
300.943
300.922
300.901
300.882
300.864
300.848
300.833
300.819
300.804
300.786
300.759
300.714
300.632
300.522
300.415
300.328
300.263
300.218
300.186
300.164
300.148
300.136
300.127
300.121
300.115
300.111
300.107
301.007
300.982
300.959
300.936
300.915
300.895
300.876
300.858
300.842
300.827
300.813
300.799
300.782
300.758
300.718
300.644
300.54
300.433
300.343
300.275
300.227
300.192
300.168
300.151
300.138
300.129
300.122
300.116
300.111
300.108
301
300.975
300.952
300.93
300.908
300.888
300.869
300.852
300.835
300.821
300.807
300.793
300.776
300.754
300.719
300.652
300.555
300.45
300.358
300.288
300.236
300.199
300.173
300.155
300.141
300.131
300.123
300.117
300.112
300.108
300.992
300.968
300.945
300.923
300.902
300.882
300.863
300.845
300.829
300.815
300.801
300.786
300.77
300.749
300.717
300.657
300.567
300.466
300.374
300.3
300.246
300.207
300.179
300.159
300.144
300.133
300.124
300.118
300.113
300.109
300.984
300.96
300.938
300.916
300.896
300.876
300.857
300.839
300.823
300.808
300.794
300.779
300.763
300.743
300.713
300.658
300.576
300.48
300.388
300.314
300.257
300.215
300.185
300.163
300.147
300.135
300.126
300.119
300.114
300.11
300.976
300.952
300.93
300.909
300.888
300.869
300.85
300.832
300.816
300.8
300.785
300.771
300.755
300.736
300.707
300.658
300.583
300.492
300.403
300.327
300.268
300.224
300.192
300.168
300.151
300.138
300.128
300.121
300.115
300.111
300.967
300.944
300.923
300.902
300.881
300.862
300.842
300.824
300.807
300.79
300.774
300.759
300.744
300.725
300.699
300.655
300.588
300.503
300.417
300.341
300.28
300.234
300.2
300.174
300.156
300.142
300.131
300.123
300.117
300.112
300.958
300.936
300.915
300.895
300.875
300.855
300.836
300.817
300.798
300.78
300.763
300.747
300.732
300.714
300.689
300.65
300.591
300.513
300.431
300.355
300.293
300.245
300.209
300.181
300.161
300.146
300.134
300.125
300.118
300.113
300.948
300.928
300.908
300.888
300.869
300.849
300.83
300.809
300.789
300.77
300.752
300.735
300.719
300.702
300.679
300.644
300.592
300.522
300.444
300.37
300.307
300.257
300.218
300.189
300.167
300.151
300.138
300.128
300.121
300.115
300.938
300.919
300.9
300.882
300.863
300.843
300.823
300.802
300.781
300.761
300.742
300.724
300.708
300.69
300.669
300.639
300.593
300.53
300.457
300.385
300.322
300.27
300.23
300.198
300.174
300.156
300.142
300.132
300.123
300.117
300.926
300.909
300.891
300.873
300.855
300.836
300.816
300.796
300.775
300.755
300.735
300.716
300.699
300.681
300.661
300.633
300.593
300.537
300.47
300.401
300.338
300.285
300.242
300.209
300.183
300.163
300.148
300.136
300.126
300.119
300.912
300.896
300.881
300.864
300.847
300.829
300.81
300.791
300.771
300.75
300.73
300.711
300.692
300.674
300.655
300.63
300.595
300.544
300.483
300.417
300.355
300.301
300.256
300.221
300.193
300.171
300.154
300.141
300.13
300.122
300.898
300.884
300.871
300.856
300.841
300.824
300.807
300.789
300.77
300.75
300.729
300.709
300.69
300.671
300.651
300.627
300.595
300.55
300.494
300.432
300.372
300.318
300.272
300.234
300.204
300.18
300.162
300.147
300.135
300.126
300.883
300.872
300.861
300.849
300.835
300.82
300.803
300.785
300.766
300.745
300.724
300.703
300.683
300.663
300.643
300.621
300.592
300.552
300.502
300.445
300.388
300.334
300.288
300.249
300.217
300.191
300.171
300.154
300.141
300.131
300.854
300.846
300.836
300.826
300.814
300.799
300.783
300.764
300.744
300.722
300.7
300.678
300.657
300.637
300.618
300.597
300.573
300.539
300.497
300.447
300.395
300.345
300.3
300.261
300.228
300.201
300.179
300.162
300.147
300.136
300.77
300.761
300.752
300.742
300.729
300.713
300.694
300.672
300.649
300.625
300.602
300.579
300.558
300.54
300.523
300.508
300.49
300.467
300.437
300.4
300.36
300.32
300.283
300.249
300.22
300.195
300.175
300.158
300.145
300.134
300.373
300.368
300.369
300.368
300.362
300.352
300.339
300.326
300.311
300.297
300.284
300.272
300.261
300.252
300.244
300.238
300.231
300.223
300.211
300.196
300.18
300.162
300.145
300.13
300.116
300.105
300.095
300.087
300.08
300.075
300.261
300.241
300.23
300.222
300.216
300.21
300.206
300.202
300.198
300.194
300.19
300.186
300.182
300.178
300.173
300.167
300.162
300.155
300.149
300.142
300.135
300.128
300.121
300.115
300.109
300.104
300.1
300.097
300.101
300.107
300.314
300.28
300.259
300.245
300.235
300.227
300.22
300.215
300.209
300.204
300.198
300.193
300.187
300.182
300.175
300.168
300.161
300.154
300.146
300.139
300.132
300.126
300.119
300.113
300.108
300.104
300.1
300.097
300.098
300.104
300.4
300.35
300.311
300.288
300.272
300.26
300.25
300.241
300.232
300.223
300.215
300.207
300.198
300.19
300.181
300.172
300.163
300.153
300.145
300.137
300.13
300.124
300.118
300.112
300.107
300.103
300.099
300.097
300.096
300.101
300.502
300.45
300.406
300.372
300.345
300.324
300.306
300.289
300.273
300.257
300.242
300.229
300.216
300.203
300.191
300.178
300.166
300.154
300.144
300.136
300.129
300.122
300.117
300.111
300.107
300.103
300.099
300.096
300.095
300.098
300.609
300.554
300.512
300.476
300.444
300.415
300.389
300.364
300.338
300.312
300.286
300.261
300.24
300.221
300.204
300.186
300.17
300.156
300.144
300.135
300.128
300.121
300.116
300.11
300.106
300.102
300.099
300.096
300.094
300.096
300.705
300.646
300.603
300.568
300.536
300.506
300.477
300.447
300.414
300.379
300.343
300.307
300.273
300.245
300.22
300.197
300.177
300.159
300.145
300.135
300.127
300.12
300.115
300.11
300.105
300.102
300.098
300.096
300.094
300.094
300.78
300.722
300.679
300.643
300.61
300.58
300.55
300.519
300.485
300.447
300.405
300.36
300.315
300.274
300.24
300.21
300.184
300.163
300.147
300.135
300.126
300.119
300.114
300.109
300.105
300.101
300.098
300.095
300.094
300.093
300.833
300.785
300.743
300.706
300.672
300.64
300.609
300.577
300.543
300.505
300.462
300.414
300.361
300.308
300.263
300.225
300.194
300.168
300.15
300.136
300.126
300.119
300.113
300.108
300.104
300.101
300.098
300.095
300.093
300.092
300.862
300.832
300.796
300.761
300.726
300.692
300.659
300.626
300.591
300.553
300.511
300.462
300.406
300.345
300.289
300.242
300.204
300.174
300.153
300.137
300.127
300.119
300.113
300.108
300.104
300.101
300.098
300.095
300.093
300.092
300.864
300.856
300.833
300.803
300.77
300.737
300.703
300.668
300.632
300.594
300.552
300.504
300.448
300.381
300.314
300.259
300.214
300.181
300.157
300.139
300.128
300.119
300.113
300.108
300.104
300.1
300.098
300.095
300.093
300.092
300.843
300.851
300.843
300.824
300.799
300.769
300.737
300.703
300.667
300.628
300.586
300.539
300.484
300.414
300.339
300.275
300.225
300.188
300.161
300.142
300.129
300.12
300.113
300.108
300.104
300.1
300.097
300.095
300.093
300.092
300.811
300.824
300.828
300.823
300.808
300.785
300.758
300.728
300.694
300.656
300.615
300.568
300.514
300.443
300.362
300.292
300.237
300.195
300.166
300.145
300.13
300.12
300.113
300.108
300.104
300.1
300.097
300.095
300.093
300.091
300.781
300.792
300.8
300.802
300.797
300.785
300.765
300.74
300.711
300.676
300.637
300.592
300.538
300.467
300.383
300.307
300.247
300.203
300.171
300.148
300.133
300.122
300.114
300.108
300.104
300.1
300.097
300.095
300.093
300.091
300.761
300.768
300.773
300.776
300.776
300.771
300.759
300.741
300.717
300.688
300.652
300.609
300.556
300.486
300.4
300.32
300.258
300.211
300.177
300.152
300.135
300.123
300.115
300.109
300.104
300.1
300.098
300.095
300.093
300.092
300.75
300.752
300.753
300.754
300.754
300.751
300.744
300.732
300.714
300.691
300.659
300.619
300.568
300.499
300.413
300.332
300.268
300.219
300.183
300.157
300.138
300.126
300.116
300.11
300.105
300.101
300.098
300.095
300.093
300.092
300.745
300.743
300.74
300.738
300.735
300.731
300.726
300.717
300.704
300.685
300.659
300.623
300.575
300.507
300.422
300.342
300.277
300.226
300.189
300.162
300.142
300.128
300.118
300.111
300.105
300.101
300.098
300.096
300.093
300.092
300.746
300.739
300.733
300.726
300.72
300.715
300.708
300.7
300.689
300.674
300.653
300.621
300.576
300.511
300.429
300.35
300.285
300.234
300.196
300.167
300.146
300.131
300.12
300.112
300.107
300.102
300.099
300.096
300.094
300.092
300.75
300.74
300.729
300.72
300.71
300.702
300.693
300.684
300.673
300.66
300.641
300.614
300.572
300.511
300.433
300.357
300.293
300.242
300.203
300.173
300.151
300.135
300.123
300.115
300.108
300.103
300.1
300.097
300.094
300.092
300.754
300.742
300.73
300.717
300.705
300.693
300.682
300.671
300.659
300.646
300.628
300.603
300.565
300.508
300.435
300.363
300.301
300.25
300.21
300.18
300.157
300.14
300.127
300.117
300.11
300.105
300.101
300.097
300.095
300.093
300.758
300.744
300.73
300.716
300.702
300.688
300.675
300.661
300.647
300.633
300.616
300.592
300.556
300.504
300.437
300.369
300.309
300.259
300.219
300.187
300.163
300.145
300.131
300.121
300.113
300.107
300.102
300.099
300.096
300.094
300.761
300.746
300.731
300.716
300.701
300.685
300.669
300.653
300.638
300.622
300.604
300.581
300.548
300.499
300.438
300.374
300.317
300.268
300.228
300.196
300.171
300.151
300.136
300.125
300.116
300.109
300.104
300.1
300.097
300.094
300.762
300.747
300.732
300.716
300.7
300.683
300.665
300.647
300.63
300.612
300.593
300.57
300.539
300.495
300.439
300.38
300.325
300.278
300.238
300.205
300.179
300.158
300.142
300.13
300.12
300.112
300.107
300.102
300.098
300.096
300.76
300.745
300.73
300.714
300.697
300.679
300.661
300.641
300.622
300.603
300.583
300.56
300.531
300.491
300.44
300.386
300.335
300.289
300.249
300.216
300.189
300.167
300.149
300.135
300.125
300.116
300.11
300.104
300.1
300.097
300.754
300.739
300.724
300.708
300.691
300.673
300.654
300.634
300.614
300.594
300.574
300.551
300.523
300.486
300.441
300.392
300.344
300.3
300.261
300.228
300.2
300.177
300.158
300.143
300.131
300.121
300.113
300.108
300.103
300.099
300.743
300.729
300.714
300.698
300.681
300.663
300.645
300.625
300.605
300.584
300.563
300.54
300.514
300.481
300.441
300.398
300.354
300.314
300.277
300.243
300.214
300.19
300.169
300.152
300.138
300.127
300.118
300.112
300.106
300.102
300.724
300.711
300.696
300.681
300.665
300.649
300.63
300.611
300.591
300.57
300.549
300.526
300.502
300.473
300.44
300.403
300.366
300.33
300.295
300.262
300.232
300.206
300.184
300.164
300.149
300.136
300.125
300.117
300.11
300.105
300.695
300.681
300.668
300.655
300.641
300.625
300.609
300.59
300.571
300.55
300.529
300.508
300.485
300.461
300.434
300.405
300.375
300.344
300.313
300.282
300.252
300.225
300.2
300.179
300.161
300.146
300.133
300.123
300.115
300.109
300.646
300.633
300.622
300.611
300.599
300.586
300.57
300.551
300.531
300.511
300.49
300.47
300.45
300.431
300.411
300.389
300.367
300.343
300.318
300.291
300.263
300.236
300.211
300.189
300.17
300.153
300.14
300.128
300.119
300.112
300.539
300.526
300.518
300.51
300.501
300.489
300.474
300.457
300.438
300.419
300.401
300.383
300.367
300.352
300.338
300.325
300.312
300.296
300.278
300.258
300.236
300.214
300.193
300.174
300.157
300.142
300.13
300.12
300.111
300.104
300.305
300.301
300.301
300.302
300.3
300.295
300.287
300.278
300.267
300.256
300.246
300.235
300.226
300.217
300.209
300.201
300.193
300.184
300.173
300.16
300.146
300.132
300.118
300.106
300.095
300.086
300.078
300.072
300.066
300.062
300.235
300.222
300.214
300.208
300.203
300.199
300.195
300.191
300.187
300.183
300.179
300.175
300.171
300.167
300.162
300.157
300.151
300.145
300.139
300.133
300.125
300.117
300.11
300.103
300.098
300.093
300.089
300.086
300.089
300.1
300.253
300.235
300.224
300.215
300.208
300.202
300.197
300.192
300.188
300.183
300.179
300.174
300.169
300.164
300.158
300.152
300.146
300.14
300.134
300.128
300.121
300.115
300.108
300.102
300.097
300.093
300.089
300.086
300.087
300.096
300.273
300.252
300.237
300.226
300.217
300.209
300.203
300.197
300.191
300.186
300.18
300.175
300.169
300.163
300.156
300.149
300.142
300.136
300.13
300.124
300.118
300.112
300.106
300.101
300.096
300.093
300.089
300.086
300.086
300.091
300.298
300.275
300.257
300.243
300.231
300.221
300.213
300.205
300.198
300.191
300.184
300.178
300.171
300.164
300.156
300.148
300.14
300.133
300.127
300.121
300.115
300.11
300.105
300.1
300.096
300.092
300.089
300.086
300.085
300.089
300.336
300.309
300.287
300.269
300.254
300.241
300.23
300.219
300.21
300.201
300.192
300.184
300.175
300.166
300.157
300.147
300.138
300.13
300.124
300.118
300.113
300.108
300.104
300.099
300.095
300.092
300.089
300.086
300.085
300.087
300.394
300.367
300.339
300.314
300.293
300.274
300.257
300.242
300.229
300.216
300.205
300.194
300.183
300.171
300.16
300.148
300.137
300.129
300.122
300.116
300.111
300.106
300.102
300.098
300.095
300.092
300.089
300.087
300.085
300.085
300.469
300.442
300.408
300.376
300.348
300.323
300.3
300.278
300.259
300.24
300.223
300.208
300.193
300.179
300.164
300.15
300.138
300.128
300.12
300.114
300.109
300.105
300.101
300.098
300.094
300.091
300.089
300.087
300.085
300.085
300.538
300.517
300.481
300.445
300.41
300.379
300.351
300.324
300.298
300.273
300.249
300.227
300.207
300.188
300.17
300.153
300.139
300.128
300.12
300.113
300.108
300.104
300.1
300.097
300.094
300.091
300.089
300.087
300.085
300.085
300.593
300.584
300.552
300.514
300.475
300.439
300.406
300.374
300.343
300.312
300.282
300.252
300.225
300.2
300.178
300.157
300.141
300.128
300.119
300.112
300.107
300.103
300.099
300.096
300.093
300.091
300.089
300.087
300.085
300.084
300.63
300.636
300.613
300.578
300.538
300.499
300.462
300.425
300.39
300.354
300.318
300.281
300.246
300.214
300.186
300.162
300.143
300.129
300.119
300.112
300.106
300.102
300.099
300.096
300.093
300.091
300.089
300.087
300.085
300.084
300.649
300.669
300.658
300.63
300.594
300.555
300.515
300.476
300.436
300.396
300.355
300.313
300.269
300.229
300.196
300.168
300.147
300.131
300.12
300.112
300.106
300.102
300.098
300.095
300.093
300.091
300.089
300.087
300.085
300.084
300.65
300.68
300.682
300.664
300.636
300.6
300.562
300.521
300.479
300.436
300.391
300.344
300.293
300.245
300.205
300.174
300.15
300.133
300.121
300.112
300.106
300.101
300.098
300.095
300.093
300.09
300.089
300.087
300.086
300.085
300.642
300.675
300.686
300.68
300.66
300.632
300.597
300.558
300.516
300.471
300.424
300.372
300.315
300.26
300.215
300.18
300.154
300.136
300.122
300.113
300.106
300.101
300.098
300.095
300.092
300.09
300.089
300.087
300.086
300.085
300.631
300.662
300.678
300.68
300.669
300.648
300.619
300.585
300.545
300.5
300.451
300.396
300.335
300.273
300.224
300.186
300.159
300.139
300.125
300.114
300.107
300.102
300.098
300.095
300.092
300.09
300.089
300.087
300.086
300.085
300.621
300.647
300.663
300.67
300.666
300.652
300.629
300.599
300.563
300.521
300.472
300.415
300.35
300.285
300.233
300.193
300.163
300.142
300.127
300.116
300.108
300.103
300.098
300.095
300.093
300.091
300.089
300.087
300.086
300.085
300.613
300.633
300.648
300.655
300.656
300.647
300.63
300.605
300.572
300.533
300.484
300.427
300.362
300.295
300.241
300.199
300.168
300.146
300.13
300.119
300.11
300.104
300.099
300.096
300.093
300.091
300.089
300.088
300.086
300.085
300.61
300.623
300.634
300.641
300.642
300.636
300.623
300.603
300.575
300.538
300.491
300.434
300.369
300.302
300.248
300.205
300.174
300.151
300.134
300.122
300.112
300.106
300.101
300.097
300.094
300.091
300.089
300.088
300.087
300.086
300.609
300.618
300.624
300.628
300.628
300.624
300.613
300.596
300.571
300.538
300.493
300.437
300.374
300.309
300.254
300.212
300.18
300.156
300.138
300.125
300.115
300.108
300.102
300.098
300.095
300.092
300.09
300.088
300.087
300.086
300.613
300.616
300.618
300.618
300.617
300.611
300.602
300.586
300.564
300.533
300.492
300.438
300.377
300.314
300.261
300.218
300.186
300.162
300.144
300.13
300.119
300.111
300.105
300.1
300.096
300.093
300.091
300.089
300.087
300.086
300.62
300.618
300.615
300.612
300.607
300.6
300.59
300.575
300.554
300.525
300.487
300.437
300.379
300.32
300.268
300.226
300.194
300.169
300.15
300.135
300.123
300.114
300.107
300.102
300.098
300.094
300.092
300.09
300.088
300.087
300.627
300.621
300.614
300.608
300.6
300.591
300.58
300.565
300.544
300.517
300.481
300.434
300.381
300.325
300.275
300.234
300.202
300.177
300.157
300.141
300.129
300.119
300.111
300.105
300.1
300.096
300.093
300.091
300.089
300.087
300.633
300.624
300.615
300.605
300.595
300.584
300.571
300.555
300.535
300.509
300.475
300.432
300.382
300.33
300.284
300.244
300.212
300.187
300.166
300.149
300.136
300.125
300.116
300.109
300.103
300.099
300.095
300.092
300.09
300.088
300.637
300.626
300.616
300.604
300.592
300.579
300.564
300.548
300.527
300.502
300.47
300.43
300.385
300.337
300.293
300.255
300.224
300.198
300.177
300.159
300.144
300.132
300.122
300.114
300.107
300.102
300.098
300.094
300.091
300.089
300.638
300.627
300.615
300.602
300.588
300.574
300.558
300.541
300.52
300.496
300.466
300.43
300.388
300.345
300.305
300.269
300.238
300.213
300.191
300.172
300.156
300.142
300.13
300.121
300.113
300.106
300.101
300.097
300.094
300.091
300.633
300.622
300.61
300.596
300.582
300.567
300.551
300.533
300.513
300.489
300.462
300.43
300.392
300.353
300.317
300.284
300.255
300.229
300.207
300.187
300.169
300.154
300.141
300.13
300.12
300.112
300.106
300.1
300.096
300.093
300.62
300.609
300.597
300.584
300.571
300.556
300.539
300.521
300.501
300.479
300.453
300.424
300.393
300.359
300.327
300.297
300.27
300.246
300.224
300.204
300.185
300.168
300.153
300.14
300.129
300.119
300.111
300.105
300.1
300.096
300.593
300.582
300.571
300.559
300.547
300.533
300.517
300.499
300.48
300.458
300.435
300.409
300.382
300.355
300.328
300.302
300.279
300.257
300.237
300.217
300.198
300.181
300.164
300.15
300.137
300.126
300.117
300.109
300.103
300.098
300.539
300.528
300.519
300.509
300.499
300.487
300.472
300.455
300.436
300.416
300.395
300.374
300.352
300.33
300.308
300.287
300.268
300.25
300.233
300.215
300.198
300.181
300.165
300.151
300.138
300.127
300.118
300.11
300.103
300.098
300.435
300.429
300.423
300.418
300.412
300.403
300.391
300.376
300.36
300.344
300.327
300.31
300.293
300.276
300.259
300.243
300.229
300.215
300.201
300.187
300.172
300.158
300.145
300.132
300.121
300.112
300.104
300.097
300.092
300.087
300.265
300.265
300.267
300.269
300.27
300.268
300.262
300.255
300.246
300.236
300.226
300.216
300.205
300.194
300.183
300.171
300.161
300.15
300.14
300.129
300.118
300.107
300.097
300.088
300.08
300.073
300.068
300.063
300.059
300.055
300.222
300.214
300.208
300.203
300.199
300.195
300.191
300.187
300.183
300.18
300.176
300.172
300.167
300.163
300.158
300.152
300.147
300.141
300.135
300.127
300.118
300.109
300.101
300.095
300.09
300.086
300.083
300.08
300.083
300.096
300.227
300.218
300.211
300.205
300.2
300.195
300.19
300.185
300.181
300.177
300.172
300.167
300.163
300.157
300.152
300.146
300.14
300.135
300.129
300.122
300.114
300.106
300.099
300.094
300.089
300.086
300.083
300.08
300.081
300.091
300.233
300.224
300.216
300.209
300.203
300.197
300.191
300.186
300.181
300.176
300.17
300.165
300.159
300.153
300.147
300.14
300.134
300.129
300.123
300.117
300.111
300.104
300.098
300.093
300.089
300.086
300.083
300.08
300.081
300.087
300.241
300.232
300.224
300.216
300.209
300.202
300.195
300.189
300.183
300.177
300.17
300.164
300.157
300.15
300.143
300.136
300.13
300.124
300.119
300.114
300.108
300.102
300.097
300.092
300.089
300.085
300.083
300.081
300.08
300.084
300.251
300.245
300.236
300.228
300.219
300.21
300.202
300.194
300.187
300.179
300.172
300.165
300.157
300.149
300.141
300.133
300.126
300.121
300.116
300.111
300.105
300.1
300.096
300.092
300.088
300.085
300.083
300.081
300.08
300.082
300.266
300.263
300.256
300.245
300.234
300.223
300.212
300.203
300.194
300.185
300.176
300.167
300.158
300.149
300.139
300.13
300.123
300.117
300.113
300.108
300.103
300.099
300.095
300.091
300.088
300.085
300.083
300.081
300.08
300.081
300.29
300.293
300.286
300.272
300.257
300.242
300.229
300.216
300.205
300.194
300.183
300.172
300.161
300.149
300.138
300.129
300.121
300.115
300.11
300.105
300.101
300.097
300.093
300.09
300.087
300.085
300.083
300.081
300.08
300.081
300.328
300.34
300.331
300.313
300.292
300.272
300.253
300.236
300.221
300.206
300.193
300.179
300.165
300.151
300.139
300.128
300.119
300.113
300.108
300.103
300.099
300.096
300.092
300.09
300.087
300.085
300.083
300.081
300.08
300.08
300.372
300.392
300.384
300.362
300.335
300.31
300.286
300.264
300.243
300.224
300.206
300.188
300.171
300.155
300.14
300.127
300.118
300.111
300.106
300.102
300.098
300.094
300.092
300.089
300.087
300.085
300.083
300.082
300.08
300.08
300.413
300.443
300.438
300.415
300.385
300.354
300.324
300.297
300.271
300.247
300.223
300.2
300.179
300.159
300.142
300.128
300.118
300.11
300.105
300.1
300.097
300.093
300.091
300.089
300.087
300.085
300.083
300.082
300.081
300.08
300.449
300.487
300.488
300.467
300.435
300.401
300.367
300.334
300.303
300.273
300.244
300.215
300.188
300.164
300.144
300.129
300.118
300.11
300.104
300.099
300.096
300.093
300.09
300.088
300.086
300.085
300.083
300.082
300.081
300.081
300.476
300.52
300.528
300.512
300.483
300.447
300.41
300.373
300.337
300.301
300.266
300.23
300.198
300.169
300.147
300.13
300.118
300.11
300.103
300.099
300.095
300.092
300.09
300.088
300.086
300.085
300.083
300.082
300.081
300.081
300.494
300.541
300.556
300.547
300.522
300.488
300.45
300.41
300.37
300.329
300.288
300.247
300.208
300.175
300.15
300.132
300.119
300.11
300.103
300.099
300.095
300.092
300.09
300.088
300.086
300.085
300.083
300.082
300.081
300.081
300.507
300.551
300.571
300.569
300.55
300.52
300.483
300.443
300.4
300.355
300.309
300.262
300.217
300.181
300.154
300.134
300.12
300.111
300.104
300.099
300.095
300.092
300.09
300.088
300.086
300.085
300.084
300.082
300.082
300.081
300.514
300.552
300.574
300.578
300.566
300.541
300.508
300.468
300.424
300.377
300.327
300.275
300.226
300.187
300.158
300.137
300.122
300.112
300.105
300.099
300.095
300.092
300.09
300.088
300.086
300.085
300.084
300.083
300.082
300.081
300.519
300.55
300.571
300.578
300.571
300.552
300.523
300.485
300.442
300.393
300.34
300.286
300.234
300.193
300.162
300.14
300.125
300.114
300.107
300.101
300.097
300.093
300.091
300.088
300.087
300.085
300.084
300.083
300.082
300.082
300.523
300.547
300.565
300.573
300.571
300.555
300.53
300.495
300.453
300.403
300.349
300.294
300.241
300.198
300.167
300.144
300.128
300.117
300.109
300.103
300.098
300.095
300.092
300.089
300.087
300.086
300.084
300.083
300.082
300.082
300.528
300.545
300.559
300.566
300.565
300.554
300.531
300.499
300.459
300.41
300.356
300.301
300.248
300.204
300.172
300.148
300.132
300.121
300.112
300.105
300.1
300.096
300.093
300.09
300.088
300.086
300.085
300.084
300.083
300.082
300.535
300.545
300.554
300.558
300.558
300.548
300.529
300.5
300.462
300.414
300.362
300.306
300.254
300.21
300.177
300.154
300.137
300.125
300.116
300.109
300.103
300.099
300.095
300.092
300.089
300.087
300.085
300.084
300.083
300.083
300.543
300.547
300.551
300.553
300.55
300.541
300.524
300.498
300.462
300.417
300.366
300.312
300.261
300.217
300.184
300.161
300.144
300.131
300.121
300.113
300.107
300.102
300.097
300.094
300.091
300.088
300.086
300.085
300.084
300.083
300.551
300.551
300.55
300.548
300.544
300.534
300.517
300.494
300.461
300.418
300.369
300.317
300.268
300.225
300.193
300.169
300.151
300.138
300.128
300.119
300.112
300.106
300.101
300.096
300.093
300.09
300.088
300.086
300.085
300.084
300.559
300.555
300.551
300.546
300.539
300.528
300.512
300.489
300.458
300.419
300.373
300.323
300.276
300.235
300.203
300.179
300.161
300.147
300.136
300.126
300.118
300.111
300.105
300.1
300.096
300.092
300.089
300.087
300.085
300.085
300.564
300.558
300.552
300.544
300.535
300.523
300.506
300.485
300.456
300.42
300.376
300.33
300.285
300.246
300.215
300.191
300.173
300.158
300.146
300.135
300.126
300.118
300.111
300.105
300.099
300.095
300.091
300.089
300.087
300.086
300.566
300.559
300.552
300.542
300.531
300.517
300.501
300.48
300.454
300.42
300.38
300.337
300.295
300.258
300.228
300.205
300.186
300.171
300.158
300.146
300.136
300.126
300.118
300.11
300.104
300.098
300.094
300.091
300.088
300.087
300.562
300.555
300.546
300.536
300.524
300.51
300.493
300.473
300.449
300.419
300.382
300.343
300.305
300.271
300.242
300.219
300.2
300.185
300.171
300.158
300.147
300.136
300.126
300.117
300.109
300.103
300.097
300.093
300.09
300.088
300.549
300.541
300.533
300.522
300.51
300.496
300.48
300.461
300.438
300.411
300.38
300.345
300.311
300.279
300.253
300.23
300.212
300.196
300.182
300.169
300.157
300.145
300.134
300.124
300.115
300.107
300.101
300.096
300.092
300.09
300.519
300.512
300.504
300.495
300.484
300.471
300.456
300.438
300.417
300.393
300.366
300.336
300.307
300.279
300.255
300.233
300.215
300.199
300.185
300.172
300.16
300.149
300.138
300.128
300.118
300.11
300.104
300.098
300.094
300.09
300.464
300.458
300.452
300.445
300.436
300.426
300.412
300.396
300.378
300.357
300.335
300.311
300.287
300.263
300.242
300.221
300.204
300.189
300.176
300.164
300.153
300.142
300.132
300.123
300.114
300.107
300.101
300.096
300.091
300.087
300.369
300.368
300.366
300.364
300.36
300.353
300.344
300.331
300.317
300.301
300.284
300.266
300.247
300.228
300.21
300.191
300.175
300.162
300.151
300.14
300.13
300.121
300.112
300.105
300.098
300.092
300.087
300.082
300.078
300.075
300.235
300.239
300.243
300.248
300.25
300.25
300.247
300.24
300.232
300.223
300.213
300.201
300.189
300.175
300.16
300.144
300.131
300.12
300.11
300.101
300.093
300.086
300.079
300.073
300.068
300.063
300.059
300.056
300.053
300.05
300.217
300.21
300.205
300.2
300.196
300.193
300.189
300.185
300.182
300.178
300.174
300.17
300.165
300.161
300.156
300.15
300.145
300.139
300.131
300.121
300.11
300.101
300.093
300.088
300.083
300.081
300.078
300.077
300.085
300.094
300.22
300.212
300.205
300.2
300.195
300.19
300.186
300.181
300.177
300.173
300.168
300.164
300.159
300.153
300.148
300.142
300.137
300.131
300.124
300.116
300.107
300.099
300.092
300.087
300.083
300.08
300.078
300.077
300.081
300.091
300.224
300.215
300.208
300.202
300.196
300.19
300.185
300.18
300.175
300.17
300.165
300.159
300.154
300.148
300.142
300.136
300.131
300.125
300.119
300.112
300.104
300.097
300.091
300.086
300.083
300.08
300.078
300.077
300.079
300.087
300.228
300.22
300.213
300.206
300.199
300.193
300.187
300.181
300.175
300.169
300.163
300.156
300.15
300.143
300.137
300.13
300.125
300.12
300.115
300.108
300.101
300.095
300.09
300.086
300.082
300.08
300.078
300.077
300.078
300.084
300.234
300.227