/*--------------------------------*- C++ -*----------------------------------*\
  =========                 |
  \\      /  F ield         | OpenFOAM: The Open Source CFD Toolbox
   \\    /   O peration     | Website:  https://openfoam.org
    \\  /    A nd           | Version:  12
     \\/     M anipulation  |
\*---------------------------------------------------------------------------*/
FoamFile
{
    format      ascii;
    class       volScalarField;
    location    "1000/porous";
    object      rho;
}
// * * * * * * * * * * * * * * * * * * * * * * * * * * * * * * * * * * * * * //

dimensions      [1 -3 0 0 0 0 0];

internalField   nonuniform List<scalar> 
140000
(
933.891
933.891
933.891
933.891
933.891
933.891
933.891
933.891
933.892
933.898
934.186
934.41
934.609
934.796
934.975
935.148
935.318
935.484
935.647
935.809
935.968
936.126
936.282
936.437
936.59
936.742
936.892
937.041
937.188
937.333
937.477
937.619
937.76
937.898
938.035
938.169
938.302
938.434
938.565
938.694
938.823
938.951
939.078
939.204
939.329
939.453
939.575
939.696
939.815
939.932
940.048
940.162
940.274
940.385
940.492
940.598
940.701
940.801
940.897
940.965
940.569
940.316
940.121
939.959
939.819
939.696
939.586
939.486
939.394
939.314
933.891
933.891
933.891
933.891
933.891
933.891
933.891
933.891
933.891
933.896
934.116
934.294
934.453
934.604
934.748
934.889
935.027
935.163
935.297
935.43
935.562
935.692
935.822
935.951
936.079
936.206
936.332
936.458
936.583
936.707
936.83
936.952
937.074
937.194
937.314
937.433
937.551
937.668
937.785
937.902
938.018
938.134
938.25
938.365
938.48
938.594
938.706
938.818
938.929
939.039
939.148
939.256
939.362
939.467
939.57
939.671
939.77
939.867
939.961
940.037
939.799
939.644
939.521
939.417
939.326
939.243
939.168
939.098
939.034
938.976
933.891
933.891
933.891
933.891
933.891
933.891
933.891
933.891
933.891
933.895
934.098
934.258
934.4
934.532
934.658
934.78
934.898
935.014
935.128
935.241
935.352
935.462
935.57
935.678
935.785
935.891
935.997
936.101
936.205
936.309
936.411
936.514
936.615
936.716
936.816
936.916
937.015
937.114
937.212
937.311
937.41
937.508
937.607
937.705
937.804
937.901
937.998
938.095
938.191
938.286
938.38
938.474
938.567
938.658
938.748
938.837
938.924
939.01
939.092
939.163
938.973
938.854
938.763
938.688
938.624
938.567
938.515
938.468
938.425
938.386
933.891
933.891
933.891
933.891
933.891
933.891
933.891
933.891
933.891
933.895
934.093
934.249
934.385
934.512
934.631
934.746
934.857
934.965
935.07
935.174
935.275
935.376
935.474
935.572
935.668
935.764
935.858
935.952
936.045
936.137
936.228
936.318
936.408
936.497
936.585
936.673
936.76
936.846
936.933
937.019
937.105
937.192
937.278
937.364
937.45
937.535
937.62
937.705
937.788
937.871
937.954
938.035
938.116
938.195
938.274
938.351
938.427
938.5
938.572
938.633
938.455
938.343
938.258
938.189
938.13
938.079
938.033
937.991
937.953
937.919
933.891
933.891
933.891
933.891
933.891
933.891
933.891
933.891
933.891
933.895
934.092
934.246
934.382
934.507
934.624
934.737
934.845
934.95
935.053
935.153
935.251
935.348
935.443
935.536
935.628
935.719
935.809
935.898
935.986
936.073
936.159
936.244
936.328
936.411
936.494
936.575
936.656
936.737
936.817
936.897
936.977
937.057
937.136
937.216
937.295
937.374
937.452
937.529
937.606
937.682
937.757
937.831
937.905
937.977
938.048
938.117
938.185
938.252
938.315
938.37
938.195
938.083
937.998
937.929
937.869
937.817
937.77
937.728
937.689
937.655
933.891
933.891
933.891
933.891
933.891
933.891
933.891
933.891
933.891
933.895
934.092
934.247
934.382
934.507
934.624
934.736
934.844
934.949
935.05
935.15
935.247
935.342
935.436
935.528
935.618
935.708
935.796
935.883
935.969
936.053
936.137
936.22
936.302
936.382
936.462
936.541
936.619
936.697
936.774
936.851
936.928
937.005
937.082
937.158
937.234
937.309
937.384
937.458
937.531
937.604
937.675
937.746
937.815
937.884
937.951
938.016
938.08
938.142
938.202
938.253
938.078
937.966
937.881
937.81
937.749
937.696
937.648
937.604
937.564
937.528
933.891
933.891
933.891
933.891
933.891
933.891
933.891
933.891
933.891
933.895
934.092
934.247
934.383
934.507
934.625
934.737
934.845
934.95
935.051
935.15
935.247
935.342
935.436
935.527
935.617
935.706
935.794
935.88
935.965
936.049
936.132
936.214
936.295
936.375
936.453
936.531
936.608
936.684
936.76
936.836
936.912
936.988
937.063
937.138
937.213
937.286
937.36
937.432
937.504
937.575
937.644
937.713
937.781
937.848
937.913
937.976
938.038
938.098
938.156
938.204
938.03
937.917
937.831
937.76
937.699
937.644
937.596
937.551
937.51
937.474
933.891
933.891
933.891
933.891
933.891
933.891
933.891
933.891
933.891
933.895
934.093
934.248
934.384
934.509
934.626
934.739
934.847
934.952
935.054
935.153
935.25
935.345
935.438
935.53
935.62
935.709
935.796
935.882
935.967
936.051
936.134
936.215
936.296
936.375
936.453
936.53
936.607
936.682
936.758
936.833
936.909
936.984
937.059
937.133
937.207
937.28
937.353
937.425
937.496
937.566
937.635
937.703
937.77
937.836
937.9
937.963
938.023
938.082
938.138
938.186
938.012
937.899
937.813
937.741
937.679
937.625
937.575
937.531
937.489
937.452
933.891
933.891
933.891
933.891
933.891
933.891
933.891
933.891
933.891
933.895
934.093
934.248
934.384
934.509
934.627
934.74
934.849
934.954
935.056
935.155
935.252
935.348
935.441
935.533
935.623
935.712
935.799
935.886
935.971
936.054
936.137
936.218
936.298
936.377
936.455
936.532
936.608
936.684
936.759
936.834
936.91
936.985
937.06
937.134
937.208
937.281
937.353
937.425
937.495
937.565
937.634
937.702
937.769
937.834
937.897
937.96
938.02
938.078
938.134
938.181
938.007
937.894
937.807
937.736
937.674
937.619
937.569
937.524
937.483
937.445
933.891
933.891
933.891
933.891
933.891
933.891
933.891
933.891
933.891
933.895
934.093
934.249
934.385
934.51
934.628
934.741
934.85
934.955
935.058
935.157
935.255
935.35
935.444
935.536
935.626
935.715
935.802
935.889
935.974
936.058
936.14
936.221
936.302
936.38
936.458
936.535
936.611
936.686
936.761
936.837
936.912
936.987
937.062
937.136
937.21
937.283
937.355
937.427
937.497
937.567
937.636
937.704
937.77
937.835
937.899
937.961
938.021
938.079
938.134
938.18
938.006
937.893
937.807
937.735
937.673
937.618
937.568
937.523
937.481
937.444
933.891
933.891
933.891
933.891
933.891
933.891
933.891
933.891
933.891
933.895
934.093
934.249
934.385
934.51
934.629
934.742
934.851
934.956
935.059
935.159
935.256
935.352
935.446
935.538
935.628
935.717
935.805
935.891
935.976
936.06
936.143
936.224
936.304
936.383
936.46
936.537
936.612
936.688
936.763
936.839
936.914
936.989
937.064
937.139
937.212
937.285
937.357
937.429
937.5
937.569
937.638
937.706
937.772
937.837
937.901
937.963
938.023
938.08
938.135
938.182
938.008
937.895
937.808
937.736
937.674
937.619
937.569
937.524
937.482
937.445
933.891
933.891
933.891
933.891
933.891
933.891
933.891
933.891
933.891
933.895
934.093
934.249
934.385
934.51
934.629
934.742
934.852
934.957
935.06
935.16
935.258
935.353
935.447
935.539
935.63
935.719
935.807
935.893
935.978
936.062
936.145
936.226
936.306
936.384
936.462
936.538
936.614
936.689
936.764
936.84
936.916
936.991
937.066
937.14
937.214
937.287
937.359
937.431
937.502
937.571
937.64
937.708
937.774
937.84
937.903
937.965
938.025
938.082
938.137
938.183
938.009
937.896
937.81
937.738
937.675
937.62
937.571
937.525
937.484
937.446
933.891
933.891
933.891
933.891
933.891
933.891
933.891
933.891
933.891
933.895
934.093
934.248
934.385
934.51
934.629
934.742
934.852
934.957
935.06
935.16
935.258
935.354
935.448
935.54
935.631
935.72
935.808
935.894
935.979
936.063
936.146
936.227
936.306
936.385
936.462
936.538
936.614
936.689
936.765
936.841
936.916
936.992
937.067
937.141
937.215
937.288
937.36
937.432
937.503
937.573
937.642
937.709
937.776
937.841
937.905
937.966
938.026
938.084
938.138
938.184
938.01
937.897
937.811
937.739
937.676
937.621
937.572
937.526
937.485
937.447
933.891
933.891
933.891
933.891
933.891
933.891
933.891
933.891
933.891
933.895
934.093
934.248
934.384
934.51
934.629
934.742
934.852
934.957
935.06
935.161
935.259
935.355
935.449
935.541
935.631
935.721
935.808
935.895
935.98
936.064
936.146
936.227
936.306
936.384
936.462
936.538
936.614
936.689
936.765
936.841
936.916
936.992
937.067
937.141
937.215
937.288
937.361
937.432
937.503
937.573
937.642
937.71
937.776
937.842
937.905
937.967
938.027
938.084
938.139
938.185
938.011
937.898
937.811
937.739
937.677
937.622
937.572
937.527
937.485
937.447
933.891
933.891
933.891
933.891
933.891
933.891
933.891
933.891
933.891
933.895
934.093
934.248
934.384
934.509
934.628
934.742
934.851
934.957
935.06
935.16
935.258
935.354
935.448
935.541
935.631
935.721
935.808
935.895
935.98
936.063
936.145
936.226
936.305
936.383
936.46
936.537
936.612
936.688
936.764
936.84
936.915
936.991
937.066
937.14
937.214
937.288
937.36
937.432
937.503
937.573
937.642
937.71
937.776
937.841
937.905
937.967
938.027
938.084
938.139
938.184
938.011
937.898
937.811
937.739
937.677
937.622
937.572
937.527
937.485
937.448
933.891
933.891
933.891
933.891
933.891
933.891
933.891
933.891
933.891
933.895
934.092
934.247
934.383
934.509
934.627
934.741
934.85
934.956
935.059
935.16
935.258
935.354
935.448
935.54
935.631
935.72
935.808
935.894
935.979
936.062
936.144
936.225
936.304
936.381
936.458
936.535
936.611
936.686
936.762
936.838
936.914
936.989
937.064
937.139
937.213
937.286
937.359
937.43
937.501
937.571
937.641
937.709
937.775
937.841
937.904
937.966
938.026
938.083
938.138
938.184
938.01
937.897
937.811
937.739
937.677
937.621
937.572
937.527
937.485
937.447
933.891
933.891
933.891
933.891
933.891
933.891
933.891
933.891
933.891
933.895
934.092
934.247
934.383
934.508
934.626
934.74
934.85
934.956
935.059
935.159
935.257
935.353
935.447
935.539
935.63
935.719
935.807
935.893
935.978
936.061
936.142
936.222
936.301
936.379
936.456
936.533
936.609
936.684
936.76
936.836
936.912
936.987
937.062
937.137
937.211
937.284
937.357
937.428
937.5
937.57
937.639
937.707
937.774
937.839
937.903
937.965
938.025
938.082
938.137
938.183
938.009
937.896
937.81
937.738
937.676
937.621
937.571
937.526
937.484
937.447
933.891
933.891
933.891
933.891
933.891
933.891
933.891
933.891
933.891
933.895
934.091
934.245
934.381
934.507
934.625
934.739
934.848
934.954
935.058
935.158
935.256
935.352
935.446
935.538
935.629
935.718
935.805
935.891
935.976
936.059
936.14
936.22
936.298
936.376
936.454
936.531
936.607
936.682
936.758
936.833
936.909
936.985
937.06
937.134
937.208
937.282
937.354
937.426
937.497
937.568
937.637
937.705
937.772
937.838
937.901
937.963
938.023
938.081
938.136
938.181
938.008
937.895
937.808
937.737
937.675
937.62
937.57
937.525
937.484
937.446
933.891
933.891
933.891
933.891
933.891
933.891
933.891
933.891
933.891
933.895
934.091
934.245
934.38
934.505
934.624
934.738
934.847
934.953
935.056
935.157
935.255
935.351
935.445
935.537
935.628
935.717
935.804
935.89
935.974
936.057
936.138
936.217
936.295
936.374
936.452
936.529
936.606
936.681
936.756
936.831
936.907
936.982
937.057
937.132
937.206
937.279
937.352
937.424
937.495
937.565
937.635
937.703
937.77
937.836
937.9
937.962
938.022
938.079
938.134
938.18
938.006
937.894
937.807
937.735
937.673
937.618
937.569
937.524
937.483
937.445
933.891
933.891
933.891
933.891
933.891
933.891
933.891
933.891
933.891
933.895
934.091
934.245
934.38
934.505
934.623
934.737
934.846
934.952
935.055
935.156
935.254
935.35
935.444
935.536
935.627
935.715
935.802
935.888
935.972
936.054
936.135
936.214
936.293
936.372
936.451
936.528
936.605
936.68
936.755
936.83
936.905
936.98
937.055
937.13
937.204
937.277
937.35
937.422
937.493
937.563
937.633
937.701
937.768
937.834
937.898
937.96
938.02
938.078
938.133
938.178
938.005
937.892
937.806
937.734
937.672
937.617
937.568
937.523
937.482
937.444
933.891
933.891
933.891
933.891
933.891
933.891
933.891
933.891
933.891
933.895
934.09
934.243
934.378
934.503
934.622
934.735
934.845
934.951
935.054
935.155
935.253
935.349
935.443
935.535
935.626
935.714
935.801
935.886
935.97
936.052
936.133
936.213
936.292
936.372
936.45
936.528
936.605
936.681
936.755
936.83
936.905
936.979
937.054
937.128
937.202
937.276
937.348
937.42
937.491
937.562
937.631
937.7
937.767
937.832
937.897
937.959
938.019
938.077
938.131
938.177
938.003
937.891
937.805
937.733
937.671
937.616
937.567
937.522
937.48
937.443
933.891
933.891
933.891
933.891
933.891
933.891
933.891
933.891
933.891
933.895
934.09
934.243
934.378
934.502
934.621
934.734
934.844
934.95
935.053
935.154
935.252
935.348
935.443
935.535
935.625
935.713
935.8
935.885
935.969
936.051
936.132
936.212
936.292
936.372
936.45
936.528
936.605
936.681
936.756
936.83
936.905
936.979
937.054
937.128
937.201
937.275
937.347
937.419
937.49
937.56
937.63
937.698
937.765
937.831
937.895
937.958
938.018
938.076
938.13
938.176
938.002
937.89
937.803
937.732
937.67
937.615
937.566
937.521
937.479
937.442
933.891
933.891
933.891
933.891
933.891
933.891
933.891
933.891
933.891
933.895
934.089
934.242
934.377
934.501
934.62
934.733
934.843
934.949
935.052
935.153
935.252
935.348
935.442
935.534
935.624
935.713
935.8
935.885
935.968
936.05
936.131
936.212
936.292
936.372
936.451
936.529
936.606
936.682
936.757
936.831
936.905
936.979
937.053
937.127
937.201
937.274
937.346
937.418
937.489
937.559
937.629
937.697
937.764
937.83
937.894
937.957
938.017
938.075
938.13
938.176
938.002
937.889
937.803
937.731
937.669
937.614
937.565
937.52
937.479
937.441
933.891
933.891
933.891
933.891
933.891
933.891
933.891
933.891
933.891
933.895
934.089
934.241
934.376
934.5
934.619
934.732
934.842
934.948
935.051
935.152
935.251
935.347
935.441
935.534
935.624
935.712
935.799
935.884
935.968
936.05
936.131
936.212
936.292
936.372
936.451
936.529
936.607
936.683
936.758
936.832
936.905
936.979
937.053
937.127
937.2
937.273
937.346
937.417
937.488
937.559
937.628
937.696
937.764
937.829
937.894
937.956
938.017
938.075
938.13
938.176
938.002
937.889
937.803
937.731
937.669
937.614
937.565
937.52
937.478
937.441
933.891
933.891
933.891
933.891
933.891
933.891
933.891
933.891
933.891
933.895
934.089
934.241
934.376
934.5
934.618
934.732
934.841
934.947
935.051
935.152
935.25
935.347
935.441
935.533
935.624
935.713
935.799
935.884
935.968
936.05
936.132
936.212
936.293
936.373
936.452
936.53
936.607
936.683
936.758
936.832
936.906
936.979
937.053
937.127
937.2
937.273
937.345
937.417
937.488
937.558
937.627
937.696
937.763
937.829
937.893
937.956
938.016
938.074
938.129
938.175
938.001
937.889
937.802
937.731
937.669
937.614
937.564
937.519
937.478
937.441
933.891
933.891
933.891
933.891
933.891
933.891
933.891
933.891
933.891
933.895
934.088
934.24
934.374
934.499
934.617
934.73
934.84
934.946
935.05
935.151
935.25
935.346
935.441
935.533
935.624
935.712
935.799
935.885
935.968
936.051
936.132
936.213
936.293
936.373
936.452
936.53
936.607
936.683
936.758
936.832
936.906
936.979
937.053
937.126
937.199
937.272
937.344
937.416
937.487
937.557
937.626
937.695
937.762
937.828
937.893
937.956
938.016
938.075
938.13
938.177
938.002
937.89
937.803
937.731
937.669
937.614
937.565
937.52
937.479
937.441
933.891
933.891
933.891
933.891
933.891
933.891
933.891
933.891
933.891
933.895
934.088
934.24
934.374
934.498
934.616
934.73
934.839
934.946
935.049
935.151
935.249
935.346
935.44
935.533
935.624
935.713
935.8
935.885
935.969
936.051
936.132
936.213
936.294
936.373
936.452
936.531
936.608
936.684
936.758
936.832
936.906
936.979
937.053
937.126
937.199
937.271
937.344
937.415
937.486
937.557
937.626
937.694
937.762
937.828
937.892
937.955
938.016
938.075
938.13
938.177
938.003
937.89
937.804
937.732
937.67
937.615
937.566
937.521
937.479
937.442
933.891
933.891
933.891
933.891
933.891
933.891
933.891
933.891
933.891
933.895
934.088
934.24
934.374
934.498
934.616
934.729
934.839
934.945
935.049
935.15
935.249
935.346
935.44
935.533
935.624
935.713
935.8
935.886
935.97
936.052
936.133
936.214
936.294
936.374
936.452
936.53
936.607
936.683
936.758
936.831
936.905
936.979
937.052
937.125
937.198
937.271
937.343
937.415
937.486
937.556
937.626
937.694
937.762
937.828
937.893
937.956
938.017
938.076
938.132
938.179
938.004
937.891
937.805
937.733
937.671
937.616
937.567
937.522
937.48
937.443
933.891
933.891
933.891
933.891
933.891
933.891
933.891
933.891
933.891
933.895
934.088
934.239
934.373
934.497
934.615
934.729
934.838
934.945
935.048
935.15
935.248
935.345
935.44
935.533
935.624
935.713
935.801
935.886
935.97
936.053
936.134
936.214
936.294
936.373
936.452
936.53
936.607
936.682
936.757
936.83
936.904
936.978
937.052
937.125
937.198
937.271
937.343
937.415
937.486
937.556
937.625
937.694
937.762
937.828
937.893
937.956
938.018
938.077
938.133
938.181
938.006
937.893
937.806
937.734
937.672
937.617
937.568
937.523
937.482
937.444
933.891
933.891
933.891
933.891
933.891
933.891
933.891
933.891
933.891
933.895
934.087
934.239
934.373
934.497
934.615
934.728
934.838
934.944
935.048
935.149
935.248
935.345
935.44
935.533
935.624
935.713
935.801
935.887
935.971
936.054
936.134
936.214
936.294
936.373
936.452
936.529
936.606
936.681
936.755
936.829
936.904
936.978
937.052
937.125
937.198
937.271
937.343
937.415
937.486
937.556
937.626
937.694
937.762
937.829
937.894
937.957
938.019
938.078
938.135
938.182
938.007
937.894
937.808
937.736
937.674
937.619
937.57
937.525
937.483
937.446
933.891
933.891
933.891
933.891
933.891
933.891
933.891
933.891
933.891
933.895
934.087
934.239
934.373
934.497
934.615
934.728
934.837
934.944
935.048
935.149
935.248
935.344
935.439
935.532
935.624
935.713
935.801
935.887
935.972
936.054
936.135
936.215
936.294
936.373
936.451
936.529
936.605
936.68
936.754
936.828
936.903
936.978
937.052
937.126
937.199
937.272
937.344
937.415
937.486
937.557
937.627
937.695
937.763
937.83
937.895
937.959
938.021
938.081
938.138
938.186
938.011
937.897
937.81
937.738
937.676
937.621
937.572
937.527
937.485
937.448
933.891
933.891
933.891
933.891
933.891
933.891
933.891
933.891
933.891
933.895
934.087
934.239
934.372
934.496
934.614
934.727
934.837
934.943
935.047
935.148
935.247
935.344
935.439
935.532
935.623
935.713
935.801
935.887
935.972
936.055
936.136
936.215
936.294
936.373
936.451
936.528
936.604
936.679
936.753
936.829
936.904
936.979
937.053
937.127
937.2
937.273
937.345
937.417
937.488
937.558
937.628
937.697
937.764
937.831
937.897
937.961
938.023
938.082
938.14
938.189
938.013
937.9
937.813
937.741
937.678
937.623
937.574
937.529
937.487
937.45
933.891
933.891
933.891
933.891
933.891
933.891
933.891
933.891
933.891
933.895
934.087
934.239
934.372
934.496
934.614
934.727
934.836
934.943
935.046
935.148
935.246
935.343
935.438
935.531
935.623
935.712
935.801
935.887
935.972
936.055
936.136
936.216
936.295
936.373
936.451
936.528
936.603
936.679
936.754
936.829
936.905
936.98
937.054
937.128
937.202
937.274
937.347
937.418
937.489
937.56
937.629
937.698
937.766
937.833
937.898
937.963
938.025
938.086
938.143
938.191
938.016
937.902
937.815
937.743
937.681
937.625
937.576
937.53
937.489
937.451
933.891
933.891
933.891
933.891
933.891
933.891
933.891
933.891
933.891
933.895
934.087
934.239
934.372
934.496
934.613
934.726
934.836
934.942
935.046
935.147
935.246
935.342
935.437
935.531
935.622
935.712
935.8
935.887
935.972
936.055
936.136
936.216
936.295
936.373
936.45
936.527
936.603
936.679
936.755
936.83
936.906
936.981
937.056
937.13
937.203
937.276
937.348
937.42
937.491
937.561
937.631
937.7
937.768
937.835
937.901
937.965
938.027
938.088
938.146
938.195
938.019
937.905
937.818
937.745
937.683
937.627
937.578
937.532
937.491
937.453
933.891
933.891
933.891
933.891
933.891
933.891
933.891
933.891
933.891
933.895
934.087
934.238
934.372
934.495
934.613
934.726
934.835
934.941
935.045
935.146
935.245
935.341
935.436
935.53
935.621
935.711
935.799
935.886
935.971
936.054
936.136
936.216
936.295
936.373
936.45
936.527
936.603
936.679
936.755
936.831
936.907
936.982
937.057
937.131
937.205
937.277
937.35
937.421
937.492
937.563
937.632
937.701
937.769
937.836
937.902
937.966
938.029
938.09
938.148
938.197
938.021
937.907
937.819
937.747
937.684
937.629
937.579
937.534
937.492
937.454
933.891
933.891
933.891
933.891
933.891
933.891
933.891
933.891
933.891
933.895
934.087
934.238
934.371
934.495
934.612
934.725
934.834
934.94
935.044
935.145
935.243
935.34
935.435
935.528
935.62
935.71
935.798
935.885
935.97
936.053
936.135
936.215
936.294
936.372
936.449
936.526
936.603
936.679
936.755
936.832
936.908
936.983
937.058
937.132
937.205
937.278
937.35
937.422
937.493
937.563
937.633
937.702
937.77
937.837
937.903
937.968
938.03
938.092
938.15
938.2
938.023
937.908
937.821
937.748
937.685
937.63
937.58
937.535
937.493
937.455
933.891
933.891
933.891
933.891
933.891
933.891
933.891
933.891
933.891
933.895
934.087
934.238
934.371
934.494
934.612
934.724
934.833
934.939
935.043
935.144
935.242
935.339
935.434
935.527
935.618
935.708
935.796
935.883
935.968
936.052
936.134
936.214
936.292
936.37
936.448
936.525
936.602
936.679
936.755
936.832
936.907
936.983
937.058
937.132
937.205
937.278
937.35
937.422
937.493
937.563
937.633
937.702
937.77
937.837
937.903
937.968
938.031
938.092
938.151
938.202
938.024
937.91
937.822
937.749
937.686
937.631
937.581
937.535
937.493
937.455
933.891
933.891
933.891
933.891
933.891
933.891
933.891
933.891
933.891
933.895
934.087
934.238
934.371
934.494
934.611
934.723
934.832
934.938
935.041
935.142
935.241
935.337
935.432
935.525
935.616
935.706
935.794
935.881
935.966
936.05
936.131
936.212
936.291
936.369
936.446
936.523
936.601
936.678
936.754
936.831
936.907
936.982
937.057
937.131
937.204
937.277
937.35
937.421
937.492
937.563
937.632
937.701
937.77
937.837
937.903
937.968
938.031
938.093
938.151
938.202
938.024
937.91
937.822
937.749
937.686
937.63
937.58
937.535
937.493
937.455
933.891
933.891
933.891
933.891
933.891
933.891
933.891
933.891
933.891
933.895
934.087
934.238
934.37
934.493
934.61
934.722
934.831
934.937
935.04
935.141
935.239
935.336
935.43
935.523
935.614
935.704
935.792
935.879
935.964
936.047
936.129
936.209
936.288
936.366
936.444
936.522
936.599
936.676
936.753
936.829
936.905
936.981
937.056
937.13
937.203
937.276
937.348
937.42
937.491
937.561
937.631
937.7
937.768
937.836
937.902
937.967
938.03
938.092
938.151
938.202
938.024
937.909
937.821
937.748
937.686
937.63
937.58
937.534
937.492
937.454
933.891
933.891
933.891
933.891
933.891
933.891
933.891
933.891
933.891
933.895
934.087
934.237
934.37
934.493
934.609
934.721
934.83
934.935
935.038
935.139
935.237
935.333
935.428
935.521
935.612
935.702
935.79
935.876
935.961
936.045
936.126
936.206
936.285
936.364
936.442
936.519
936.597
936.674
936.751
936.828
936.903
936.979
937.053
937.128
937.201
937.274
937.346
937.418
937.489
937.559
937.629
937.698
937.766
937.834
937.9
937.965
938.029
938.091
938.15
938.201
938.023
937.908
937.82
937.747
937.684
937.629
937.579
937.533
937.491
937.453
933.891
933.891
933.891
933.891
933.891
933.891
933.891
933.891
933.891
933.895
934.086
934.237
934.369
934.492
934.609
934.72
934.829
934.934
935.037
935.137
935.235
935.331
935.426
935.518
935.61
935.699
935.787
935.874
935.958
936.042
936.123
936.203
936.283
936.361
936.439
936.517
936.595
936.672
936.749
936.825
936.901
936.976
937.051
937.125
937.199
937.271
937.344
937.415
937.486
937.557
937.626
937.696
937.764
937.831
937.898
937.963
938.027
938.089
938.149
938.2
938.022
937.907
937.819
937.746
937.683
937.628
937.578
937.532
937.49
937.452
933.891
933.891
933.891
933.891
933.891
933.891
933.891
933.891
933.891
933.895
934.086
934.237
934.369
934.491
934.607
934.719
934.827
934.932
935.035
935.135
935.233
935.329
935.423
935.516
935.607
935.696
935.784
935.87
935.955
936.038
936.12
936.2
936.28
936.358
936.437
936.515
936.592
936.67
936.747
936.823
936.899
936.974
937.049
937.123
937.196
937.269
937.342
937.413
937.484
937.555
937.625
937.694
937.762
937.83
937.897
937.962
938.027
938.089
938.149
938.201
938.023
937.908
937.82
937.747
937.684
937.629
937.579
937.533
937.491
937.454
933.891
933.891
933.891
933.891
933.891
933.891
933.891
933.891
933.891
933.895
934.086
934.236
934.368
934.491
934.607
934.718
934.826
934.931
935.033
935.133
935.231
935.327
935.421
935.513
935.604
935.694
935.781
935.868
935.953
936.036
936.117
936.198
936.277
936.356
936.435
936.513
936.591
936.669
936.746
936.822
936.898
936.974
937.049
937.123
937.196
937.269
937.342
937.414
937.485
937.556
937.626
937.695
937.764
937.832
937.899
937.965
938.03
938.093
938.154
938.206
938.028
937.913
937.825
937.753
937.69
937.635
937.585
937.54
937.498
937.461
933.891
933.891
933.891
933.891
933.891
933.891
933.891
933.891
933.891
933.895
934.085
934.236
934.368
934.49
934.606
934.717
934.825
934.929
935.031
935.131
935.229
935.325
935.419
935.512
935.602
935.692
935.78
935.866
935.951
936.035
936.117
936.197
936.278
936.357
936.436
936.515
936.593
936.671
936.749
936.826
936.902
936.978
937.053
937.128
937.202
937.276
937.349
937.421
937.493
937.565
937.636
937.706
937.775
937.844
937.912
937.979
938.045
938.109
938.171
938.224
938.046
937.931
937.844
937.772
937.709
937.654
937.605
937.56
937.519
937.482
933.891
933.891
933.891
933.891
933.891
933.891
933.891
933.891
933.891
933.895
934.086
934.236
934.368
934.49
934.606
934.717
934.825
934.929
935.032
935.131
935.229
935.326
935.42
935.513
935.605
935.694
935.783
935.87
935.956
936.04
936.123
936.205
936.286
936.366
936.446
936.526
936.606
936.685
936.763
936.842
936.919
936.996
937.073
937.149
937.224
937.299
937.374
937.448
937.521
937.594
937.667
937.739
937.81
937.88
937.95
938.019
938.087
938.153
938.217
938.273
938.094
937.98
937.893
937.821
937.76
937.706
937.657
937.613
937.573
937.537
933.891
933.891
933.891
933.891
933.891
933.891
933.891
933.891
933.891
933.895
934.085
934.236
934.368
934.491
934.607
934.719
934.827
934.933
935.036
935.137
935.236
935.333
935.429
935.523
935.616
935.708
935.798
935.887
935.975
936.061
936.146
936.23
936.314
936.397
936.48
936.562
936.644
936.726
936.807
936.888
936.969
937.049
937.129
937.208
937.286
937.365
937.442
937.52
937.596
937.673
937.749
937.824
937.899
937.973
938.047
938.12
938.192
938.262
938.33
938.389
938.21
938.097
938.011
937.94
937.88
937.827
937.78
937.737
937.698
937.663
933.891
933.891
933.891
933.891
933.891
933.891
933.891
933.891
933.891
933.895
934.087
934.239
934.372
934.497
934.615
934.729
934.84
934.949
935.055
935.159
935.262
935.363
935.463
935.561
935.658
935.754
935.849
935.943
936.036
936.127
936.217
936.307
936.396
936.485
936.574
936.662
936.75
936.838
936.925
937.012
937.099
937.186
937.272
937.357
937.443
937.528
937.612
937.696
937.78
937.863
937.946
938.029
938.111
938.192
938.273
938.353
938.433
938.51
938.586
938.652
938.47
938.356
938.27
938.2
938.141
938.089
938.042
938
937.962
937.927
933.891
933.891
933.891
933.891
933.891
933.891
933.891
933.891
933.891
933.895
934.092
934.248
934.388
934.518
934.643
934.765
934.883
935
935.115
935.228
935.34
935.451
935.561
935.669
935.777
935.884
935.99
936.095
936.199
936.301
936.403
936.505
936.606
936.706
936.807
936.907
937.007
937.107
937.207
937.306
937.405
937.504
937.602
937.7
937.797
937.894
937.991
938.087
938.183
938.278
938.373
938.468
938.562
938.655
938.747
938.839
938.93
939.019
939.106
939.182
938.988
938.867
938.775
938.7
938.635
938.577
938.525
938.477
938.434
938.395
933.891
933.891
933.891
933.891
933.891
933.891
933.891
933.891
933.891
933.896
934.11
934.285
934.442
934.591
934.735
934.876
935.014
935.15
935.286
935.419
935.552
935.684
935.815
935.945
936.074
936.202
936.329
936.454
936.579
936.702
936.825
936.946
937.067
937.187
937.307
937.427
937.546
937.664
937.782
937.899
938.016
938.132
938.247
938.361
938.475
938.588
938.7
938.811
938.922
939.031
939.14
939.249
939.356
939.463
939.568
939.673
939.776
939.876
939.975
940.057
939.815
939.658
939.534
939.429
939.337
939.254
939.178
939.108
939.043
938.985
933.891
933.891
933.891
933.891
933.891
933.891
933.891
933.891
933.892
933.898
934.181
934.402
934.599
934.784
934.962
935.135
935.305
935.472
935.637
935.8
935.961
936.12
936.278
936.434
936.589
936.742
936.892
937.041
937.188
937.332
937.475
937.615
937.755
937.892
938.029
938.164
938.299
938.432
938.563
938.693
938.822
938.95
939.076
939.201
939.324
939.446
939.567
939.687
939.805
939.922
940.039
940.154
940.267
940.38
940.491
940.601
940.708
940.813
940.913
940.986
940.586
940.331
940.134
939.971
939.831
939.707
939.596
939.495
939.403
939.323
933.891
933.891
933.891
933.891
933.891
933.891
933.891
933.891
933.891
933.896
934.114
934.318
934.509
934.692
934.869
935.041
935.21
935.375
935.539
935.701
935.861
936.019
936.176
936.331
936.485
936.638
936.789
936.938
937.086
937.232
937.377
937.52
937.661
937.8
937.937
938.073
938.207
938.339
938.47
938.6
938.729
938.858
938.985
939.112
939.237
939.361
939.484
939.605
939.724
939.842
939.959
940.073
940.186
940.298
940.406
940.512
940.616
940.717
940.814
940.887
940.561
940.32
940.128
939.966
939.827
939.704
939.593
939.493
939.401
939.32
933.891
933.891
933.891
933.891
933.891
933.891
933.891
933.891
933.891
933.894
934.049
934.204
934.352
934.496
934.636
934.774
934.909
935.043
935.176
935.307
935.438
935.567
935.696
935.824
935.952
936.078
936.204
936.329
936.454
936.578
936.701
936.823
936.945
937.065
937.185
937.304
937.422
937.54
937.657
937.773
937.89
938.006
938.121
938.237
938.351
938.465
938.579
938.691
938.802
938.912
939.022
939.13
939.237
939.342
939.446
939.548
939.648
939.746
939.841
939.923
939.756
939.619
939.505
939.406
939.318
939.238
939.164
939.096
939.033
938.975
933.891
933.891
933.891
933.891
933.891
933.891
933.891
933.891
933.891
933.894
934.034
934.171
934.302
934.427
934.549
934.668
934.784
934.898
935.01
935.121
935.231
935.339
935.447
935.554
935.66
935.765
935.87
935.974
936.077
936.18
936.282
936.384
936.485
936.585
936.685
936.785
936.884
936.982
937.08
937.178
937.277
937.375
937.473
937.571
937.669
937.766
937.863
937.96
938.056
938.151
938.245
938.339
938.432
938.524
938.614
938.704
938.791
938.878
938.961
939.037
938.913
938.813
938.731
938.661
938.6
938.545
938.496
938.45
938.409
938.371