/*--------------------------------*- C++ -*----------------------------------*\
  =========                 |
  \\      /  F ield         | OpenFOAM: The Open Source CFD Toolbox
   \\    /   O peration     | Website:  https://openfoam.org
    \\  /    A nd           | Version:  12
     \\/     M anipulation  |
\*---------------------------------------------------------------------------*/
FoamFile
{
    format      ascii;
    class       volScalarField;
    location    "1000/porous";
    object      T;
}
// * * * * * * * * * * * * * * * * * * * * * * * * * * * * * * * * * * * * * //

dimensions      [0 0 0 1 0 0 0];

internalField   nonuniform List<scalar> 
140000
(
400
400
400
400
400
400
400
400
400
399.992
399.684
399.443
399.229
399.028
398.835
398.648
398.465
398.285
398.108
397.933
397.76
397.589
397.419
397.251
397.084
396.918
396.754
396.592
396.431
396.272
396.115
395.959
395.805
395.653
395.503
395.355
395.209
395.063
394.92
394.777
394.634
394.493
394.352
394.213
394.074
393.937
393.802
393.668
393.536
393.405
393.276
393.149
393.024
392.9
392.78
392.662
392.547
392.435
392.328
392.252
392.695
392.977
393.195
393.375
393.53
393.667
393.79
393.901
394.002
394.091
400
400
400
400
400
400
400
400
400
399.995
399.759
399.568
399.397
399.235
399.079
398.927
398.778
398.632
398.487
398.343
398.201
398.059
397.919
397.779
397.64
397.502
397.365
397.228
397.092
396.957
396.823
396.689
396.556
396.424
396.293
396.163
396.034
395.905
395.777
395.649
395.521
395.394
395.266
395.14
395.013
394.888
394.763
394.64
394.517
394.396
394.275
394.156
394.038
393.922
393.808
393.696
393.585
393.478
393.373
393.288
393.552
393.725
393.861
393.977
394.078
394.17
394.253
394.33
394.402
394.466
400
400
400
400
400
400
400
400
400
399.996
399.779
399.607
399.454
399.312
399.176
399.045
398.917
398.792
398.669
398.548
398.428
398.309
398.191
398.075
397.959
397.844
397.729
397.616
397.503
397.39
397.278
397.167
397.057
396.947
396.837
396.729
396.62
396.512
396.405
396.297
396.189
396.081
395.973
395.865
395.757
395.65
395.543
395.437
395.332
395.227
395.123
395.02
394.918
394.817
394.717
394.619
394.523
394.428
394.338
394.258
394.468
394.6
394.701
394.783
394.854
394.917
394.974
395.026
395.074
395.117
400
400
400
400
400
400
400
400
400
399.996
399.784
399.617
399.47
399.334
399.205
399.082
398.962
398.846
398.732
398.62
398.51
398.402
398.295
398.19
398.085
397.982
397.879
397.778
397.677
397.577
397.478
397.38
397.282
397.185
397.089
396.994
396.899
396.804
396.71
396.616
396.522
396.427
396.333
396.239
396.145
396.051
395.958
395.866
395.774
395.683
395.592
395.503
395.414
395.326
395.24
395.155
395.072
394.991
394.912
394.844
395.041
395.164
395.257
395.333
395.398
395.455
395.506
395.552
395.593
395.631
400
400
400
400
400
400
400
400
400
399.996
399.785
399.619
399.473
399.339
399.213
399.092
398.975
398.861
398.751
398.642
398.536
398.432
398.329
398.228
398.129
398.03
397.933
397.836
397.741
397.647
397.553
397.461
397.369
397.279
397.189
397.1
397.012
396.924
396.837
396.75
396.662
396.575
396.488
396.401
396.314
396.228
396.143
396.058
395.974
395.891
395.808
395.727
395.646
395.567
395.489
395.412
395.338
395.264
395.194
395.134
395.327
395.45
395.543
395.62
395.685
395.743
395.794
395.84
395.882
395.921
400
400
400
400
400
400
400
400
400
399.996
399.784
399.619
399.473
399.339
399.213
399.092
398.976
398.863
398.753
398.646
398.541
398.438
398.337
398.238
398.14
398.043
397.947
397.853
397.76
397.668
397.577
397.487
397.398
397.31
397.223
397.137
397.052
396.968
396.884
396.8
396.715
396.631
396.548
396.464
396.381
396.299
396.217
396.136
396.056
395.976
395.898
395.82
395.744
395.669
395.595
395.523
395.453
395.385
395.319
395.263
395.455
395.578
395.672
395.75
395.817
395.875
395.928
395.976
396.02
396.059
400
400
400
400
400
400
400
400
400
399.996
399.784
399.618
399.473
399.339
399.212
399.091
398.975
398.862
398.752
398.645
398.541
398.438
398.337
398.238
398.14
398.044
397.949
397.856
397.763
397.672
397.582
397.493
397.405
397.318
397.233
397.148
397.065
396.981
396.899
396.816
396.733
396.65
396.568
396.486
396.405
396.324
396.244
396.164
396.086
396.008
395.932
395.856
395.782
395.709
395.637
395.567
395.499
395.434
395.37
395.317
395.509
395.632
395.727
395.805
395.872
395.932
395.985
396.034
396.079
396.119
400
400
400
400
400
400
400
400
400
399.996
399.784
399.618
399.472
399.337
399.21
399.089
398.973
398.86
398.75
398.643
398.538
398.435
398.334
398.235
398.137
398.041
397.947
397.853
397.761
397.67
397.58
397.492
397.404
397.318
397.233
397.149
397.066
396.984
396.901
396.819
396.737
396.654
396.573
396.491
396.41
396.33
396.251
396.172
396.095
396.018
395.942
395.867
395.794
395.722
395.651
395.582
395.516
395.451
395.389
395.337
395.528
395.652
395.747
395.825
395.893
395.953
396.007
396.056
396.102
396.142
400
400
400
400
400
400
400
400
400
399.996
399.783
399.617
399.471
399.336
399.209
399.088
398.971
398.858
398.748
398.64
398.535
398.432
398.331
398.232
398.134
398.038
397.943
397.85
397.758
397.667
397.577
397.489
397.401
397.315
397.231
397.147
397.064
396.982
396.9
396.818
396.736
396.654
396.572
396.491
396.41
396.33
396.251
396.173
396.095
396.019
395.943
395.869
395.796
395.724
395.654
395.586
395.519
395.456
395.394
395.343
395.534
395.658
395.753
395.832
395.9
395.96
396.014
396.064
396.109
396.15
400
400
400
400
400
400
400
400
400
399.996
399.784
399.617
399.47
399.336
399.208
399.087
398.97
398.856
398.746
398.638
398.533
398.43
398.328
398.229
398.131
398.035
397.94
397.846
397.754
397.663
397.573
397.485
397.398
397.312
397.228
397.144
397.062
396.98
396.897
396.815
396.733
396.651
396.569
396.488
396.407
396.328
396.249
396.17
396.093
396.016
395.941
395.867
395.794
395.722
395.653
395.585
395.519
395.455
395.394
395.343
395.535
395.658
395.754
395.832
395.901
395.961
396.015
396.065
396.11
396.152
400
400
400
400
400
400
400
400
400
399.996
399.783
399.617
399.47
399.335
399.208
399.086
398.969
398.855
398.744
398.636
398.531
398.428
398.326
398.227
398.129
398.032
397.937
397.844
397.751
397.66
397.571
397.482
397.395
397.31
397.225
397.142
397.06
396.978
396.895
396.813
396.731
396.649
396.567
396.486
396.405
396.325
396.246
396.168
396.09
396.014
395.938
395.864
395.791
395.72
395.65
395.582
395.516
395.453
395.393
395.342
395.533
395.657
395.752
395.831
395.899
395.96
396.014
396.064
396.109
396.151
400
400
400
400
400
400
400
400
400
399.996
399.783
399.616
399.47
399.335
399.207
399.086
398.968
398.854
398.743
398.635
398.53
398.426
398.325
398.225
398.127
398.03
397.935
397.842
397.749
397.658
397.569
397.48
397.394
397.308
397.224
397.141
397.058
396.976
396.894
396.811
396.729
396.647
396.565
396.484
396.403
396.323
396.244
396.166
396.088
396.012
395.936
395.862
395.789
395.718
395.648
395.58
395.514
395.451
395.391
395.34
395.531
395.655
395.75
395.829
395.898
395.958
396.013
396.062
396.108
396.149
400
400
400
400
400
400
400
400
400
399.996
399.784
399.617
399.47
399.335
399.208
399.085
398.968
398.854
398.743
398.635
398.529
398.425
398.324
398.224
398.126
398.029
397.934
397.84
397.748
397.657
397.567
397.479
397.393
397.308
397.224
397.14
397.058
396.976
396.893
396.811
396.728
396.646
396.564
396.483
396.402
396.322
396.243
396.164
396.087
396.01
395.935
395.861
395.788
395.716
395.646
395.579
395.513
395.45
395.389
395.339
395.53
395.654
395.749
395.828
395.897
395.957
396.012
396.061
396.107
396.148
400
400
400
400
400
400
400
400
400
399.996
399.783
399.617
399.471
399.336
399.208
399.086
398.968
398.854
398.743
398.634
398.528
398.425
398.323
398.223
398.125
398.029
397.933
397.84
397.747
397.656
397.567
397.479
397.393
397.308
397.224
397.141
397.058
396.976
396.894
396.811
396.728
396.646
396.564
396.482
396.402
396.322
396.243
396.164
396.087
396.01
395.934
395.86
395.787
395.715
395.646
395.578
395.512
395.449
395.389
395.338
395.53
395.654
395.749
395.828
395.896
395.956
396.011
396.061
396.106
396.148
400
400
400
400
400
400
400
400
400
399.996
399.784
399.618
399.471
399.336
399.209
399.086
398.968
398.854
398.743
398.635
398.529
398.425
398.323
398.223
398.125
398.029
397.934
397.84
397.748
397.657
397.568
397.48
397.394
397.309
397.225
397.142
397.06
396.977
396.895
396.812
396.729
396.647
396.565
396.483
396.403
396.323
396.243
396.165
396.087
396.01
395.935
395.86
395.787
395.715
395.646
395.578
395.512
395.449
395.389
395.339
395.53
395.654
395.749
395.828
395.896
395.956
396.011
396.06
396.106
396.147
400
400
400
400
400
400
400
400
400
399.996
399.784
399.618
399.472
399.337
399.209
399.087
398.969
398.855
398.744
398.635
398.529
398.425
398.324
398.224
398.126
398.029
397.934
397.841
397.749
397.658
397.569
397.482
397.396
397.311
397.227
397.144
397.061
396.979
396.896
396.814
396.731
396.649
396.566
396.485
396.404
396.324
396.245
396.166
396.088
396.012
395.936
395.861
395.788
395.716
395.646
395.579
395.513
395.45
395.39
395.339
395.531
395.654
395.749
395.828
395.896
395.957
396.011
396.061
396.106
396.148
400
400
400
400
400
400
400
400
400
399.996
399.784
399.618
399.473
399.338
399.21
399.088
398.97
398.856
398.744
398.636
398.53
398.426
398.325
398.225
398.127
398.03
397.935
397.842
397.75
397.66
397.571
397.484
397.398
397.314
397.23
397.146
397.064
396.981
396.899
396.816
396.733
396.651
396.569
396.487
396.407
396.326
396.247
396.168
396.091
396.014
395.938
395.863
395.79
395.718
395.648
395.58
395.514
395.451
395.391
395.34
395.532
395.655
395.75
395.829
395.897
395.958
396.012
396.062
396.107
396.148
400
400
400
400
400
400
400
400
400
399.996
399.786
399.62
399.474
399.339
399.212
399.089
398.971
398.857
398.746
398.637
398.531
398.427
398.326
398.226
398.128
398.032
397.937
397.844
397.752
397.662
397.573
397.487
397.402
397.317
397.232
397.149
397.066
396.984
396.901
396.819
396.736
396.654
396.572
396.49
396.409
396.329
396.25
396.171
396.093
396.016
395.94
395.865
395.792
395.72
395.65
395.582
395.516
395.452
395.392
395.342
395.533
395.657
395.752
395.831
395.899
395.959
396.013
396.063
396.108
396.149
400
400
400
400
400
400
400
400
400
399.996
399.786
399.62
399.475
399.341
399.213
399.09
398.973
398.858
398.747
398.638
398.532
398.428
398.327
398.227
398.129
398.033
397.938
397.845
397.754
397.664
397.576
397.49
397.405
397.32
397.235
397.15
397.067
396.985
396.903
396.821
396.739
396.656
396.574
396.493
396.412
396.332
396.252
396.173
396.095
396.018
395.942
395.867
395.794
395.722
395.652
395.583
395.517
395.454
395.394
395.344
395.535
395.658
395.753
395.832
395.9
395.96
396.014
396.064
396.109
396.15
400
400
400
400
400
400
400
400
400
399.996
399.786
399.621
399.476
399.341
399.214
399.092
398.974
398.859
398.748
398.639
398.533
398.429
398.328
398.228
398.13
398.034
397.94
397.847
397.756
397.667
397.579
397.493
397.407
397.321
397.236
397.151
397.068
396.986
396.904
396.823
396.74
396.658
396.576
396.495
396.414
396.334
396.254
396.176
396.098
396.02
395.944
395.87
395.796
395.724
395.653
395.585
395.519
395.456
395.396
395.345
395.536
395.66
395.755
395.833
395.901
395.961
396.016
396.065
396.11
396.151
400
400
400
400
400
400
400
400
400
399.996
399.787
399.623
399.478
399.343
399.216
399.093
398.975
398.861
398.749
398.641
398.534
398.431
398.329
398.229
398.132
398.036
397.941
397.849
397.758
397.669
397.581
397.495
397.408
397.322
397.236
397.151
397.068
396.985
396.904
396.823
396.741
396.659
396.578
396.496
396.416
396.336
396.256
396.177
396.099
396.022
395.946
395.871
395.798
395.725
395.655
395.587
395.521
395.457
395.397
395.347
395.538
395.661
395.756
395.835
395.903
395.963
396.017
396.066
396.111
396.152
400
400
400
400
400
400
400
400
400
399.996
399.787
399.623
399.478
399.344
399.217
399.094
398.976
398.862
398.75
398.642
398.535
398.431
398.33
398.23
398.132
398.036
397.942
397.85
397.759
397.67
397.583
397.495
397.408
397.322
397.236
397.151
397.067
396.985
396.903
396.822
396.741
396.66
396.578
396.497
396.417
396.337
396.257
396.179
396.101
396.024
395.948
395.873
395.799
395.727
395.656
395.588
395.522
395.458
395.398
395.348
395.539
395.662
395.757
395.836
395.904
395.964
396.018
396.067
396.113
396.153
400
400
400
400
400
400
400
400
400
399.996
399.788
399.624
399.479
399.345
399.218
399.095
398.977
398.863
398.751
398.643
398.536
398.432
398.33
398.231
398.133
398.037
397.943
397.851
397.76
397.671
397.583
397.496
397.408
397.322
397.236
397.151
397.067
396.984
396.902
396.821
396.741
396.66
396.579
396.498
396.418
396.338
396.258
396.18
396.102
396.025
395.949
395.874
395.8
395.728
395.657
395.589
395.523
395.459
395.399
395.348
395.539
395.663
395.758
395.836
395.904
395.965
396.019
396.068
396.113
396.154
400
400
400
400
400
400
400
400
400
399.996
399.788
399.625
399.48
399.346
399.219
399.097
398.979
398.864
398.752
398.643
398.537
398.433
398.331
398.231
398.133
398.037
397.943
397.851
397.761
397.671
397.583
397.495
397.408
397.321
397.235
397.15
397.066
396.983
396.901
396.821
396.74
396.659
396.579
396.498
396.418
396.338
396.259
396.181
396.103
396.026
395.95
395.875
395.801
395.729
395.658
395.589
395.523
395.459
395.399
395.348
395.54
395.663
395.758
395.837
395.905
395.965
396.019
396.068
396.114
396.155
400
400
400
400
400
400
400
400
400
399.996
399.788
399.625
399.48
399.346
399.219
399.097
398.979
398.864
398.753
398.644
398.537
398.433
398.331
398.231
398.133
398.037
397.943
397.851
397.76
397.671
397.583
397.495
397.407
397.321
397.235
397.149
397.065
396.982
396.901
396.82
396.74
396.659
396.579
396.499
396.419
396.339
396.26
396.181
396.104
396.027
395.951
395.876
395.802
395.729
395.659
395.59
395.524
395.46
395.399
395.349
395.54
395.664
395.758
395.837
395.905
395.965
396.019
396.069
396.114
396.155
400
400
400
400
400
400
400
400
400
399.996
399.789
399.626
399.482
399.348
399.221
399.099
398.98
398.866
398.754
398.645
398.538
398.434
398.332
398.232
398.134
398.037
397.943
397.851
397.76
397.671
397.582
397.494
397.407
397.32
397.234
397.149
397.065
396.982
396.901
396.82
396.74
396.659
396.579
396.499
396.419
396.34
396.261
396.182
396.104
396.027
395.951
395.876
395.803
395.73
395.659
395.59
395.523
395.459
395.398
395.347
395.539
395.663
395.758
395.836
395.904
395.965
396.019
396.068
396.113
396.154
400
400
400
400
400
400
400
400
400
399.996
399.789
399.626
399.482
399.348
399.221
399.099
398.981
398.866
398.754
398.645
398.539
398.434
398.332
398.232
398.134
398.037
397.943
397.85
397.759
397.67
397.582
397.494
397.407
397.32
397.234
397.149
397.065
396.982
396.901
396.82
396.74
396.66
396.579
396.499
396.42
396.34
396.261
396.183
396.105
396.028
395.952
395.877
395.803
395.73
395.66
395.59
395.524
395.459
395.398
395.347
395.538
395.662
395.757
395.836
395.904
395.964
396.018
396.067
396.113
396.154
400
400
400
400
400
400
400
400
400
399.996
399.789
399.626
399.482
399.349
399.222
399.1
398.982
398.867
398.755
398.646
398.539
398.435
398.332
398.232
398.133
398.037
397.942
397.85
397.759
397.669
397.581
397.494
397.406
397.32
397.234
397.149
397.065
396.983
396.901
396.821
396.74
396.66
396.58
396.5
396.42
396.341
396.262
396.183
396.105
396.028
395.952
395.877
395.803
395.73
395.659
395.59
395.523
395.458
395.396
395.345
395.537
395.661
395.756
395.835
395.903
395.963
396.017
396.066
396.112
396.152
400
400
400
400
400
400
400
400
400
399.996
399.79
399.627
399.483
399.349
399.222
399.1
398.982
398.867
398.755
398.646
398.54
398.435
398.332
398.232
398.133
398.037
397.942
397.849
397.758
397.668
397.581
397.493
397.406
397.32
397.234
397.149
397.066
396.983
396.902
396.822
396.741
396.661
396.58
396.5
396.42
396.341
396.262
396.184
396.106
396.029
395.952
395.877
395.803
395.73
395.659
395.59
395.522
395.457
395.395
395.343
395.535
395.659
395.754
395.833
395.901
395.961
396.015
396.065
396.11
396.151
400
400
400
400
400
400
400
400
400
399.996
399.79
399.627
399.483
399.35
399.223
399.101
398.983
398.868
398.756
398.647
398.54
398.435
398.333
398.232
398.134
398.037
397.942
397.848
397.757
397.667
397.58
397.493
397.406
397.32
397.234
397.15
397.067
396.985
396.904
396.823
396.742
396.661
396.58
396.5
396.42
396.341
396.262
396.183
396.106
396.028
395.952
395.877
395.803
395.73
395.658
395.588
395.52
395.455
395.393
395.341
395.533
395.657
395.752
395.831
395.899
395.959
396.014
396.063
396.108
396.149
400
400
400
400
400
400
400
400
400
399.996
399.79
399.627
399.483
399.35
399.223
399.101
398.983
398.868
398.756
398.647
398.54
398.436
398.333
398.232
398.134
398.037
397.941
397.848
397.756
397.667
397.579
397.492
397.406
397.32
397.235
397.151
397.068
396.986
396.905
396.824
396.742
396.661
396.58
396.5
396.42
396.34
396.261
396.183
396.105
396.028
395.951
395.876
395.802
395.728
395.657
395.587
395.519
395.453
395.39
395.337
395.53
395.654
395.75
395.829
395.897
395.957
396.011
396.061
396.106
396.147
400
400
400
400
400
400
400
400
400
399.996
399.79
399.627
399.484
399.35
399.224
399.102
398.984
398.869
398.757
398.648
398.541
398.436
398.334
398.233
398.134
398.037
397.942
397.848
397.756
397.666
397.578
397.492
397.406
397.32
397.235
397.152
397.069
396.987
396.906
396.824
396.742
396.66
396.579
396.498
396.418
396.339
396.26
396.181
396.103
396.026
395.95
395.874
395.8
395.727
395.655
395.585
395.517
395.451
395.387
395.334
395.527
395.652
395.747
395.826
395.894
395.955
396.009
396.059
396.104
396.145
400
400
400
400
400
400
400
400
400
399.996
399.79
399.627
399.484
399.351
399.224
399.102
398.984
398.87
398.758
398.649
398.542
398.437
398.334
398.234
398.135
398.037
397.942
397.848
397.756
397.666
397.577
397.491
397.405
397.32
397.236
397.152
397.07
396.988
396.905
396.823
396.741
396.659
396.577
396.497
396.417
396.337
396.258
396.179
396.102
396.025
395.948
395.873
395.798
395.725
395.653
395.582
395.514
395.447
395.384
395.331
395.524
395.649
395.745
395.824
395.892
395.953
396.007
396.057
396.102
396.143
400
400
400
400
400
400
400
400
400
399.996
399.79
399.627
399.484
399.351
399.225
399.103
398.985
398.87
398.759
398.649
398.543
398.438
398.335
398.234
398.135
398.038
397.943
397.849
397.756
397.666
397.577
397.491
397.405
397.32
397.236
397.153
397.07
396.987
396.905
396.822
396.739
396.657
396.576
396.495
396.415
396.335
396.256
396.178
396.1
396.023
395.946
395.871
395.796
395.723
395.651
395.58
395.512
395.445
395.381
395.327
395.521
395.646
395.742
395.821
395.89
395.95
396.005
396.055
396.1
396.141
400
400
400
400
400
400
400
400
400
399.996
399.79
399.628
399.485
399.351
399.225
399.104
398.986
398.871
398.76
398.65
398.544
398.439
398.336
398.236
398.137
398.039
397.944
397.85
397.757
397.667
397.578
397.491
397.405
397.321
397.237
397.153
397.07
396.987
396.904
396.821
396.738
396.656
396.575
396.494
396.413
396.334
396.255
396.176
396.099
396.021
395.945
395.869
395.795
395.721
395.649
395.578
395.509
395.443
395.379
395.324
395.518
395.644
395.74
395.819
395.888
395.949
396.003
396.053
396.099
396.14
400
400
400
400
400
400
400
400
400
399.996
399.79
399.628
399.485
399.352
399.226
399.104
398.987
398.872
398.761
398.652
398.545
398.44
398.338
398.237
398.138
398.041
397.945
397.851
397.758
397.668
397.579
397.492
397.406
397.322
397.238
397.154
397.07
396.987
396.904
396.821
396.738
396.656
396.574
396.493
396.413
396.333
396.254
396.176
396.098
396.021
395.944
395.869
395.794
395.72
395.648
395.577
395.508
395.441
395.376
395.322
395.516
395.642
395.738
395.818
395.887
395.948
396.002
396.052
396.098
396.139
400
400
400
400
400
400
400
400
400
399.996
399.79
399.628
399.485
399.352
399.226
399.105
398.988
398.873
398.762
398.653
398.546
398.442
398.339
398.238
398.139
398.042
397.947
397.852
397.76
397.669
397.581
397.494
397.408
397.323
397.239
397.155
397.071
396.987
396.904
396.821
396.738
396.656
396.574
396.493
396.413
396.333
396.254
396.175
396.098
396.02
395.944
395.868
395.794
395.72
395.648
395.576
395.507
395.44
395.375
395.32
395.515
395.641
395.737
395.817
395.886
395.947
396.002
396.052
396.098
396.139
400
400
400
400
400
400
400
400
400
399.996
399.791
399.629
399.486
399.353
399.227
399.106
398.989
398.875
398.763
398.654
398.548
398.443
398.341
398.24
398.141
398.044
397.949
397.855
397.762
397.672
397.583
397.496
397.41
397.325
397.241
397.157
397.072
396.989
396.905
396.822
396.739
396.656
396.575
396.494
396.413
396.334
396.255
396.176
396.098
396.021
395.945
395.869
395.794
395.721
395.648
395.577
395.507
395.439
395.375
395.32
395.515
395.641
395.737
395.817
395.886
395.947
396.002
396.052
396.098
396.139
400
400
400
400
400
400
400
400
400
399.996
399.791
399.629
399.486
399.354
399.228
399.107
398.99
398.876
398.765
398.656
398.55
398.445
398.343
398.242
398.144
398.046
397.951
397.857
397.765
397.674
397.585
397.498
397.412
397.327
397.243
397.158
397.074
396.99
396.906
396.823
396.74
396.658
396.576
396.495
396.415
396.335
396.256
396.178
396.1
396.023
395.946
395.871
395.796
395.722
395.649
395.578
395.508
395.44
395.375
395.319
395.515
395.641
395.738
395.818
395.887
395.948
396.003
396.053
396.099
396.14
400
400
400
400
400
400
400
400
400
399.996
399.791
399.629
399.487
399.354
399.229
399.108
398.991
398.877
398.766
398.658
398.552
398.448
398.345
398.245
398.146
398.049
397.954
397.86
397.768
397.677
397.589
397.501
397.415
397.33
397.245
397.161
397.076
396.992
396.908
396.825
396.742
396.66
396.578
396.498
396.417
396.338
396.259
396.18
396.102
396.025
395.949
395.873
395.798
395.724
395.651
395.58
395.51
395.442
395.376
395.32
395.516
395.642
395.739
395.819
395.888
395.949
396.004
396.054
396.1
396.141
400
400
400
400
400
400
400
400
400
399.996
399.791
399.629
399.487
399.355
399.23
399.109
398.993
398.879
398.768
398.66
398.554
398.45
398.348
398.247
398.149
398.052
397.957
397.863
397.771
397.68
397.592
397.505
397.419
397.333
397.248
397.163
397.079
396.995
396.911
396.827
396.745
396.663
396.581
396.5
396.42
396.34
396.261
396.183
396.105
396.028
395.951
395.876
395.801
395.727
395.654
395.582
395.512
395.443
395.377
395.321
395.517
395.643
395.74
395.82
395.889
395.95
396.005
396.055
396.101
396.142
400
400
400
400
400
400
400
400
400
399.996
399.791
399.63
399.488
399.356
399.231
399.111
398.994
398.881
398.77
398.662
398.556
398.453
398.351
398.25
398.152
398.055
397.96
397.866
397.774
397.684
397.595
397.508
397.422
397.336
397.251
397.166
397.081
396.997
396.913
396.83
396.747
396.665
396.583
396.502
396.422
396.342
396.263
396.185
396.107
396.03
395.953
395.877
395.802
395.728
395.655
395.583
395.512
395.444
395.377
395.32
395.516
395.643
395.739
395.819
395.888
395.949
396.004
396.054
396.099
396.141
400
400
400
400
400
400
400
400
400
399.996
399.791
399.63
399.488
399.357
399.232
399.112
398.996
398.882
398.772
398.664
398.559
398.455
398.353
398.253
398.155
398.058
397.963
397.869
397.777
397.687
397.598
397.511
397.424
397.338
397.253
397.168
397.083
396.998
396.914
396.831
396.748
396.666
396.584
396.503
396.422
396.342
396.263
396.184
396.106
396.029
395.952
395.876
395.8
395.726
395.652
395.579
395.508
395.439
395.372
395.315
395.511
395.637
395.733
395.813
395.881
395.942
395.997
396.046
396.092
396.133
400
400
400
400
400
400
400
400
400
399.996
399.792
399.63
399.489
399.357
399.233
399.113
398.997
398.884
398.774
398.666
398.561
398.457
398.355
398.255
398.157
398.06
397.964
397.871
397.779
397.688
397.599
397.511
397.424
397.338
397.252
397.166
397.081
396.996
396.911
396.827
396.744
396.661
396.579
396.497
396.416
396.335
396.255
396.176
396.097
396.019
395.941
395.864
395.788
395.713
395.638
395.564
395.492
395.422
395.353
395.295
395.491
395.617
395.713
395.792
395.86
395.921
395.975
396.024
396.069
396.11
400
400
400
400
400
400
400
400
400
399.996
399.791
399.631
399.489
399.357
399.233
399.113
398.997
398.884
398.774
398.666
398.56
398.456
398.354
398.253
398.154
398.057
397.961
397.867
397.774
397.682
397.592
397.503
397.415
397.328
397.24
397.153
397.067
396.981
396.895
396.81
396.725
396.641
396.557
396.474
396.392
396.31
396.228
396.147
396.067
395.987
395.907
395.828
395.75
395.673
395.596
395.52
395.446
395.373
395.303
395.242
395.438
395.563
395.659
395.738
395.805
395.864
395.918
395.966
396.01
396.05
400
400
400
400
400
400
400
400
400
399.996
399.792
399.631
399.488
399.357
399.231
399.111
398.994
398.881
398.769
398.66
398.553
398.448
398.344
398.242
398.142
398.042
397.944
397.848
397.753
397.659
397.567
397.475
397.385
397.294
397.204
397.114
397.025
396.936
396.847
396.759
396.671
396.583
396.496
396.41
396.324
396.238
396.153
396.068
395.984
395.901
395.817
395.734
395.652
395.57
395.49
395.409
395.331
395.253
395.178
395.113
395.31
395.435
395.53
395.607
395.673
395.732
395.783
395.83
395.873
395.911
400
400
400
400
400
400
400
400
400
399.996
399.791
399.627
399.484
399.35
399.223
399.1
398.98
398.863
398.749
398.636
398.525
398.416
398.308
398.201
398.096
397.992
397.889
397.787
397.687
397.588
397.489
397.392
397.295
397.198
397.102
397.006
396.91
396.814
396.718
396.623
396.528
396.434
396.34
396.246
396.153
396.06
395.967
395.875
395.783
395.692
395.6
395.51
395.42
395.33
395.241
395.153
395.065
394.98
394.896
394.823
395.024
395.15
395.244
395.321
395.387
395.444
395.495
395.542
395.583
395.621
400
400
400
400
400
400
400
400
400
399.996
399.785
399.617
399.467
399.327
399.192
399.062
398.933
398.808
398.684
398.561
398.44
398.321
398.202
398.084
397.967
397.851
397.737
397.623
397.51
397.398
397.287
397.177
397.067
396.957
396.848
396.738
396.629
396.52
396.411
396.302
396.194
396.086
395.978
395.871
395.764
395.657
395.551
395.445
395.34
395.235
395.131
395.027
394.923
394.82
394.718
394.617
394.517
394.418
394.322
394.238
394.452
394.586
394.687
394.771
394.843
394.906
394.964
395.016
395.064
395.107
400
400
400
400
400
400
400
400
400
399.995
399.765
399.577
399.409
399.248
399.094
398.942
398.793
398.645
398.499
398.355
398.211
398.068
397.927
397.786
397.646
397.507
397.369
397.232
397.096
396.962
396.828
396.696
396.564
396.432
396.301
396.17
396.04
395.91
395.781
395.652
395.524
395.397
395.27
395.144
395.019
394.895
394.771
394.648
394.526
394.404
394.284
394.164
394.045
393.926
393.809
393.694
393.579
393.467
393.358
393.266
393.535
393.71
393.847
393.964
394.066
394.158
394.242
394.32
394.392
394.456
400
400
400
400
400
400
400
400
400
399.993
399.69
399.452
399.24
399.041
398.849
398.663
398.479
398.298
398.12
397.943
397.768
397.595
397.423
397.254
397.085
396.919
396.754
396.592
396.432
396.274
396.118
395.964
395.811
395.66
395.51
395.361
395.213
395.066
394.921
394.778
394.635
394.494
394.355
394.217
394.08
393.945
393.811
393.678
393.546
393.416
393.286
393.158
393.032
392.906
392.782
392.66
392.539
392.422
392.31
392.228
392.676
392.961
393.18
393.361
393.518
393.655
393.779
393.89
393.992
394.081
400
400
400
400
400
400
400
400
400
399.995
399.762
399.542
399.336
399.14
398.949
398.764
398.582
398.402
398.225
398.05
397.877
397.705
397.534
397.366
397.198
397.032
396.867
396.704
396.543
396.383
396.225
396.069
395.914
395.761
395.61
395.461
395.314
395.168
395.024
394.881
394.738
394.596
394.455
394.315
394.176
394.039
393.903
393.769
393.636
393.505
393.375
393.248
393.122
392.998
392.877
392.758
392.642
392.53
392.421
392.339
392.704
392.973
393.187
393.367
393.522
393.659
393.781
393.893
393.995
394.084
400
400
400
400
400
400
400
400
400
399.997
399.831
399.665
399.506
399.351
399.2
399.052
398.905
398.761
398.618
398.476
398.335
398.194
398.055
397.916
397.778
397.641
397.504
397.368
397.232
397.097
396.963
396.83
396.697
396.565
396.434
396.304
396.175
396.046
395.918
395.79
395.663
395.535
395.408
395.281
395.155
395.029
394.904
394.781
394.658
394.536
394.415
394.295
394.177
394.06
393.945
393.832
393.721
393.612
393.506
393.416
393.601
393.752
393.879
393.989
394.087
394.176
394.257
394.333
394.403
394.466
400
400
400
400
400
400
400
400
400
399.998
399.847
399.7
399.56
399.425
399.294
399.166
399.041
398.918
398.797
398.677
398.559
398.441
398.325
398.209
398.095
397.981
397.867
397.754
397.642
397.53
397.419
397.309
397.199
397.089
396.98
396.872
396.764
396.656
396.549
396.442
396.334
396.227
396.119
396.012
395.905
395.798
395.691
395.585
395.48
395.375
395.271
395.168
395.066
394.965
394.865
394.766
394.669
394.574
394.482
394.398
394.535
394.646
394.737
394.814
394.881
394.941
394.996
395.046
395.092
395.133
400
400
400
400
400
400
400
400
400
399.998
399.852
399.709
399.574
399.445
399.321
399.201
399.084
398.969
398.857
398.747
398.639
398.532
398.426
398.321
398.218
398.115
398.013
397.913
397.812
397.713
397.615
397.517
397.42
397.323
397.228
397.132
397.038
396.944
396.85
396.757
396.663
396.569
396.475
396.381
396.288
396.195
396.102
396.01
395.918
395.827
395.737
395.647
395.559
395.471
395.384
395.299
395.215
395.133
395.053
394.982
395.107
395.209
395.294
395.365
395.426
395.481
395.529
395.574
395.614
395.65
400
400
400
400
400
400
400
400
400
399.998
399.852
399.711
399.577
399.45
399.328
399.21
399.096
398.984
398.875
398.769
398.664
398.561
398.459
398.359
398.26
398.162
398.065
397.969
397.875
397.781
397.688
397.596
397.505
397.414
397.325
397.236
397.148
397.061
396.974
396.887
396.8
396.713
396.627
396.54
396.454
396.368
396.283
396.199
396.115
396.032
395.949
395.867
395.787
395.707
395.629
395.552
395.476
395.402
395.331
395.267
395.39
395.492
395.576
395.648
395.71
395.765
395.815
395.86
395.901
395.938
400
400
400
400
400
400
400
400
400
399.998
399.852
399.71
399.577
399.449
399.328
399.21
399.097
398.986
398.878
398.772
398.669
398.567
398.466
398.368
398.27
398.174
398.079
397.985
397.893
397.801
397.71
397.621
397.532
397.444
397.358
397.272
397.187
397.103
397.019
396.935
396.852
396.768
396.685
396.602
396.519
396.437
396.355
396.274
396.194
396.115
396.036
395.959
395.882
395.807
395.733
395.66
395.589
395.52
395.453
395.393
395.515
395.618
395.703
395.776
395.839
395.895
395.946
395.993
396.035
396.074
400
400
400
400
400
400
400
400
400
399.998
399.852
399.71
399.576
399.449
399.327
399.209
399.095
398.985
398.877
398.771
398.668
398.566
398.466
398.368
398.271
398.175
398.081
397.988
397.896
397.805
397.715
397.627
397.539
397.452
397.367
397.282
397.199
397.116
397.033
396.951
396.869
396.786
396.704
396.623
396.542
396.461
396.381
396.302
396.223
396.146
396.069