/*--------------------------------*- C++ -*----------------------------------*\
  =========                 |
  \\      /  F ield         | OpenFOAM: The Open Source CFD Toolbox
   \\    /   O peration     | Website:  https://openfoam.org
    \\  /    A nd           | Version:  12
     \\/     M anipulation  |
\*---------------------------------------------------------------------------*/
FoamFile
{
    format      ascii;
    class       volScalarField;
    location    "900/air";
    object      alphat;
}
// * * * * * * * * * * * * * * * * * * * * * * * * * * * * * * * * * * * * * //

dimensions      [1 -1 -1 0 0 0 0];

internalField   nonuniform List<scalar> 
243000
(
0.000119166
0.000135102
0.000138516
0.000139071
0.000137825
0.000135414
0.000132145
0.000128276
0.000123974
0.00011946
0.000114927
0.000110715
0.000107101
0.000104522
0.000103197
0.000103242
0.000104144
0.000105347
0.000106511
0.000107504
0.000108299
0.000108927
0.000109448
0.000109973
0.000110728
0.000111422
0.000110803
0.0001066
9.69121e-05
0.000100732
0.000436019
0.000498628
0.000516002
0.000517039
0.000510088
0.000498481
0.000484385
0.000469152
0.000453681
0.000438874
0.000425296
0.000413735
0.000404645
0.00039885
0.00039621
0.000395924
0.000395472
0.000393679
0.000390816
0.000387515
0.000384309
0.000381495
0.000379126
0.000377368
0.000377023
0.000378714
0.00037947
0.00037395
0.000355524
0.000339394
0.00052196
0.000594259
0.000676515
0.000724157
0.000752606
0.000768593
0.000776695
0.00077935
0.00077844
0.000775611
0.000771724
0.00076801
0.000765177
0.000764453
0.000765182
0.000765354
0.000760162
0.00074812
0.000730718
0.000709963
0.000687525
0.000664426
0.000641104
0.000618002
0.000596207
0.000576614
0.000556472
0.00053069
0.000493605
0.000449388
0.000516962
0.000569276
0.000639154
0.000707492
0.000755956
0.00078925
0.000809182
0.00082062
0.000826684
0.000829631
0.000830594
0.000830991
0.000831536
0.000833435
0.000835875
0.000836554
0.000830481
0.000816499
0.000796443
0.00077269
0.000747177
0.000721072
0.000694898
0.000669044
0.00064428
0.000621409
0.000598473
0.000571937
0.000537114
0.000494099
0.000529304
0.000553053
0.000604147
0.000670684
0.000726305
0.000778739
0.000815821
0.000841064
0.000857186
0.000867898
0.000874939
0.000880163
0.00088449
0.000889231
0.000893494
0.000894874
0.000888367
0.000873174
0.000851361
0.000825535
0.000797808
0.000769481
0.000741159
0.000713212
0.000686196
0.000660813
0.00063549
0.00060775
0.000574181
0.00053395
0.000556272
0.000559749
0.000579688
0.000632676
0.000694041
0.000750522
0.000803036
0.000844836
0.000874452
0.000894823
0.000908967
0.000919546
0.000927871
0.000935522
0.00094162
0.000943749
0.000937073
0.000921149
0.000898185
0.00087093
0.00084162
0.000811647
0.000781709
0.000752175
0.000723464
0.000696176
0.000669052
0.000640038
0.000607158
0.000569207
0.000588228
0.000585718
0.000583506
0.000604233
0.000658471
0.000721466
0.000779912
0.000835552
0.000881531
0.000913001
0.000935161
0.000951525
0.000963977
0.000974547
0.00098245
0.000985326
0.000978683
0.000962353
0.000938676
0.000910458
0.000880029
0.000848853
0.000817719
0.000786996
0.000757021
0.000728294
0.000699843
0.000669653
0.000637136
0.000600806
0.000621506
0.000617485
0.000608776
0.000605033
0.000629543
0.00069042
0.000756703
0.000818403
0.000878725
0.00092399
0.000955117
0.000977635
0.000994322
0.00100778
0.00101745
0.00102106
0.0010146
0.00099813
0.00097405
0.000945227
0.000914034
0.000882006
0.000849994
0.000818397
0.000787498
0.000757705
0.000728284
0.000697141
0.000664727
0.000629477
0.000654633
0.000650721
0.00064005
0.000627139
0.000623976
0.000662748
0.000732233
0.000801917
0.000870604
0.000929616
0.000969956
0.000998952
0.00101995
0.00103627
0.00104763
0.00105201
0.00104586
0.00102943
0.00100519
0.000976036
0.000944365
0.000911756
0.000879131
0.000846914
0.000815364
0.00078479
0.000754658
0.000723085
0.000690459
0.0006559
0.000687198
0.000683563
0.000672647
0.000656104
0.000640169
0.000648329
0.000708589
0.00078469
0.000858271
0.000929834
0.000980516
0.00101623
0.00104163
0.00106077
0.00107378
0.00107891
0.00107317
0.00105697
0.00103277
0.00100351
0.00097158
0.00093862
0.000905592
0.000872958
0.000840963
0.000809843
0.000779193
0.000747379
0.00071452
0.000680468
0.000718991
0.000715437
0.000704683
0.000686871
0.000664844
0.000651301
0.000689369
0.000767105
0.000846737
0.000926645
0.000987913
0.00103011
0.00105991
0.00108185
0.00109644
0.00110236
0.00109709
0.00108126
0.0010573
0.00102811
0.000996122
0.000962981
0.000929713
0.000896816
0.000864547
0.000833078
0.000802076
0.000770145
0.000737088
0.000703457
0.000750033
0.000746235
0.00073557
0.000717417
0.000692568
0.000669048
0.0006791
0.000750325
0.00083525
0.000920817
0.000992159
0.00104112
0.00107527
0.00109996
0.00111606
0.00112278
0.00111805
0.0011027
0.00107913
0.00105019
0.0010183
0.000985124
0.000951748
0.000918711
0.000886289
0.000854636
0.000823444
0.000791511
0.000758307
0.000725061
0.000780456
0.000776129
0.000765325
0.00074708
0.000720933
0.000691651
0.000678491
0.000735815
0.00082387
0.000912915
0.000993858
0.00104967
0.0010881
0.00111546
0.001133
0.00114054
0.00113638
0.0011216
0.00109856
0.00107002
0.00103836
0.00100529
0.00097193
0.000938861
0.000906405
0.00087471
0.000843466
0.000811628
0.000778339
0.000745455
0.000810409
0.00080532
0.000794149
0.000775754
0.00074907
0.000716204
0.000691236
0.000725857
0.000812886
0.000904198
0.000993207
0.00105624
0.0010987
0.00112862
0.00114755
0.00115591
0.00115237
0.00113824
0.00111582
0.00108781
0.00105652
0.00102368
0.000990459
0.000957474
0.000925109
0.000893506
0.000862333
0.000830672
0.000797375
0.000764846
0.000840004
0.000833974
0.000822246
0.000803562
0.000776557
0.000741682
0.000709199
0.00072162
0.00080279
0.000896687
0.000991212
0.00106085
0.0011073
0.00113969
0.00115995
0.00116912
0.00116625
0.00115281
0.00113111
0.00110375
0.00107295
0.00104048
0.00100751
0.000974742
0.000942605
0.000911218
0.00088023
0.000848821
0.000815866
0.000783506
0.000869331
0.000862229
0.000849786
0.000830667
0.000803342
0.000767444
0.000730149
0.000722634
0.000794059
0.000889566
0.000988005
0.00106374
0.00111409
0.00114883
0.00117036
0.00118036
0.00117819
0.0011655
0.00114459
0.00111797
0.00108781
0.00105584
0.00102326
0.000990842
0.000959056
0.000928005
0.000897309
0.00086623
0.000833708
0.00080157
0.000898503
0.000890206
0.000876909
0.000857214
0.000829492
0.000792899
0.00075201
0.000730075
0.0007874
0.000882795
0.000983805
0.00106507
0.00111926
0.00115618
0.00117894
0.00118977
0.00118834
0.00117647
0.00115641
0.00113062
0.00110121
0.00106987
0.00103783
0.00100592
0.000974607
0.000944005
0.000913715
0.000883034
0.00085102
0.000819188
0.000927645
0.000918018
0.000903738
0.000883333
0.000855105
0.000817918
0.000774457
0.000743227
0.000783576
0.000876514
0.000978794
0.00106483
0.00112286
0.00116182
0.00118578
0.00119746
0.00119684
0.00118584
0.00116671
0.00114183
0.00111328
0.00108269
0.00105133
0.00102006
0.000989373
0.000959341
0.000929568
0.000899414
0.000867997
0.000836487
0.0009568
0.000945775
0.000930403
0.000909151
0.000880276
0.000842449
0.000797123
0.000758919
0.000782721
0.000870889
0.000973139
0.00106332
0.00112481
0.0011658
0.00119097
0.00120354
0.00120378
0.00119373
0.0011756
0.00115175
0.00112415
0.00109443
0.00106387
0.00103337
0.00100344
0.000974116
0.000945004
0.000915514
0.000884804
0.000853621
0.0009863
0.000973725
0.000957103
0.00093484
0.000905155
0.00086658
0.000819701
0.00077619
0.000784474
0.000866053
0.000966931
0.00106054
0.00112492
0.0011682
0.00119454
0.00120807
0.00120925
0.00120025
0.00118323
0.00116051
0.00113397
0.00110522
0.00107558
0.00104598
0.00101693
0.00098845
0.00096016
0.000931498
0.000901643
0.000870772
0.00101663
0.00100225
0.000984137
0.000960633
0.000929954
0.000890399
0.000842183
0.000794389
0.000789042
0.000862121
0.000960276
0.00105648
0.00112348
0.00116869
0.00119648
0.00121107
0.0012133
0.00120549
0.00118971
0.00116822
0.00114285
0.00111519
0.00108659
0.00105801
0.00102996
0.00100247
0.000975178
0.000947549
0.000918751
0.000888195
0.00104728
0.00103187
0.00101193
0.000986862
0.000954934
0.000914226
0.000865329
0.000812919
0.00079594
0.000859199
0.000954017
0.00105117
0.00112041
0.00116745
0.00119664
0.00121246
0.00121592
0.00120946
0.00119507
0.00117496
0.00115091
0.00112448
0.00109706
0.00106961
0.00104268
0.00101631
0.000990193
0.000963837
0.000936367
0.000906931
0.00107743
0.0010619
0.00104122
0.00101406
0.000980587
0.000938828
0.000887642
0.000830964
0.000805035
0.000857642
0.000948573
0.00104454
0.00111553
0.00116427
0.00119487
0.00121203
0.0012169
0.00121201
0.00119923
0.00118071
0.00115816
0.00113314
0.00110707
0.00108091
0.00105523
0.00103013
0.00100537
0.000980512
0.000954652
0.000926742
0.00110681
0.00109136
0.00107107
0.00104317
0.00100833
0.000964941
0.0009098
0.00084895
0.000815476
0.00085782
0.00094428
0.0010364
0.00110824
0.0011584
0.0011904
0.00120905
0.00121556
0.00121249
0.00120171
0.00118512
0.00116432
0.00114098
0.00111652
0.00109191
0.00106771
0.00104407
0.00102085
0.000997671
0.000973635
0.000947561
0.00113494
0.00112001
0.00110111
0.00107461
0.00103708
0.000989976
0.000931527
0.000867146
0.000827529
0.000860295
0.000941785
0.00102744
0.00109791
0.00114868
0.0011818
0.00120192
0.00121032
0.00120943
0.00120093
0.00118677
0.00116828
0.00114706
0.00112459
0.00110185
0.00107951
0.0010577
0.00103631
0.00101501
0.000992873
0.000968691
0.00116166
0.00114733
0.00112735
0.00109815
0.00106093
0.00101349
0.000953902
0.000887539
0.000843346
0.000867933
0.000942884
0.00102306
0.00108884
0.00113695
0.00116966
0.00119053
0.00120103
0.00120289
0.00119753
0.00118635
0.00117082
0.00115214
0.00113149
0.00110995
0.00108927
0.00106953
0.0010503
0.00103105
0.00101083
0.000988386
0.00117898
0.00116355
0.0011451
0.00112029
0.00108653
0.00104114
0.000982833
0.000917238
0.000871377
0.000889169
0.000957907
0.00103181
0.00109256
0.00113806
0.00117027
0.00119155
0.00120344
0.00120746
0.00120477
0.00119634
0.00118341
0.00116705
0.00114832
0.00112817
0.00110782
0.00108777
0.001068
0.00104822
0.00102789
0.00100619
0.0012161
0.00120039
0.00118193
0.00115864
0.00112799
0.00108736
0.00103572
0.000978387
0.000937726
0.000950728
0.00101074
0.00107624
0.00113053
0.00117188
0.0012019
0.00122198
0.00123361
0.0012384
0.00123712
0.00123041
0.00121931
0.00120476
0.00118766
0.00116884
0.00114914
0.00112904
0.00110869
0.00108806
0.00106673
0.00104399
0.00129144
0.00127862
0.00126505
0.00124943
0.00122985
0.0012045
0.00117293
0.00113975
0.0011187
0.00113007
0.00117268
0.0012207
0.00126087
0.00129179
0.00131466
0.00132899
0.00133663
0.00133902
0.00133657
0.00132964
0.00131911
0.00130563
0.00128988
0.0012725
0.001254
0.00123445
0.00121348
0.00119156
0.0011685
0.00114408
0.0015522
0.00155091
0.00155365
0.00155501
0.00155389
0.00154984
0.00154338
0.00153764
0.0015372
0.00153883
0.00154825
0.00156235
0.0015741
0.00158338
0.0015911
0.00159431
0.00159502
0.00159449
0.00159253
0.00158937
0.00158532
0.00158071
0.00157568
0.00157083
0.00156614
0.00155971
0.00154723
0.00153322
0.00151861
0.00150299
0.000172276
0.000182245
0.000183565
0.000182657
0.000180066
0.000176363
0.000171887
0.000166961
0.000161824
0.000156752
0.000151909
0.000147558
0.000143812
0.000140889
0.000138718
0.000137068
0.000135192
0.000132678
0.000129547
0.000125849
0.000121551
0.000116501
0.000110577
0.000103883
9.8562e-05
9.582e-05
9.28463e-05
8.82076e-05
9.69708e-05
0.000109408
0.000814432
0.000893673
0.000897812
0.00088444
0.000858359
0.000824562
0.000786436
0.000748755
0.000714116
0.000684571
0.000659283
0.000637897
0.000617187
0.000595802
0.00056932
0.000534673
0.000488633
0.000439876
0.000398149
0.000365425
0.000340745
0.000321074
0.000302231
0.000285211
0.000275418
0.000277855
0.000282998
0.000284122
0.000328591
0.000427189
0.00106077
0.00134005
0.00140924
0.00146491
0.00148016
0.00147026
0.00144278
0.00140783
0.00137179
0.00133845
0.00130607
0.00127419
0.00123818
0.00119644
0.00114276
0.00107078
0.000974869
0.000873164
0.000783609
0.00071113
0.000655272
0.000612009
0.00057369
0.000537777
0.000513865
0.000511359
0.000513998
0.000498751
0.000505593
0.000620159
0.00108158
0.00143007
0.00164061
0.00180377
0.0018945
0.00194337
0.00195836
0.00195578
0.0019447
0.00192897
0.00190515
0.00187286
0.00182825
0.00177025
0.00169347
0.00158936
0.00145063
0.00130405
0.00117177
0.00106171
0.000974852
0.000905812
0.000844853
0.000788375
0.000747106
0.0007337
0.000731159
0.000703696
0.000668212
0.0007079
0.00105087
0.00138451
0.00166223
0.00191567
0.00210984
0.00225204
0.00233436
0.00238876
0.00242187
0.00243918
0.00243456
0.00240811
0.00235947
0.00228952
0.00219401
0.00206319
0.00188908
0.00170539
0.00153738
0.00139487
0.00127999
0.00118736
0.00110612
0.001031
0.000972383
0.000944816
0.000934069
0.000900759
0.000834188
0.000814124
0.00100467
0.00128615
0.00157707
0.00188356
0.00216053
0.00239752
0.00258365
0.00272141
0.0028153
0.00287715
0.0028981
0.00288215
0.00283245
0.00275381
0.00264362
0.00249084
0.00228825
0.00207416
0.00187635
0.00170602
0.00156675
0.00145328
0.00135453
0.00126362
0.00118951
0.00114728
0.00112615
0.00109135
0.00100529
0.000940609
0.000957593
0.00118283
0.00145148
0.00177182
0.00211056
0.00243049
0.00271092
0.00296806
0.00313663
0.00325186
0.00330196
0.0033012
0.00325264
0.00316763
0.00304622
0.00287558
0.00265106
0.00241209
0.00218935
0.00199542
0.00183505
0.00170347
0.00158985
0.00148584
0.00139859
0.00134248
0.00131063
0.00127564
0.00117931
0.00108276
0.000925411
0.0010924
0.0013257
0.00162972
0.00199701
0.00238821
0.00275655
0.00310798
0.00339426
0.00357075
0.00365249
0.00367083
0.00362608
0.00353624
0.0034063
0.00322135
0.00298084
0.00272163
0.00247799
0.00226421
0.00208576
0.00193856
0.00181229
0.00169754
0.00159938
0.0015308
0.0014879
0.00145229
0.00135263
0.0012344
0.000918562
0.00103275
0.00121999
0.00149308
0.00186028
0.00229737
0.00274621
0.00318787
0.0036048
0.00383853
0.00396028
0.00399623
0.00395764
0.00386457
0.00372809
0.0035323
0.00328015
0.00300508
0.00274426
0.00251371
0.00231995
0.0021593
0.00202223
0.00189872
0.00179168
0.00171231
0.00165853
0.00161774
0.00152153
0.00139017
0.000996867
0.0010352
0.00115574
0.00138425
0.00173223
0.0021858
0.00269918
0.00322086
0.00373251
0.0040591
0.00422569
0.00428052
0.00425116
0.00415702
0.00401561
0.00381184
0.00355086
0.00326484
0.00298997
0.00274535
0.00253865
0.0023665
0.0022201
0.00208943
0.0019754
0.00188712
0.00182334
0.00177521
0.00168435
0.00154608
0.00113539
0.00113725
0.00117689
0.00131726
0.00162009
0.00207755
0.00262917
0.00321994
0.00381466
0.00424874
0.00444986
0.00452567
0.0045094
0.00441748
0.00427241
0.00406302
0.0037954
0.00350232
0.00321675
0.00296077
0.00274297
0.00256093
0.00240645
0.00226995
0.00215071
0.00205544
0.00198308
0.00192716
0.001842
0.00170127
0.00131465
0.00129186
0.00128262
0.00132189
0.00154353
0.0019657
0.00254307
0.0031925
0.0038538
0.00439025
0.00463837
0.0047383
0.00473603
0.00464857
0.00450145
0.00428844
0.00401619
0.0037185
0.00342634
0.00316137
0.00293438
0.00274358
0.00258206
0.00244084
0.00231792
0.00221758
0.00213839
0.00207527
0.00199564
0.00185566
0.00152499
0.00148282
0.00143879
0.00141555
0.00150035
0.00187417
0.00245191
0.00314582
0.00386659
0.00449013
0.00479985
0.00492099
0.00493363
0.00485274
0.00470496
0.00449018
0.00421534
0.00391507
0.00361952
0.00334843
0.00311396
0.00291582
0.00274814
0.0026028
0.00247764
0.00237398
0.00228976
0.00222073
0.00214648
0.00200965
0.00176001
0.00170291
0.00163146
0.00156153
0.00156066
0.00182444
0.00237265
0.00309365
0.00386386
0.00455677
0.00493522
0.00507795
0.0051037
0.00503177
0.00488455
0.0046698
0.00439442
0.00409364
0.00379677
0.003523
0.00328275
0.00307863
0.00290581
0.0027572
0.0026306
0.00252522
0.00243773
0.00236438
0.00229553
0.00216391
0.00201508
0.00194546
0.00185169
0.00174274
0.00167704
0.0017879
0.00230836
0.00304201
0.00385066
0.00459763
0.005039
0.00521045
0.00524839
0.0051867
0.00504115
0.0048282
0.00455449
0.00425533
0.0039592
0.0036847
0.00344169
0.00323286
0.00305593
0.00290498
0.00277775
0.00267195
0.00258278
0.00250688
0.00244228
0.00231888
0.00228535
0.00220456
0.00209147
0.0019508
0.00182971
0.00184681
0.00227268
0.00299666
0.00383169
0.00461837
0.0051166
0.00532009
0.00536986
0.00531708
0.00517499
0.00496559
0.00469588
0.00440066
0.00410734
0.00383383
0.00359047
0.00337909
0.00319898
0.00304673
0.00291976
0.0028146
0.00272521
0.0026486
0.00258753
0.00247482
0.00256423
0.00247372
0.00234379
0.00217628
0.00200838
0.00194605
0.00224884
0.00296037
0.00381062
0.0046237
0.0051714
0.00540895
0.00546741
0.00542208
0.0052854
0.00508118
0.004818
0.00452918
0.00424081
0.00397016
0.00372829
0.00351686
0.00333493
0.00318236
0.00305673
0.00295313
0.00286487
0.00278944
0.00273232
0.0026319
0.00284351
0.00274508
0.00260113
0.00241139
0.00220603
0.00208512
0.00225718
0.00293649
0.00379029
0.00461835
0.00520517
0.00547184
0.0055381
0.00549964
0.00536969
0.0051727
0.00491883
0.00463918
0.0043581
0.00409317
0.00385424
0.00364431
0.00346294
0.00331107
0.00318786
0.00308669
0.00300082
0.00292852
0.00287634
0.00278961
0.00311321
0.00300891
0.00285448
0.00264753
0.00241255
0.00223921
0.00231908
0.00292707
0.00377272
0.00460651
0.00521994
0.00550126
0.00557656
0.00554529
0.00542301
0.00523586
0.00499431
0.00472691
0.00445629
0.00419971
0.00396582
0.00375918
0.00358021
0.00343082
0.00331096
0.00321308
0.00313088
0.00306376
0.00301774
0.0029463
0.00335936
0.00325267
0.00309292
0.00287525
0.00261874
0.00240043
0.00239657
0.00292893
0.00375834
0.00458799
0.00520668
0.00548154
0.00557454
0.00555127
0.00543758
0.00526362
0.00503733
0.00478606
0.00452962
0.00428399
0.004058
0.00385692
0.00368244
0.00353746
0.00342155
0.00332811
0.00325103
0.00319127
0.00315284
0.0030986
0.00356426
0.0034611
0.0033037
0.00308365
0.00281391
0.00255785
0.00248832
0.00292717
0.00373501
0.00454215
0.0051373
0.0054172
0.00552136
0.0055053
0.00540171
0.0052447
0.00503727
0.00480584
0.0045673
0.0043366
0.00412203
0.00392948
0.00376157
0.00362293
0.00351263
0.00342498
0.00335476
0.0033046
0.00327531
0.00324004
0.00371707
0.0036173
0.00347285
0.0032605
0.00298622
0.00270057
0.00258435
0.00292472
0.00367204
0.00442415
0.00499517
0.0052953
0.00539946
0.00538953
0.005298
0.00516188
0.0049774
0.00476968
0.00455325
0.00434187
0.00414262
0.00396261
0.00380591
0.00367606
0.00357311
0.00349296
0.00343195
0.00339355
0.00337485
0.00335577
0.00381426
0.00371339
0.0035858
0.00339243
0.00312205
0.00281573
0.00265822
0.00291383
0.00356821
0.00425065
0.00479974
0.00508341
0.00518362
0.00518071
0.00510396
0.004992
0.00483462
0.00465413
0.00446405
0.00427673
0.00409925
0.00393766
0.00379639
0.00367892
0.00358634
0.00351686
0.00346862
0.00344296
0.00343589
0.00343093
0.00384575
0.00375063
0.00363754
0.00346483
0.00320038
0.00288105
0.00268569
0.00285383
0.0034468
0.00403304
0.00449649
0.00475062
0.00484896
0.00485812
0.00479983
0.00471282
0.00458621
0.00443685
0.00427694
0.00411698
0.00396512
0.0038268
0.00370599
0.00360612
0.00352892
0.0034742
0.00344145
0.00343134
0.00343989
0.003448
0.0038031
0.00372614
0.00362924
0.00346586
0.00320629
0.00288203
0.00265123
0.00271576
0.00319821
0.0036811
0.00406145
0.00429329
0.00439715
0.00442503
0.00439415
0.00433328
0.004241
0.00412314
0.00399174
0.00385913
0.00373358
0.00361978
0.00352154
0.00344238
0.00338389
0.00334702
0.00333254
0.00334099
0.00336678
0.00339354
0.0036952
0.0036453
0.00355831
0.0034049
0.00315073
0.00283011
0.00256538
0.00252581
0.00285353
0.00324415
0.00356452
0.00378073
0.00390266
0.00396163
0.00396749
0.00393611
0.00387909
0.0037921
0.00368924
0.00358115
0.00347612
0.00338027
0.00329916
0.00323677
0.00319264
0.00316837
0.00316641
0.00318773
0.00322696
0.00327002
0.00355827
0.0035247
0.00345214
0.00330864
0.00307809
0.0027863
0.00252047
0.00241138
0.00260439
0.00290646
0.00317994
0.00338761
0.00352507
0.00360916
0.00364691
0.00364264
0.00361413
0.00355649
0.00348101
0.00339607
0.00330881
0.00322563
0.00315366
0.00309684
0.00305718
0.00303568
0.0030342
0.00305345
0.00308761
0.00312254
0.00343788
0.00342158
0.00336926
0.00325375
0.00307097
0.00284488
0.00263443
0.00252012
0.00262822
0.00284059
0.00305699
0.00323615
0.00336411
0.00344829
0.0034947
0.00350425
0.00349268
0.00345823
0.00340787
0.0033479
0.00328379
0.00322042
0.003164
0.00311838
0.00308452
0.00306192
0.00305046
0.00305041
0.00305527
0.00305407
0.00333564
0.00332705
0.00329389
0.00322
0.00311035
0.00297663
0.00283813
0.00277491
0.00283557
0.00296798
0.00310872
0.0032297
0.00331782
0.00337489
0.00340227
0.0034044
0.00339231
0.0033649
0.00332864
0.00328819
0.00324776
0.00320976
0.00317774
0.0031546
0.00313958
0.00313061
0.00312376
0.00311888
0.00310376
0.00307259
0.00327195
0.00327222
0.00326325
0.00323123
0.00317686
0.00310206
0.00302519
0.00298514
0.00301027
0.00307138
0.0031335
0.0031909
0.00323388
0.00325967
0.00326783
0.00325994
0.00324493
0.00322232
0.00319776
0.00317521
0.00315788
0.00314726
0.00314435
0.00314956
0.00316088
0.00317456
0.00318766
0.00319772
0.00320105
0.0031802
0.000193086
0.0002058
0.000209155
0.000209198
0.000207138
0.000203728
0.000199317
0.000194205
0.000188666
0.000183014
0.000177418
0.000172147
0.000167257
0.000162911
0.000158948
0.000154991
0.000150203
0.000144591
0.000138675
0.000132809
0.000126425
0.000118359
0.000107638
9.29678e-05
8.16886e-05
7.69579e-05
8.68293e-05
9.47355e-05
0.000107249
0.000119357
0.000863329
0.00103587
0.00108633
0.00110222
0.00109956
0.00108294
0.00105346
0.00101582
0.000973733
0.000930432
0.000886888
0.000844711
0.000800305
0.000753341
0.000698275
0.000633057
0.00055898
0.000499264
0.000462351
0.000445661
0.000438556
0.000426126
0.000392775
0.000348075
0.000339077
0.000382117
0.000352727
0.000321965
0.000424912
0.000565587
0.00142214
0.00170706
0.00185133
0.00194405
0.00199953
0.00201861
0.00200596
0.00197154
0.00192189
0.00186227
0.00179378
0.00171924
0.00163372
0.00153681
0.00142179
0.00128377
0.00112794
0.000997641
0.000910124
0.000860079
0.000830339
0.000800773
0.000735158
0.000642995
0.000609243
0.000658068
0.000644657
0.000562155
0.000674798
0.000888049
0.00177646
0.00216319
0.00236837
0.00255506
0.0026802
0.00275638
0.00278579
0.00278157
0.00275093
0.00269819
0.00262389
0.00253087
0.00241514
0.00227609
0.00210927
0.00190801
0.00168256
0.0014928
0.0013556
0.0012676
0.00120989
0.00115533
0.00106329
0.000933011
0.000860913
0.000896216
0.000906485
0.000799945
0.00086281
0.0010659
0.00183278
0.00225446
0.00265778
0.00296421
0.00315752
0.00330665
0.0033984
0.00344613
0.003453
0.00342263
0.00335479
0.00325219
0.00311303
0.00293978
0.00273009
0.002476
0.00219424
0.00195253
0.00177275
0.00164992
0.00156443
0.00148731
0.00137553
0.00121863
0.00111014
0.0011248
0.00114942
0.00103889
0.00104261
0.0012191
0.00178102
0.00224159
0.00269395
0.00308275
0.00343224
0.00369768
0.00387374
0.0039886
0.00404708
0.00404943
0.00399473
0.00388988
0.00373445
0.00353316
0.00328763
0.00298923
0.00266336
0.00237763
0.00216021
0.00200543
0.00189401
0.00179711
0.00167169
0.00149879
0.00136144
0.00134992
0.00137829
0.00127914
0.00123066
0.00136977
0.00168876
0.00216521
0.00264972
0.00311425
0.00354556
0.00391306
0.00422601
0.00442973
0.00455244
0.00459552
0.00455951
0.00445572
0.00428828
0.004065
0.00378948
0.00345454
0.00309386
0.00277061
0.00251979
0.00233609
0.00220101
0.00208687
0.00195232
0.00177174
0.00161457
0.00157472
0.00159538
0.00151495
0.00143301
0.00152569
0.0015959
0.00204207
0.00253708
0.00305469
0.00356932
0.00404154
0.0044419
0.00478072
0.00498402
0.00507411
0.00505914
0.00495891
0.00478296
0.00454305
0.0042426
0.00387815
0.0034896
0.00313454
0.00285391
0.00264434
0.00248797
0.00235878
0.00221804
0.00203578
0.00186739
0.00180123
0.00180647
0.00174326
0.00164378
0.00169554
0.00151837
0.00191746
0.00239982
0.00294636
0.00352712
0.00409531
0.00459665
0.00505824
0.00535133
0.00549433
0.00550421
0.00540724
0.00522527
0.00497395
0.00465282
0.00426518
0.00385367
0.0034722
0.00316507
0.00293257
0.00275732
0.00261495
0.00246986
0.00228978
0.0021173
0.00202977
0.00201616
0.001964
0.00185825
0.00187739
0.00146866
0.00181952
0.00227437
0.00282331
0.00344906
0.00409852
0.0047034
0.00524929
0.00566339
0.0058627
0.00590205
0.00580851
0.00562106
0.00536255
0.00502555
0.0046198
0.00418879
0.00378607
0.00345562
0.00320313
0.00301135
0.00285755
0.00270893
0.00253352
0.00236201
0.00225944
0.0022273
0.00217956
0.00207429
0.00206671
0.00145132
0.00175059
0.00217114
0.00271367
0.0033612
0.00407379
0.00477152
0.00540428
0.00593224
0.00618201
0.00625208
0.0061681
0.00597618
0.00571278
0.00536509
0.00494531
0.00449777
0.00407793
0.00372794
0.00345842
0.00325248
0.00308845
0.00293667
0.00276743
0.00260033
0.0024889
0.00244099
0.00239293
0.002291
0.00226055
0.00147088
0.00172609
0.0020922
0.00261008
0.00327152
0.00403353
0.00481024
0.00552804
0.00612657
0.00645355
0.00655735
0.00648877
0.00629527
0.00602824
0.00567473
0.00524424
0.00478292
0.00434989
0.00398456
0.00370103
0.00348277
0.00330963
0.00315494
0.00299222
0.00283203
0.00271695
0.00265729
0.00260633
0.00250756
0.00245892
0.0016024
0.00177246
0.00206546
0.00252296
0.00317015
0.00397163
0.00482133
0.00562121
0.0062889
0.00669071
0.00681983
0.00677319
0.00658113
0.00631173
0.00595655
0.00551826
0.00504628
0.00460398
0.00422821
0.00393326
0.00370438
0.00352312
0.00336564
0.0032086
0.0030572
0.00294268
0.00287557
0.00282097
0.00272412
0.00266148
0.00182466
0.0019537
0.0021357
0.0024915
0.0030828
0.00389328
0.00480685
0.00568377
0.00641214
0.0068792
0.00704189
0.00702316
0.00683625
0.00656531
0.00621095
0.00576803
0.00528958
0.00484213
0.00446115
0.00415719
0.00391923
0.00373064
0.00357052
0.00341848
0.00327681
0.00316552
0.0030948
0.00303679
0.00294076
0.0028671
0.00214106
0.0022316
0.00232748
0.00252926
0.00303802
0.00382132
0.00477366
0.00571513
0.00650125
0.00702811
0.00723007
0.0072367
0.00706104
0.00678894
0.00643669
0.00599311
0.00551375
0.00506616
0.00468438
0.00437407
0.00412856
0.0039334
0.00377088
0.0036236
0.00349145
0.00338488
0.00331353
0.00325273
0.00315675
0.00307494
0.00252665
0.00255985
0.00258245
0.0026792
0.00303807
0.00377381
0.00474432
0.00573545
0.00657081
0.00714506
0.00739203
0.0074124
0.00725287
0.00697982
0.00663104
0.00619205
0.00571835
0.00527619
0.00489763
0.00458383
0.00433241
0.00413171
0.00396711
0.00382435
0.00370061
0.0035996
0.00352957
0.00346651
0.00337024
0.00328217
0.00292211
0.00290534
0.00287021
0.00287438
0.00308761
0.00375296
0.00472106
0.00574722
0.00662135
0.00723347
0.00751991
0.00754626
0.00740526
0.00713313
0.00678894
0.00636145
0.00590078
0.00546994
0.00509814
0.0047843
0.00452908
0.00432416
0.00415818
0.00401927
0.00390231
0.0038074
0.00373949
0.00367433
0.00357775
0.00348458
0.00330167
0.00324285
0.00316288
0.00310676
0.00320801
0.00375914
0.00470497
0.00575121
0.00665214
0.00729374
0.00759442
0.00762923
0.00750678
0.00724233
0.00690189
0.00649478
0.00605534
0.00564206
0.00528032
0.0049699
0.00471404
0.00450692
0.0043399
0.00420386
0.00409299
0.00400422
0.00393773
0.00387021
0.00377359
0.00367643
0.00365176
0.00355475
0.00343561
0.0033309
0.00334489
0.00377259
0.0046954
0.00574616
0.00666014
0.00731071
0.00759897
0.00764922
0.00754357
0.00729361
0.00695962
0.00658218
0.00617194
0.0057821
0.0054341
0.00513142
0.00487843
0.00467142
0.00450471
0.00437183
0.00426594
0.00418206
0.00411555
0.00404552
0.00394974
0.00385012
0.00395323
0.00382345
0.00367299
0.00353084
0.00350042
0.00381881
0.00467662
0.00572825
0.00663364
0.0072292
0.00752793
0.00758967
0.00749906
0.00726946
0.0069494
0.00660987
0.00623555
0.00587388
0.00554365
0.00525393
0.00500794
0.00480462
0.00464065
0.00451094
0.00440877
0.00432739
0.00426038
0.00418873
0.00409603
0.00399688
0.00419085
0.00403565
0.00386278
0.00369494
0.00362868
0.00383209
0.0046122
0.00563559
0.0064762
0.00703398
0.00735993
0.00742972
0.00735555
0.00715093
0.00685711
0.00656077
0.0062267
0.00589574
0.00558964
0.00531693
0.00508255
0.00488674
0.00472732
0.00460104
0.00450203
0.00442296
0.00435669
0.00428614
0.00420041
0.00410633
0.00435361
0.00418283
0.00399679
0.00381088
0.00370419
0.00381925
0.00450875
0.0054027
0.00619281
0.00676524
0.00707413
0.00715262
0.0070977
0.00692437
0.00666763
0.00641738
0.00612533
0.00582959
0.00555039
0.00529824
0.00507788
0.00489173
0.00473999
0.0046199
0.00452605
0.00445138
0.0043889
0.00432418
0.00425063
0.00416682
0.00443596
0.00426167
0.00407176
0.00387362
0.00372937
0.00378059
0.00434247
0.00513316
0.00585145
0.00637769
0.00665977
0.00675177
0.0067195
0.00658647
0.00637727
0.0061715
0.00592622
0.00566635
0.00541548
0.00518437
0.00498154
0.00480924
0.00466816
0.00455661
0.00447022
0.00440231
0.00434651
0.004294
0.00423776
0.00416902
0.00444049
0.00427634
0.00409199
0.00388681
0.00370646
0.00368802
0.00406162
0.00478042
0.00540453
0.00586201
0.00612932
0.00624455
0.00624237
0.00616051
0.00600771
0.0058439
0.00564967
0.00542544
0.00520608
0.00499957
0.00481528
0.00465687
0.00452586
0.00442194
0.00434245
0.00428235
0.00423648
0.00419914
0.00416242
0.00411127
0.00438439
0.00424319
0.00407295
0.0038654
0.00365195
0.0035494
0.00372311
0.00429765
0.00484857
0.00527108
0.00554563
0.00568853
0.00573372
0.00570994
0.00561773
0.00549467
0.00534766
0.0051603
0.00497247
0.00479191
0.00462669
0.00448147
0.00435873
0.00425977
0.004184
0.00412847
0.00408982
0.00406415
0.00404297
0.00400739
0.0043015
0.00419148
0.0040426
0.00384227
0.0036107
0.00343399
0.00344813
0.00383767
0.00431602
0.00472064
0.00500944
0.0051906
0.00528542
0.00531392
0.00527548
0.00518817
0.0050773
0.00492289
0.00476426
0.004609
0.00446394
0.00433356
0.00422076
0.00412764
0.0040546
0.00400005
0.00396267
0.00394007
0.0039238
0.00389358
0.00423865
0.00416124
0.00404024
0.00386244
0.00364286
0.00344295
0.00336376
0.00358994
0.00397537
0.00434366
0.00463302
0.00483689
0.00496186
0.00502112
0.00501443
0.0049491
0.00485618
0.00472336
0.00458711
0.00445514
0.00433327
0.0042241
0.00413074
0.00405482
0.00399498
0.00394771
0.00391283
0.00388872
0.00386749
0.00382985
0.00422372
0.00417765
0.00408818
0.00394604
0.00376684
0.00359387
0.00348984
0.00360902
0.003886
0.00418426
0.00443824
0.00462964
0.00475066
0.00481
0.00480213
0.00473342
0.00463379
0.00451763
0.00440049
0.00428962
0.00419115
0.00410741