/*--------------------------------*- C++ -*----------------------------------*\
  =========                 |
  \\      /  F ield         | OpenFOAM: The Open Source CFD Toolbox
   \\    /   O peration     | Website:  https://openfoam.org
    \\  /    A nd           | Version:  12
     \\/     M anipulation  |
\*---------------------------------------------------------------------------*/
FoamFile
{
    format      ascii;
    class       volScalarField;
    location    "900/air";
    object      epsilon;
}
// * * * * * * * * * * * * * * * * * * * * * * * * * * * * * * * * * * * * * //

dimensions      [0 2 -3 0 0 0 0];

internalField   nonuniform List<scalar> 
243000
(
1.30577
2.19524
2.73332
3.18884
3.55756
3.8397
4.02645
4.11626
4.10904
4.01735
3.85993
3.6738
3.48991
3.35222
3.28199
3.28767
3.31902
3.32349
3.27022
3.15342
2.98148
2.76912
2.5334
2.29349
2.06986
1.84807
1.58086
1.21646
0.78409
0.759831
0.803728
1.37158
1.74485
2.02006
2.21839
2.35344
2.43537
2.47304
2.4734
2.44767
2.4037
2.355
2.31007
2.28365
2.27357
2.26565
2.21751
2.11432
1.96864
1.79976
1.62377
1.45045
1.2848
1.1315
0.998554
0.888293
0.778316
0.644785
0.47667
0.357078
0.694264
1.04861
1.51793
1.85154
2.06173
2.18744
2.24917
2.26606
2.25342
2.22512
2.18847
2.15396
2.1275
2.11873
2.1218
2.11953
2.0726
1.97234
1.83542
1.68177
1.52642
1.37725
1.2371
1.1082
0.995411
0.900977
0.809878
0.702294
0.564424
0.425964
0.666631
0.908116
1.286
1.74599
2.11343
2.38741
2.55618
2.65446
2.70523
2.72753
2.73133
2.73017
2.73107
2.74534
2.76485
2.76629
2.70081
2.56218
2.3747
2.16635
1.95759
1.7589
1.57399
1.4048
1.25489
1.12654
1.00662
0.878587
0.727201
0.566028
0.697131
0.813431
1.0856
1.4899
1.89845
2.31408
2.64044
2.87161
3.02527
3.12864
3.19614
3.24587
3.28722
3.33396
3.37573
3.38451
3.30415
3.13195
2.89903
2.64051
2.38181
2.13623
1.9086
1.70074
1.51507
1.35372
1.20434
1.05362
0.888199
0.714116
0.802982
0.825101
0.941512
1.2506
1.65738
2.08307
2.53851
2.93177
3.22481
3.43671
3.58802
3.70327
3.79533
3.88147
3.94969
3.96816
3.8763
3.67552
3.40277
3.09928
2.79504
2.50597
2.23836
1.99409
1.77471
1.58202
1.4046
1.23
1.04982
0.864687
0.947382
0.935511
0.93652
1.07133
1.41645
1.86077
2.3366
2.85626
3.3188
3.65988
3.91225
4.10527
4.25601
4.3868
4.48446
4.5142
4.41426
4.18966
3.88275
3.53961
3.19444
2.86573
2.56133
2.28326
2.03251
1.81042
1.60677
1.40808
1.21262
1.01622
1.11716
1.09305
1.04823
1.04634
1.22401
1.63678
2.14466
2.70344
3.30825
3.80469
4.17387
4.45479
4.67071
4.8499
4.97914
5.02141
4.91669
4.67305
4.3372
3.95977
3.57832
3.21394
2.87597
2.5669
2.28729
2.03796
1.80994
1.5877
1.37641
1.16807
1.306
1.27906
1.21408
1.14554
1.15889
1.4414
1.95145
2.54635
3.23403
3.88723
4.37808
4.75497
5.04114
5.2715
5.43365
5.48983
5.38339
5.12509
4.76543
4.35871
3.9456
3.54947
3.18126
2.84402
2.53811
2.2637
2.01305
1.77051
1.54164
1.32077
1.51151
1.48353
1.40895
1.3054
1.22234
1.3248
1.76988
2.39179
3.11358
3.90518
4.52952
5.0086
5.36922
5.65266
5.84852
5.9198
5.81437
5.54591
5.1673
4.73618
4.29579
3.87181
3.4766
3.11392
2.78414
2.48683
2.21519
1.95425
1.70779
1.47425
1.73192
1.70207
1.62109
1.49643
1.35868
1.30961
1.62117
2.24022
2.98999
3.87626
4.63865
5.21897
5.65681
5.99477
6.22454
6.31195
6.20989
5.93552
5.54295
5.09215
4.62883
4.18051
3.76127
3.37572
3.02445
2.70649
2.41554
2.13776
1.87423
1.62834
1.96677
1.93264
1.84538
1.7058
1.53145
1.39411
1.5299
2.09842
2.87322
3.81488
4.70635
5.39058
5.906
6.29914
6.56245
6.66706
6.57052
6.29407
5.89225
5.42642
4.94415
4.47496
4.03457
3.62855
3.25793
2.92155
2.61326
2.32019
2.04042
1.78272
2.21654
2.17541
2.08016
1.92802
1.72662
1.52871
1.50198
1.97555
2.76102
3.72832
4.73799
5.52684
6.11948
6.5672
6.86349
6.98608
6.8971
6.62182
6.21515
5.7387
5.24147
4.7549
4.29624
3.87217
3.48446
3.13187
2.80816
2.5013
2.20617
1.93726
2.48215
2.43118
2.32572
2.1607
1.9377
1.6928
1.54927
1.88373
2.6541
3.62692
4.73632
5.63295
6.29957
6.80058
7.12896
7.27003
7.19046
6.91931
6.5116
6.02887
5.52066
5.02021
4.54626
4.10673
3.70437
3.33783
3.00054
2.68128
2.37184
2.09233
2.76459
2.70094
2.58285
2.40348
2.16072
1.87767
1.65717
1.83288
2.55587
3.5352
4.71265
5.70934
6.4481
7.0007
7.36006
7.51994
7.45143
7.18697
6.78189
6.29699
5.78176
5.27099
4.78486
4.33271
3.91834
3.54006
3.19102
2.8607
2.53925
2.2488
3.06476
2.98567
2.85249
2.65687
2.39426
2.07971
1.79781
1.82207
2.46992
3.44995
4.67132
5.75823
6.56694
7.16872
7.55779
7.73668
7.6808
7.4256
7.02629
6.54291
6.02489
5.5076
5.01247
4.5508
4.12699
3.7392
3.38023
3.0402
2.70877
2.40751
3.38392
3.28647
3.13559
2.92155
2.6379
2.2947
1.96047
1.85235
2.40064
3.37033
4.61577
5.78203
6.65813
7.30542
7.72293
7.92103
7.87942
7.63598
7.24538
6.76682
6.24983
5.72983
5.22955
4.76163
4.33098
3.9359
3.56894
3.22048
2.88069
2.56944
3.72394
3.60465
3.43323
3.1983
2.89183
2.52048
2.13835
1.93035
2.35382
3.29681
4.54884
5.77971
6.72226
7.41138
7.85617
8.07376
8.04808
7.81892
7.43985
6.96976
6.45726
5.93815
5.43625
4.96534
4.53089
4.13089
3.75792
3.40303
3.05638
2.73548
4.08587
3.9417
3.74681
3.48822
3.1565
2.75595
2.32976
2.03885
2.33164
3.23059
4.47305
5.75689
6.75718
7.48661
7.95796
8.19558
8.18763
7.97516
7.61076
7.15281
6.6483
6.13344
5.6332
5.16248
4.72711
4.32486
3.94836
3.58918
3.23748
2.90706
4.47404
4.30093
4.07884
3.79311
3.43316
3.00117
2.5325
2.16926
2.33282
3.17277
4.38987
5.71338
6.75923
7.53173
8.02836
8.28693
8.2987
8.10586
7.75978
7.31725
6.8241
6.31677
5.8215
5.35405
4.92057
4.51889
4.14167
3.78079
3.42617
3.08604
4.89726
4.68863
4.43366
4.11598
3.72411
3.25661
2.74658
2.31597
2.35696
3.12408
4.30032
5.64959
6.73367
7.54061
8.06634
8.34768
8.38169
8.21213
7.88784
7.4643
6.98608
6.48969
6.00261
5.54142
5.11268
4.71441
4.33959
3.98019
3.6255
3.27528
5.35533
5.11402
4.8181
4.46158
4.03248
3.52568
2.97848
2.4753
2.40169
3.08506
4.21078
5.56572
6.67924
7.51662
8.06912
8.37603
8.4358
8.29358
7.99533
7.59479
7.13547
6.65385
6.17838
5.72641
5.30509
4.91303
4.54395
4.18987
3.83894
3.48404
5.83364
5.57598
5.24479
4.83836
4.36513
3.81818
3.21226
2.63911
2.46651
3.05935
4.13312
5.46122
6.59333
7.45563
8.03315
8.36697
8.45644
8.34666
8.07992
7.70769
7.2722
6.8099
6.35008
5.9108
5.49998
5.11717
4.75725
4.41233
4.06952
3.71728
6.32653
6.05599
5.71126
5.26081
4.74361
4.14302
3.4569
2.80957
2.55033
3.05216
4.07082
5.3339
6.46548
7.34388
7.94368
8.30568
8.42926
8.35764
8.1315
7.79568
7.3903
6.95369
6.51555
6.09427
5.69854
5.32892
4.98161
4.64943
4.31862
3.97432
6.82295
6.5481
6.20845
5.75231
5.16057
4.4729
3.709
2.99007
2.6533
3.06763
4.03179
5.19189
6.28632
7.16133
7.77343
8.16051
8.3219
8.29621
8.11728
7.83038
7.46806
7.06724
6.6595
6.26389
5.89098
5.54155
5.21251
4.89709
4.58081
4.24696
7.31724
7.04156
6.66638
6.14545
5.52977
4.80105
3.98206
3.20239
2.79729
3.13626
4.03708
5.12071
6.12869
6.94334
7.53656
7.93173
8.13286
8.16385
8.05054
7.82402
7.5191
7.16365
6.78498
6.40485
6.05369
5.73059
5.42693
5.1333
4.83395
4.51149
7.65522
7.35341
6.99915
6.53932
5.94676
5.20784
4.35615
3.53318
3.07304
3.35726
4.2191
5.24212
6.18496
6.96036
7.54721
7.95207
8.18306
8.25905
8.19961
8.02595
7.76691
7.44844
7.09526
6.72831
6.37108
6.03154
5.70864
5.3969
5.08677
4.7661
8.40409
8.0778
7.70177
7.24088
6.66076
5.94028
5.1071
4.29577
3.82138
4.07739
4.92872
5.92755
6.83833
7.59109
8.17136
8.57535
8.81438
8.91223
8.881
8.73491
8.49933
8.19798
7.85378
7.48644
7.11441
6.74763
6.38911
6.03837
5.68816
5.32703
10.0717
9.77104
9.45535
9.09642
8.65692
8.10947
7.46676
6.84601
6.5076
6.79528
7.62985
8.59597
9.45048
10.1452
10.6799
11.0241
11.2097
11.2664
11.2017
11.0266
10.7655
10.4381
10.0646
9.66324
9.2478
8.82099
8.3782
7.93121
7.4773
7.01315
17.5185
17.4802
17.5646
17.5999
17.5512
17.4024
17.1773
16.993
16.9914
17.0757
17.4201
17.9066
18.3051
18.629
18.8983
19.0108
19.0351
19.0149
18.9433
18.8295
18.6845
18.5206
18.3436
18.1737
18.0105
17.7806
17.3555
16.8878
16.4087
15.9074
3.84374
5.3008
6.29627
7.16905
7.88551
8.44247
8.83021
9.05437
9.12482
9.06868
8.9082
8.68918
8.43477
8.18601
7.93655
7.64883
7.20979
6.588
5.83365
5.01093
4.17088
3.34799
2.57871
1.90725
1.44559
1.16236
0.920576
0.68872
0.792913
0.976007
4.32704
4.51987
4.72027
4.92392
5.05256
5.12045
5.14219
5.13138
5.09694
5.04285
4.9687
4.87701
4.77122
4.65846
4.53744
4.37549
4.11401
3.73975
3.32824
2.89491
2.46213
2.04196
1.64262
1.26294
0.959575
0.767201
0.671619
0.62305
0.689462
0.492398
3.81428
4.43776
4.57748
4.70973
4.73176
4.6829
4.60584
4.53333
4.47603
4.43121
4.38806
4.33813
4.27584
4.20381
4.11664
3.98521
3.75763
3.42905
3.07167
2.70118
2.33513
1.97845
1.63497
1.3055
1.0229
0.83719
0.741519
0.684957
0.679813
0.575244
2.73495
3.78774
4.22393
4.49363
4.56829
4.52504
4.4308
4.34496
4.298
4.27997
4.27209
4.25968
4.23178
4.19051
4.12801
4.01447
3.79933
3.48467
3.13744
2.77885
2.42658
2.08635
1.76017
1.44449
1.16189
0.965548
0.859284
0.789219
0.741656
0.619936
1.87272
2.79935
3.44248
3.95806
4.23836
4.30555
4.27003
4.22243
4.21036
4.23257
4.26642
4.29442
4.30101
4.28825
4.24789
4.14842
3.93922
3.63098
3.28371
2.92408
2.57227
2.23423
1.91157
1.60008
1.31462
1.10492
0.985779
0.904774
0.833985
0.702203
1.3637
1.97673
2.61963
3.25007
3.69715
3.95659
4.04725
4.08413
4.13107
4.20506
4.28828
4.35922
4.40138
4.41706
4.39744
4.31036
4.10527
3.80083
3.45157
3.08718
2.73116
2.3901
2.06576
1.7547
1.46664
1.24458
1.11154
1.0216
0.939587
0.80296
1.08598
1.4545
1.94925
2.55587
3.11586
3.51785
3.76078
3.90921
4.03705
4.17313
4.3121
4.42724
4.50589
4.55071
4.5509
4.47552
4.27491
3.97418
3.62353
3.25369
2.89188
2.54581
2.21764
1.90465
1.61417
1.38183
1.23364
1.13471
1.04866
0.913516
0.992605
1.17868
1.51329
1.98114
2.5499
3.07168
3.43247
3.70393
3.92396
4.12988
4.32895
4.48796
4.6041
4.67822
4.69795
4.63377
4.4399
4.14345
3.79257
3.41815
3.05043
2.69877
2.36592
2.04954
1.75626
1.51549
1.35246
1.24267
1.15524
1.02573
1.0129
1.11311
1.29048
1.60285
2.07883
2.64577
3.11627
3.47863
3.79576
4.07516
4.33066
4.53794
4.6916
4.79492
4.83394
4.78152
4.59683
4.30528
3.95552
3.57807
3.2051
2.84789
2.51009
2.18966
1.89292
1.64499
1.46821
1.34665
1.25751
1.13482
1.15289
1.1935
1.2596
1.41623
1.75674
2.27841
2.81908
3.26019
3.65846
4.01195
4.32247
4.57764
4.7673
4.8989
4.95695
4.91641
4.74264
4.45769
4.11047
3.73175
3.35458
2.99229
2.64952
2.32491
2.02448
1.77039
1.58151
1.44784
1.35352
1.23646
1.35289
1.3683
1.37544
1.40111
1.58427
2.00339
2.55546
3.06194
3.51979
3.94298
4.3067
4.60916
4.83166
4.99001
5.06651
5.03822
4.8759
4.59959
4.25638
3.87767
3.4979
3.13099
2.78348
2.455
2.15144
1.89236
1.69332
1.54826
1.44615
1.33325
1.57418
1.57102
1.5555
1.51027
1.54256
1.83201
2.33792
2.88627
3.3901
3.87191
4.28517
4.62984
4.88509
5.06919
5.16327
5.1478
4.99712
4.73103
4.39289
4.01537
3.63386
3.26349
2.91188
2.58006
2.27428
2.01154
1.80446
1.6493
1.53807
1.42787
1.80009
1.7834
1.7564
1.68101
1.6143
1.74129
2.17236
2.73487
3.27593
3.80191
4.25993
4.6422
4.92902
5.1379
5.24903
5.24696
5.10823
4.85281
4.52025
4.14475
3.76237
3.38951
3.03501
2.70108
2.39409
2.12896
1.91576
1.75207
1.63157
1.5234
2.02588
1.99907
1.96609
1.87817
1.75506
1.73256
2.05864
2.60432
3.17571
3.73517
4.23289
4.64861
4.96563
5.1984
5.32649
5.33836
5.21164
4.96644
4.63929
4.2663
3.88377
3.5097
3.15359
2.81894
2.51237
2.24608
2.0285
1.85794
1.72915
1.62331
2.25289
2.21906
2.18372
2.09094
1.93815
1.81319
1.99841
2.49832
3.08895
3.67342
4.20583
4.65179
4.9979
5.25411
5.39953
5.42571
5.31052
5.07424
4.75175
4.38119
3.99898
3.62511
3.26891
2.93513
2.63063
2.36469
2.14445
1.96873
1.83401
1.73109
2.48625
2.4493
2.41268
2.31753
2.14481
1.95287
1.98381
2.4197
3.01565
3.6182
4.18065
4.65461
5.02972
5.30973
5.47333
5.51401
5.40928
5.17996
4.86057
4.49172
4.11086
3.7378
3.38282
3.0516
2.75073
2.4868
2.2657
2.08667
1.94856
1.85004
2.73394
2.69724
2.65964
2.56098
2.37217
2.13199
2.02839
2.37184
2.95645
3.57111
4.15968
4.6605
5.06631
5.3718
5.55504
5.61027
5.51448
5.28942
4.97074
4.60108
4.22251
3.85082
3.49813
3.17092
2.87512
2.61498
2.39495
2.21462
2.07572
1.98368
3.00507
2.97187
2.93371
2.8288
2.62258
2.33635
2.12746
2.35506
2.91242
3.53483
4.14562
4.67444
5.11522
5.44962
5.65482
5.72466
5.63596
5.41193
5.09012
4.72066
4.34106
3.96975
3.61945
3.29708
3.00737
2.75284
2.53583
2.3564
2.21935
2.13634
3.31092
3.28453
3.24652
3.13279
2.90343
2.56873
2.26752
2.36421
2.88482
3.51263
4.14103
4.70597
5.18833
5.55709
5.78787
5.87277
5.78926
5.56219
5.23454
4.86216
4.47765
4.10398
3.75449
3.43648
3.1535
2.90604
2.69379
2.51762
2.38501
2.31406
3.6661
3.65012
3.6136
3.48819
3.22744
2.83704
2.44764
2.40474
2.87507
3.50601
4.15853
4.77909
5.30544
5.71645
5.9786
6.07971
5.9999
5.76712
5.43031
5.04566
4.6506
4.26938
3.91668
3.60072
3.32418
3.08384
2.87724
2.70659
2.58116
2.52598
4.09052
4.0899
4.05688
3.91629
3.6144
3.15428
2.66329
2.48997
2.89326
3.53393
4.23117
4.91338
5.4992
5.96571
6.26895
6.38911
6.3139
6.072
5.71499
5.30834
4.89268
4.49456
4.13139
3.81195
3.53774
3.30195
3.10013
2.93691
2.8216
2.78655
4.61317
4.63719
4.60893
4.45017
4.09679
3.54757
2.9333
2.63127
2.97899
3.64901
4.40388
5.16128
5.83109
6.37515
6.73635
6.88298
6.81197
6.55446
6.1657
5.72057
5.26684
4.83503
4.44631
4.10987
3.82613
3.58663
3.3861
3.23213
3.13015
3.1194
5.2901
5.34494
5.32264
5.14528
4.73398
4.0719
3.30698
2.87544
3.18259
3.90922
4.75652
5.62814
6.42461
7.08444
7.53508
7.72357
7.66099
7.37945
6.93941
6.42783
5.90332
5.40542
4.95972
4.57764
4.2608
4.00279
3.79742
3.64666
3.55523
3.56529
6.2368
6.31878
6.30083
6.11227
5.65845
4.84569
3.89172
3.3233
3.61125
4.45788
5.48787
6.54908
7.54902
8.39376
8.99819
9.26532
9.22769
8.91534
8.39166
7.76789
7.11979
6.4992
5.93822
5.454
5.05316
4.73165
4.48288
4.30562
4.1987
4.20809
7.69302
7.79053
7.78197
7.61808
7.09436
6.11752
4.94563
4.23458
4.57217
5.65472
7.03003
8.48405
9.84223
11.0105
11.9015
12.3386
12.3824
12.0569
11.4081
10.5741
9.67923
8.80157
7.99032
7.27528
6.66957
6.17435
5.78472
5.49602
5.29213
5.22953
10.2193
10.3337
10.3954
10.2075
9.59495
8.49543
7.1567
6.36915
6.8913
8.42776
10.442
12.6224
14.6737
16.4611
17.8876
18.6555
18.8425
18.5104
17.6883
16.5176
15.1658
13.7794
12.4588
11.2537
10.189
9.27273
8.50449
7.88112
7.38022
7.06539
15.1116
15.2749
15.2673
15.0285
14.4454
13.449
12.2715
11.7521
12.7661
15.0766
18.1467
21.4965
24.6221
27.3347
29.5401
30.8061
31.2409
30.9626
29.9279
28.2855
26.2391
24.0199
21.8142
19.7033
17.7541
15.9807
14.3905
12.9914
11.7591
10.7586
24.7376
24.7402
24.6459
24.5032
24.2295
23.8006
23.5716
24.2875
26.3477
29.6915
34.0792
38.7436
42.9645
46.492
49.2921
50.9565
51.6671
51.5099
50.3475
48.3092
45.6054
42.4868
39.2024
35.9042
32.6794
29.5451
26.5296
23.6886
21.0278
18.6436
37.642
37.5585
38.1979
38.9126
39.4048
40.0365
41.6748
44.6024
48.3095
52.7501
57.6772
62.4836
66.5821
69.7662
71.783
72.6091
72.7305
71.9407
70.2969
67.8983
64.9332
61.5145
57.839
54.1116
50.4008
46.6982
42.9972
39.3239
35.6657
32.1596
41.3258
41.8767
43.2481
44.5962
45.5034
46.3483
48.088
51.4976
56.3448
61.4146
65.4879
68.6653
71.0438
72.4726
72.2542
70.7783
69.0959
66.7336
63.973
61.0074
58.0469
55.1631
52.4318
49.9465
47.7574
45.8498
44.1579
42.6595
41.2341
39.7412
5.37896
7.60208
9.27277
10.7282
11.967
12.984
13.7427
14.2268
14.4399
14.4144
14.1739
13.7794
13.2501
12.6346
11.915
11.03
9.85579
8.49171
7.12078
5.8555
4.66027
3.47968
2.35208
1.35595
0.231311
0.202316
0.785157
0.863829
1.0773
1.27408
4.63778
5.38816
6.09783
6.64443
7.03436
7.28731
7.41894
7.45153
7.40731
7.30508
7.15372
6.95803
6.72395
6.45037
6.13482
5.72033
5.16765
4.56957
4.01395
3.51242
2.99113
2.41739
1.7896
1.13908
0.68405
0.530137
0.554972
0.607535
0.661531
0.610829
4.84569
5.44863
6.05617
6.48124
6.68611
6.73823
6.68219
6.56412
6.41947
6.26712
6.10934
5.94087
5.75667
5.55191
5.31461
4.99434
4.55615
4.0909
3.66881
3.29176
2.88811
2.41211
1.87857
1.29923
0.84447
0.664848
0.60876
0.601149
0.635465
0.661231
4.89955
5.56077
6.19889
6.60121
6.74189
6.70682
6.56147
6.37281
6.18472
6.01646
5.86469
5.71792
5.56369
5.39655
5.19851
4.91757
4.5207
4.08849
3.7035
3.35756
2.98519
2.54954
2.04824
1.49349
1.01483
0.801155
0.702118
0.649168
0.650676
0.680855
4.36594
5.25689
6.05686
6.5461
6.72593
6.69716
6.5246
6.30826
6.11051
5.9489
5.81662
5.69774
5.57491
5.43812
5.26704
5.00831
4.63208
4.2187
3.84214
3.49909
3.13303
2.71093
2.22512
1.68544
1.1909
0.935745
0.808122
0.719688
0.695824
0.730921
3.50468
4.49638
5.46659
6.14687
6.49047
6.55823
6.42935
6.23624
6.06117
5.92797
5.82876
5.74222
5.65052
5.54249
5.39367
5.15012
4.78771
4.38588
4.01169
3.66427
3.29521
2.87603
2.39834
1.86952
1.36705
1.07074
0.919205
0.80617
0.759831
0.793692
2.67414
3.585
4.57728
5.41878
5.96453
6.23189
6.23578
6.11532
5.99421
5.90747
5.85132
5.80389
5.74566
5.66565
5.53677
5.30602
4.95633
4.56535
4.1927
3.83827
3.46184
3.04038
2.56701
2.04605
1.54117
1.20901
1.0328
0.902514
0.836112
0.86227
2.02301
2.7558
3.66442
4.55806
5.26954
5.73174
5.92482
5.93445
5.89615
5.87351
5.86942
5.86528
5.84245
5.79022
5.68012
5.46242
5.12726
4.74936
4.37892
4.01643
3.63012
3.20334
2.73162
2.21699
1.71297
1.35233
1.14865
1.00369
0.920536
0.93594
1.58776
2.1215
2.88454
3.7329
4.5301
5.15775
5.51927
5.69627
5.76651
5.82127
5.87624
5.9197
5.93374
5.90904
5.81748
5.61494
5.29787
4.93565
4.56857
4.19736
3.79935
3.365
2.8928
2.38385
1.88263
1.5008
1.2696
1.10764
1.01022
1.01389
1.33553
1.71091
2.30401
3.0396
3.83493
4.56795
5.08225
5.4129
5.6105
5.75139
5.87008
5.96381
6.01727
6.01998
5.94754
5.76358
5.46892
5.12501
4.76159
4.38073
3.96945
3.52564
3.05149
2.54771
2.05058
1.65409
1.39767
1.216
1.10414
1.09349
1.21727
1.48922
1.92144
2.51804
3.24414
4.01415
4.64838
5.1068
5.43787
5.66859
5.8559
5.99923
6.09253
6.1242
6.07183
5.91096
5.643
5.31892
4.95846
4.56656
4.14057
3.68606
3.20885
2.70936
2.21788
1.8122
1.5339
1.33197
1.2035
1.17604
1.18532
1.39465
1.71091
2.1655
2.78828
3.536
4.2444
4.81143
5.25914
5.58007
5.83662
6.02934
6.16146
6.2242
6.19413
6.06154
5.8239
5.51957
5.15997
4.75519
4.3133
3.84733
3.3659
2.86996
2.38568
1.97529
1.67906
1.45815
1.31154
1.26527
1.23747
1.38857
1.62496
1.9647
2.46908
3.15139
3.89051
4.54134
5.08127
5.49528
5.81607
6.05753
6.22857
6.32457
6.32043
6.22157
6.01634
5.72975
5.36755
4.94763
4.48876
4.01082
3.52448
3.03197
2.55553
2.14401
1.83412
1.5966
1.43181
1.36599
1.3723
1.49238
1.63988
1.88202
2.26766
2.86477
3.59691
4.30582
4.91943
5.41828
5.79788
6.08755
6.30009
6.43176
6.45958
6.39926
6.22661
5.95346
5.58385
5.14594
4.66898
4.17881
3.6873
3.19828
2.72973
2.32005
2.00061
1.74943
1.56756
1.48334
1.57378
1.67571
1.77831
1.89503
2.16885
2.66445
3.36466
4.11066
4.78068
5.35016
5.78551
6.12697
6.38424
6.55586
6.62306
6.60505
6.4628
6.19644
5.81364
5.35437
4.85796
4.35506
3.85838
3.37276
2.91246
2.50668
2.18141
1.91959
1.72246
1.62192
1.84719
1.91069
1.97987
2.02561
2.15524
2.54238
3.1841
3.9464
4.66473
5.29471
5.78179
6.18405
6.49248
6.71112
6.82557
6.85219
6.73568
6.46812
6.06555
5.58085
5.06278
4.54594
4.04384
3.56163
3.10965
2.7091
2.38123
2.11156
1.90107
1.78651
2.16763
2.19711
2.23327
2.22679
2.24374
2.49298
3.05801
3.81613
4.57361
5.25592
5.79955
6.27242
6.64118
6.91723
7.0871
7.15933
7.0623
6.78458
6.35469
5.83922
5.29574
4.76237
4.25361
3.77387
3.33011
2.93534
2.6076
2.33214
2.10964
1.98264
2.54876
2.54527
2.5428
2.48644
2.41309
2.50959
2.98667
3.72205
4.50973
5.23769
5.86113
6.41217
6.85398
7.2015
7.4365
7.55441
7.46968
7.17253
6.70672
6.15317
5.57793
5.02363
4.50501
4.02475
3.58728
3.19916
2.87254
2.59163
2.35705
2.21761
3.008
2.97102
2.92632
2.81276
2.65807
2.62123
2.96642
3.66566
4.47645
5.25382
5.99222
6.63263
7.16599
7.60389
7.91675
8.08087
8.00201
7.67653
7.16456
6.56298
5.94741
5.36421
4.82734
4.34183
3.90637
3.52447
3.19531
2.90579
2.6565
2.50244
3.57166
3.4982
3.40486
3.22394
2.97447
2.806
3.00296
3.64882
4.48302
5.35961
6.22188
6.97979
7.63184
8.186
8.59548
8.80949
8.73326
8.37166
7.80329
7.14056
6.47224
5.8442
5.27732
4.77437
4.33591
3.94825
3.60641
3.29928
3.02852
2.85433
4.27607
4.16148
4.01178
3.75039
3.38917
3.08694
3.13969
3.71249
4.61071
5.61532
6.61571
7.53113
8.34083
9.04814
9.58503
9.86074
9.79134
9.39021
8.7563
8.01653
7.27514
6.57931
5.96651
5.42716
4.95401
4.53259
4.15554
3.81179
3.50538
3.29969
5.17726
5.01624
4.80073
4.44546
3.95271
3.49695
3.39512
3.94954
4.93422
6.09225
7.28687
8.41919
9.44723
10.3651
11.0816
11.4476
11.4039
10.9698
10.2695
9.43234
8.60098
7.80866
7.0895
6.45069
5.88617
5.38069
4.92558
4.50934
4.13977
3.88039
6.37003
6.15579
5.86607
5.406
4.76527
4.12634
3.87371
4.41569
5.55534
6.95809
8.44097
9.88856
11.233
12.454
13.4395
13.9568
13.985
13.5456
12.806
11.8673
10.862
9.86958
8.94064
8.09867
7.34637
6.6682
6.05575
5.50657
5.02356
4.66946
8.02729
7.75411
7.38989
6.82492
6.02697
5.18522
4.77832
5.35926
6.74655
8.52744
10.4711
12.4126
14.2254
15.8964
17.3023
18.0866
18.2778
17.9162
17.1127
15.966
14.6498
13.3008
11.9976
10.7869
9.68909
8.69744
7.80678
7.01926
6.33172
5.80634
10.4882
10.1655
9.74574
9.10229
8.16533
7.1367
6.59115
7.2969
9.08967
11.4586
14.1169
16.8162
19.3752
21.7214
23.7767
24.9501
25.3293
25.0309
24.098
22.6489
20.8788
18.9901
17.0965
15.2815
13.5985
12.0651
10.6876
9.47321
8.41516
7.58095
14.4197
14.0786
13.6606
13.0335
12.0697
10.9829
10.4166
11.4041
13.8159
17.0396
20.7228
24.4869
28.0453
31.2534
34.1069
35.7373
36.3232
36.089
34.9928
33.1567
30.8006
28.1944
25.4901
22.7989
20.2253
17.8334
15.6537
13.7122
12.0021
10.5996
21.0544
20.7299
20.422
20.0206
19.3581
18.5713
18.3755
19.9451
23.1567
27.4033
32.3006
37.2797
41.9104
45.9644
49.5004
51.4041
52.0452
51.7237
50.3574
48.0807
45.1264
41.7918
38.2471
34.6013
31.0043
27.5485
24.2752
21.2516
18.5055
16.1469
31.7783
31.4602
31.4358
31.5387
31.671
31.9243
32.8936
35.4601
39.4966
44.5616
50.3496
56.1261
61.3472
65.6737
69.0376
70.2627
70.202
68.8158
66.5917
63.7137
60.4055
56.8018
53.068
49.2913
45.4577
41.5246
37.5575
33.6413
29.8501
26.3636
43.7208
43.7786
44.4918
45.355
46.2663
47.7808
50.8178
55.0586
60.0371
65.4978
71.1217
76.3597
80.7323
83.7494
84.7189
83.1011
80.6806
77.5174
74.0467
70.4103
66.8472
63.3889
60.1078
57.0643
54.217
51.4606
48.6613
45.7316
42.5934
39.3603
44.9642
46.0275
47.6081
49.1331
50.4935
52.3308
55.6024
60.6781
66.7514
72.5952
77.3159
80.8871
83.1779
83.6985
81.6767
77.4946
73.1329
68.4067
63.8477
59.6325
56.0212
53.0215
50.5988
48.7237
47.3561
46.397
45.6935
45.1053
44.4546
43.6965
7.15008
10.1887
12.2503
14.0923
15.7181
17.1293
18.2566
19.0252
19.4014
19.405
19.052
18.4213
17.5304
16.4436
15.1319
13.516
11.5363
9.59743
8.13511
7.12033
6.00743
4.48631
2.7404
1.1501
0.237654
0.207513
1.04319
1.28729
1.53788
1.69176
4.86316
6.02577
6.98497
7.80727
8.46611
8.96134
9.2854
9.43827
9.44151
9.31951
9.09634
8.78505
8.40607
7.95257
7.42108
6.72178
5.9113
5.21974
4.82749
4.55804
4.05412
3.23809
2.22602
1.06621
0.372248
0.453283
0.578256
0.671846
0.770126
0.844272
4.53147
5.64788
6.61289
7.35371
7.85614
8.14216
8.25075
8.21504
8.07781
7.87558
7.63148
7.35151
7.04391
6.70267
6.30817
5.78422
5.16897
4.68251
4.44117
4.26827
3.87795
3.19104
2.30946
1.29401
0.523672
0.476191
0.534466
0.598549
0.708284
0.840056
4.35972
5.5345
6.593
7.39127
7.8771
8.10825
8.12284
7.9895
7.78526
7.54662
7.29521
7.03044
6.75344
6.46326
6.12659
5.66713
5.11787
4.68906
4.4779
4.31029
3.9355
3.29939
2.47154
1.51925
0.69971
0.526456
0.562047
0.613232
0.714715
0.866046
4.20765
5.42584
6.57668
7.45373
7.97557
8.18213
8.14922
7.97605
7.73529
7.48766
7.24621
7.00161
6.75745
6.4965
6.19129
5.76334
5.24718
4.84847
4.63859
4.4566
4.07978
3.45693
2.65183
1.72786
0.891203
0.608021
0.607361
0.64812
0.746641
0.920655
3.97479
5.21357
6.44225
7.37763
7.93783
8.17323
8.15875
7.98568
7.74754
7.51197
7.28859
7.06967
6.85273
6.62061
6.33682
5.92696
5.43612
5.06301
4.85209
4.65077
4.26229
3.64078
2.84342
1.93209
1.0877
0.718052
0.664768
0.696026
0.792582
0.985732
3.56738
4.78468
6.07739
7.10741
7.76268
8.04986
8.07742
7.94161
7.74937
7.54136
7.35484
7.16982
6.98227
6.77604
6.50864
6.1142
5.65133
5.30883
5.09949
4.87694
4.47025
3.84248
3.04682
2.14002
1.29175
0.850758
0.736418
0.75221
0.843942
1.04944
3.07451
4.18976
5.49132
6.58964
7.35681
7.76969
7.88893
7.83214
7.70398
7.55729
7.42
7.27558
7.12042
6.93882
6.68678
6.31144
5.88702
5.58195
5.37646
5.1299
4.69886
4.05983
3.26287
2.35845
1.5056
1.00495
0.826446
0.815662
0.897548
1.10443
2.59284
3.54893
4.76669
5.89154
6.7658
7.32144
7.59316
7.65481
7.62228
7.55571
7.47449
7.37647
7.25636
7.09966
6.86493
6.51748
6.14466
5.88421
5.68296
5.40784
4.946
4.29068
3.49088
2.59008
1.73296
1.1822
0.939214
0.88807
0.953594
1.14964
2.16952
2.94362
4.02515
5.12525
6.07754
6.77282
7.20264
7.41917
7.50305
7.52657
7.51536
7.46918
7.38681
7.25643
7.04401
6.73751
6.43064
6.22138
6.02124
5.71013
5.21059
4.53387
3.72989
2.83505
1.97637
1.38308
1.07708
0.975144
1.01388
1.18906
1.82616
2.43395
3.35422
4.3836
5.37034
6.18259
6.76104
7.14179
7.35661
7.47947
7.54501
7.55511
7.5132
7.41185
7.22983
6.98083
6.75334
6.59691
6.3911
6.03603
5.49213
4.78907
3.98088
3.09259
2.23617
1.60694
1.2418
1.08285
1.08532
1.22966
1.57188
2.04627
2.80323
3.72957
4.70627
5.60081
6.31265
6.83806
7.19444
7.4226
7.56778
7.63904
7.64074
7.57282
7.43236
7.25895
7.12249
7.01508
6.79279
6.38509
5.7905
5.05744
4.24256
3.3625
2.51271
1.85364
1.43459
1.21733
1.17394
1.2802
1.41359
1.77844
2.39399
3.1973
4.1313
5.06647
5.88521
6.53465
7.03006
7.36814
7.59082
7.72588
7.77844
7.75078
7.66553
7.58682
7.54649
7.47956
7.2268
6.75762
6.1072
5.34244
4.51843
3.64814
2.80588
2.12435
1.65647
1.38138
1.28511
1.34908
1.34111
1.6357
2.11952
2.81446
3.66748
4.6067
5.50178
6.25943
6.88123
7.31972
7.6202
7.82545
7.9373
7.96173
7.94874
7.98391
8.03771
7.99527
7.69572
7.15635
6.44696
5.65069
4.81499
3.95223
3.11899
2.42158
1.90899
1.57751
1.42389
1.44291
1.36879
1.60188
1.98481
2.55207
3.31841
4.23674
5.18024
6.03163
6.7527
7.28333
7.67167
7.95251
8.13316
8.22623
8.30851
8.47248
8.61512
8.56972
8.20611
7.58922
6.82004
5.9923
5.14344
4.28595
3.46472
2.75131
2.19551
1.80894
1.59789
1.57194
1.53475
1.70214
1.96712
2.41761
3.0708
3.94259
4.91388
5.83864
6.64321
7.26506
7.75749
8.12666
8.39007
8.57329
8.77637
9.07764
9.28564
9.21557
8.77348
8.0738
7.24523
6.38289
5.52211
4.67408
3.85835
3.12371
2.52243
2.08076
1.81302
1.73845
1.82136
1.93251
2.11103
2.39212
2.92608
3.72589
4.7014
5.68491
6.56355
7.27941
7.90061
8.37522
8.74139
9.04332
9.39293
9.83286
10.0787
9.96006
9.42732
8.64186
7.75143
6.85155
5.9872
5.14657
4.32075
3.55372
2.90049
2.40126
2.07543
1.95006
2.23153
2.28931
2.3761
2.51205
2.88145
3.58931
4.54773
5.57675
6.52594
7.37497
8.13523
8.73638
9.23368
9.69106
10.2136
10.7855
11.0409
10.8519
10.2195
9.34514
8.38804
7.46637
6.60002
5.73955
4.8803
4.06188
3.3458
2.78331
2.3954
2.21428
2.77444
2.75863
2.75611
2.76027
2.94564
3.53297
4.45661
5.52097
6.55496
7.59275
8.50815
9.26388
9.93323
10.5914
11.3168
12.0066
12.2468
11.9713
11.234
10.265
9.24724
8.33663
7.42516
6.50391
5.57535
4.67691
3.88252
3.24667
2.78897
2.54418
3.44922
3.35465
3.26173
3.14533
3.15413
3.56188
4.43168
5.53658
6.74526
7.97083
9.08458
10.0396
10.9372
11.8513
12.8145
13.6051
13.8135
13.4492
12.6061
11.5498
10.5557
9.57494
8.55229
7.50939
6.45625
5.44505
4.54848
3.82236
3.28202
2.96103
4.29629
4.11903
3.92913
3.68292
3.51918
3.7655
4.55861
5.75924
7.16285
8.59533
9.9653
11.1881
12.3909
13.6288
14.8731
15.7504
15.9263
15.5013
14.5726
13.5249
12.4912
11.3318
10.0958
8.84455
7.60925
6.43975
5.40462
4.56052
3.91617
3.49966
5.38779
5.12197
4.82688
4.43949
4.10104
4.1656
4.95483
6.27401
7.89081
9.61153
11.3122
12.9046
14.5156
16.1612
17.7463
18.7091
18.8866
18.5052
17.5762
16.5058
15.2327
13.7727
12.2278
10.6789
9.1797
7.78263
6.55277
5.54596
4.76133
4.21837
6.83806
6.48198
6.07899
5.54391
5.01982
4.90843
5.68636
7.19584
9.12506
11.235
13.3956
15.496
17.6493
19.8064
21.8219
22.8995
23.1983
22.9237
21.9379
20.6814
19.058
17.1977
15.2343
13.2788
11.4055
9.67964
8.16745
6.92518
5.94074
5.2226
8.85008
8.4138
7.9151
7.24379
6.52956
6.25561
7.05448
8.83122
11.1975
13.8581
16.6569
19.4409
22.2963
25.0827
27.6693
28.948
29.3339
29.0382
28.0058
26.4236
24.3788
22.0234
19.5247
17.0419
14.6667
12.4762
10.5523
8.95891
7.67408
6.70536
11.7844
11.2929
10.7392
9.99493
9.14654
8.7493
9.61344
11.7625
14.7333
18.1372
21.7786
25.4368
29.1442
32.6746
35.8932
37.2632
37.624
37.217
36.0052
34.0772
31.5867
28.7006
25.6013
22.5153
19.5227
16.7219
14.2192
12.1092
10.3759
9.01682
16.2637
15.7499
15.2218
14.5601
13.8046
13.4098
14.4359
17.0373
20.7675
25.0733
29.7167
34.3752
38.9969
43.234
46.9803
48.1079
48.1518
47.0632
45.3117
42.9634
40.1645
37.0378
33.702
30.1707
26.611
23.1535
19.9462
17.1537
14.8047
12.7859
23.1121
22.6086
22.2387
21.9048
21.6432
21.6873
23.1016
26.2001
30.6592
35.8427
41.4355
46.9894
52.338
56.9583
60.698
60.5866
59.1221
56.8358
54.2991
51.4631
48.4289
45.2779
42.0595
38.7596
35.3717
31.8868
28.3636
24.9413
21.7462
18.9122
32.4706
32.1384
32.1371
32.3641
32.9447
34.2736
36.5189
40.1735
45.0691
50.7656
56.8425
62.7547
68.1991
72.3554
74.6572
71.5366
67.955
64.0601
60.5127
57.1426
54.006
51.1127
48.4468
45.8771
43.3311
40.6399
37.6971
34.519
31.2036
27.9953
41.2228
41.5655
42.3035
43.237
44.6027
47.0365
50.9035
55.5912
60.8171
66.4733
72.256
77.5837
82.0355
84.1089
83.0852
76.4318
70.4553
64.7675
60.1194
56.2031
53.0214
50.5089
48.5709
47.1407
45.9723
44.8956
43.6285
42.0236
40.0312
37.852
41.0327
42.4011
44.0544
45.7383
47.6861
50.6135
55.0953
60.8528
66.9155
72.7178
77.9137
82.0246
84.4459
83.7492
79.3515
70.0214
62.4166
55.6212
50.2262
45.935
42.7695
40.5837
39.2562
38.6411
38.568
38.8997
39.3924
39.8354
40.0682
40.158
10.3174
14.0599
16.2257
18.1817
19.932
21.4863
22.7756
23.6764
24.1082
24.0629
23.533
22.6036
21.2825
19.6469
17.6498
15.1951
12.4306
10.4973
10.2514
10.8312
10.1021
7.71813
4.54534
1.3976
0.233677
1.12716
1.42813
1.71708
1.96262
1.98069
6.45269
7.59017
8.43777
9.25319
9.97341
10.5702
11.0068
11.2466
11.2924
11.1598
10.8801
10.4633
9.94577
9.30072
8.5289
7.50792
6.47478
6.01552
6.39756
6.81177
6.32522
5.09217
3.53051
1.51419
0.44128
0.583004
0.686951
0.793612
0.932345
1.07216
5.95858
6.85441
7.66718
8.4012
8.9859
9.39228
9.61945
9.66399
9.55538
9.33392
9.03543
8.67167
8.26774
7.80471
7.25508
6.51231
5.76749
5.523
5.90422
6.21215
5.7928
4.79054
3.45149
1.81245
0.507638
0.508357
0.588021
0.698561
0.871613
1.09613
5.65723
6.53839
7.46842
8.30772
8.9224
9.30127
9.44456
9.39187
9.20123