/*--------------------------------*- C++ -*----------------------------------*\
  =========                 |
  \\      /  F ield         | OpenFOAM: The Open Source CFD Toolbox
   \\    /   O peration     | Website:  https://openfoam.org
    \\  /    A nd           | Version:  12
     \\/     M anipulation  |
\*---------------------------------------------------------------------------*/
FoamFile
{
    format      ascii;
    class       volScalarField;
    location    "900/air";
    object      k;
}
// * * * * * * * * * * * * * * * * * * * * * * * * * * * * * * * * * * * * * //

dimensions      [0 2 -2 0 0 0 0];

internalField   nonuniform List<scalar> 
243000
(
0.0385015
0.0531832
0.0601032
0.0650538
0.0684095
0.0704528
0.0712777
0.0710141
0.0697607
0.0677183
0.0651123
0.0623516
0.0597723
0.0578708
0.0568955
0.0569561
0.0574767
0.0578479
0.0577008
0.0569266
0.0555593
0.0537008
0.0514884
0.0491084
0.0468137
0.0443752
0.0409313
0.0352221
0.0269701
0.0270586
0.0576877
0.0807021
0.0926546
0.0998086
0.103909
0.105816
0.106123
0.105258
0.103526
0.1013
0.0988285
0.0964896
0.094514
0.093301
0.0927912
0.0926027
0.0915698
0.089218
0.0857817
0.0816772
0.0772622
0.0727561
0.0682633
0.0639127
0.0600122
0.0567269
0.0531532
0.0480281
0.0402704
0.0340495
0.0587816
0.0769421
0.0988893
0.113023
0.121642
0.126643
0.12912
0.129846
0.129424
0.128388
0.127018
0.125719
0.124723
0.124416
0.124575
0.124535
0.122744
0.118797
0.113268
0.106878
0.100204
0.0935713
0.0871132
0.0809509
0.0753546
0.0705006
0.0656634
0.0597143
0.0516326
0.0427985
0.0573785
0.0701737
0.0884704
0.108418
0.123345
0.134008
0.140457
0.144179
0.146115
0.146998
0.147204
0.147224
0.14731
0.147877
0.148632
0.148747
0.146459
0.141459
0.134513
0.126554
0.118303
0.110165
0.102306
0.0948362
0.0879576
0.0818431
0.0759222
0.0693393
0.061135
0.0517324
0.059467
0.0655638
0.0790523
0.0975164
0.114504
0.130987
0.143273
0.151779
0.157312
0.161008
0.163423
0.165203
0.16668
0.168328
0.169803
0.170174
0.16755
0.161741
0.153667
0.144422
0.134847
0.125422
0.11635
0.107741
0.0997447
0.0925216
0.0855776
0.0782763
0.0698576
0.0604054
0.065452
0.0665334
0.0722172
0.0868006
0.1046
0.12199
0.139317
0.153628
0.164002
0.171323
0.176474
0.180359
0.183438
0.186294
0.188558
0.189234
0.186391
0.179969
0.171004
0.160714
0.150038
0.139518
0.129405
0.119811
0.11085
0.102664
0.0948311
0.086795
0.0780999
0.0686302
0.073114
0.0724966
0.0723557
0.0786268
0.0942141
0.113016
0.131708
0.150743
0.166993
0.178557
0.186897
0.193164
0.197995
0.202141
0.205232
0.206237
0.203277
0.196399
0.186743
0.17561
0.164022
0.152581
0.141582
0.131141
0.12135
0.112333
0.103738
0.0949928
0.0859867
0.0764405
0.0816099
0.0804692
0.0782404
0.0778712
0.085736
0.103685
0.124259
0.145084
0.166417
0.183117
0.195077
0.203954
0.210656
0.21614
0.220078
0.22143
0.21844
0.211244
0.201057
0.189256
0.176923
0.164713
0.152961
0.141797
0.1313
0.121569
0.112319
0.102924
0.0935754
0.0838888
0.0905563
0.089358
0.0863509
0.083018
0.0831977
0.0953907
0.116577
0.139378
0.163721
0.185616
0.201319
0.212992
0.221652
0.228505
0.233294
0.235015
0.232071
0.224671
0.214095
0.201774
0.188841
0.175995
0.163611
0.151836
0.14074
0.130397
0.120581
0.110695
0.100935
0.0910592
0.0998107
0.09863
0.0953611
0.0906618
0.0866229
0.0905752
0.10923
0.133613
0.159458
0.186022
0.205864
0.220474
0.231169
0.239407
0.245043
0.247152
0.244316
0.236823
0.225981
0.213272
0.199865
0.186503
0.173594
0.161303
0.149701
0.138839
0.128533
0.118237
0.108072
0.097992
0.10928
0.108075
0.104691
0.0993202
0.0931068
0.0903895
0.103175
0.127847
0.155217
0.184983
0.209097
0.226582
0.239353
0.248988
0.255457
0.257971
0.255293
0.247804
0.236817
0.223839
0.210074
0.196297
0.182952
0.170229
0.158203
0.146906
0.136178
0.125535
0.114992
0.104713
0.118937
0.117611
0.114114
0.108369
0.1009
0.0945826
0.0995748
0.122384
0.151118
0.182905
0.211049
0.231498
0.246336
0.257362
0.264642
0.267579
0.265102
0.2577
0.246676
0.23354
0.219516
0.205415
0.191716
0.178631
0.166249
0.154595
0.143518
0.132585
0.121698
0.111235
0.128796
0.127249
0.123576
0.117563
0.109308
0.10073
0.0987301
0.117627
0.147122
0.180014
0.211916
0.23536
0.25224
0.26463
0.272696
0.276069
0.273833
0.266585
0.255619
0.242424
0.228238
0.213901
0.199924
0.186544
0.173873
0.161933
0.150573
0.139402
0.128206
0.117576
0.138882
0.137024
0.133099
0.126813
0.118029
0.107879
0.101337
0.114152
0.143283
0.176721
0.211796
0.238347
0.25717
0.27088
0.279704
0.28352
0.281561
0.274524
0.263695
0.250538
0.236279
0.221791
0.207611
0.194008
0.181118
0.168961
0.157377
0.146015
0.134551
0.123771
0.14922
0.146969
0.142718
0.136117
0.126896
0.115625
0.106184
0.112347
0.139742
0.173741
0.211039
0.240474
0.261201
0.276186
0.285738
0.290001
0.288351
0.281573
0.270953
0.257919
0.243677
0.229121
0.214817
0.201064
0.188029
0.175721
0.163972
0.15246
0.140828
0.129874
0.159828
0.157114
0.152469
0.1455
0.135855
0.123779
0.112242
0.112162
0.136647
0.170954
0.209761
0.241825
0.264406
0.280603
0.290853
0.295566
0.294254
0.287784
0.277433
0.264599
0.250467
0.235931
0.221579
0.207758
0.194647
0.182252
0.170394
0.158775
0.147036
0.135921
0.170736
0.167488
0.162383
0.154989
0.144895
0.132153
0.118956
0.113787
0.134193
0.168333
0.208057
0.242471
0.266854
0.284174
0.295094
0.300262
0.29932
0.293206
0.283179
0.270607
0.256667
0.242239
0.227933
0.214127
0.201011
0.18859
0.176679
0.164993
0.153197
0.141953
0.181988
0.178125
0.172491
0.164611
0.154027
0.140664
0.126083
0.117251
0.132606
0.165905
0.206009
0.242391
0.268567
0.286929
0.298496
0.304126
0.30359
0.29788
0.28823
0.275995
0.262318
0.248077
0.233901
0.220191
0.207149
0.194769
0.182863
0.171171
0.159367
0.148006
0.193598
0.189059
0.182832
0.1744
0.163267
0.149271
0.13352
0.121813
0.131963
0.163718
0.20369
0.241737
0.269498
0.288879
0.301085
0.307192
0.307101
0.301843
0.292633
0.28081
0.267468
0.253487
0.239516
0.225981
0.213086
0.200818
0.188989
0.177356
0.1656
0.154132
0.205686
0.200384
0.193478
0.184411
0.172658
0.157981
0.141167
0.127098
0.1322
0.161814
0.20114
0.240503
0.269552
0.290048
0.302871
0.309484
0.309882
0.305138
0.296443
0.285098
0.272162
0.258513
0.244823
0.231535
0.218859
0.206777
0.195106
0.183611
0.17197
0.160393
0.218481
0.212264
0.204547
0.19473
0.182268
0.16681
0.149015
0.13288
0.133327
0.160227
0.198395
0.238696
0.268869
0.290282
0.303834
0.311004
0.311951
0.307803
0.299696
0.288904
0.27645
0.263206
0.249871
0.236901
0.224514
0.212695
0.201268
0.190005
0.178571
0.166882
0.231881
0.224938
0.216222
0.205491
0.192194
0.17587
0.157292
0.138973
0.13524
0.158983
0.195706
0.236321
0.267414
0.289667
0.30391
0.311713
0.313295
0.309835
0.302411
0.292257
0.280372
0.267621
0.254719
0.242139
0.230106
0.218621
0.207531
0.196613
0.185504
0.173933
0.245464
0.238262
0.228841
0.216925
0.202635
0.185466
0.165449
0.145095
0.137882
0.15821
0.193359
0.233354
0.265108
0.288096
0.303007
0.31149
0.313805
0.311152
0.304534
0.295139
0.283934
0.27178
0.259408
0.247301
0.2357
0.224627
0.213965
0.2035
0.192847
0.181612
0.259078
0.251716
0.24219
0.229433
0.21421
0.195869
0.173767
0.151332
0.141148
0.158071
0.19148
0.229722
0.261664
0.285205
0.300751
0.309964
0.313127
0.311417
0.305818
0.29737
0.286988
0.27558
0.263883
0.252381
0.241328
0.230771
0.220629
0.210713
0.200623
0.189881
0.27244
0.26515
0.256018
0.243492
0.226586
0.206139
0.182131
0.15779
0.145061
0.158738
0.190326
0.225676
0.256809
0.280454
0.296432
0.306334
0.310453
0.309876
0.305448
0.298234
0.28898
0.278556
0.267741
0.257028
0.246719
0.236859
0.227384
0.218121
0.208652
0.198461
0.285431
0.278283
0.268424
0.254409
0.237223
0.216082
0.190968
0.165213
0.150391
0.161259
0.190594
0.223661
0.252529
0.274741
0.290378
0.300575
0.305723
0.306558
0.303756
0.298057
0.290277
0.281066
0.271075
0.260853
0.251229
0.242207
0.233573
0.225077
0.216269
0.206617
0.294101
0.286361
0.27717
0.265023
0.248931
0.228087
0.202738
0.176416
0.160258
0.168915
0.196428
0.227292
0.254135
0.27522
0.290662
0.301088
0.306972
0.308922
0.307475
0.303142
0.296597
0.288441
0.279253
0.269538
0.25991
0.250589
0.241563
0.232691
0.223708
0.214256
0.312952
0.304835
0.295373
0.283589
0.268409
0.248924
0.225321
0.200878
0.185397
0.192552
0.21815
0.246896
0.271858
0.291676
0.306511
0.316635
0.32256
0.324986
0.324257
0.320711
0.31493
0.307447
0.298782
0.28939
0.27972
0.270022
0.260371
0.250759
0.240985
0.230722
0.353014
0.345977
0.338543
0.330019
0.319447
0.306019
0.289811
0.273561
0.264169
0.271093
0.292495
0.316753
0.33758
0.354066
0.366503
0.374405
0.378639
0.379942
0.378508
0.374568
0.368643
0.361135
0.352473
0.343039
0.333136
0.322814
0.311926
0.300739
0.289172
0.277121
0.510218
0.509438
0.511129
0.511882
0.511
0.508179
0.503836
0.50018
0.500052
0.501482
0.50799
0.517351
0.525046
0.53123
0.536366
0.538505
0.538973
0.538601
0.537259
0.535115
0.532373
0.529263
0.525893
0.522646
0.519521
0.515147
0.506917
0.497773
0.488318
0.478322
0.0795486
0.0960751
0.105073
0.111835
0.116454
0.119255
0.12041
0.120176
0.118781
0.116554
0.113728
0.110708
0.107688
0.10501
0.102603
0.100131
0.0965545
0.0914417
0.0850333
0.0776833
0.0696593
0.0611067
0.0522528
0.0435565
0.0369651
0.0326607
0.0286144
0.0241106
0.0271143
0.0319578
0.183405
0.196285
0.20101
0.203771
0.203407
0.200767
0.196539
0.191608
0.186513
0.181652
0.17696
0.17247
0.167819
0.162953
0.157239
0.149671
0.138774
0.125549
0.112693
0.100694
0.0896736
0.0792725
0.0689822
0.0587551
0.0503361
0.0451655
0.0426328
0.0411134
0.0464941
0.0448333
0.196
0.237894
0.247826
0.256322
0.258371
0.256275
0.251854
0.246878
0.242193
0.238063
0.234052
0.229897
0.225033
0.219378
0.212209
0.20216
0.187351
0.169403
0.1519
0.135701
0.121113
0.107734
0.0948198
0.0820294
0.0709625
0.06401
0.0603772
0.0571421
0.0572965
0.0583641
0.167614
0.226946
0.256718
0.277633
0.287095
0.289517
0.287694
0.284792
0.282508
0.280833
0.278901
0.276185
0.272039
0.266437
0.258697
0.247207
0.22981
0.208701
0.187732
0.16818
0.150588
0.134593
0.119389
0.104469
0.0911899
0.0823466
0.0775216
0.0728739
0.0688302
0.0647628
0.136838
0.191935
0.23319
0.268435
0.291699
0.303831
0.308216
0.310179
0.311971
0.314002
0.315055
0.314448
0.311569
0.306526
0.298713
0.286323
0.267037
0.243626
0.219991
0.197742
0.177658
0.159462
0.142357
0.125732
0.110657
0.0999665
0.0938526
0.0882904
0.0815719
0.0739407
0.114269
0.155524
0.19812
0.241099
0.275507
0.300398
0.315505
0.325493
0.333107
0.339883
0.344606
0.346601
0.345342
0.341194
0.333625
0.32069
0.300031
0.27489
0.24917
0.224703
0.202531
0.182463
0.163758
0.14576
0.12927
0.116917
0.109439
0.103279
0.0950658
0.0850118
0.0996351
0.128046
0.164034
0.20736
0.249856
0.285027
0.311413
0.332408
0.34751
0.359931
0.36884
0.373831
0.374454
0.371438
0.364334
0.351115
0.329546
0.303121
0.275772
0.249479
0.225541
0.203875
0.183815
0.164668
0.147049
0.133266
0.124388
0.11769
0.108795
0.0973113
0.0937316
0.110885
0.138235
0.17515
0.219816
0.263882
0.299866
0.330952
0.356342
0.375177
0.38868
0.396905
0.399668
0.39793
0.391449
0.378146
0.356121
0.328768
0.30015
0.272381
0.246955
0.223924
0.202703
0.182576
0.164024
0.149033
0.138776
0.131413
0.122308
0.110125
0.0944335
0.104861
0.122581
0.15088
0.191582
0.240121
0.28506
0.324665
0.361049
0.386371
0.404811
0.41643
0.421506
0.421165
0.415416
0.402245
0.380119
0.352143
0.322574
0.293628
0.266966
0.242766
0.220545
0.19958
0.180231
0.16422
0.152663
0.144381
0.13535
0.122946
0.105056
0.108905
0.117996
0.136667
0.170008
0.21733
0.268703
0.315851
0.360549
0.39421
0.417755
0.432876
0.440377
0.44154
0.436599
0.423716
0.401719
0.373482
0.34323
0.313372
0.285699
0.260505
0.23741
0.215728
0.19571
0.17885
0.166134
0.156824
0.14775
0.135356
0.121512
0.122295
0.124657
0.132714
0.156216
0.198719
0.25246
0.305999
0.357407
0.399791
0.427901
0.446637
0.456617
0.459391
0.455302
0.442843
0.421115
0.39293
0.362265
0.331728
0.303244
0.277199
0.25334
0.231056
0.210514
0.192979
0.179281
0.16897
0.159712
0.147451
0.141071
0.139719
0.138503
0.138387
0.150619
0.184877
0.237475
0.295783
0.35249
0.402675
0.435782
0.458041
0.470542
0.474992
0.471798
0.459885
0.438541
0.410614
0.379818
0.348805
0.319676
0.292916
0.268401
0.245618
0.224694
0.206662
0.192184
0.180976
0.171443
0.159373
0.162486
0.159515
0.155937
0.151231
0.152151
0.176089
0.224792
0.285788
0.347066
0.40348
0.442012
0.46742
0.482421
0.4886
0.48634
0.475089
0.454245
0.426708
0.395988
0.364704
0.335076
0.307739
0.282685
0.259512
0.238343
0.219977
0.204912
0.192956
0.183127
0.171315
0.185176
0.180991
0.175715
0.167971
0.162047
0.173407
0.215309
0.276564
0.341589
0.402824
0.446763
0.475154
0.492489
0.50046
0.499181
0.488698
0.468457
0.4414
0.410863
0.379525
0.349535
0.321763
0.2963
0.272858
0.251579
0.233031
0.217562
0.205026
0.194952
0.183503
0.208927
0.203806
0.197296
0.187295
0.176747
0.175928
0.209324
0.268631
0.336319
0.40122
0.449982
0.481488
0.50105
0.510824
0.510586
0.50096
0.481405
0.454879
0.424603
0.393318
0.363157
0.335094
0.309356
0.285782
0.264529
0.24595
0.230252
0.217316
0.207065
0.196154
0.233704
0.227902
0.220385
0.208645
0.194295
0.185814
0.207062
0.262436
0.331502
0.399057
0.45207
0.486684
0.508432
0.519929
0.520843
0.512147
0.493333
0.467362
0.437384
0.406217
0.376065
0.347865
0.321974
0.298414
0.277323
0.258863
0.243109
0.229966
0.21967
0.209477
0.259546
0.253297
0.244918
0.231655
0.214149
0.199571
0.208277
0.258301
0.327355
0.39667
0.453343
0.491054
0.514895
0.528089
0.53028
0.522565
0.504526
0.479105
0.449427
0.418366
0.388374
0.360202
0.334293
0.310883
0.290093
0.271901
0.25627
0.243127
0.232969
0.223675
0.286491
0.280028
0.270935
0.256257
0.236022
0.216381
0.21409
0.256444
0.32408
0.394443
0.454056
0.494634
0.520704
0.535679
0.53926
0.532583
0.515345
0.490454
0.461022
0.430268
0.400373
0.372281
0.346499
0.323348
0.302981
0.285212
0.269882
0.256963
0.247153
0.238963
0.314587
0.308145
0.298511
0.282527
0.259705
0.235177
0.224212
0.256571
0.321841
0.392725
0.454456
0.497625
0.526217
0.543161
0.548249
0.542692
0.526277
0.501875
0.472736
0.442301
0.412456
0.384433
0.358823
0.336022
0.316186
0.298978
0.284123
0.271671
0.262428
0.25558
0.343782
0.33766
0.32775
0.31062
0.285252
0.255955
0.236995
0.258922
0.320742
0.391597
0.454831
0.500561
0.532007
0.551169
0.557933
0.55361
0.538043
0.514202
0.485422
0.455054
0.425193
0.39716
0.371681
0.349259
0.330005
0.313453
0.29922
0.287485
0.279048
0.27383
0.373944
0.368598
0.358818
0.340774
0.31287
0.278641
0.252111
0.263458
0.320738
0.391179
0.455702
0.504518
0.539017
0.560692
0.569402
0.566473
0.551913
0.528684
0.500031
0.469592
0.439536
0.411309
0.385807
0.363671
0.344942
0.329037
0.315509
0.304741
0.297366
0.294079
0.405482
0.401129
0.392015
0.373439
0.343078
0.303662
0.269788
0.270911
0.322741
0.392324
0.458373
0.511212
0.548849
0.57345
0.584518
0.583265
0.569824
0.547192
0.518557
0.487768
0.457164
0.428394
0.402592
0.380376
0.361806
0.346318
0.333513
0.32397
0.317927
0.3166
0.439814
0.436269
0.427944
0.40948
0.376999
0.332202
0.290522
0.282734
0.328999
0.398089
0.466923
0.523003
0.56443
0.592639
0.606733
0.607567
0.595532
0.573512
0.544703
0.513141
0.481456
0.451531
0.424673
0.401603
0.38252
0.367115
0.355074
0.346623
0.341889
0.342218
0.479489
0.476675
0.46888
0.450908
0.417222
0.366531
0.31679
0.300886
0.34449
0.414109
0.485412
0.54534
0.591697
0.624627
0.642924
0.646533
0.636557
0.615466
0.586295
0.553461
0.520019
0.488099
0.459126
0.434019
0.41324
0.396729
0.384292
0.376019
0.371772
0.372702
0.529544
0.527512
0.520428
0.503396
0.467554
0.411824
0.354841
0.331481
0.373355
0.445572
0.522109
0.589983
0.64331
0.682709
0.707431
0.715384
0.709064
0.68995
0.660398
0.625186
0.588355
0.552439
0.519166
0.489774
0.464911
0.444833
0.429587
0.41921
0.412927
0.412178
0.601576
0.600886
0.595539
0.577513
0.538958
0.480867
0.41998
0.392333
0.433052
0.510665
0.596101
0.675264
0.739957
0.789804
0.824069
0.83834
0.836497
0.819814
0.790514
0.75267
0.710582
0.667929
0.627446
0.590644
0.558133
0.530373
0.507715
0.490341
0.47739
0.470274
0.717813
0.718332
0.710873
0.690744
0.65354
0.600248
0.545245
0.521195
0.563487
0.646729
0.742344
0.834207
0.910985
0.971436
1.0153
1.03633
1.03961
1.02675
0.998733
0.959054
0.911781
0.86134
0.811619
0.76435
0.720863
0.681462
0.646459
0.616128
0.589437
0.567081
0.902647
0.900636
0.892205
0.874515
0.845182
0.806541
0.772391
0.766237
0.813878
0.89776
0.997772
1.0948
1.17569
1.2384
1.28386
1.30724
1.31422
1.30579
1.28157
1.24429
1.19734
1.14446
1.08964
1.03523
0.982238
0.930491
0.880039
0.831552
0.784099
0.738285
1.09662
1.09406
1.09804
1.09595
1.08415
1.06923
1.06529
1.0891
1.14495
1.22353
1.30931
1.38916
1.4536
1.50084
1.52866
1.538
1.53661
1.52211
1.49652
1.46183
1.42074
1.37471
1.32632
1.27818
1.23061
1.18287
1.13374
1.08338
1.02931
0.972585
1.13771
1.14536
1.16246
1.17476
1.17676
1.17365
1.18064
1.21324
1.27398
1.34319
1.40095
1.44765
1.48249
1.50335
1.50303
1.48585
1.46475
1.43449
1.39917
1.36153
1.32445
1.28895
1.25604
1.22691
1.20186
1.18013
1.16055
1.1425
1.12387
1.0998
0.0996556
0.122292
0.136146
0.146444
0.153896
0.158974
0.161775
0.162483
0.161354
0.158789
0.155043
0.150593
0.145569
0.140299
0.134587
0.127882
0.119014
0.108402
0.0972272
0.0862941
0.0751243
0.0628227
0.0492672
0.0347324
0.0291222
0.0268688
0.0250006
0.0279718
0.0332296
0.0381262
0.195628
0.230835
0.251385
0.26428
0.271607
0.274412
0.273161
0.268891
0.262536
0.254896
0.246302
0.237097
0.226899
0.215655
0.202527
0.18626
0.166389
0.147878
0.133365
0.12247
0.112111
0.0993596
0.0820941
0.0616136
0.0484242
0.0454207
0.0430545
0.0431759
0.0517455
0.0574063
0.256539
0.297864
0.326966
0.34658
0.357024
0.360204
0.357676
0.351537
0.343318
0.333986
0.323696
0.312557
0.29998
0.285785
0.269008
0.247868
0.22196
0.197816
0.178917
0.164729
0.151598
0.136061
0.115074
0.0895032
0.0702661
0.0646994
0.0612088
0.056793
0.0639361
0.0748403
0.28809
0.338637
0.374114
0.400919
0.41501
0.419888
0.417637
0.411378
0.403125
0.393869
0.383564
0.372041
0.358575
0.342909
0.32407
0.299862
0.270044
0.241914
0.219399
0.201984
0.186054
0.168023
0.144498
0.115593
0.0914652
0.0828393
0.0780142
0.0704448
0.0731886
0.0832097
0.276184
0.336026
0.391481
0.429876
0.449818
0.459511
0.459913
0.455514
0.448893
0.441091
0.431921
0.420998
0.407523
0.391221
0.371124
0.344737
0.312162
0.281042
0.255552
0.235252
0.216742
0.196579
0.171287
0.140323
0.11251
0.100316
0.0942497
0.0845623
0.0832365
0.0922235
0.2439
0.309868
0.374452
0.424788
0.460533
0.480827
0.487373
0.487198
0.483979
0.478919
0.471814
0.46223
0.449377
0.433001
0.41214
0.384116
0.349646
0.316214
0.288257
0.265413
0.244576
0.222559
0.196024
0.163875
0.133488
0.117565
0.110062
0.0993297
0.0945506
0.101903
0.207498
0.271914
0.339788
0.400776
0.448663
0.481849
0.501237
0.508365
0.510435
0.509303
0.505046
0.497372
0.485601
0.469595
0.448323
0.41914
0.383423
0.348257
0.318267
0.293178
0.270232
0.246579
0.219145
0.186373
0.154343
0.13493
0.125509
0.114385
0.107073
0.112156
0.175506
0.231561
0.297506
0.363992
0.423044
0.469596
0.500643
0.520181
0.529664
0.533626
0.532835
0.527492
0.517165
0.501882
0.480485
0.450597
0.414166
0.377807
0.346143
0.319071
0.294201
0.269074
0.240939
0.207934
0.174988
0.152625
0.140842
0.129396
0.120364
0.12325
0.151733
0.196956
0.256766
0.323502
0.389867
0.448339
0.491514
0.524055
0.54274
0.552805
0.556123
0.553393
0.544773
0.53052
0.509238
0.479099
0.442413
0.405347
0.372323
0.343484
0.316843
0.290357
0.261625
0.228656
0.195333
0.170686
0.15643
0.144277
0.134087
0.135041
0.136946
0.172388
0.223479
0.285794
0.354706
0.422045
0.477073
0.520393
0.550745
0.567598
0.575587
0.575719
0.569013
0.556015
0.535134
0.505175
0.468626
0.431299
0.397154
0.366723
0.338436
0.310674
0.281395
0.248631
0.21531
0.189061
0.172513
0.159243
0.148113
0.147182
0.130038
0.157867
0.199508
0.255099
0.322088
0.394422
0.45952
0.51285
0.554849
0.578631
0.591703
0.595062
0.590393
0.578841
0.558671
0.529306
0.493258
0.455985
0.420928
0.389038
0.359211
0.330235
0.300429
0.267957
0.234941
0.207701
0.1892
0.174623
0.162509
0.159654
0.129249
0.151787
0.184934
0.232119
0.294647
0.368361
0.440858
0.503451
0.554475
0.586576
0.604992
0.61189
0.609389
0.599453
0.580326
0.551959
0.516723
0.479724
0.443905
0.410661
0.37937
0.34924
0.318908
0.286751
0.254287
0.226566
0.206538
0.190675
0.177477
0.172721
0.137951
0.153652
0.1792
0.217513
0.273012
0.345096
0.422555
0.493209
0.552173
0.592736
0.615903
0.626636
0.626474
0.618319
0.60059
0.573607
0.539434
0.50282
0.466356
0.43181
0.399115
0.36789
0.33704
0.305192
0.273436
0.245657
0.22456
0.207571
0.193268
0.18671
0.155053
0.167306
0.18328
0.211692
0.258134
0.325807
0.405689
0.482906
0.548599
0.596786
0.62488
0.639676
0.642176
0.635948
0.619984
0.594739
0.561825
0.525602
0.48856
0.45272
0.41867
0.386402
0.35506
0.323523
0.292567
0.265044
0.243312
0.225435
0.2101
0.201936
0.179882
0.189527
0.199365
0.214289
0.250766
0.311368
0.39104
0.473141
0.544562
0.599407
0.632515
0.651426
0.657002
0.652898
0.63907
0.615876
0.584352
0.548452
0.510804
0.473668
0.438298
0.40503
0.373241
0.342039
0.311935
0.284886
0.262901
0.244398
0.228173
0.21867
0.211698
0.216783
0.22165
0.228148
0.25013
0.302351
0.379269
0.464431
0.540803
0.601243
0.639369
0.662347
0.671486
0.669799
0.658465
0.637588
0.607492
0.571808
0.53347
0.495021
0.458341
0.424101
0.391909
0.361077
0.331833
0.305417
0.283502
0.264622
0.24768
0.237095
0.246622
0.247648
0.248195
0.247923
0.257518
0.298672
0.370813
0.457195
0.537568
0.602739
0.645866
0.673049
0.686212
0.687425
0.678872
0.660538
0.631852
0.596251
0.557075
0.517285
0.479275
0.444064
0.411502
0.381028
0.352628
0.326968
0.30538
0.286326
0.268825
0.257347
0.284245
0.281576
0.277996
0.272419
0.272306
0.300017
0.365895
0.451714
0.535058
0.604183
0.652496
0.68422
0.701853
0.706734
0.701128
0.68555
0.658234
0.6226
0.582409
0.541194
0.501812
0.465614
0.432639
0.402423
0.374831
0.350065
0.328925
0.309794
0.291829
0.279551
0.324716
0.318471
0.310783
0.299997
0.29204
0.307287
0.364331
0.448119
0.533418
0.605805
0.659922
0.696773
0.719363
0.728741
0.726391
0.713745
0.687773
0.652017
0.610643
0.567923
0.527117
0.48984
0.456276
0.426249
0.399337
0.375525
0.354689
0.335405
0.316972
0.303887
0.368112
0.358352
0.34658
0.330665
0.316107
0.320044
0.365887
0.446428
0.532742
0.608441
0.669277
0.711955
0.740135
0.754813
0.756291
0.746747
0.722166
0.686254
0.64366
0.599412
0.557137
0.518532
0.484227
0.454051
0.427731
0.404344
0.383428
0.363695
0.344664
0.330671
0.414672
0.401506
0.385755
0.364805
0.343504
0.336339
0.371556
0.446531
0.5338
0.614292
0.682354
0.731663
0.766255
0.787008
0.793271
0.787061
0.764086
0.728136
0.684648
0.638914
0.595079
0.554879
0.519688
0.488943
0.462054
0.438038
0.416262
0.39548
0.375519
0.360361
0.465025
0.448739
0.429195
0.40332
0.374808
0.357567
0.382157
0.451014
0.539989
0.627463
0.702043
0.758976
0.801016
0.828825
0.84104
0.838667
0.817845
0.78256
0.738844
0.691832
0.64676
0.604839
0.567284
0.534195
0.505046
0.47885
0.45492
0.432089
0.410536
0.393644
0.52064
0.501724
0.478815
0.448378
0.412959
0.38659
0.4005
0.464996
0.556987
0.651064
0.733067
0.799096
0.849808
0.886016
0.905765
0.908082
0.890823
0.857333
0.814979
0.767645
0.719913
0.674263
0.632252
0.59449
0.560788
0.530186
0.502032
0.475845
0.451565
0.431916
0.584713
0.564024
0.538707
0.504629
0.463035
0.428124
0.430209
0.494288
0.589867
0.690958
0.783214
0.860949
0.921695
0.968052
0.997465
1.0059
0.994351
0.964799
0.923711
0.874388
0.822011
0.770266
0.721189
0.675922
0.634801
0.597243
0.562784
0.531291
0.502431
0.478265
0.664061
0.643225
0.617149
0.581147
0.535029
0.492786
0.484117
0.546822
0.648468
0.759461
0.864961
0.956399
1.03087
1.08939
1.13067
1.14558
1.13881
1.11215
1.07125
1.01955
0.961906
0.902867
0.844858
0.789626
0.738202
0.690684
0.646988
0.607198
0.570825
0.539503
0.771146
0.752248
0.727856
0.693291
0.646857
0.601516
0.586221
0.646264
0.754348
0.876437
0.996013
1.10241
1.19076
1.26059
1.31228
1.33223
1.32878
1.30428
1.26352
1.20977
1.14752
1.08176
1.0151
0.949362
0.886206
0.826505
0.770691
0.719239
0.671535
0.628761
0.924843
0.909374
0.889555
0.861401
0.822792
0.783403
0.769615
0.827228
0.937611
1.06632
1.19595
1.31309
1.41039
1.48602
1.54127
1.56048
1.55548
1.52941
1.48722
1.4322
1.36843
1.30022
1.23003
1.15913
1.08905
1.02043
0.953607
0.889472
0.827783
0.769605
1.13402
1.12228
1.10999
1.09253
1.0699
1.04926
1.04898
1.10657
1.2112
1.33491
1.4616
1.57635
1.66968
1.73851
1.7812
1.78414
1.76461
1.72514
1.67495
1.61762
1.55691
1.4946
1.43294
1.37277
1.31302
1.25177
1.18859
1.12351
1.05603
0.987336
1.32434
1.32302
1.32421
1.32066
1.31295
1.31074
1.33714
1.4026
1.49913
1.608
1.71387
1.8061
1.87479
1.91609
1.92136
1.8862
1.83755
1.77815
1.71594
1.65398
1.59624
1.54327
1.49612
1.45535
1.41969
1.38651
1.35254
1.31494
1.27022
1.2181
1.3191
1.33489
1.35295
1.36436
1.36912
1.37845
1.41106
1.47873
1.57176
1.66674
1.74569
1.80501
1.84265
1.85022
1.81705
1.7512
1.68042
1.60417
1.53109
1.46471
1.40942
1.36565
1.33312
1.31136
1.29931
1.29465
1.2941
1.2945
1.29135
1.2822
0.120486
0.148717
0.164023
0.175763
0.184683
0.191317
0.195573
0.197285
0.196522
0.193644
0.18888
0.182792
0.175475
0.167284
0.157884
0.146499
0.132258
0.117689
0.106308
0.0983413
0.0890052
0.0744503
0.054596
0.0305138
0.0289166
0.0274428
0.030941
0.0364809
0.042099
0.0460288
0.198374
0.246952
0.277228
0.297981
0.312841
0.322819
0.327348
0.326418
0.321075
0.312351
0.300894
0.287496
0.271877
0.254181
0.233343
0.208272
0.181986
0.164334
0.1583
0.157771
0.151851
0.1335
0.100916
0.0597638
0.0413291
0.040869
0.0450194
0.0536022
0.0664378
0.0759505
0.24341
0.308253
0.355045
0.38947
0.41317
0.427441
0.432535
0.429903
0.421847
0.409913
0.394914
0.377566
0.357504
0.334743
0.308055
0.275853
0.242172
0.219903
0.211668
0.209601
0.201561
0.179637
0.140612
0.0898089
0.0578226
0.0561554
0.0595559
0.0670032
0.0817875
0.0970265
0.269263
0.349713
0.410359
0.456457
0.487455
0.505256
0.511039
0.507552
0.498169
0.484687
0.467957
0.448503
0.42592
0.400112
0.369769
0.332913
0.294448
0.268566
0.257353
0.252388
0.241711
0.217233
0.174832
0.118313
0.0760675
0.0705986
0.0729289
0.0786034
0.0924327
0.110666
0.285187
0.373619
0.449442
0.504517
0.54173
0.563397
0.57091
0.567869
0.558556
0.544885
0.527707
0.507307
0.483299
0.455528
0.422563
0.382296
0.340578
0.311857
0.297725
0.289629
0.276202
0.249772
0.205722
0.145881
0.0962828
0.0851041
0.0857206
0.0900577
0.10294
0.123589
0.286316
0.377721
0.465475
0.534214
0.577203
0.604155
0.615231
0.614497
0.606824
0.594315
0.577777
0.557353
0.532737
0.503733
0.468722
0.425875
0.382032
0.351189
0.334397
0.323262
0.307171
0.279112
0.234415
0.173062
0.118352
0.100428
0.0986065
0.10179
0.11387
0.135998
0.275011
0.36493
0.457222
0.533912
0.592776
0.628333
0.645457
0.649526
0.645169
0.635104
0.620173
0.600503
0.575906
0.546275
0.509628
0.465008
0.419963
0.387676
0.368537
0.354508
0.335857
0.30636
0.261591
0.200039
0.142102
0.117324
0.112042
0.113825
0.124957
0.148093
0.256097
0.340476
0.434247
0.517641
0.58535
0.634107
0.662637
0.674334
0.67512
0.668679
0.656211
0.637948
0.613905
0.584122
0.546325
0.500715
0.455381
0.422202
0.400996
0.384192
0.363044
0.332207
0.287679
0.226946
0.167249
0.136258
0.126515
0.126259
0.13604
0.159326
0.234076
0.309955
0.40186
0.490094
0.566314
0.625328
0.667189
0.689984
0.697966
0.696185
0.686887
0.670582
0.647548
0.618043
0.579643
0.533859
0.489035
0.455458
0.432426
0.412904
0.389271
0.357105
0.312946
0.253735
0.193509
0.157335
0.142608
0.139263
0.147163
0.169499
0.212126
0.278291
0.365463
0.455785
0.539397
0.608641
0.661486
0.698151
0.714552
0.718641
0.713045
0.699143
0.677538
0.648717
0.610346
0.565236
0.521619
0.488113
0.463387
0.441106
0.41494
0.381398
0.337587
0.280315
0.220606
0.180402
0.16059
0.153334
0.158637
0.178895
0.192517
0.249293
0.329691
0.419174
0.507951
0.586702
0.650326
0.697929
0.725673
0.736857
0.735445
0.724305
0.70453
0.676824
0.639198
0.595618
0.55379
0.520646
0.494259
0.469166
0.440392
0.405386
0.361832
0.306661
0.248259
0.205161
0.180587
0.168927
0.170956
0.188121
0.177184
0.225575
0.297791
0.383884
0.475243
0.562002
0.635977
0.69392
0.733173
0.751424
0.754855
0.74674
0.729193
0.703079
0.667003
0.625785
0.586175
0.553556
0.525426
0.497423
0.465938
0.429388
0.385968
0.332856
0.276277
0.231359
0.2026
0.186423
0.184666
0.197885
0.168327
0.209004
0.272194
0.35259
0.444179
0.536709
0.619955
0.687466
0.737328
0.762817
0.771946
0.767156
0.752248
0.72827
0.694621
0.65655
0.619364
0.58732
0.557274
0.526212
0.491923
0.453777
0.410341
0.359115
0.304641
0.258831
0.226528
0.206081
0.199991
0.208989
0.166086
0.201534
0.254818
0.327915
0.416707
0.512654
0.603617
0.680076
0.738862
0.771832
0.787319
0.786306
0.774508
0.753275
0.722988
0.688772
0.654196
0.622471
0.590226
0.555921
0.518767
0.479007
0.435407
0.385859
0.333566
0.287487
0.252229
0.227841
0.217246
0.222177
0.175946
0.2032
0.247531
0.311012
0.394362
0.491214
0.588099
0.672467
0.738679
0.779483
0.801555
0.805071
0.796895
0.779096
0.753117
0.723361
0.691704
0.659574
0.624751
0.587042
0.54701
0.505614
0.461783
0.413742
0.363605
0.317406
0.27962
0.251672
0.236735
0.23828
0.198489
0.218873
0.249909
0.303072
0.378256
0.473395
0.57427
0.665309
0.737999
0.786807
0.815281
0.824344
0.820469
0.806887
0.786121
0.761275
0.732117
0.699217
0.661469
0.620242
0.577365
0.534296
0.490291
0.443767
0.395266
0.348821
0.30873
0.277585
0.2587
0.256779
0.231156
0.244526
0.265909
0.302773
0.368839
0.459915
0.562761
0.659143
0.737431
0.793925
0.829447
0.845014
0.846467
0.838025
0.823226
0.803564
0.776382
0.742191
0.701215
0.656443
0.610762
0.56605
0.522221
0.476914
0.429173
0.382076
0.339731
0.305663
0.283234
0.277756
0.271881
0.278555
0.289848
0.312987
0.366087
0.451131
0.554006
0.654389
0.737658
0.801892
0.845186
0.868086
0.876353
0.874117
0.865872
0.851419
0.825585
0.78958
0.745194
0.696925
0.648557
0.60306
0.559379
0.514024
0.466001
0.417582
0.372918
0.336093
0.310344
0.301319
0.318679
0.317692
0.320143
0.331871
0.369862
0.447056
0.548233
0.651363
0.739879
0.812161
0.863897
0.895078
0.911502
0.917009
0.915882
0.906255
0.881107
0.842922
0.795122
0.74352
0.692956
0.648081
0.602988
0.556068
0.506458
0.455847
0.408751
0.369222
0.340237
0.327461
0.368763
0.361045
0.355918
0.356011
0.381283
0.447057
0.545469
0.650245
0.745012
0.82667
0.887359
0.927935
0.953898
0.968648
0.975495
0.969844
0.944826
0.904528
0.853568
0.799132
0.74986
0.702843
0.654383