/*--------------------------------*- C++ -*----------------------------------*\
  =========                 |
  \\      /  F ield         | OpenFOAM: The Open Source CFD Toolbox
   \\    /   O peration     | Website:  https://openfoam.org
    \\  /    A nd           | Version:  12
     \\/     M anipulation  |
\*---------------------------------------------------------------------------*/
FoamFile
{
    format      ascii;
    class       volScalarField;
    location    "900/air";
    object      nut;
}
// * * * * * * * * * * * * * * * * * * * * * * * * * * * * * * * * * * * * * //

dimensions      [0 2 -1 0 0 0 0];

internalField   nonuniform List<scalar> 
243000
(
0.000102172
0.00011596
0.000118945
0.000119441
0.000118392
0.000116343
0.00011356
0.000110263
0.000106592
0.000102734
9.8853e-05
9.52407e-05
9.21359e-05
8.99146e-05
8.87689e-05
8.88042e-05
8.9581e-05
9.062e-05
9.16282e-05
9.24894e-05
9.31803e-05
9.37267e-05
9.418e-05
9.46361e-05
9.52902e-05
9.58968e-05
9.53806e-05
9.17857e-05
8.34916e-05
8.67234e-05
0.000372649
0.000427358
0.000442811
0.000443827
0.000438035
0.000428192
0.000416196
0.000403201
0.000389984
0.000377321
0.000365701
0.000355805
0.000348025
0.000343073
0.000340838
0.000340641
0.000340315
0.000338826
0.000336408
0.000333602
0.000330866
0.000328457
0.000326424
0.00032491
0.000324601
0.000326035
0.000326697
0.000321972
0.000306194
0.000292214
0.000447921
0.000508108
0.000579814
0.000620925
0.000645914
0.000659888
0.000667119
0.000669623
0.000669009
0.000666713
0.000663491
0.000660405
0.000658064
0.000657536
0.000658268
0.000658544
0.000654222
0.000643981
0.000629098
0.0006113
0.000592024
0.000572158
0.000552086
0.00053219
0.000513405
0.000496495
0.000479148
0.000456963
0.000425093
0.000387014
0.000444483
0.000488034
0.000547771
0.000605902
0.000647886
0.000676983
0.000694606
0.000704804
0.000710276
0.000713014
0.000714019
0.00071451
0.000715114
0.000716878
0.000719113
0.000719853
0.000714795
0.000702902
0.000685745
0.000665373
0.000643451
0.000620998
0.00059847
0.000576204
0.000554861
0.000535131
0.000515363
0.000492512
0.000462561
0.00042553
0.000456542
0.000475609
0.000518087
0.000574435
0.000621567
0.000667299
0.00069967
0.000722002
0.00073621
0.000745732
0.000752039
0.000756741
0.00076064
0.000764884
0.000768715
0.000770079
0.000764664
0.00075174
0.000733077
0.000710923
0.000687097
0.000662732
0.000638355
0.000614286
0.000591004
0.000569113
0.000547284
0.000523383
0.000494492
0.00045986
0.000480156
0.000482853
0.000498538
0.000542211
0.000594137
0.00064297
0.000688136
0.000724526
0.000750647
0.000768657
0.000781175
0.000790553
0.000797939
0.000804719
0.000810154
0.000812179
0.000806629
0.000793083
0.000773433
0.000750051
0.000724864
0.000699081
0.000673313
0.000647878
0.000623137
0.000599606
0.000576226
0.00055122
0.000522912
0.000490246
0.000507831
0.000505626
0.000503119
0.000519349
0.000563992
0.000617776
0.000668166
0.000716011
0.000756237
0.000784023
0.00080356
0.000817995
0.000828984
0.000838309
0.000845319
0.000848003
0.000842486
0.000828594
0.000808333
0.000784122
0.000757972
0.000731155
0.000704356
0.000677896
0.000652068
0.000627302
0.000602781
0.00057676
0.000548756
0.000517492
0.000536555
0.000533165
0.000525592
0.000521584
0.000540485
0.000591129
0.000647945
0.00070075
0.000753424
0.000793201
0.00082057
0.000840389
0.000855079
0.000866924
0.000875469
0.000878802
0.000873445
0.000859431
0.000838825
0.000814093
0.000787286
0.000759735
0.00073218
0.000704968
0.000678346
0.000652663
0.000627309
0.000600494
0.000572558
0.000542226
0.000565114
0.000561848
0.000552749
0.000541473
0.000537554
0.000568159
0.000626779
0.000686614
0.000745951
0.000797686
0.000833159
0.00085866
0.00087712
0.000891457
0.000901484
0.000905475
0.000900388
0.000886413
0.000865674
0.000840653
0.000813432
0.000785382
0.000757298
0.000729554
0.000702371
0.000676017
0.000650053
0.000622869
0.000594755
0.000565018
0.000593178
0.000590154
0.000580885
0.000566693
0.000552481
0.00055733
0.000606709
0.00067176
0.000734981
0.000797496
0.000842073
0.000873454
0.000895761
0.000912561
0.00092402
0.000928676
0.000923941
0.000910157
0.000889453
0.000864335
0.000836895
0.000808541
0.000780111
0.000752006
0.000724441
0.000697619
0.00067121
0.000643821
0.000615509
0.000586208
0.000620575
0.000617614
0.000608491
0.000593284
0.000574232
0.000561484
0.000590971
0.000656648
0.000725186
0.000794502
0.000848297
0.000885337
0.000911487
0.000930735
0.000943564
0.000948898
0.000944574
0.000931105
0.000910599
0.000885547
0.000858054
0.000829543
0.000800905
0.000772575
0.000744774
0.000717654
0.000690943
0.000663454
0.00063497
0.000606032
0.000647327
0.000644147
0.000635092
0.00061962
0.000598298
0.000577522
0.000583283
0.00064239
0.000715332
0.000789243
0.000851775
0.000894751
0.000924705
0.000946348
0.000960491
0.00096652
0.00096265
0.000949599
0.000929426
0.000904586
0.000877172
0.000848632
0.000819902
0.000791451
0.000763519
0.000736242
0.000709368
0.000681877
0.000653266
0.000624657
0.000673549
0.000669903
0.000660717
0.000645164
0.000622798
0.000597364
0.000584089
0.000630333
0.000705549
0.000782246
0.000853053
0.000902052
0.000935745
0.00095971
0.000975113
0.000981845
0.000978471
0.000965909
0.000946187
0.000921684
0.000894469
0.000866019
0.000837301
0.000808822
0.000780861
0.000753548
0.00072663
0.000699221
0.000670534
0.000642235
0.000699367
0.000695056
0.000685542
0.000669851
0.000647047
0.000618747
0.000596554
0.000622568
0.00069617
0.000774965
0.000852383
0.000907663
0.00094487
0.000971071
0.000987678
0.000995117
0.000992275
0.000980262
0.000961078
0.000937028
0.000910127
0.000881877
0.000853274
0.000824867
0.000796983
0.00076975
0.000742895
0.000715638
0.000686956
0.000658949
0.000724877
0.000719748
0.000709744
0.000693793
0.00067072
0.000640805
0.000612345
0.00061977
0.000687638
0.00076848
0.000850557
0.000911574
0.000952273
0.000980626
0.000998384
0.00100653
0.00100426
0.000992836
0.000974269
0.000950774
0.000924298
0.000896359
0.000867978
0.000839752
0.000812063
0.000785017
0.000758321
0.000731281
0.000702933
0.000675051
0.000750158
0.000744097
0.000733469
0.000717134
0.000693781
0.000663033
0.00063068
0.000621396
0.000680388
0.000762406
0.000847718
0.000914017
0.000958124
0.000988522
0.00100739
0.00101624
0.00101457
0.00100379
0.000985901
0.000963046
0.000937114
0.000909603
0.00088155
0.000853628
0.000826242
0.000799485
0.000773042
0.000746286
0.000718322
0.00069063
0.00077531
0.000768211
0.000756838
0.000739998
0.000716297
0.000684971
0.00064961
0.000629081
0.000675108
0.000756673
0.000844041
0.000915129
0.000962584
0.000994871
0.0010148
0.00102438
0.00102334
0.00101326
0.0009961
0.000973951
0.000948666
0.000921699
0.000894112
0.000866621
0.000839643
0.000813273
0.000787181
0.000760768
0.000733245
0.000705818
0.000800436
0.000792187
0.000779961
0.0007625
0.000738355
0.000706522
0.00066908
0.000640972
0.000672351
0.000751393
0.000839685
0.00091489
0.000965682
0.00099975
0.00102073
0.00103103
0.00103069
0.00102136
0.00100498
0.000983622
0.000959069
0.000932751
0.000905748
0.000878808
0.000852366
0.000826488
0.000800841
0.000774883
0.000747876
0.000720726
0.000825579
0.000816124
0.000802949
0.000784751
0.00076004
0.000727653
0.000688687
0.000655
0.00067218
0.000746709
0.000834791
0.000913569
0.000967362
0.0010032
0.00102522
0.00103629
0.00103669
0.00102817
0.00101265
0.000992178
0.000968445
0.000942869
0.000916554
0.00089028
0.000864487
0.000839217
0.00081414
0.000788753
0.000762355
0.000735489
0.000851043
0.000840241
0.000825979
0.000806901
0.000781482
0.000748449
0.000708202
0.000670212
0.000674255
0.000742737
0.000829443
0.000911149
0.000967457
0.00100528
0.00102832
0.00104022
0.00104141
0.0010338
0.00101924
0.00099973
0.000976905
0.000952163
0.000926641
0.00090114
0.000876102
0.000851563
0.000827195
0.000802521
0.000776858
0.000750261
0.000877233
0.000864864
0.00084931
0.000829153
0.000802866
0.000768993
0.00072763
0.000686167
0.000678776
0.000739589
0.000823764
0.000907642
0.000966215
0.00100572
0.00103001
0.00104282
0.00104492
0.00103832
0.00102482
0.00100637
0.000984557
0.000960752
0.000936124
0.0009115
0.000887325
0.000863635
0.000840126
0.000816339
0.000791588
0.000765269
0.000903621
0.000890438
0.000873308
0.0008518
0.000824427
0.000789554
0.000747582
0.000702228
0.000685387
0.000737362
0.000818629
0.000903082
0.000963569
0.00100465
0.00103016
0.00104404
0.00104718
0.00104175
0.00102944
0.00101218
0.000991489
0.000968745
0.00094513
0.000921486
0.000898272
0.000875545
0.000853048
0.000830357
0.000806749
0.000781489
0.000929561
0.000916286
0.000898631
0.000875311
0.000846594
0.000810798
0.000766935
0.000717947
0.00069371
0.000736341
0.000814125
0.000897391
0.000959362
0.00100192
0.00102864
0.00104367
0.00104803
0.00104394
0.00103302
0.00101712
0.000997724
0.000976198
0.000953742
0.000931209
0.000909075
0.000887436
0.000866107
0.000844701
0.000822478
0.000798559
0.000954852
0.00094163
0.000924321
0.000900536
0.000870592
0.000833402
0.000786125
0.000733606
0.000703063
0.000736784
0.000810599
0.000890434
0.000953084
0.000996854
0.00102479
0.00104109
0.00104687
0.00104434
0.00103514
0.0010209
0.00100301
0.000982933
0.000961868
0.000940661
0.000919805
0.000899429
0.000879421
0.00085946
0.000838804
0.000816478
0.000979064
0.000966295
0.00095017
0.000927616
0.000895384
0.000855015
0.000804916
0.000749415
0.000713764
0.00073927
0.000808616
0.000882853
0.000944208
0.000988488
0.00101737
0.00103494
0.00104235
0.00104169
0.00103444
0.00102229
0.0010064
0.000988141
0.00096879
0.000949206
0.000929951
0.000911152
0.000892724
0.000874374
0.000855357
0.000834666
0.00100207
0.000989795
0.000972739
0.000947879
0.000915905
0.000875275
0.000824246
0.000767105
0.000727689
0.000746242
0.000809827
0.000879208
0.000936473
0.000978412
0.00100692
0.00102513
0.00103432
0.00103603
0.00103149
0.00102191
0.00100856
0.000992484
0.000974707
0.000956149
0.00093834
0.000921332
0.00090476
0.000888197
0.000870823
0.000851634
0.0010169
0.00100365
0.000987846
0.000966666
0.00093782
0.000899053
0.000849202
0.00079278
0.000752168
0.00076488
0.000823053
0.000886959
0.000939795
0.000979424
0.00100747
0.001026
0.00103639
0.00103994
0.00103769
0.00103047
0.00101936
0.00100529
0.000989164
0.000971802
0.000954276
0.000937
0.000919964
0.000902937
0.000885451
0.000866855
0.00104883
0.00103533
0.00101951
0.000999608
0.000973451
0.000938793
0.000894685
0.000845408
0.000809517
0.000818382
0.000869002
0.000925541
0.000972695
0.00100865
0.00103476
0.00105223
0.00106236
0.00106656
0.00106552
0.00105977
0.00105023
0.00103771
0.00102299
0.00100678
0.000989809
0.000972497
0.000954968
0.000937206
0.000918864
0.000899361
0.00111358
0.00110254
0.00109092
0.00107758
0.00106091
0.00103931
0.00101237
0.000983813
0.000965127
0.000973355
0.00100917
0.00105048
0.00108528
0.00111211
0.00113196
0.00114441
0.00115106
0.00115317
0.00115109
0.00114515
0.00113611
0.00112451
0.00111095
0.00109599
0.00108006
0.00106324
0.00104519
0.00102632
0.00100649
0.000985528
0.00133738
0.00133622
0.00133864
0.0013399
0.00133899
0.00133557
0.00133005
0.00132503
0.00132447
0.00132549
0.00133322
0.00134524
0.00135539
0.00136339
0.00137007
0.00137285
0.00137348
0.00137304
0.00137136
0.00136866
0.00136519
0.00136123
0.00135691
0.00135274
0.00134873
0.00134326
0.00133254
0.00132048
0.0013079
0.00129445
0.000148167
0.00015672
0.000157814
0.000157013
0.000154783
0.000151608
0.000147774
0.000143556
0.000139159
0.000134819
0.000130673
0.000126946
0.000123739
0.000121237
0.000119381
0.000117974
0.000116376
0.000114229
0.000111553
0.000108388
0.000104706
0.000100377
9.52924e-05
8.95244e-05
8.5071e-05
8.25951e-05
8.00486e-05
7.59655e-05
8.34473e-05
9.41766e-05
0.00069964
0.000767168
0.000770388
0.000758958
0.000736996
0.000708465
0.000676073
0.000643922
0.000614259
0.000588906
0.00056722
0.000548927
0.000531246
0.00051301
0.000490399
0.000460778
0.000421304
0.000379337
0.000343416
0.000315222
0.000293941
0.000276975
0.000260723
0.000246009
0.000237642
0.000239302
0.000243561
0.000244167
0.000282181
0.000367391
0.00090645
0.00114775
0.00120756
0.0012555
0.00126972
0.00126224
0.00123946
0.00121002
0.00117943
0.00115108
0.00112356
0.0010965
0.00106589
0.00103036
0.000984524
0.000922961
0.000840698
0.000753205
0.000676055
0.000613557
0.000565341
0.000527991
0.000494915
0.00046388
0.000443066
0.000440468
0.000442452
0.000429034
0.00043462
0.000532945
0.000924512
0.00122379
0.00140423
0.00154379
0.00162383
0.00166713
0.00168122
0.00168001
0.00167124
0.00165843
0.0016387
0.00161164
0.00157392
0.00152463
0.0014591
0.00137005
0.00125104
0.00112495
0.00101098
0.00091607
0.000841069
0.000781445
0.000728806
0.000679988
0.000644127
0.000632062
0.000629436
0.000605604
0.000574908
0.000608902
0.000899882
0.00118438
0.00142164
0.00163847
0.00180681
0.00192965
0.00200226
0.00205071
0.00208042
0.00209654
0.00209387
0.00207223
0.00203132
0.00197196
0.0018905
0.00177858
0.00162921
0.00147117
0.00132644
0.00120352
0.00110432
0.0010243
0.000954131
0.000889183
0.000838303
0.00081399
0.000804184
0.000775407
0.000718068
0.000700724
0.000861742
0.00110127
0.00134853
0.00160969
0.00184774
0.00205265
0.00221357
0.00233467
0.00241739
0.00247245
0.00249232
0.00248023
0.00243867
0.00237198
0.00227804
0.00214733
0.00197348
0.0017893
0.00161889
0.00147196
0.00135169
0.00125365
0.00116834
0.00108973
0.00102544
0.000988486
0.000969754
0.000939697
0.000865673
0.000810041
0.000822709
0.00101452
0.00124235
0.0015141
0.00180319
0.00207844
0.0023208
0.00254389
0.00269224
0.00279395
0.00283942
0.00284092
0.00280065
0.00272858
0.0026251
0.00247913
0.00228638
0.00208079
0.00188891
0.00172161
0.00158312
0.00146942
0.00137124
0.00128129
0.00120564
0.00115672
0.00112879
0.0010986
0.00101585
0.000932939
0.000796596
0.000938852
0.00113647
0.00139363
0.00170545
0.00204027
0.0023577
0.0026614
0.00291241
0.00306745
0.00314083
0.00315912
0.00312245
0.00304632
0.00293552
0.00277733
0.00257078
0.00234779
0.00213788
0.00195346
0.00179935
0.00167215
0.00156302
0.00146378
0.0013787
0.00131903
0.00128159
0.00125073
0.00116542
0.00106409
0.00079237
0.000889059
0.00104794
0.00127824
0.00158904
0.00196134
0.00234682
0.00272713
0.00309084
0.00329691
0.00340559
0.00343929
0.00340823
0.00332941
0.00321298
0.00304549
0.00282893
0.00259226
0.00236754
0.00216864
0.0020013
0.00186249
0.00174401
0.00163718
0.00154443
0.00147547
0.00142864
0.00139317
0.00131114
0.0011988
0.000861589
0.000894366
0.000994817
0.00118697
0.00148073
0.00186573
0.00230505
0.00275399
0.00319796
0.00348612
0.00363373
0.00368407
0.00366116
0.00358167
0.00346093
0.00328657
0.00306243
0.00281625
0.00257942
0.00236837
0.00218988
0.00204112
0.00191458
0.00180157
0.00170277
0.00162612
0.00157067
0.00152878
0.00145155
0.00133357
0.000982236
0.000983734
0.00101679
0.00113137
0.00138632
0.001774
0.0022447
0.00275223
0.00326626
0.00364825
0.00382634
0.00389521
0.00388374
0.00380633
0.00368242
0.00350321
0.00327334
0.00302102
0.00277494
0.00255408
0.00236602
0.00220874
0.00207521
0.00195715
0.00185385
0.00177117
0.00170834
0.00165966
0.00158747
0.00146767
0.0011378
0.00111833
0.00110992
0.00114124
0.00132362
0.00167912
0.00217094
0.00272805
0.00329855
0.00376901
0.00398853
0.00407835
0.00407912
0.00400568
0.00387997
0.0036976
0.00346372
0.00320741
0.00295559
0.00272699
0.002531
0.00236616
0.00222656
0.00210442
0.00199794
0.00191089
0.00184216
0.00178724
0.00171991
0.00160098
0.00132001
0.0012841
0.00124599
0.00122449
0.00129064
0.00160265
0.0020935
0.00268778
0.00330927
0.00385376
0.00412769
0.00423577
0.00424946
0.00418181
0.00405549
0.00387155
0.0036354
0.00337684
0.00312209
0.00288818
0.00268577
0.0025146
0.00236968
0.00224398
0.00213554
0.00204564
0.00197259
0.00191253
0.00184988
0.00173388
0.00152334
0.00147479
0.00141338
0.001352
0.00134658
0.00156202
0.00202669
0.00264325
0.00330681
0.00390989
0.00424385
0.00437108
0.00439603
0.00433623
0.00421035
0.00402638
0.00378972
0.00353071
0.00327481
0.0030386
0.0028312
0.00265489
0.00250553
0.00237699
0.00226729
0.00217592
0.00210006
0.00203624
0.00197819
0.00186693
0.00174378
0.00168463
0.00160428
0.00150992
0.00145064
0.00153627
0.00197331
0.00259961
0.00329561
0.003944
0.00433293
0.00448531
0.00452081
0.00446979
0.00434535
0.00416287
0.0039276
0.00366998
0.00341472
0.00317789
0.00296812
0.00278776
0.00263485
0.00250429
0.00239403
0.00230231
0.00222501
0.00215894
0.00210403
0.00200041
0.0019771
0.00190853
0.00181178
0.00169056
0.00158409
0.0015912
0.0019451
0.0025617
0.00327971
0.00396115
0.00439957
0.00457988
0.00462556
0.00458203
0.00446072
0.00428119
0.00404932
0.00379509
0.00354226
0.00330632
0.00309625
0.00291371
0.00275807
0.00262636
0.00251633
0.00242516
0.00234769
0.00228094
0.0022288
0.00213468
0.00221759
0.00214083
0.00202984
0.00188591
0.00173992
0.00168133
0.00192475
0.00253169
0.0032622
0.00396551
0.00444668
0.0046566
0.00470963
0.00467236
0.00455581
0.00438066
0.00415438
0.00390568
0.00365713
0.00342369
0.00321493
0.00303236
0.00287516
0.00274316
0.00263426
0.00254446
0.00246797
0.0024022
0.00235327
0.0022699
0.00245815
0.00237474
0.00225193
0.00208925
0.0019117
0.00180362
0.00193898
0.00251318
0.00324558
0.00396133
0.0044758
0.00471065
0.00477045
0.00473899
0.00462829
0.0044593
0.00424102
0.00400024
0.00375801
0.00352954
0.00332336
0.0031421
0.0029854
0.00285399
0.00274719
0.00265948
0.00258505
0.00252194
0.00247713
0.00240565
0.00269013
0.00260183
0.00247028
0.00229314
0.00209071
0.00193783
0.00199532
0.00250595
0.00323151
0.00395173
0.00448867
0.00473584
0.00480336
0.00477807
0.0046739
0.00451343
0.00430574
0.00407557
0.00384239
0.00362117
0.00341939
0.00324099
0.0030864
0.00295708
0.00285322
0.00276834
0.00269707
0.0026384
0.0025988
0.00254052
0.00290138
0.00281122
0.00267539
0.00248944
0.00226904
0.00207828
0.00206525
0.00250906
0.00322037
0.00393648
0.00447718
0.00471857
0.00480127
0.00478284
0.00468605
0.00453698
0.00434242
0.00412621
0.00390532
0.00369361
0.00349869
0.00332513
0.00317441
0.00304894
0.00294849
0.00286745
0.00280057
0.00274822
0.00271509
0.00267161
0.00307664
0.00298976
0.00285627
0.0026687
0.00243745
0.0022153
0.00214788
0.00250883
0.00320005
0.00389706
0.00441718
0.00466247
0.00475497
0.00474274
0.00465463
0.00452023
0.00434196
0.00414288
0.00393751
0.00373873
0.00355373
0.0033876
0.00324255
0.00312257
0.00302698
0.00295094
0.00288993
0.00284587
0.00282052
0.0027932
0.00320764
0.00312289
0.00300087
0.00282037
0.00258574
0.00233933
0.00223323
0.00251032
0.00314689
0.00379628
0.00429384
0.00455708
0.00464942
0.00464241
0.00456471
0.00444834
0.00428994
0.00411136
0.00392512
0.00374308
0.00357139
0.00341609
0.00328075
0.00316841
0.00307918
0.00300959
0.00295644
0.00292256
0.00290625
0.00289197
0.00329092
0.00320486
0.00309663
0.00293292
0.00270206
0.00243922
0.00229704
0.00250205
0.00306092
0.00364848
0.00412518
0.00437408
0.00446288
0.00446188
0.00439693
0.00430142
0.00416646
0.00401147
0.00384803
0.00368682
0.00353394
0.0033946
0.00327261
0.003171
0.00309072
0.00303028
0.00298808
0.00296525
0.002959
0.00295633
0.0033177
0.00323633
0.00314027
0.00299375
0.00276872
0.00249521
0.00232083
0.00245175
0.00295759
0.00346214
0.0038642
0.00408693
0.00417399
0.00418338
0.00413434
0.00406035
0.00395207
0.00382396
0.00368661
0.00354906
0.00341833
0.00329912
0.00319484
0.00310846
0.00304148
0.00299376
0.00296488
0.00295547
0.00296266
0.00297085
0.00328058
0.0032147
0.00313238
0.00299376
0.00277327
0.00249512
0.00229134
0.00233533
0.00274387
0.00315985
0.00348986
0.00369247
0.00378433
0.00380986
0.00378451
0.00373297
0.00365433
0.00355339
0.00344067
0.00332671
0.00321871
0.00312069
0.00303593
0.00296746
0.00291665
0.00288433
0.00287119
0.00287777
0.00289974
0.00292381
0.00318714
0.00314464
0.00307059
0.00294066
0.00272464
0.00244966
0.00221813
0.00217506
0.00244919
0.00278485
0.00306264
0.00325124
0.00335828
0.00341053
0.00341679
0.00339059
0.0033422
0.00326782
0.00317963
0.00308677
0.00299644
0.00291389
0.00284393
0.00278997
0.0027516
0.00273022
0.00272794
0.00274568
0.0027792
0.00281714
0.00306869
0.00304029
0.00297896
0.00285733
0.00266107
0.0024111
0.00218035
0.00208031
0.00223848
0.0024968
0.0027331
0.00291354
0.00303347
0.00310711
0.00314063
0.00313764
0.00311359
0.00306435
0.00299961
0.00292662
0.00285151
0.00277984
0.00271774
0.00266863
0.0026342
0.00261535
0.00261365
0.00262983
0.00265916
0.00269016
0.00296429
0.00295079
0.00290687
0.00280901
0.00265337
0.00245984
0.00227786
0.00217564
0.00226265
0.00244304
0.00262915
0.00278425
0.00289548
0.00296884
0.00300953
0.00301823
0.00300859
0.00297918
0.00293597
0.00288439
0.00282917
0.00277453
0.00272582
0.00268639
0.00265706
0.00263743
0.00262734
0.00262713
0.00263142
0.00263124
0.00287531
0.00286827
0.00284079
0.002778
0.00268454
0.00256999
0.00245077
0.00239343
0.00244223
0.00255417
0.00267498
0.00277958
0.0028561
0.00290582
0.00292984
0.00293199
0.00292184
0.00289841
0.0028673
0.00283254
0.00279772
0.00276494
0.0027373
0.00271727
0.00270424
0.00269658
0.00269049
0.00268624
0.0026735
0.00264721
0.00281891
0.00281937
0.00281213
0.00278509
0.00273891
0.00267476
0.00260881
0.00257244
0.00259247
0.00264392
0.00269727
0.00274685
0.00278418
0.00280666
0.00281395
0.00280734
0.00279457
0.00277521
0.00275413
0.00273474
0.00271979
0.00271059
0.00270803
0.00271246
0.00272215
0.00273377
0.00274514
0.00275385
0.00275686
0.00273922
0.000166168
0.000177055
0.000179904
0.000179911
0.000178119
0.000175181
0.000171394
0.000167013
0.00016227
0.00015743
0.000152637
0.000148122
0.000143934
0.000140214
0.000136823
0.00013344
0.000129345
0.000124543
0.000119479
0.000114457
0.000108991
0.000102079
9.28764e-05
8.00697e-05
0.000329986
0.000321153
7.16453e-05
8.15186e-05
9.22478e-05
0.000102682
0.000742665
0.000890029
0.000932706
0.000946048
0.000943846
0.000929996
0.000905184
0.000873274
0.000837454
0.000800467
0.000763212
0.000727122
0.000689102
0.000648898
0.000601737
0.000545836
0.000482171
0.000430702
0.000398799
0.00038432
0.000378184
0.000367549
0.000338931
0.000299946
0.000308517
0.000350237
0.000300614
0.000276156
0.000364282
0.000485558
0.00122234
0.00146552
0.00158872
0.00166798
0.00171579
0.00173298
0.00172307
0.00169437
0.00165248
0.00160188
0.00154356
0.00147997
0.00140687
0.00132397
0.00122547
0.00110715
0.000973184
0.000860886
0.000785273
0.00074192
0.000716164
0.000690735
0.000634407
0.000554925
0.000526199
0.000566658
0.00055389
0.000482893
0.000578953
0.000762361
0.00152456
0.001856
0.00203206
0.00219145
0.0022992
0.00236588
0.00239243
0.00238997
0.00236484
0.00232063
0.00225773
0.00217865
0.00207989
0.00196103
0.00181819
0.00164564
0.0014518
0.00128825
0.00116977
0.00109359
0.00104363
0.000996598
0.000917459
0.000805198
0.000741929
0.000770901
0.000780152
0.000687991
0.000740909
0.000915242
0.0015724
0.00193312
0.00227728
0.00254066
0.00270748
0.00283755
0.0029177
0.00296031
0.00296791
0.00294349
0.00288656
0.00279963
0.00268107
0.00253302
0.0023535
0.00213563
0.00189333
0.00168502
0.00152978
0.00142349
0.00134947
0.00128291
0.00118669
0.00105144
0.000956642
0.000967887
0.000989296
0.000894235
0.00089613
0.00104726
0.00152763
0.0019219
0.00230844
0.002642
0.00294096
0.00317273
0.00332505
0.00342555
0.00347808
0.00348225
0.00343722
0.00334872
0.00321645
0.0030445
0.00283431
0.00257839
0.00229812
0.00205186
0.00186412
0.00173021
0.00163375
0.00155003
0.00144195
0.00129282
0.00117313
0.00116175
0.00118605
0.00110147
0.0010589
0.00117752
0.00144906
0.00185617
0.00227013
0.00266775
0.00303744
0.00335309
0.00362609
0.00380342
0.00391193
0.00395179
0.00392329
0.00383606
0.0036937
0.003503
0.00326714
0.00297983
0.00266955
0.00239093
0.00217436
0.00201544
0.00189849
0.00179981
0.00168375
0.00152789
0.00139113
0.00135527
0.00137269
0.00130474
0.00123406
0.00131295
0.00137035
0.00175116
0.00217385
0.00261605
0.00305662
0.00346262
0.00380736
0.00410366
0.00428227
0.00436334
0.00435344
0.00426958
0.00412008
0.00391517
0.00365801
0.00334529
0.00301097
0.00270487
0.00246255
0.00228127
0.0021459
0.00203415
0.00191265
0.00175522
0.00160883
0.00155029
0.00155424
0.00150137
0.00141643
0.00146072
0.00130503
0.00164565
0.00205702
0.00252319
0.00301973
0.00350748
0.00393943
0.00433916
0.0045974
0.00472463
0.0047368
0.00465597
0.00450138
0.00428675
0.00401189
0.00367916
0.00332504
0.00299607
0.00273087
0.00252976
0.00237806
0.00225487
0.00212953
0.00197391
0.00182401
0.00174709
0.00173466
0.00169137
0.00160177
0.00161877
0.00126383
0.00156326
0.0019509
0.00241843
0.00295272
0.00350945
0.00403047
0.00450272
0.00486566
0.00504141
0.00507949
0.00500195
0.0048427
0.00462189
0.00433342
0.00398505
0.00361405
0.00326667
0.00298132
0.00276295
0.00259695
0.00246386
0.00233541
0.00218375
0.00203466
0.00194486
0.00191638
0.00187684
0.00178816
0.00178295
0.00125025
0.00150614
0.00186438
0.00232593
0.00287802
0.00348796
0.00408837
0.00463526
0.00509523
0.00531582
0.00538092
0.00531217
0.00514905
0.00492393
0.00462631
0.00426577
0.00388043
0.0035182
0.00321596
0.0029829
0.00280467
0.00266273
0.0025315
0.00238509
0.00223987
0.00214246
0.00210032
0.00206041
0.00197492
0.00195066
0.00126842
0.00148677
0.00179907
0.00223927
0.00280227
0.00345365
0.00412119
0.00474114
0.00526128
0.00554946
0.00564391
0.00558881
0.00542436
0.00519599
0.00489335
0.00452348
0.00412615
0.00375249
0.00343697
0.00319185
0.00300302
0.0028532
0.00271939
0.00257856
0.00243937
0.00233885
0.00228652
0.00224402
0.00216144
0.00212203
0.00138407
0.00153022
0.00177859
0.00216729
0.00271689
0.00340111
0.00413051
0.00482082
0.00540034
0.00575408
0.00586999
0.00583414
0.00567101
0.00544048
0.00513632
0.00475961
0.00435298
0.00397129
0.00364672
0.00339181
0.00319384
0.003037
0.00290075
0.00276479
0.00263313
0.00253322
0.00247446
0.00242873
0.00234788
0.00229684
0.00157673
0.00168806
0.00184357
0.00214302
0.00264455
0.00333484
0.00411814
0.0048743
0.00550603
0.00591587
0.00606131
0.00604951
0.0058912
0.00565921
0.00535548
0.00497469
0.0045624
0.00417625
0.0038472
0.00358456
0.00337881
0.00321564
0.00307707
0.00294535
0.00282211
0.00272509
0.00266323
0.0026145
0.00253438
0.00247416
0.00185044
0.00192924
0.00201157
0.00218085
0.00260946
0.00327479
0.00409019
0.00490131
0.00558275
0.00604393
0.0062236
0.00623343
0.00608509
0.00585198
0.00554984
0.00516837
0.00475522
0.00436895
0.00403928
0.00377123
0.00355901
0.00339018
0.0032495
0.00312182
0.00300683
0.00291397
0.00285161
0.00280045
0.00272033
0.00265333
0.00218357
0.00221362
0.00223327
0.0023127
0.00261263
0.00323613
0.00406585
0.00491909
0.00564279
0.00614469
0.00636331
0.00638471
0.00625037
0.00601639
0.00571701
0.00533942
0.00493108
0.00454951
0.00422272
0.00395175
0.00373448
0.00356089
0.00341838
0.00329452
0.00318691
0.00309888
0.00303775
0.00298464
0.00290419
0.00283193
0.00252536
0.00251224
0.00248249
0.00248425
0.00266002
0.00322042
0.00404683
0.00492973
0.00568656
0.00622088
0.00647341
0.00649981
0.00638137
0.00614839
0.0058526
0.00548487
0.00508776
0.00471604
0.00439517
0.00412427
0.00390379
0.00372659
0.00358285
0.00346234
0.00336061
0.00327788
0.00321871
0.00316381
0.003083
0.00300633
0.00285298
0.0028035
0.00273532
0.00268621
0.00276557
0.003228
0.0040343
0.00493387
0.00571339
0.00627247
0.00653757
0.00657096
0.00646832
0.00624212
0.00594935
0.00559914
0.00522038
0.00486393
0.00455187
0.004284
0.00406304
0.00388398
0.00373937
0.00362134
0.0035249
0.0034475
0.00338977
0.00333284
0.00325186
0.00317161
0.00315481
0.00307239
0.00297055
0.00287968
0.00288776
0.00324209
0.00402718
0.00493033
0.00572064
0.00628685
0.00654095
0.00658778
0.00649924
0.00628569
0.00599842
0.00567375
0.00532027
0.0049842
0.00468412
0.00442304
0.00420465
0.00402574
0.00388142
0.00376615
0.00367409
0.00360103
0.00354344
0.00348431
0.00340387
0.00332125
0.00341455
0.00330383
0.00317505
0.00305233
0.00302345
0.00328529
0.00401224
0.00491579
0.00569777
0.00621651
0.00647936
0.00653589
0.00646003
0.00626397
0.00598895
0.00569691
0.00537453
0.00506292
0.00477835
0.00452856
0.0043163
0.00414065
0.00399877
0.0038863
0.00379756
0.00372683
0.0036689
0.00360826
0.00353024
0.0034477
0.00361915
0.00348641
0.00333833
0.00319365
0.00313338
0.00329813
0.00395735
0.00483371
0.00556202
0.00604809
0.0063341
0.00639741
0.0063355
0.00616087
0.00590871
0.00565392
0.00536642
0.0050815
0.0048179
0.0045829
0.00438076
0.00421172
0.00407388
0.00396448
0.00387857
0.00380996
0.00375274
0.00369285
0.00362053
0.00354197
0.00375919
0.00361286
0.00345338
0.00329326
0.00319863
0.00329055
0.00387143
0.00463528
0.00531856
0.00581623
0.00608736
0.00615784
0.00611253
0.00596481
0.00574476
0.00552977
0.00527875
0.00502436
0.00478409
0.00456693
0.00437704
0.00421644
0.00408534
0.0039814
0.00390007
0.00383534
0.00378143
0.00372628
0.00366411
0.00359397
0.0038298
0.00368035
0.00351748
0.00334699
0.00322084
0.00325972
0.00372668
0.00440699
0.005026
0.00548277
0.00572978
0.00581175
0.00578614
0.00567307
0.00549403
0.00531747
0.00510698
0.00488362
0.00466789
0.00446899
0.0042943
0.00414575
0.00402396
0.00392751
0.00385272
0.00379393
0.00374573
0.00370077
0.00365318
0.00359563
0.00383318
0.00369238
0.00353435
0.00335807
0.00320164
0.00318138
0.00348599
0.00410296
0.00464161
0.0050388
0.00527242
0.00537446
0.0053747
0.00530566
0.00517528
0.00503498
0.00486852
0.00467595
0.00448742
0.00430977
0.00415113
0.00401464
0.00390164
0.00381188
0.00374313
0.00369107
0.00365136
0.00361923
0.00358818
0.00354549
0.00378405
0.00366302
0.00351728
0.00333936
0.00315518
0.0030624
0.00320023
0.00368805
0.00416362
0.00453023
0.00476975
0.00489546
0.00493633
0.00491729
0.00483912
0.00473393
0.00460809
0.00444729
0.0042859
0.00413063
0.00398843
0.00386334
0.00375754
0.00367214
0.00360663
0.00355852
0.00352496
0.00350273
0.00348487
0.00345546
0.00371158
0.00361747
0.00349032
0.00331903
0.00312006
0.00296498
0.0029692
0.00329612
0.00370688
0.00405718
0.00430848
0.00446678
0.0045502
0.00457608
0.00454414
0.0044697
0.00437486
0.00424238
0.0041061
0.00397258
0.00384774
0.00373545
0.00363823
0.00355789
0.00349475
0.00344747
0.00341497
0.00339532
0.0033816
0.0033568
0.00365625
0.00359029
0.00348731
0.00333561
0.00314745
0.00297421
0.00290102
0.00308785
0.00341674
0.00373437
0.00398525
0.00416257
0.00427166
0.00432385
0.0043191
0.00426347
0.00418397
0.00407005
0.00395302
0.00383956
0.0037347
0.00364069
0.00356023