/*--------------------------------*- C++ -*----------------------------------*\
  =========                 |
  \\      /  F ield         | OpenFOAM: The Open Source CFD Toolbox
   \\    /   O peration     | Website:  https://openfoam.org
    \\  /    A nd           | Version:  12
     \\/     M anipulation  |
\*---------------------------------------------------------------------------*/
FoamFile
{
    format      ascii;
    class       volScalarField;
    location    "900/air";
    object      p_rgh;
}
// * * * * * * * * * * * * * * * * * * * * * * * * * * * * * * * * * * * * * //

dimensions      [1 -1 -2 0 0 0 0];

internalField   nonuniform List<scalar> 
243000
(
29.1622
29.2046
29.2693
29.2896
29.3049
29.3092
29.3115
29.3216
29.3513
29.4048
29.4778
29.5664
29.6563
29.7434
29.8073
29.8454
29.8305
29.7701
29.6721
29.5637
29.4629
29.3782
29.3071
29.24
29.1827
29.1953
29.2692
29.3974
29.6539
29.7525
29.1733
29.1966
29.2642
29.2862
29.3052
29.315
29.322
29.3367
29.3703
29.4262
29.5
29.5876
29.6754
29.7596
29.8208
29.8578
29.8431
29.7848
29.6895
29.583
29.4822
29.3965
29.3241
29.256
29.1936
29.1992
29.2714
29.3943
29.6375
29.6021
29.2018
29.1917
29.2549
29.2711
29.2871
29.2964
29.3077
29.3284
29.3648
29.4236
29.5017
29.597
29.6875
29.7732
29.8357
29.875
29.8624
29.8067
29.7134
29.6074
29.5058
29.4183
29.3447
29.2752
29.2077
29.2031
29.2665
29.376
29.61
29.606
29.2168
29.2064
29.2545
29.262
29.271
29.2743
29.2838
29.3071
29.3481
29.411
29.4928
29.592
29.686
29.778
29.8429
29.8849
29.8742
29.8206
29.7294
29.6249
29.5222
29.4336
29.3591
29.2904
29.2228
29.2076
29.2606
29.356
29.5682
29.5843
29.209
29.2202
29.2726
29.2649
29.2669
29.2615
29.2639
29.284
29.3258
29.392
29.4782
29.5815
29.6794
29.775
29.8426
29.8869
29.8776
29.8249
29.7331
29.6292
29.5276
29.4402
29.3672
29.3014
29.2377
29.213
29.2563
29.3381
29.5291
29.5625
29.1814
29.2087
29.2809
29.2792
29.2714
29.2588
29.2521
29.2648
29.3038
29.3714
29.4612
29.5686
29.6704
29.7691
29.8385
29.8841
29.8755
29.8226
29.7307
29.6274
29.5267
29.4406
29.3709
29.3098
29.2518
29.2204
29.2556
29.3243
29.4954
29.543
29.1414
29.1791
29.2658
29.2876
29.2832
29.2625
29.2472
29.2507
29.2831
29.3496
29.4413
29.5519
29.6568
29.758
29.8286
29.8748
29.8663
29.8152
29.7235
29.6211
29.5219
29.4374
29.3696
29.313
29.2624
29.2287
29.2564
29.314
29.4666
29.5233
29.0936
29.1352
29.2311
29.2751
29.2917
29.2701
29.248
29.242
29.2653
29.3276
29.4192
29.5317
29.6386
29.7415
29.8124
29.8585
29.849
29.7995
29.7107
29.6096
29.5124
29.4303
29.3651
29.3117
29.2681
29.2366
29.2583
29.3074
29.4447
29.5035
29.0407
29.0853
29.1839
29.241
29.2808
29.2774
29.2513
29.237
29.2511
29.3065
29.3957
29.5085
29.616
29.7195
29.7898
29.8348
29.8237
29.7751
29.6893
29.5923
29.4979
29.4189
29.3571
29.3075
29.2688
29.2431
29.2608
29.304
29.4278
29.4849
28.9828
29.0305
29.1314
29.1966
29.2506
29.2746
29.2559
29.2337
29.2402
29.2868
29.3715
29.4827
29.5894
29.6922
29.7605
29.8035
29.7902
29.7419
29.659
29.5666
29.4773
29.4029
29.3452
29.3003
29.2668
29.2474
29.2634
29.3032
29.4152
29.4691
28.9223
28.9704
29.0751
29.148
29.2108
29.2537
29.2584
29.2326
29.2316
29.2689
29.3469
29.4547
29.5591
29.6598
29.7249
29.7646
29.7487
29.7002
29.62
29.5322
29.4486
29.38
29.3283
29.2896
29.2623
29.2491
29.2658
29.3035
29.4062
29.4573
28.8617
28.9093
29.0156
29.0968
29.1673
29.2213
29.2509
29.2333
29.2235
29.2527
29.3224
29.425
29.5255
29.6225
29.6832
29.7185
29.6993
29.6503
29.5726
29.4893
29.4113
29.3491
29.3044
29.2734
29.2542
29.2479
29.2673
29.3043
29.3999
29.4496
28.8022
28.8493
28.9554
29.0433
29.1219
29.1852
29.2335
29.234
29.2166
29.238
29.2981
29.3939
29.4888
29.5808
29.6356
29.6655
29.6424
29.5925
29.517
29.438
29.3656
29.3103
29.2729
29.2504
29.2404
29.2425
29.2679
29.3054
29.3959
29.4462
28.7447
28.7916
28.8962
28.989
29.0746
29.1466
29.207
29.2295
29.2103
29.2242
29.274
29.3615
29.4495
29.535
29.5828
29.6061
29.5785
29.5273
29.4535
29.3785
29.3117
29.2633
29.2335
29.22
29.2203
29.2332
29.2666
29.3062
29.3934
29.4463
28.6896
28.7364
28.839
28.9351
29.0263
29.1071
29.1753
29.2181
29.2041
29.2104
29.2503
29.328
29.4079
29.4856
29.5253
29.541
29.5082
29.455
29.3825
29.3112
29.2497
29.208
29.1857
29.1814
29.194
29.2192
29.2621
29.3066
29.3917
29.4476
28.6363
28.6834
28.7837
28.8819
28.9773
29.0657
29.1422
29.1998
29.1974
29.1961
29.2267
29.2938
29.3643
29.4331
29.4638
29.4708
29.432
29.3765
29.3047
29.2365
29.1799
29.1445
29.1292
29.1351
29.1609
29.1997
29.2537
29.3055
29.39
29.4498
28.5835
28.6317
28.7299
28.8295
28.9281
29.0225
29.1079
29.1759
29.1885
29.1807
29.2027
29.2588
29.3192
29.378
29.3991
29.3966
29.3508
29.2923
29.2205
29.1545
29.1025
29.0726
29.0637
29.0806
29.1201
29.1738
29.2404
29.3014
29.3875
29.4524
28.5302
28.5796
28.6761
28.7771
28.8785
28.9777
29.0714
29.1471
29.1752
29.1639
29.1779
29.2234
29.2732
29.3215
29.3321
29.3194
29.2656
29.2034
29.1307
29.0658
29.0178
28.9923
28.9894
29.0173
29.0707
29.1399
29.2208
29.2933
29.3831
29.4546
28.4748
28.5258
28.6206
28.7233
28.8277
28.9313
29.0315
29.1139
29.1557
29.1452
29.1522
29.1876
29.227
29.2645
29.2639
29.2403
29.1779
29.1107
29.0351
28.9715
28.926
28.9038
28.9065
28.9445
29.0115
29.0967
29.1929
29.2794
29.3755
29.4558
28.415
28.4684
28.5614
28.6657
28.7741
28.8825
28.9881
29.0774
29.1286
29.1236
29.1253
29.1518
29.1814
29.2083
29.1953
29.1608
29.0889
29.0147
28.9357
28.872
28.8273
28.8074
28.8148
28.8613
28.9411
29.0421
29.1536
29.2572
29.3626
29.4544
28.3488
28.4047
28.4965
28.6024
28.7149
28.8297
28.9408
29.0383
29.095
29.0982
29.0972
29.1163
29.137
29.1535
29.1283
29.0825
29.0006
28.9179
28.8345
28.7676
28.7223
28.7034
28.7139
28.7673
28.8579
28.9739
29.1
29.2226
29.3407
29.4466
28.2721
28.3299
28.4223
28.5311
28.6482
28.7702
28.8909
28.9961
29.0564
29.0684
29.0682
29.0822
29.0944
29.1005
29.064
29.007
28.9147
28.8222
28.7313
28.6594
28.6118
28.5923
28.6031
28.6599
28.759
28.8892
29.0306
29.17
29.3053
29.4284
28.1752
28.2386
28.3344
28.4486
28.572
28.7039
28.8379
28.9497
29.0133
29.0351
29.0389
29.0513
29.0565
29.0517
29.0046
28.9366
28.8333
28.7295
28.6287
28.55
28.4973
28.4744
28.4819
28.5385
28.6432
28.7856
28.9418
29.0973
29.2502
29.3947
28.0464
28.1192
28.2208
28.3434
28.4837
28.6335
28.7796
28.8993
28.9669
28.9983
29.0112
29.0267
29.0287
29.0139
28.9572
28.8782
28.7639
28.6476
28.5338
28.4441
28.3821
28.3519
28.3529
28.4045
28.51
28.6598
28.8286
29.0009
29.1708
29.3345
27.8787
27.9677
28.0876
28.2323
28.3941
28.5608
28.7167
28.8454
28.9201
28.9623
28.9886
29.0138
29.0151
28.9948
28.9303
28.8409
28.7154
28.5854
28.4547
28.3469
28.2718
28.2308
28.2222
28.2625
28.3625
28.5139
28.6913
28.8792
29.0683
29.2545
27.6411
27.7597
27.9156
28.0978
28.287
28.4737
28.6456
28.7871
28.8741
28.9337
28.98
29.0192
29.0235
29.0017
28.9322
28.8339
28.6969
28.5521
28.4017
28.2713
28.177
28.1201
28.0969
28.1194
28.2045
28.3474
28.5232
28.7189
28.9231
29.1324
27.4112
27.5754
27.7673
27.9745
28.1855
28.3919
28.5802
28.7345
28.8353
28.92
28.9944
29.0512
29.0616
29.0407
28.9684
28.8635
28.7171
28.5529
28.3885
28.2383
28.1213
28.045
28.0049
28.0066
28.0699
28.1959
28.3646
28.5644
28.7817
29.0174
26.9405
27.1979
27.4708
27.7467
28.0151
28.2657
28.4857
28.6674
28.7995
28.9169
29.0273
29.1029
29.1204
29.0991
29.0232
28.9105
28.7524
28.5718
28.3805
28.2085
28.0611
27.9489
27.8743
27.8462
27.8763
27.9704
28.1119
28.2962
28.5056
28.7534
26.9194
27.2257
27.5264
27.8092
28.0702
28.3046
28.5088
28.6867
28.8438
29.0009
29.1381
29.2254
29.2503
29.2323
29.1568
29.0449
28.8883
28.7082
28.5167
28.3437
28.1964
28.082
28.0033
27.9673
27.9831
28.0656
28.1968
28.38
28.5899
28.8515
25.5808
26.032
26.5081
26.95
27.3314
27.657
27.9414
28.1923
28.426
28.6574
28.8401
28.9444
28.9683
28.9443
28.8596
28.73
28.5485
28.3327
28.095
27.8676
27.6566
27.4711
27.3172
27.2013
27.136
27.1402
27.1902
27.2919
27.4304
27.6709
28.9171
28.9807
29.0324
29.04
29.0434
29.0375
29.0307
29.0326
29.057
29.1097
29.1818
29.2731
29.3628
29.4501
29.5058
29.5379
29.517
29.4651
29.3924
29.3253
29.2695
29.2286
29.1928
29.1404
29.0687
29.0746
29.1392
29.3135
29.5323
29.7392
28.9488
28.9793
29.0336
29.0433
29.0483
29.044
29.0402
29.0467
29.0755
29.1313
29.2048
29.2959
29.3839
29.4688
29.5221
29.553
29.5329
29.4834
29.4121
29.3454
29.2897
29.2485
29.2127
29.1623
29.0848
29.0799
29.1395
29.295
29.4859
29.5668
28.9881
28.9846
29.0397
29.0455
29.0495
29.0444
29.0413
29.0498
29.08
29.1374
29.2125
29.3057
29.393
29.4762
29.527
29.5562
29.5331
29.4826
29.4107
29.3435
29.2876
29.2465
29.2113
29.1656
29.0961
29.0844
29.1385
29.2673
29.4756
29.5134
28.9925
29.0031
29.0529
29.0504
29.0527
29.0455
29.0408
29.0486
29.0787
29.1365
29.2117
29.3054
29.3927
29.476
29.5258
29.5529
29.5274
29.478
29.406
29.3389
29.2836
29.2433
29.2092
29.168
29.1084
29.0891
29.1387
29.242
29.444
29.4825
28.9669
29.0118
29.0703
29.061
29.0592
29.0491
29.0419
29.0467
29.0752
29.1323
29.2069
29.3004
29.3871
29.4693
29.5157
29.5398
29.5114
29.4633
29.3926
29.3273
29.2739
29.2353
29.203
29.1655
29.1162
29.0925
29.1394
29.2246
29.4114
29.4698
28.9255
28.9906
29.0787
29.0781
29.072
29.0555
29.0449
29.0457
29.0712
29.1264
29.1994
29.2921
29.377
29.4566
29.4986
29.5191
29.4877
29.4401
29.3708
29.3085
29.2579
29.2221
29.1936
29.1604
29.1202
29.0959
29.1407
29.2121
29.3823
29.4479
28.8794
28.9545
29.0597
29.0908
29.0913
29.0687
29.0508
29.0461
29.0677
29.12
29.1903
29.2815
29.3626
29.4388
29.4757
29.4922
29.4574
29.4097
29.3423
29.2832
29.236
29.2041
29.1802
29.1531
29.1203
29.0995
29.1426
29.2038
29.3583
29.4252
28.831
28.9156
29.0268
29.0796
29.108
29.0872
29.0617
29.05
29.0655
29.1138
29.1803
29.2686
29.345
29.4168
29.4479
29.4599
29.4214
29.3733
29.3081
29.2519
29.2089
29.1815
29.1632
29.1436
29.1186
29.1026
29.1445
29.1995
29.3396
29.4022
28.7802
28.8727
28.9922
29.0554
29.1042
29.1039
29.0764
29.057
29.0644
29.1083
29.17
29.254
29.3249
29.3913
29.4158
29.4224
29.3795
29.331
29.2684
29.2152
29.1768
29.1547
29.1426
29.131
29.1152
29.1051
29.1462
29.1982
29.3259
29.381
28.7278
28.8212
28.9507
29.0275
29.0856
29.1095
29.0908
29.0665
29.0645
29.1039
29.16
29.2385
29.3028
29.3629
29.3801
29.3805
29.3323
29.2832
29.2227
29.1735
29.1396
29.1232
29.1181
29.115
29.1097
29.1064
29.1476
29.1987
29.3168
29.3641
28.6771
28.766
28.8999
28.9915
29.0616
29.0993
29.1008
29.0763
29.0682
29.1007
29.1505
29.2223
29.2792
29.3322
29.3413
29.3347
29.281
29.2303
29.1716
29.1263
29.0971
29.0866
29.0892
29.0954
29.1011
29.1068
29.1487
29.2
29.3117
29.3522
28.6299
28.7123
28.847
28.9472
29.0302
29.0798
29.1023
29.0851
29.0734
29.0982
29.1417
29.2058
29.2546
29.2997
29.2998
29.2854
29.2259
29.173
29.1157
29.0741
29.0492
29.0447
29.0558
29.0719
29.0894
29.1059
29.1496
29.202
29.3097
29.3458
28.5858
28.66
28.7947
28.8998
28.9919
29.0566
29.093
29.0911
29.079
29.0966
29.1337
29.1893
29.2294
29.2661
29.256
29.2332
29.1673
29.1117
29.0552
29.0171
28.9962
28.9977
29.0177
29.0444
29.0742
29.1024
29.1499
29.2045
29.3098
29.3457
28.5454
28.6104
28.7431
28.8516
28.9502
29.0281
29.0742
29.0921
29.084
29.0952
29.1264
29.173
29.2039
29.2317
29.2106
29.1787
29.1057
29.047
28.9907
28.9556
28.9378
28.946
28.9749
29.0128
29.0555
29.0957
29.1493
29.2071
29.3107
29.3485
28.5089
28.5646
28.6935
28.8036
28.9064
28.9938
29.0518
29.0861
29.087
29.094
29.1195
29.157
29.1786
29.1968
29.1643
29.1228
29.0419
28.9795
28.9227
28.8903
28.8748
28.8895
28.9273
28.9769
29.0329
29.0854
29.1467
29.2093
29.3121
29.3538
28.4751
28.522
28.6461
28.7563
28.8621
28.9561
29.0294
29.0743
29.0873
29.0933
29.113
29.1418
29.1537
29.1619
29.1179
29.0662
28.9768
28.9101
28.852
28.8207
28.808
28.8285
28.8751
28.9364
29.0058
29.0713
29.1418
29.211
29.3138
29.3612
28.4424
28.4824
28.6012
28.7105
28.8187
28.9178
29.0039
29.0576
29.0849
29.0929
29.107
29.1277
29.1299
29.1276
29.072
29.0099
28.9115
28.8398
28.7794
28.7466
28.7377
28.7632
28.8181
28.8912
28.9737
29.053
29.1341
29.2119
29.3156
29.3702
28.4103
28.4451
28.5587
28.6664
28.7765
28.8803
28.9725
29.0366
29.0798
29.0923
29.1016
29.1151
29.1076
29.0943
29.0275
28.9548
28.8471
28.7691
28.7039
28.6716
28.6644
28.6939
28.7567
28.8405
28.9358
29.0297
29.1229
29.2117
29.3172
29.3802
28.3778
28.4094
28.5183
28.6245
28.7351
28.843
28.939
29.014
29.072
29.0914
29.0971
29.1043
29.0872
29.0631
28.9853
28.902
28.7845
28.6978
28.6292
28.5968
28.5891
28.6212
28.6904
28.7845
28.892
29.0002
29.1067
29.2081
29.318
29.3904
28.3434
28.3746
28.4793
28.5847
28.6956
28.8068
28.9076
28.9933
29.0619
29.0902
29.094
29.0953
29.0698
29.0356
28.947
28.853
28.7251
28.6301
28.5604
28.5218
28.5126
28.5459
28.6199
28.7234
28.8419
28.9641
29.0854
29.2008
29.3174
29.3999
28.3031
28.3386
28.441
28.5462
28.6581
28.7725
28.8787
28.9734
29.0509
29.0891
29.0934
29.0894
29.0566
29.013
28.9141
28.8094
28.6725
28.5701
28.4933
28.448
28.4365
28.4688
28.5466
28.658
28.7873
28.9238
29.0606
29.1909
29.3137
29.4074
28.2521
28.2971
28.4013
28.5084
28.623
28.7409
28.8519
28.9532
29.0401
29.0908
29.0967
29.0895
29.0494
28.9973
28.8889
28.7744
28.628
28.5161
28.4282
28.3777
28.3628
28.3928
28.4738
28.5907
28.7291
28.8802
29.0325
29.1757
29.3046
29.4119
28.1868
28.2453
28.3568
28.4698
28.5899
28.7133
28.8293
28.9342
29.0326
29.0991
29.1064
29.0955
29.0518
28.9914
28.8746
28.7507
28.5945
28.4717
28.3705
28.3148
28.2972
28.3253
28.4059
28.5238
28.6669
28.8279
28.9928
29.1471
29.2858
29.4121
28.0986
28.1795
28.3039
28.4275
28.5574
28.689
28.812
28.9231
29.0322
29.1163
29.1255
29.1128
29.0665
29.0004
28.8768
28.7444
28.5793
28.4455
28.3306
28.2681
28.2445
28.2651
28.3404
28.4543
28.5969
28.7601
28.9304
29.0987
29.2517
29.3992
27.9816
28.0934
28.2345
28.3777
28.5238
28.6691
28.803
28.9269
29.0579
29.1482
29.1588
29.1438
29.0971
29.0288
28.9001
28.7607
28.5852
28.4389
28.3125
28.2348
28.1971
28.2076
28.2734
28.3791
28.5182
28.6813
28.857
29.036
29.2047
29.3719
27.837
27.9904
28.1548
28.3208
28.4876
28.6527
28.8058
28.9622
29.1049
29.1994
29.2138
29.1966
29.1483
29.0757
28.9417
28.7952
28.6104
28.4519
28.3058
28.2123
28.1579
28.1584
28.2134
28.3065
28.4386
28.5987
28.7754
28.9612
29.1394
29.326
27.696
27.8941
28.0825
28.2728
28.463
28.6496
28.8365
29.0181
29.1721
29.2711
29.2915
29.2752
29.2246
29.1474
29.0086
28.8554
28.6634
28.4933
28.3312
28.2167
28.1524
28.1412
28.1829
28.2608
28.3808
28.5323
28.7039
28.8899
29.073
29.2745
27.5391
27.7832
28.0063
28.2291
28.4479
28.6746
28.9008
29.102
29.2683
29.3743
29.4007
29.3898
29.341
29.2665
29.128
28.9724
28.7753
28.5947
28.4181
28.2851
28.2032
28.1772
28.2014
28.2638
28.3572
28.4856
28.64
28.8154
28.9942
29.2014
27.6144
27.9022
28.1551
28.4063
28.6493
28.893
29.1301
29.3384
29.5151
29.6271
29.658
29.655
29.6117
29.5417
29.4066
29.2519
29.0533
28.8645
28.6752
28.5293
28.4313
28.3903
28.3988
28.4459
28.5253
28.6375
28.7754
28.9372
29.1101
29.3235
28.3625
28.6109
28.826
29.0518
29.2722
29.4861
29.691
29.8716
30.0261
30.1235
30.1554
30.1552
30.1144
30.0499
29.9182
29.7704
29.5823
29.4076
29.2306
29.0965
29.0092
28.9805
29.0016
29.0643
29.1617
29.2895
29.4371
29.6091
29.7894
30.0115
28.7431
28.8251
28.8923
28.9093
28.9234
28.9239
28.9193
28.9173
28.9288
28.9692
29.0266
29.1079
29.1858
29.2705
29.3177
29.3479
29.3118
29.2616
29.2019
29.1619
29.1432
29.1416
29.1357
29.0749
28.9828
28.9979
29.0551
29.1475
29.3618
29.7021
28.743
28.8271
28.8951
28.9201
28.9365
28.9374
28.9338
28.934
28.949
28.9921
29.0512
29.1329
29.2098
29.2934
29.3393
29.3705
29.3358
29.2878
29.2281
29.1868
29.1648
29.1591
29.1535
29.0984
28.9955
28.9992
29.0568
29.1341
29.2988
29.5424
28.7501
28.8324
28.8957
28.9253
28.9441
28.9452
28.9424
28.9443
28.9618
29.0069
29.0666
29.1485
29.2239
29.3065
29.35
29.3796
29.3426
29.2949
29.2341
29.1922
29.169
29.163
29.1581
29.1129
29.0076
29.0002
29.0586
29.1331
29.287
29.456
28.751
28.8353
28.8938
28.9251
28.9472
28.949
28.947
28.9509
28.9709
29.0166
29.076
29.159
29.2329
29.3151
29.3563
29.3847
29.3458
29.2978
29.2341
29.1918
29.1685
29.1627
29.1573
29.1229
29.0269
29.0039
29.0585
29.1236
29.2654
29.3886
28.7456
28.8291
28.8898
28.9235
28.9469
28.95
28.9483
28.9527
28.9715
29.0164
29.0751
29.1584
29.2317
29.3148
29.3542
29.3813
29.3397
29.2916
29.2277
29.1855
29.162
29.1568
29.1529
29.1248
29.0468
29.0117
29.059
29.116
29.2506
29.3486
28.7325
28.8123
28.8801
28.9192
28.9454
28.9503
28.9483
28.9518
28.9699
29.0139
29.0714
29.1545
29.2267
29.3101
29.3454
29.3709
29.3254
29.2768
29.214
29.1721
29.149
29.1453
29.1443
29.1226
29.0627
29.0234
29.0608
29.1099
29.2408
29.3172
28.7081
28.7856
28.8617
28.9106
28.9416
28.9494
28.9479
28.9504
28.9672
29.01
29.0657
29.1482
29.2186
29.3007
29.331
29.3542
29.3041
29.2549
29.1934
29.1522
29.13
29.1289
29.1319
29.1176
29.0725
29.0351
29.0648
29.1089
29.2349
29.2926
28.6736
28.7536
28.8359
28.8938
28.9343
28.947
28.9468
28.9487
28.964
29.0053
29.0588
29.1402
29.2074
29.2873
29.312
29.3323
29.2771
29.2273
29.1661
29.1261
29.1052
29.1077
29.1158
29.11
29.0761
29.0449
29.0707
29.1102
29.229
29.2794
28.6307
28.7165
28.8064
28.8711
28.9214
28.9416
28.9449
28.9466
28.9607
29.0004
29.0511
29.1309
29.1937
29.2708
29.289
29.3061
29.2454
29.1952
29.1329
29.0944
29.0749
29.0817
29.0958
29.0986
29.0752
29.0521
29.0771
29.1136
29.2246
29.2717
28.5884
28.6757
28.7734
28.8453
28.903
28.9323
28.9413
28.9443
28.9573
28.9955
29.0432
29.1207
29.178
29.2518
29.2628
29.2762
29.2093
29.1581
29.0943
29.0572
29.0393
29.0509
29.0719
29.0841
29.0722
29.0566
29.0834
29.1184
29.2225
29.263
28.5497
28.6354
28.7404
28.8162
28.8819
28.9186
28.9353
28.9417
28.954
28.9909
29.0352
29.1099
29.161
29.2309
29.2338
29.2431
29.1694
29.1161
29.0508
29.0149
28.9987
29.0152
29.0439
29.066
29.0669
29.0588
29.0895
29.124
29.2232
29.2562
28.514
28.5949
28.7096
28.7882
28.8582
28.9023
28.9273
28.9384
28.951
28.9868
29.0276
29.0988
29.1432
29.2087
29.2025
29.2073
29.1262
29.0697
29.0027
28.9679
28.9532
28.9748
29.0113
29.0435
29.0586
29.0596
29.095
29.1301
29.2252
29.2551
28.4831
28.5563
28.6775
28.762
28.8356
28.8851
28.9176
28.9347
28.9481
28.983
29.0203
29.0878
29.125
29.1857
29.1694
29.1693
29.0797
29.0195
28.9506
28.9163
28.9031
28.9297
28.9742
29.017
29.0458
29.0593
29.0998
29.1368
29.2282
29.2577
28.4556
28.5208
28.6453
28.7347
28.8136
28.8683
28.9071
28.9309
28.9459
28.9798
29.0137
29.077
29.1068
29.1621
29.1351
29.1298
29.0297
28.9663
28.8949
28.8608
28.8486
28.88
28.9324
28.9862
29.029
29.0566
29.1039
29.1437
29.2323
29.2636
28.4315
28.4867
28.6129
28.7076
28.7905
28.8507
28.8956
28.9265
28.9438
28.9771
29.0077
29.0668
29.0888
29.1384
29.1002
29.0892
28.9785
28.9121
28.8361
28.8016
28.7903
28.8259
28.886
28.9512
29.0082
29.0508
29.1067
29.1506
29.2373
29.2727
28.4105
28.4558
28.5801
28.6793
28.7665
28.8334
28.8837
28.921
28.9419
28.9749
29.0025
29.0573
29.0715
29.115
29.0652
29.0483
28.9279
28.8569
28.7744
28.7394
28.7285
28.7675
28.8351
28.9117
28.9832
29.0419
29.1082
29.1571
29.243
29.2847
28.3899
28.4281
28.5497
28.6501
28.7426
28.8159
28.8716
28.9149
28.9401
28.9733
28.9981
29.0489
29.0552
29.0924
29.0308
29.0078
28.8773
28.7996
28.7107
28.6751
28.6635
28.7047
28.7796
28.8686
28.9543
29.0299
29.108
29.1627
29.2489
29.2988
28.3697
28.4029
28.5214
28.6219
28.7184
28.7968
28.8586
28.9082
28.9383
28.972
28.9948
29.0421
29.0405
29.0714
28.9978
28.9686
28.8274
28.7408
28.6464
28.6093
28.596
28.6378
28.7202
28.822
28.9218
29.0145
29.1038
29.167
29.2547
29.314
28.348
28.3793
28.4949
28.5963
28.6955
28.7784
28.8452
28.9014
28.936
28.9715
28.9929
29.0376
29.028
29.0525
28.9674
28.932
28.7798
28.6837
28.5836
28.5428
28.5248
28.5676
28.6575
28.7701
28.8862
28.995
29.0949
29.1694
29.2598
29.3298
28.323
28.3561
28.4703
28.5732
28.675
28.762
28.8331
28.8946
28.9339
28.9738
28.993
29.0358
29.0193
29.0374
28.941
28.8998
28.7367
28.6321
28.523
28.4737
28.4504
28.4963
28.5923
28.7153
28.8461
28.9693
29.0805
29.1695
29.2638
29.3455
28.293
28.3315
28.4473
28.5527
28.6574
28.7482
28.8231
28.8886
28.9334
28.9809
28.999
29.0386
29.0159
29.0276
28.9207
28.8743
28.7003
28.5863
28.4631
28.4021
28.3794
28.4271
28.5274
28.6572
28.7985
28.9365
29.0601
29.1647
29.2662
29.36
28.2553
28.305
28.4238
28.5349
28.6438
28.7383
28.815
28.8855
28.9398
28.9922
29.0102
29.0477
29.02
29.0268
28.9095
28.8583
28.6733
28.5479
28.4092
28.3393
28.3156
28.3604
28.4613
28.5953
28.7446
28.8964
29.0339
29.1548
29.2666
29.3724
28.2067
28.2743
28.3982
28.5173
28.6324
28.7312
28.8125
28.8906
28.9551
29.0108
29.0295
29.0659
29.0347
29.0358
28.9109
28.856
28.6607
28.5256
28.3698
28.2886
28.2566
28.296
28.3947
28.5307
28.686
28.8476
29.0012
29.1399
29.263
29.3817
28.1443
28.2347
28.3667
28.4966
28.6214
28.7286
28.8249
28.9127
28.9813
29.0404
29.0605
29.0957
29.0631
29.06
28.9294
28.8715
28.6603
28.5167
28.3424
28.2471
28.2055
28.24
28.3336
28.4682
28.6266
28.7961
28.9619
29.1185
29.2551
29.3865
28.0714
28.1939
28.3362
28.4778
28.6133
28.7385
28.8559
28.9501
29.0227
29.0843
29.1067
29.1405
29.1069
29.0997
28.9645
28.9045
28.6819
28.5211
28.3308
28.2245
28.1693
28.1979
28.2846
28.4143
28.5718
28.7467
28.9215
29.0897
29.2413
29.3909
27.9879
28.1506
28.309
28.4663
28.617
28.7658
28.9005
29.0045
29.0814
29.1448
29.17
29.2031
29.169
29.158
29.0197
28.9591
28.7271
28.5588
28.3549
28.2261
28.1576
28.1742
28.2483
28.3691
28.5234
28.7016
28.8829
29.0606
29.2235
29.3927
27.9171
28.1165
28.2904
28.4625
28.6358
28.8104
28.9596
29.0751
29.1575
29.223
29.2516
29.2859
29.2528
29.2417
29.1035
29.0469
28.8139
28.6386
28.4205
28.2733
28.1856
28.1911
28.2571
28.3721
28.5202
28.6919
28.8719
29.0545
29.2244
29.4018
27.8673
28.0944
28.2837
28.4784
28.6759
28.8671
29.033
29.163
29.2539
29.3233
29.3567
29.3946
29.3646
29.3569
29.2199
29.171
28.9344
28.7528
28.5225
28.3583
28.2497
28.241
28.2918
28.394
28.5348
28.702
28.8797
29.0624
29.2344
29.4168
27.9099
28.1588
28.3626
28.5665
28.767
28.9602
29.1314
29.2727
29.3739
29.4482
29.4879
29.5305
29.5039
29.5003
29.3665
29.3306
29.0976
28.9217
28.6889
28.5153
28.3896
28.3642
28.402
28.488
28.6149
28.7735
28.9455
29.1259
29.2984
29.4879
28.0446
28.2811
28.4861
28.6912
28.889
29.0787
29.2503
29.3982
29.5108
29.5959
29.6437
29.6894
29.6655
29.67
29.5438
29.5339
29.3145
29.1514
28.9236
28.7489
28.613
28.57
28.5919
28.6625
28.7726
28.9187
29.0841
29.2641
29.441
29.6342
28.7632
28.6856
28.7165
28.7141
28.7192
28.7231
28.7243
28.73
28.7445
28.7858
28.8382
28.9166
28.9803
29.0541
29.0735
29.0809
29.0066
28.9557
28.9171
28.9314
28.9732
29.0343
29.1022
29.1065
29.0383
28.992
29.0478
29.1649
29.3661
29.7259
28.728
28.6621
28.7071
28.7139
28.7284
28.7357
28.7391
28.7469
28.7642
28.8076
28.8617
28.9406
29.0033
29.0767
29.0955
29.1039
29.0312
28.9803
28.9385
28.9476
28.9831
29.0424
29.1087
29.1184
29.0546
28.9975
29.0391
29.1422
29.2959
29.5866
28.6889
28.6495
28.698
28.7116
28.7328
28.7433
28.7493
28.7595
28.7793
28.8249
28.8799
28.9587
29.0194
29.0908
29.1052
29.1107
29.0333
28.9799
28.9373
28.9444
28.9841
29.0455
29.1103
29.1266
29.0584
29.0021
29.0306
29.1337
29.2777
29.4958
28.6406
28.6347
28.6843
28.7053
28.7313
28.7468
28.7561
28.769
28.7917
28.8392
28.8947
28.9738
29.032
29.1024
29.112
29.114
29.0308
28.9757
28.9299
28.9331
28.9722
29.0407
29.1039
29.1265
29.065
29.0077
29.0231
29.1094
29.2469
29.4186
28.5973
28.6207
28.6701
28.6976
28.7275
28.7458
28.7586
28.7748
28.7998
28.8485
28.904
28.984
29.0389
29.1079
29.111
29.1084
29.0179
28.9607
28.9121
28.9129
28.9523
29.0248
29.0907
29.1223
29.0713
29.0117
29.0236
29.0902
29.2233
29.3576
28.5593
28.6038
28.6551
28.6902
28.7232
28.7437
28.7584
28.7768
28.8029
28.8527
28.9078
28.9893
29.0392
29.1077
29.1037
29.0956
28.996
28.9367
28.8854
28.8848
28.9256
29.003
29.0733
29.113
29.0728
29.0148
29.0254
29.0745
29.2012
29.3098
28.5332
28.5851
28.6375
28.681
28.7188
28.7415
28.7575
28.7767
28.8033
28.8541
28.9081
28.9909
29.0374
29.1048
29.0915
29.0767
28.9659
28.9043
28.8506
28.8497
28.8929
28.9759
29.0518
29.0996
29.0713
29.0201
29.027
29.0641
29.182
29.27
28.5122
28.5668
28.6207
28.6705
28.7128
28.7387
28.7562
28.7763
28.803
28.8541
28.9077
28.9908
29.0343
29.0991
29.0754
29.0531
28.9304
28.8645
28.8085
28.8079
28.8545
28.9439
29.0266
29.0829
29.0674
29.0254
29.0291
29.0579
29.1663
29.2373
28.4893
28.5459
28.6028
28.6581
28.7055
28.7347
28.7543
28.7755
28.8026
28.8539
28.907
28.9903
29.0303
29.0916
29.0561
29.0251
28.8897
28.8181
28.7595
28.7599
28.8105
28.9068
28.9971
29.062
29.0612
29.0294
29.0321
29.0544
29.1558
29.2105
28.4643
28.5221
28.5831
28.6437
28.6959
28.7293
28.7519
28.7745
28.8022
28.8543
28.9066
28.9899
29.026
29.0828
29.0343
28.9933
28.8433
28.7657
28.7043
28.7058
28.7609
28.8644
28.9627
29.0359
29.0516
29.0309
29.0354
29.055
29.15
29.1896
28.436
28.4951
28.5619
28.6267
28.6846
28.7226
28.7487
28.7736
28.8019
28.8559
28.907
28.9903
29.0218
29.0735
29.0107
28.9583
28.7922
28.7077
28.6431
28.646
28.7059
28.8168
28.9233
29.0058
29.0384
29.0301
29.0386
29.0574
29.1505
29.1765
28.4064
28.4658
28.5397
28.6087
28.6715
28.7145
28.745
28.7728
28.8022
28.8593
28.9094
28.9927
29.0181
29.0642
28.9858
28.9207
28.7363
28.6444
28.5763
28.5807
28.6454
28.7639
28.8789
28.9719
29.0215
29.0267
29.0411
29.0612
29.1535
29.1717
28.3803
28.4363
28.5179
28.5904
28.6579
28.7057
28.7408
28.7719
28.8043
28.865
28.9144
28.9979
29.0154
29.0553
28.96
28.8809
28.6747
28.5763
28.5044
28.5103
28.5795
28.7059
28.8299
28.9344
29.0006
29.0213
29.043
29.0664
29.1572
29.1753
28.3582
28.4074
28.4989
28.573
28.6445
28.6968
28.7366
28.7712
28.8088
28.8733
28.9224
29.0057
29.0139
29.0473
28.934
28.8393
28.6102
28.5041
28.4279
28.4351
28.5085
28.6427
28.777
28.8941
28.9769
29.0142
29.0442
29.0726
29.1616
29.1839
28.3417
28.3821
28.4819
28.5566
28.6317
28.6884
28.7331
28.7727
28.8153
28.8845
28.9338
29.0156
29.0139
29.0404
28.9078
28.7962
28.5454
28.4285
28.3474
28.3553
28.4326
28.5749
28.7213
28.8522
28.9502
29.0037
29.0446
29.0797
29.1669
29.1954
28.3279
28.3613
28.4652
28.5411
28.6196
28.6806
28.7304
28.776
28.8236
28.8984
28.9473
29.0276
29.0171
29.0352
28.8823
28.7521
28.4781
28.3502
28.2635
28.2718
28.352
28.5041
28.6631
28.8081
28.9202
28.9896
29.0432
29.0873
29.1734
29.2098
28.316
28.3443
28.4494
28.5299
28.6087
28.6741
28.7283
28.7808
28.8343
28.9146
28.9634
29.0421
29.0226
29.0327
28.8577
28.7077
28.4085
28.2702
28.1773
28.1853
28.268
28.4312
28.6027
28.761
28.8872
28.9722
29.0399
29.0953
29.1813
29.2272
28.3059
28.3308
28.4369
28.5217
28.5987
28.6686
28.7271
28.7877
28.8483
28.9336
28.9823
29.0594
29.0311
29.0335
28.8349
28.6641
28.3394
28.1903
28.0902
28.0964
28.187
28.357
28.5388
28.7101
28.8509
28.952
29.0353
29.1034
29.1909
29.2468
28.2953
28.3209
28.4278
28.5127
28.591
28.6637
28.7266
28.797
28.8661
28.9558
29.0044
29.0797
29.0429
29.0366
28.8145
28.6225
28.2731
28.1126
28.0034
28.0131
28.1126
28.2814
28.4708
28.6544
28.81
28.93
29.0301
29.1116
29.202
29.268
28.2828
28.3141
28.422
28.5065
28.5876
28.6615
28.7286
28.8105
28.8881
28.9812
29.03
29.1034
29.0587
29.0427
28.7978
28.5854
28.2129
28.042
27.9259
27.9443
28.0341
28.2023
28.3988
28.5933
28.7656
28.9067
29.0245
29.1199
29.2146
29.2911
28.2689
28.3088
28.4185
28.5064
28.5893
28.6625
28.7392
28.8312
28.9147
29.0106
29.0599
29.1311
29.0791
29.053
28.7864
28.556
28.1627
27.9881
27.868
27.8767
27.9485
28.1195
28.3227
28.5292
28.7203
28.8826
29.0177
29.1281
29.2288
29.3156
28.2502
28.3036
28.4163
28.5124
28.5953
28.6731
28.7599
28.8586
28.9468
29.0455
29.0943
29.1636
29.1051
29.0698
28.7838
28.5389
28.1315
27.9552
27.817
27.8014
27.8698
28.0385
28.2473
28.4665
28.6756
28.8567
29.0101
29.1355
29.2442
29.3418
28.2243
28.2961
28.4122
28.5142
28.6069
28.6962
28.7902
28.8932
28.9863
29.0874
29.1346
29.2014
29.1377
29.095
28.7905
28.5383
28.1207
27.9324
27.7667
27.7382
27.8049
27.9679
28.1766
28.4056
28.6318
28.8308
29.0003
29.1415
29.2605
29.3688
28.1931
28.289
28.4095
28.5183
28.6268
28.731
28.8306
28.9376
29.0353
29.1385
29.1842
29.2467
29.1774
29.1302
28.8101
28.5612
28.1223
27.9225
27.7389
27.7035
27.7591
27.912
28.1152
28.3507
28.5872
28.8027
28.9885
29.1458
29.2763
29.3991
28.1561
28.2807
28.4104
28.5368
28.6596
28.7758
28.8841
28.9953
29.0967
29.201
29.2462
29.3041
29.23
29.1801
28.8472
28.6072
28.1558
27.9462
27.7358
27.6917
27.7341
27.8792
28.0815
28.316
28.5551
28.7791
28.9771
29.1501
29.2928
29.4298
28.1162
28.2706
28.4119
28.5573
28.6988
28.8306
28.9508
29.0677
29.1718
29.2768
29.3222
29.3771
29.3008
29.2496
28.9068
28.6829
28.2128
27.9937
27.7618
27.7003
27.7349
27.8705
28.0635
28.2938
28.535
28.7663
28.9746
29.1568
29.3094
29.4587
28.0805
28.2631
28.4202
28.587
28.7466
28.8955
29.0299
29.1542
29.2614
29.3666
29.4134
29.4671
29.3899
29.3407
28.9903
28.7838
28.2946
28.0753
27.8252
27.7452
27.7628
27.8849
28.0693
28.2948
28.5314
28.7637
28.9763
29.1655
29.3274
29.488
28.0592
28.2641
28.4436
28.6305
28.8055
28.9695
29.1195
29.2536
29.3647
29.4705
29.5193
29.5738
29.4954
29.452
29.095
28.92
28.4255
28.2095
27.9433
27.8461
27.8465
27.9447
28.1084
28.3239
28.5526
28.7805
28.9925
29.1858
29.3548
29.526
28.0865
28.3057
28.4958
28.6902
28.8741
29.0505
29.2157
29.36
29.4745
29.5808
29.6324
29.69
29.6108
29.5759
29.2183
29.0887
28.5892
28.3828
28.1056
27.9948
27.9729
28.048
28.1835
28.3753
28.5918
28.8137
29.0247
29.2222
29.4006
29.5835
28.152
28.3676
28.5615
28.7576
28.9454
29.1278
29.2982
29.4529
29.5767
29.6863
29.7404
29.7982
29.715
29.6924
29.3444
29.2765
28.7852
28.5961
28.3147
28.1963
28.1518
28.2049
28.3117
28.4761
28.6692
28.8751
29.0793
29.2781
29.4643
29.652
28.9643
28.6598
28.6392
28.584
28.5634
28.5615
28.5648
28.5782
28.5968
28.6441
28.6977
28.7887
28.8602
28.9637
28.9939
29.022
28.9211
28.8717
28.8365
28.8735
28.9291
29.0266
29.1623
29.2537
29.1995
29.1583
29.1842
29.2536
29.4082
29.7305
28.8784
28.5779
28.5999
28.5675
28.5651
28.5717
28.5799
28.5962
28.6176
28.6673
28.7226
28.8149
28.8863
28.9909
29.0206
29.0523
28.9519
28.9001
28.8581
28.885
28.9364
29.0334
29.1675
29.2599
29.2137
29.162
29.1765
29.2241
29.335
29.6081
28.7866
28.536
28.5699
28.5542
28.5642
28.578
28.5908
28.6103
28.6348
28.687
28.7436
28.8369
28.9068
29.0118
29.0375
29.0699
28.9648
28.9115
28.8649
28.8893
28.9411
29.0379
29.1655
29.2605
29.209
29.1588
29.169
29.2142
29.3112
29.5195
28.6764
28.4846
28.5317
28.5347
28.5581
28.5773
28.5973
28.6208
28.6487
28.7036
28.7613
28.8562
28.9247
29.0322
29.0536
29.0881
28.9759
28.9177
28.8629
28.8827
28.9367
29.0358
29.149
29.2517
29.2034
29.153
29.1547