/*--------------------------------*- C++ -*----------------------------------*\
  =========                 |
  \\      /  F ield         | OpenFOAM: The Open Source CFD Toolbox
   \\    /   O peration     | Website:  https://openfoam.org
    \\  /    A nd           | Version:  12
     \\/     M anipulation  |
\*---------------------------------------------------------------------------*/
FoamFile
{
    format      ascii;
    class       volScalarField;
    location    "1850/air";
    object      alphat;
}
// * * * * * * * * * * * * * * * * * * * * * * * * * * * * * * * * * * * * * //

dimensions      [1 -1 -1 0 0 0 0];

internalField   nonuniform List<scalar> 
243000
(
0.000133841
0.000140115
0.000142247
0.000141778
0.000139568
0.00013618
0.000132064
0.000127572
0.000122966
0.00011845
0.000114149
0.000110144
0.000106489
0.000103253
0.000100425
9.79617e-05
9.5775e-05
9.38167e-05
9.20512e-05
9.0442e-05
8.89314e-05
8.73707e-05
8.53693e-05
0.000378422
0.000373825
0.000371324
0.000342912
0.00028833
0.000211488
0.000223114
0.000494894
0.000518407
0.000517939
0.000505646
0.000487952
0.000467957
0.000447252
0.000426853
0.000407398
0.00038929
0.000372741
0.000357873
0.000344783
0.000333553
0.000324145
0.000316442
0.00031025
0.00030558
0.00030235
0.000300565
0.000300062
0.000300519
0.000301853
0.000302725
0.000301341
0.000293735
0.000281879
0.000260209
0.000232557
0.000217355
0.000606476
0.000672407
0.000703834
0.000715598
0.000716854
0.000711487
0.000701852
0.000689523
0.000675532
0.000660635
0.000645296
0.000629922
0.000614788
0.000600219
0.00058636
0.00057326
0.000560826
0.000549349
0.00053878
0.000529144
0.000520207
0.000511518
0.000502119
0.000490537
0.000474588
0.000452153
0.000422377
0.00038161
0.000336777
0.00029202
0.000599904
0.000664898
0.000704904
0.000725686
0.00073349
0.000732411
0.000725764
0.000715537
0.000703025
0.000689164
0.000674577
0.000659781
0.000645093
0.000630898
0.000617424
0.000604803
0.000593004
0.000582374
0.000572787
0.000564097
0.000555918
0.00054775
0.000538751
0.000527494
0.000512176
0.000490762
0.000462231
0.000423635
0.000380556
0.000332205
0.000589059
0.000639026
0.00068263
0.000711402
0.000727217
0.000732998
0.000731736
0.000725735
0.000716506
0.000705209
0.000692671
0.000679526
0.000666184
0.000653121
0.000640657
0.000629024
0.000618264
0.000608746
0.000600264
0.000592498
0.000584903
0.00057696
0.000567971
0.000556795
0.000541913
0.000521519
0.000494531
0.000458671
0.000417874
0.000370512
0.000588237
0.000612233
0.000647273
0.000680143
0.000703745
0.000717453
0.000723166
0.000722961
0.000718398
0.000710891
0.000701507
0.000690943
0.000679718
0.000668428
0.000657484
0.000647252
0.000637841
0.000629624
0.000622313
0.000615451
0.000608387
0.000600583
0.00059147
0.000580196
0.000565548
0.000546021
0.000520554
0.000487412
0.000449173
0.000404281
0.000613737
0.000611381
0.000627469
0.000651219
0.000673948
0.000691372
0.000703486
0.000709517
0.000710617
0.000707931
0.000702522
0.000695243
0.000686804
0.000677855
0.000668878
0.000660407
0.000652601
0.000645819
0.000639728
0.000633768
0.000627233
0.000619575
0.000610331
0.00059889
0.000584351
0.000565509
0.000541422
0.000510761
0.000475148
0.000433149
0.000643519
0.000628484
0.000625118
0.000635
0.000651139
0.000667531
0.000681035
0.000690006
0.000695658
0.000697779
0.000696829
0.000693462
0.000688302
0.000682138
0.000675548
0.00066915
0.000663171
0.000657941
0.000653112
0.000648078
0.000642098
0.000634643
0.000625327
0.000613734
0.000599242
0.000580943
0.000558065
0.000529588
0.000496598
0.000457458
0.00067458
0.000654709
0.000638797
0.000633299
0.000638361
0.000649117
0.000661124
0.000671213
0.000678695
0.000683238
0.000686039
0.000686561
0.000685002
0.000681985
0.000678064
0.000673991
0.000670026
0.000666455
0.000662945
0.000658874
0.000653504
0.000646333
0.000637045
0.000625372
0.000610926
0.000593071
0.000571266
0.000544757
0.00051412
0.000477722
0.000706311
0.000685517
0.00066314
0.000646316
0.000638507
0.000639615
0.000646278
0.000654696
0.000662547
0.000668608
0.000672972
0.00067612
0.000677793
0.000677971
0.000676911
0.000675346
0.000673544
0.000671738
0.000669613
0.00066656
0.000661871
0.000655087
0.000645948
0.000634304
0.000619954
0.000602529
0.000581669
0.000556739
0.000528204
0.000494422
0.000737866
0.000716686
0.000692665
0.000669961
0.000652192
0.000642216
0.000640042
0.000643243
0.000648931
0.000654908
0.000660146
0.000664421
0.000668044
0.000670914
0.000672628
0.000673622
0.000674057
0.0006741
0.000673435
0.000671471
0.000667553
0.000661266
0.000652411
0.000640929
0.000626796
0.00060976
0.000589634
0.00056606
0.000539376
0.000508141
0.000768693
0.00074756
0.000724612
0.000699631
0.00067623
0.000657346
0.00064529
0.000640275
0.00064063
0.000644037
0.000648602
0.000653236
0.00065758
0.000661945
0.000665908
0.000669279
0.000671922
0.00067384
0.000674694
0.000673905
0.000670851
0.000665177
0.000656747
0.000645595
0.000631731
0.000615069
0.000595611
0.000573192
0.000548106
0.000519139
0.000798437
0.00077754
0.000755309
0.000730611
0.000705513
0.000681809
0.000662014
0.000648159
0.000640744
0.000638713
0.000640251
0.00064368
0.0006479
0.00065252
0.00065768
0.00066292
0.00066755
0.000671278
0.000673659
0.000674093
0.000672007
0.000667126
0.000659261
0.000648504
0.000634986
0.000618756
0.000599938
0.000578523
0.000554806
0.000527823
0.000826893
0.000806375
0.000784816
0.000761269
0.000736527
0.000711316
0.000687259
0.000666547
0.000651081
0.000641623
0.000637595
0.000637595
0.00064014
0.000644152
0.000649125
0.000655328
0.000661462
0.000666788
0.00067063
0.000672316
0.000671248
0.000667112
0.000659959
0.000649821
0.00063681
0.000621095
0.000602931
0.00058243
0.000559902
0.000534697
0.000853926
0.000833878
0.000813102
0.000791247
0.000767501
0.000742569
0.000717136
0.000692615
0.000670966
0.000654058
0.000642876
0.000637221
0.00063602
0.000637933
0.000641871
0.000647586
0.000654368
0.00066085
0.000665957
0.000668851
0.000668832
0.000665633
0.000659194
0.000649711
0.000637393
0.000622343
0.00060517
0.000585855
0.0005646
0.000541139
0.000879369
0.000859883
0.000839974
0.000819261
0.000797044
0.000773369
0.000748383
0.000722699
0.000697636
0.000675093
0.000656947
0.000644381
0.000637484
0.000635417
0.000636922
0.000641109
0.00064724
0.000654106
0.000660082
0.000664012
0.000665032
0.000662801
0.000657274
0.000648596
0.00063724
0.000623383
0.000607315
0.000589156
0.000569122
0.000547181
0.000903048
0.000884196
0.000865198
0.000845613
0.000824964
0.000802838
0.000779109
0.000753881
0.000727777
0.000702111
0.000678742
0.000659599
0.000646009
0.000638272
0.000635647
0.00063706
0.000641382
0.000647454
0.000653615
0.000658224
0.000660164
0.000658912
0.000654477
0.00064705
0.000636888
0.000624219
0.000609289
0.000592268
0.00057341
0.000552832
0.000924741
0.000906556
0.000888474
0.000870047
0.00085095
0.00083046
0.000808315
0.000784363
0.000758744
0.000732129
0.000705844
0.000681773
0.000661903
0.0006477
0.000639472
0.000636632
0.000637996
0.000642172
0.00064747
0.000652131
0.000654791
0.000654619
0.000651418
0.00064524
0.000636287
0.000624809
0.000611028
0.000595142
0.000577426
0.000558097
0.000944209
0.000926709
0.000909543
0.000892496
0.00087483
0.000855946
0.000835498
0.000813191
0.000788886
0.000762778
0.000735592
0.000708724
0.000684134
0.000663892
0.000649396
0.000641046
0.000638144
0.000639334
0.000642878
0.000646892
0.000649761
0.000650349
0.000648192
0.000643197
0.000635429
0.000625124
0.000612492
0.000597733
0.000581137
0.000562982
0.000961286
0.000944545
0.00092838
0.000912695
0.000896426
0.00087913
0.000860406
0.000839893
0.000817302
0.000792541
0.000765867
0.000738104
0.000710783
0.000685936
0.000665584
0.000651165
0.000642898
0.000639919
0.000640628
0.000643099
0.00064549
0.000646377
0.000644981
0.000641011
0.000634356
0.000625176
0.000613674
0.000600024
0.000584523
0.000567478
0.000975926
0.000960193
0.000945489
0.00093083
0.000915821
0.000900016
0.000882971
0.000864281
0.000843583
0.000820615
0.000795325
0.000768064
0.00073983
0.00071222
0.000687307
0.000667188
0.000653074
0.000644921
0.000641671
0.000641542
0.000642589
0.000643136
0.000642081
0.000638864
0.00063318
0.000625042
0.000614611
0.00060204
0.000587603
0.000571619
0.000988326
0.000973848
0.000960057
0.000946499
0.000932786
0.000918484
0.000903143
0.000886356
0.000867712
0.00084684
0.000823484
0.000797648
0.000769861
0.000741191
0.000713381
0.000688679
0.000669
0.000655204
0.000647036
0.000643204
0.000641886
0.000641264
0.00063997
0.000637105
0.000632138
0.000624892
0.000615436
0.000603882
0.00059046
0.000575481
0.000997945
0.000984556
0.000971893
0.000959605
0.000947327
0.000934676
0.000921226
0.000906734
0.000890599
0.000872271
0.000851292
0.000827454
0.000800892
0.000772331
0.000742994
0.000715095
0.000690719
0.000671416
0.000657775
0.000649272
0.000644497
0.000641716
0.00063934
0.000636223
0.000631572
0.00062497
0.00061635
0.000605718
0.000593245
0.00057921
0.00100514
0.000993014
0.000981584
0.000970626
0.00096022
0.000949947
0.000939175
0.000927344
0.000913878
0.000898228
0.000879853
0.00085841
0.000833737
0.000806247
0.000776591
0.0007466
0.000718546
0.000694362
0.000675187
0.000661321
0.000652027
0.00064592
0.000641444
0.000637214
0.000632211
0.000625812
0.000617728
0.000607834
0.000596188
0.000583011
0.00101043
0.000999742
0.000989729
0.000980386
0.000972041
0.000964089
0.000955871
0.000946733
0.000936073
0.000923336
0.000907912
0.000889353
0.00086725
0.000841792
0.000813253
0.000783433
0.000753708
0.000725869
0.000701631
0.000682078
0.000667306
0.000656564
0.000648599
0.000642041
0.00063571
0.000628732
0.000620603
0.000611019
0.000599905
0.000587403
0.00101448
0.00100561
0.000997415
0.000989863
0.00098298
0.000976935
0.000970979
0.000964404
0.000956785
0.000947717
0.000936443
0.000922283
0.000904645
0.000883353
0.000858425
0.000830591
0.000800875
0.000770822
0.000742428
0.000717266
0.000696232
0.000679388
0.000666095
0.000655306
0.000645901
0.000636893
0.000627549
0.000617348
0.000606069
0.000593713
0.00102027
0.00101436
0.00100914
0.00100465
0.00100091
0.000997991
0.000995622
0.000993277
0.0009904
0.000986357
0.000980373
0.000971641
0.000959414
0.000943209
0.00092301
0.000898653
0.000870471
0.000839877
0.000808674
0.000778632
0.000751141
0.000727015
0.000706371
0.000688803
0.000673604
0.00065993
0.000647006
0.000634198
0.000621073
0.000607531
0.00104087
0.00104028
0.0010403
0.0010411
0.0010429
0.0010458
0.00104964
0.00105389
0.00105792
0.00106087
0.00106181
0.00105985
0.00105417
0.00104417
0.00102966
0.00101006
0.000984911
0.000955672
0.000923783
0.000890906
0.000858462
0.000827582
0.00079891
0.000772749
0.000749061
0.000727429
0.00070734
0.000688319
0.000669934
0.000652544
0.00113607
0.00114283
0.00114914
0.00115671
0.00116639
0.00117815
0.00119104
0.00120393
0.001216
0.00122663
0.00123471
0.00123939
0.00123992
0.00123623
0.0012279
0.00121414
0.00119375
0.00116877
0.00114055
0.00111031
0.00107904
0.00104762
0.00101675
0.000986974
0.000958724
0.000931249
0.000904508
0.000878584
0.000853598
0.000831255
0.00151578
0.00151581
0.00151728
0.00152495
0.00153675
0.00154996
0.00156065
0.00156921
0.00157645
0.0015831
0.00158744
0.00158904
0.00158878
0.00158718
0.00158309
0.00157628
0.00156412
0.00155134
0.00153829
0.00152581
0.0015138
0.00150265
0.00149243
0.00148326
0.00147529
0.00146401
0.00145099
0.00143747
0.00142445
0.00141374
0.000180686
0.000185716
0.000184408
0.000180355
0.000174612
0.000167866
0.000160627
0.000153298
0.000146178
0.000139501
0.00013339
0.000127928
0.00012317
0.000119197
0.000115973
0.000113468
0.000111598
0.000110389
0.00010996
0.000110426
0.000111555
0.000112717
0.000113139
0.000112049
0.000108841
0.000102744
9.37466e-05
8.32512e-05
0.000362855
0.000358853
0.00077788
0.000875323
0.000855009
0.000791464
0.000716268
0.000643377
0.000578399
0.000522528
0.000475322
0.000435739
0.000402265
0.000374042
0.000350715
0.000331821
0.000316183
0.00030313
0.000291541
0.00028192
0.000274011
0.000268608
0.000266661
0.000269039
0.000274695
0.000280139
0.000281121
0.000274512
0.000262058
0.000245325
0.000283893
0.000347854
0.0012202
0.00139439
0.00140898
0.0013489
0.00125767
0.00115679
0.00105901
0.000970272
0.000892417
0.000825501
0.000768086
0.000719641
0.000679002
0.000645767
0.000618263
0.000594895
0.000573075
0.000552918
0.000532046
0.000510859
0.000492764
0.000482447
0.000480678
0.00048193
0.000479772
0.000467103
0.00044318
0.000408661
0.000393708
0.000412283
0.00151599
0.00172046
0.00176278
0.00172351
0.00164174
0.00153972
0.00143436
0.00133429
0.00124289
0.00116211
0.0010918
0.00103194
0.000981603
0.000940765
0.000907868
0.000880277
0.000854379
0.000829299
0.000799587
0.000764546
0.00072913
0.000701835
0.000686301
0.000678085
0.000668184
0.000647988
0.000614637
0.000565472
0.000523839
0.000510929
0.00169262
0.00189669
0.00196408
0.00194914
0.00188465
0.00179265
0.00169563
0.00159995
0.00150748
0.00142366
0.0013501
0.00128668
0.0012334
0.0011909
0.00115774
0.001131
0.00110637
0.00108124
0.00104766
0.00100358
0.000954297
0.000911246
0.000881082
0.000860851
0.000841925
0.000814339
0.000773847
0.000715519
0.000657664
0.000623493
0.00177996
0.00196844
0.00205037
0.0020575
0.00201809
0.00195532
0.00186894
0.00177867
0.00169058
0.00161249
0.00154449
0.00148384
0.00143342
0.00139407
0.00136486
0.00134272
0.00132324
0.00130147
0.0012669
0.0012172
0.00115867
0.00110359
0.00106067
0.00102952
0.00100076
0.000966277
0.000919929
0.000856132
0.000789017
0.000740475
0.0018355
0.00197028
0.00203796
0.0020571
0.00204312
0.00200675
0.00194698
0.00187866
0.00181128
0.00174374
0.00168158
0.00162719
0.00158524
0.00155323
0.00153142
0.00151699
0.00150563
0.00148934
0.00145654
0.00140432
0.00134061
0.0012773
0.0012236
0.00118219
0.00114581
0.00110438
0.0010533
0.000986516
0.000913934
0.000854981
0.00187681
0.00194062
0.00197311
0.00198712
0.00198535
0.00197084
0.00194251
0.00190543
0.0018601
0.00181283
0.00176678
0.00172761
0.00169431
0.00167198
0.00166051
0.00165673
0.00165528
0.00164609
0.00161768
0.00156674
0.00150076
0.00143165
0.00136968
0.00131913
0.00127544
0.00122979
0.00117457
0.00110653
0.00103145
0.000965133
0.00190833
0.00191536
0.00191359
0.00190926
0.00190471
0.00189834
0.0018868
0.00187023
0.00184867
0.0018287
0.0018036
0.00178147
0.00176382
0.00175513
0.0017556
0.00176466
0.00177436
0.00177376
0.00175141
0.00170413
0.0016386
0.00156697
0.00149932
0.0014414
0.00139086
0.00134126
0.0012857
0.00121751
0.00114207
0.00106938
0.0019602
0.00192801
0.00187884
0.00184692
0.00182643
0.00181582
0.00181007
0.0018058
0.00180099
0.00179803
0.00179625
0.00179578
0.00179718
0.00180493
0.0018197
0.00184292
0.00186502
0.00187467
0.00185982
0.00181789
0.00175544
0.00168398
0.00161319
0.00155003
0.00149374
0.00144142
0.00138456
0.00131715
0.00124192
0.00116619
0.00202795
0.00196422
0.0018878
0.00181727
0.00177039
0.0017452
0.00173391
0.0017319
0.0017353
0.00174377
0.00175669
0.00177484
0.00179826
0.00182485
0.0018555
0.00189414
0.0019294
0.0019501
0.00194462
0.00190974
0.00185274
0.00178354
0.0017121
0.0016462
0.00158618
0.0015296
0.00147052
0.00140507
0.0013314
0.00125601
0.00212027
0.00202867
0.0019251
0.00183076
0.00175605
0.00170441
0.00167871
0.00166816
0.00166959
0.00168166
0.00170234
0.0017323
0.00177148
0.00181808
0.00186645
0.00192114
0.00197011
0.00200244
0.00200807
0.00198378
0.00193278
0.00186637
0.00179549
0.00172801
0.00166531
0.00160561
0.00154516
0.00148112
0.00141099
0.00133803
0.00223217
0.0021188
0.00199805
0.00188245
0.00178403
0.00171021
0.00166055
0.00163273
0.00162122
0.00162858
0.00164861
0.00168272
0.00172964
0.00179013
0.00185673
0.00192721
0.0019899
0.00203417
0.00205112
0.00203761
0.00199568
0.00193392
0.00186458
0.0017955
0.0017302
0.00166962
0.00160974
0.00154711
0.0014818
0.00141349
0.00236069
0.00224325
0.0021124
0.00198132
0.00186266
0.00176459
0.00169101
0.00164058
0.00161208
0.00160279
0.0016118
0.001641
0.00168762
0.00175169
0.00183196
0.00191639
0.00199197
0.00204801
0.00207687
0.00207456
0.00204265
0.00198783
0.00192222
0.00185484
0.00178846
0.00172629
0.00166786
0.00160851
0.00154753
0.00148335
0.00250905
0.00239352
0.00226163
0.00212382
0.00199176
0.00187397
0.00177717
0.00170165
0.00164801
0.00161681
0.00160804
0.0016217
0.00165929
0.00171895
0.00179872
0.00189386
0.00198026
0.00204716
0.0020875
0.00209658
0.00207534
0.00202926
0.00196909
0.00190551
0.00184121
0.0017796
0.00171998
0.00166226
0.00160395
0.00154351
0.00267065
0.00256494
0.00244054
0.00230368
0.00216531
0.0020342
0.00191876
0.00181938
0.00173962
0.00168227
0.00164894
0.00164092
0.00165958
0.00170468
0.00177504
0.00186691
0.0019599
0.00203549
0.00208584
0.00210604
0.00209592
0.00206016
0.0020075
0.00194959
0.00188844
0.00182668
0.00176585
0.00170795
0.0016509
0.00159342
0.00283991
0.00274964
0.00263853
0.00250947
0.00237238
0.0022354
0.00210716
0.00198934
0.00188671
0.00180343
0.00174261
0.00170732
0.00169968
0.00172154
0.00177217
0.00184944
0.00193756
0.00201779
0.00207565
0.00210608
0.00210755
0.00208375
0.00203928
0.00198557
0.0019279
0.00186741
0.0018064
0.00174662
0.00168992
0.00163444
0.00300896
0.00293627
0.00284198
0.00272618
0.00259752
0.00246317
0.00232984
0.00220122
0.00208187
0.00197659
0.00188946
0.00182489
0.00178642
0.00177743
0.00180023
0.00185296
0.00192474
0.0019998
0.00206203
0.00210094
0.00211244
0.00209801
0.00206135
0.00201299
0.00195956
0.00190202
0.00184188
0.00178104
0.00172332
0.00166864
0.00316916
0.00311395
0.00303843
0.00294108
0.00282745
0.00270288
0.00257282
0.00244116
0.00231223
0.00219081
0.00208143
0.00198905
0.00191845
0.00187444
0.00186317
0.00188262
0.0019283
0.00198858
0.00204511
0.00208783
0.00210725
0.00210175
0.00207432
0.00203256
0.00198448
0.00193091
0.00187239
0.00181144
0.00175263
0.00169793
0.00331367
0.00327616
0.00322114
0.0031452
0.00305096
0.00294158
0.00282106
0.00269284
0.00256067
0.00242897
0.00230216
0.00218537
0.00208424
0.00200598
0.00195573
0.0019374
0.00194796
0.00198342
0.00202872
0.00206794
0.00209013
0.00209416
0.00207746
0.00204432
0.00200304
0.00195339
0.00189685
0.00183687
0.00177844
0.00172403
0.00344021
0.00341921
0.00338409
0.00332992
0.00325675
0.00316537
0.00305793
0.00293708
0.00280569
0.00266753
0.00252683
0.00238887
0.00226014
0.00214969
0.00206109
0.00200296
0.0019757
0.00197936
0.00200417
0.00203529
0.00205958
0.00207111
0.00206597
0.002043
0.00200826
0.00196433
0.00191332
0.00185814
0.00180231
0.0017496
0.00354684
0.00353889
0.0035204
0.00348553
0.00343181
0.00335763
0.00326308
0.00314948
0.00301883
0.00287437
0.00272054
0.00256337
0.00241032
0.0022715
0.00215046
0.00205485
0.00199129
0.00196061
0.00195959
0.0019771
0.00200037
0.00201996
0.00202852
0.00202096
0.00199953
0.00196591
0.00192331
0.00187536
0.0018243
0.0017749
0.00362731
0.00362666
0.00361902
0.00359763
0.00355744
0.0034947
0.00340771
0.00329577
0.00316084
0.00300652
0.00283853
0.00266458
0.00249304
0.00233294
0.00219161
0.00206947
0.00197295
0.00190981
0.00187989
0.00187783
0.0018945
0.0019198
0.00194341
0.00195589
0.00195464
0.00193996
0.00191363
0.00187757
0.0018366
0.00179477
0.00366376
0.00366319
0.00365806
0.00364069
0.00360257
0.0035396
0.00344981
0.00333241
0.00318903
0.00302431
0.00284642
0.00266548
0.00248854
0.00232314
0.002177
0.00204491
0.00192785
0.00183726
0.00177628
0.00174556
0.00174239
0.00176082
0.00179149
0.00182231
0.00184537
0.00185714
0.00185646
0.00184379
0.00182128
0.00179415
0.00361945
0.00360948
0.00359644
0.00357169
0.00352581
0.00345558
0.00335921
0.00323722
0.00309323
0.00293331
0.00276691
0.00260295
0.00244586
0.00229984
0.00216949
0.00204616
0.00192491
0.00181541
0.00172413
0.00165593
0.00161395
0.00159896
0.00160805
0.00163252
0.0016643
0.0016961
0.00172229
0.00173943
0.00174619
0.00174495
0.00342986
0.00340365
0.00337665
0.00334334
0.00329752
0.00323389
0.00315201
0.00305383
0.00294324
0.00282546
0.0027063
0.00258983
0.00247636
0.00236691
0.00226653
0.00216697
0.00205734
0.00194502
0.0018355
0.00173502
0.00164871
0.00158139
0.00153613
0.00151275
0.00150893
0.00152042
0.00154176
0.00156743
0.00159263
0.00161676
0.00305463
0.00303462
0.00302467
0.00302117
0.00301616
0.00300282
0.00297746
0.00294008
0.00289308
0.00283804
0.00277732
0.00271277
0.00264475
0.00257306
0.00250127
0.00242752
0.00233777
0.00223754
0.00213048
0.00202173
0.00191471
0.00181382
0.0017226
0.00164457
0.00158202
0.00153562
0.00150469
0.00148737
0.00148118
0.00149137
0.00273149
0.00278045
0.00284379
0.00290962
0.00296399
0.00300255
0.00302425
0.00303012
0.00302387
0.00300241
0.00297066
0.00293148
0.00288526
0.00283419
0.002781
0.00272518
0.00265792
0.00258221
0.00249961
0.0024127
0.00232246
0.00223203
0.00214153
0.00205337
0.00196962
0.00189186
0.00182155
0.00175921
0.00170569
0.0016797
0.00281988
0.00289035
0.00296511
0.00303639
0.00309355
0.00313261
0.00315766
0.00316551
0.00316001
0.00314279
0.0031173
0.0030856
0.00304511
0.00300348
0.00296079
0.0029142
0.00286606
0.00281476
0.00276259
0.00271127
0.00266076
0.00261499
0.00256889
0.00252527
0.00248242
0.00243882
0.00239468
0.00235081
0.00230874
0.00228822
0.00303793
0.00308209
0.0031244
0.00316384
0.00318922
0.00320111
0.00320358
0.00319687
0.00318298
0.00316385
0.00314051
0.0031132
0.00307985
0.00304769
0.00301336
0.00298041
0.0029519
0.00292458
0.00290064
0.0028826
0.00287185
0.00286769
0.0028734
0.00288277
0.0028941
0.00290371
0.00291191
0.00291894
0.00292346
0.00291937
0.000218582
0.000221114
0.000215677
0.000208511
0.000200309
0.000191369
0.000182095
0.000172887
0.000164055
0.00015585
0.000148393
0.000141816
0.000136173
0.000131557
0.000127926
0.000125322
0.000123711
0.000123388
0.000125002
0.000128869
0.000133936
0.000138457
0.000141136
0.000141216
0.000138305
0.000131934
0.000121964
0.000107297
9.18097e-05
0.000423469
0.0010215
0.00114249
0.00113345
0.00106532
0.000972001
0.000878222
0.000793697
0.000720688
0.000658937
0.000607027
0.000562928
0.000526553
0.000496065
0.000470891
0.000448803
0.000429326
0.000409655
0.000392925
0.000380434
0.000375964
0.00038165
0.000395699
0.000412812
0.000425545
0.000426566
0.000411394
0.000382991
0.000343729
0.000309722
0.000300918
0.00162605
0.0018658
0.00190565
0.00184194
0.00173125
0.00160403
0.00147795
0.00136199
0.00125974
0.00117161
0.0010957
0.00103252
0.000979601
0.000936611
0.000900353
0.000867869
0.000833106
0.000798851
0.000762912
0.000732026
0.000716584
0.000719596
0.000734392
0.000748171
0.000744594
0.000719828
0.000671215
0.000600806
0.000531611
0.000484333
0.00205738
0.00234051
0.00241635
0.00237748
0.00227823
0.00214995
0.00201262
0.00187937
0.00175758
0.00164976
0.00155555
0.00147636
0.00141027
0.00135744
0.00131474
0.00127766
0.00123782
0.00119471
0.00114164
0.00108671
0.00104526
0.00102805
0.00103059
0.00103808
0.00103005
0.000995819
0.000933602
0.000842979
0.000747252
0.000673527
0.00236612
0.0026505
0.00274679
0.00273117
0.00265115
0.00253589
0.0024027
0.00226807
0.00214211
0.0020274
0.00192571
0.0018396
0.00176822
0.00171193
0.00166863
0.0016326
0.00159361
0.00154627
0.00147903
0.00140681
0.00134433
0.00130552
0.00129213
0.00128989
0.00127704
0.00123693
0.00116737
0.00106545
0.000953192
0.00085771
0.00259096
0.00284645
0.0029525
0.00296103
0.00290061
0.00279793
0.00267035
0.00254497
0.00242753
0.00231541
0.00221477
0.00212945
0.00205917
0.00200502
0.00196577
0.00193472
0.0019001
0.0018506
0.00177379
0.00168516
0.00160606
0.00154934
0.00152014
0.00150663
0.00148825
0.0014474
0.00137427
0.00126835
0.00114707
0.00103613
0.00275734
0.00296519
0.0030638
0.00308049
0.00303922
0.00296046
0.00286462
0.00275125
0.00263648
0.00252486
0.00243254
0.00235502
0.002291
0.00224397
0.00221253
0.00218964
0.00216122
0.00211105
0.00202728
0.00192557
0.00183329
0.00176176
0.00171827
0.00169279
0.00166789
0.00162684
0.00155781
0.00145303
0.00132938
0.00120618
0.00287203
0.00302986
0.00310227
0.00311535
0.00308812
0.00303044
0.00295404
0.00286415
0.00277003
0.00268196
0.00259729
0.00252556
0.00247097
0.00243481
0.00241447
0.0024027
0.00238175
0.00232996
0.00224103
0.00213186
0.0020308
0.00194715
0.00189062
0.00185327
0.0018209
0.0017803
0.00171805
0.00161981
0.00149727
0.0013659
0.00297494
0.00305765
0.00308644
0.00308713
0.00306769
0.00302814
0.00297372
0.00290993
0.00284092
0.00277126
0.00270533
0.0026483
0.00260647
0.0025835
0.0025768
0.00257837
0.00256508
0.00251364
0.00242165
0.00231029
0.00220169
0.00210929
0.00204129
0.00199265
0.00195395
0.00191162
0.00185129
0.00176285
0.00164533
0.00151329
0.00305553
0.00306494
0.00306102
0.00304503
0.00302271
0.00299205
0.00295331
0.00290873
0.00286026
0.00281207
0.00276794
0.00273005
0.00270425
0.00269633
0.00270421
0.00271994
0.00271508
0.00266669
0.00257601
0.00246332
0.00235017
0.00225146
0.00217389
0.00211646
0.00206802
0.0020201
0.00196109
0.00188104
0.00177516
0.00165096
0.00313796
0.00310505
0.00305475
0.00301289
0.00297744
0.00294532
0.00291315
0.00288161
0.00284991
0.00281977
0.00279373
0.00277699
0.00276989
0.00277907
0.00280168
0.00283104
0.00283462
0.00279192
0.00270479
0.00259385
0.00247976
0.00237674
0.00229048
0.00221974
0.00216085
0.00210779
0.00205205
0.00197925
0.00188691
0.00177532
0.00322788
0.00317314
0.00309953
0.00302043
0.00295306
0.00291019
0.0028735
0.00284703
0.00282568
0.00280912
0.0027986
0.00279727
0.00280987
0.00283655
0.00287361
0.00291587
0.00292883
0.00289257
0.00281222
0.00270625
0.00259271
0.00248434
0.00239188
0.00231362
0.00224713
0.00218754
0.00212965
0.00206459
0.00198659
0.00188787
0.00332189
0.00324788
0.00315417
0.00305613
0.00297504
0.00290588
0.00285158
0.00282388
0.00280487
0.00279494
0.00279482
0.00280583
0.00283172
0.00287362
0.00292513
0.00297876
0.00300017
0.00297262
0.00290111
0.00280347
0.00269216
0.00258324
0.00248742
0.00240237
0.00232946
0.00226467
0.0022041
0.00214408
0.00207469
0.00198775
0.00343862
0.00335116
0.00324073
0.00312307
0.00302052
0.00293543
0.00287618
0.00283083
0.00280503
0.00279235
0.00279571
0.00281371
0.00284772
0.00289749
0.00296137
0.00302406
0.00305335
0.00303528
0.00297509
0.00288683
0.00278014
0.00267263
0.00257514
0.00248759
0.00240989
0.00234115
0.00227682
0.00221488
0.00215032
0.00207266
0.0035746
0.00347911
0.00335861
0.00323491
0.00311704
0.00301421
0.00293396
0.00287292
0.00283272
0.00281385
0.00281406
0.0028315
0.0028666
0.00291748
0.00298721
0.00305565
0.00309157
0.00308322
0.00303537
0.00295787
0.00285805
0.00275399
0.00265698
0.00256871
0.00248842
0.00241557
0.00234746
0.0022817
0.00221784
0.00214607
0.00372646
0.00363283
0.00351889
0.00339121
0.0032631
0.00314479
0.00304446
0.00296421
0.00290623
0.00287147
0.00285889
0.00286645
0.00289454
0.00294165
0.00300611
0.00307593
0.00311632
0.00311739
0.00308217
0.00301691
0.00292634
0.00282796
0.00273346
0.00264501
0.00256354
0.00248787
0.00241644
0.00234684
0.00228059
0.00221148
0.00389661
0.00381374
0.00370792
0.00358336
0.00345173
0.003323
0.00320595
0.0031057
0.00302619
0.0029698
0.00293694
0.0029269
0.00293901
0.00297137
0.0030235
0.00308428
0.00312579
0.0031353
0.00311301
0.00306175
0.00298262
0.00289155
0.00280123
0.00271515
0.00263468
0.00255755
0.00248348
0.00241003
0.00234024
0.00227138
0.00408127
0.00400876
0.00391472
0.00379892
0.00367031
0.00353743
0.00340881
0.003291
0.00318932
0.0031077
0.00304823
0.00301165
0.00299791
0.00300652
0.00303524
0.00307807
0.00311381
0.00312881
0.0031191
0.00308421
0.00301906
0.00293957
0.00285753
0.00277731
0.00269955
0.00262249
0.00254663
0.0024699
0.00239695
0.00232715
0.00426266
0.00420449
0.0041255
0.00402275
0.00390246
0.00377126
0.00363655
0.0035051
0.00338285
0.00327466
0.00318404
0.00311331
0.00306407
0.0030377
0.00303396
0.00304895
0.00307
0.00308472
0.00308571
0.00306681
0.00302411
0.00296308
0.00289561
0.00282447
0.00275133
0.00267649
0.00260001
0.0025227
0.00244843
0.00237839
0.00443305
0.00438969
0.00432655
0.00423871
0.00412976
0.00400411
0.00386749
0.00372583
0.00358488
0.00344984
0.00332516
0.00321472
0.00312236
0.00305185
0.00300689
0.00298445
0.00298012
0.00298677
0.00299494
0.00299458
0.00297701
0.00294169
0.00289177
0.00283398
0.00277224
0.00270639
0.00263573
0.00256285
0.00249198
0.00242391
0.00458389
0.00455303
0.00450371
0.00442968
0.00433206
0.00421282
0.00407562
0.00392491
0.00376566
0.00360313
0.00344271
0.00329006
0.00315167
0.00303371
0.0029438
0.00287913
0.00284068
0.00282799
0.00283337
0.00284582
0.00285329
0.00284903
0.00283101
0.00280124
0.00276198
0.00271062
0.00265543
0.00259511
0.00253075
0.00246618
0.00470406
0.00468048
0.00463994
0.0045754
0.00448556
0.00436991
0.00422981
0.00406814
0.00388918
0.00369893
0.00350414
0.00331308
0.00313499
0.00297754
0.00285003
0.00274926
0.00267629
0.00263493
0.0026217
0.00262953
0.00264815
0.00266819
0.00268281
0.00268806
0.00268225
0.00266267
0.00263084
0.0025878
0.00253901
0.00248771
0.00477408
0.00475023
0.00471074
0.0046482
0.00455923
0.00444108
0.00429336
0.00411805
0.00391991
0.00370754
0.00348902
0.00327613
0.00307936
0.00290582
0.00276238
0.00264652
0.00255143
0.00248132
0.00243602
0.00241506
0.00241522
0.00243161
0.002458
0.00248736
0.00251343
0.00253016
0.00253407
0.0025231
0.00249912
0.00247046
0.00476046
0.00472713
0.00467899
0.00460943
0.00451425
0.00438889
0.00423294
0.00404907
0.00384409
0.00362862
0.00341487
0.00321392
0.00303398
0.00287867
0.00274873
0.00264427
0.00254664
0.00245857
0.0023809
0.00231755
0.00227238
0.00224793
0.00224477
0.00226011
0.00228844
0.00232223
0.00235386
0.00237694
0.00238791
0.00238679
0.004612
0.00456126
0.00449753
0.00441738
0.00431734
0.00419432
0.00404807
0.00388239
0.00370531
0.00352723
0.00335865
0.00320605
0.00307401
0.00296202
0.00286696
0.00278651
0.00269942
0.00260693
0.00250946
0.00241183
0.00232038
0.00224103
0.00217967
0.00214059
0.00212474
0.00212956
0.00214943
0.00217717
0.00220563
0.0022304
0.00427477
0.00421184
0.00414987
0.00408523
0.00401528
0.00393391
0.00383911
0.00373315
0.00362178
0.00351197
0.0034099
0.00331752
0.00323728
0.00316766
0.00310505
0.00304454
0.00296884
0.00288067
0.00277984
0.00267015
0.00255639
0.00244274
0.0023343
0.00223825
0.00215996
0.00210275
0.00206711
0.0020505
0.00204897
0.00206505
0.00382466
0.00379369
0.00378391
0.00378916
0.00379593
0.00378986
0.00376847
0.00373292
0.00368733
0.00363669
0.0035853
0.00353282
0.00348208
0.00343306
0.00338283
0.00332703
0.00325541
0.00317363