/*--------------------------------*- C++ -*----------------------------------*\
  =========                 |
  \\      /  F ield         | OpenFOAM: The Open Source CFD Toolbox
   \\    /   O peration     | Website:  https://openfoam.org
    \\  /    A nd           | Version:  12
     \\/     M anipulation  |
\*---------------------------------------------------------------------------*/
FoamFile
{
    format      ascii;
    class       volScalarField;
    location    "1850/air";
    object      epsilon;
}
// * * * * * * * * * * * * * * * * * * * * * * * * * * * * * * * * * * * * * //

dimensions      [0 2 -3 0 0 0 0];

internalField   nonuniform List<scalar> 
243000
(
1.7954
2.40626
2.91817
3.3343
3.64992
3.86408
3.98363
4.02092
3.98969
3.90372
3.7746
3.61259
3.42615
3.22605
3.01699
2.79985
2.57324
2.34065
2.10625
1.87494
1.64994
1.43788
0.304485
1.15728
0.24111
0.897142
0.171257
0.12491
0.0789901
0.0713501
1.12331
1.49885
1.73125
1.85803
1.91532
1.92473
1.899
1.84814
1.77967
1.69949
1.61158
1.51925
1.42548
1.33321
1.24357
1.15679
1.07227
0.991542
0.915088
0.843827
0.777166
0.713482
0.64916
0.582302
0.503837
0.415161
0.320488
0.219149
0.135131
0.0939509
1.06639
1.44884
1.65867
1.74121
1.74899
1.70903
1.63981
1.55437
1.46123
1.36632
1.27305
1.18396
1.10044
1.02385
0.954365
0.891661
0.834749
0.784429
0.739952
0.700942
0.666077
0.633277
0.599095
0.558323
0.505547
0.437518
0.356889
0.263551
0.181365
0.117804
1.03316
1.4032
1.66864
1.81792
1.87523
1.86552
1.81415
1.73776
1.64759
1.55158
1.45473
1.36076
1.27161
1.18925
1.11445
1.04729
0.987019
0.934748
0.889249
0.849359
0.812977
0.777703
0.740099
0.694749
0.636049
0.559681
0.467794
0.360399
0.26144
0.173673
0.97835
1.2475
1.51791
1.71517
1.82967
1.87174
1.86064
1.81418
1.74502
1.66313
1.57548
1.48705
1.40079
1.31968
1.24529
1.17843
1.11878
1.06773
1.02361
0.98433
0.946966
0.908947
0.867209
0.817123
0.753431
0.67163
0.572795
0.45723
0.345899
0.240992
0.974748
1.09828
1.29611
1.50137
1.66059
1.75729
1.79778
1.79483
1.75996
1.70452
1.63723
1.5638
1.48834
1.415
1.34629
1.28411
1.22866
1.18157
1.14074
1.10333
1.06575
1.02528
0.979383
0.924528
0.856347
0.770757
0.667969
0.548518
0.429396
0.313043
1.10749
1.09421
1.18185
1.31959
1.46051
1.5747
1.65693
1.6982
1.70473
1.68439
1.64517
1.59385
1.53592
1.47615
1.41785
1.36429
1.31617
1.27531
1.23937
1.20492
1.16796
1.12569
1.0761
1.01678
0.944588
0.856207
0.751482
0.631047
0.508132
0.384946
1.2772
1.18905
1.16933
1.22454
1.31877
1.41908
1.50503
1.56349
1.60078
1.6142
1.60654
1.58247
1.54666
1.50483
1.46111
1.41954
1.38144
1.3487
1.31897
1.28852
1.25307
1.20987
1.15738
1.09424
1.01861
0.928179
0.822857
0.703324
0.579984
0.453397
1.47197
1.34493
1.24846
1.21565
1.24391
1.30634
1.37846
1.44077
1.48791
1.51669
1.5342
1.53666
1.52531
1.50448
1.47801
1.45099
1.42506
1.402
1.37965
1.35414
1.32113
1.27802
1.22367
1.15766
1.07932
0.987477
0.882577
0.765414
0.643468
0.516292
1.69064
1.54504
1.39774
1.29309
1.24566
1.25104
1.28911
1.33853
1.38566
1.42259
1.44929
1.46863
1.47855
1.47881
1.4711
1.46025
1.44801
1.43591
1.42194
1.40226
1.37264
1.33071
1.27571
1.20795
1.12783
1.03542
0.93161
0.816963
0.697731
0.572288
1.92852
1.76661
1.59404
1.44141
1.32866
1.26749
1.25341
1.27089
1.30339
1.33825
1.36919
1.39472
1.41659
1.43393
1.44404
1.44966
1.45179
1.45148
1.44671
1.43369
1.40843
1.36879
1.31442
1.24618
1.16555
1.0731
0.970349
0.858619
0.742879
0.621201
2.18152
2.00599
1.82619
1.64284
1.48237
1.36044
1.28571
1.25466
1.25531
1.27401
1.29986
1.32656
1.35199
1.37806
1.40196
1.42246
1.43858
1.45024
1.45517
1.44958
1.42958
1.39333
1.34084
1.27359
1.19326
1.10132
1.0001
0.891418
0.77947
0.66236
2.44576
2.25825
2.06946
1.87222
1.68483
1.51947
1.38963
1.30285
1.2573
1.24394
1.25152
1.27034
1.29417
1.32087
1.35142
1.383
1.41128
1.43425
1.44887
1.45109
1.43719
1.40575
1.35636
1.2909
1.21178
1.1212
1.022
0.916461
0.808347
0.696099
2.7178
2.52004
2.32275
2.11924
1.91836
1.72692
1.55627
1.41833
1.32042
1.26225
1.23719
1.23579
1.24927
1.27162
1.30015
1.33677
1.37368
1.40622
1.42987
1.43999
1.43258
1.40582
1.36077
1.29881
1.22224
1.13393
1.03732
0.935091
0.830764
0.723549
2.99428
2.7879
2.58419
2.38079
2.17203
1.96616
1.76975
1.5929
1.44658
1.33837
1.26937
1.23471
1.22634
1.2361
1.25789
1.29072
1.33065
1.36959
1.40069
1.41825
1.41747
1.3967
1.35618
1.29822
1.2256
1.14074
1.04881
0.951549
0.851711
0.749904
3.27106
3.05801
2.85003
2.64382
2.43382
2.22243
2.01278
1.8112
1.62761
1.47316
1.35584
1.27793
1.23585
1.22248
1.22988
1.25311
1.28835
1.32873
1.3645
1.38814
1.39379
1.37921
1.34453
1.29164
1.22471
1.14639
1.05992
0.967609
0.872213
0.775189
3.54346
3.32576
3.11552
2.9082
2.69968
2.48742
2.2723
2.05736
1.8494
1.65878
1.49674
1.37185
1.28714
1.23996
1.22336
1.23028
1.25434
1.28925
1.32537
1.35265
1.3638
1.35536
1.3276
1.2825
1.2227
1.15098
1.07021
0.982927
0.891965
0.79934
3.80581
3.58529
3.37457
3.16843
2.96374
2.75401
2.53859
2.31838
2.09709
1.88232
1.68482
1.51628
1.38567
1.29669
1.24642
1.22856
1.23526
1.25856
1.28889
1.31591
1.33117
1.32934
1.30929
1.27189
1.21931
1.15424
1.07936
0.997231
0.910744
0.822294
4.05184
3.83032
3.62095
3.4206
3.22092
3.01613
2.80423
2.5845
2.35827
2.13015
1.90848
1.70479
1.53134
1.39747
1.30624
1.25505
1.2368
1.24257
1.26223
1.28497
1.30117
1.30385
1.2902
1.26003
1.21448
1.15603
1.08713
1.01026
0.928338
0.843979
4.27595
4.05603
3.8509
3.65857
3.46586
3.26843
3.06321
2.84829
2.62334
2.39052
2.15534
1.92722
1.71879
1.54259
1.40737
1.31623
1.26534
1.24661
1.24961
1.26304
1.27616
1.28052
1.27145
1.24746
1.2085
1.15639
1.09345
1.02191
0.94461
0.864287
4.47418
4.26082
4.06767
3.88099
3.69579
3.50714
3.3109
3.10416
2.88529
2.65455
2.41486
2.17289
1.93968
1.72815
1.55086
1.41671
1.32711
1.2767
1.25631
1.25444
1.25955
1.26181
1.25476
1.23526
1.202
1.15579
1.09854
1.03226
0.959596
0.883286
4.64624
4.44476
4.25827
4.08003
3.90481
3.7274
3.54306
3.34828
3.14033
2.91778
2.6813
2.43479
2.18683
1.94904
1.73537
1.55911
1.42741
1.33941
1.28867
1.26477
1.25594
1.25132
1.24284
1.22543
1.19635
1.15516
1.1031
1.04182
0.973669
0.901278
4.78218
4.59203
4.41689
4.25118
4.08971
3.92758
3.75984
3.58421
3.39511
3.18842
2.96221
2.71829
2.46255
2.20586
1.96162
1.74652
1.5719
1.44205
1.35452
1.30145
1.27185
1.25444
1.23964
1.22077
1.19348
1.15585
1.1082
1.05146
0.98756
0.918916
4.8847
4.70987
4.54897
4.39816
4.25793
4.12229
3.98304
3.83356
3.66788
3.48128
3.27032
3.03501
2.77845
2.50998
2.24055
1.98837
1.77052
1.59582
1.46562
1.37583
1.31747
1.27975
1.25238
1.22689
1.19746
1.16081
1.11587
1.06268
1.00243
0.937173
4.95977
4.80412
4.66127
4.53054
4.41572
4.30793
4.19821
4.07821
3.94101
3.78101
3.59306
3.37522
3.12745
2.85739
2.57428
2.29883
2.04457
1.82406
1.64545
1.5101
1.41279
1.34453
1.2952
1.2554
1.21783
1.17747
1.13179
1.07967
1.02143
0.958592
5.01669
4.88652
4.76828
4.66104
4.56465
4.48089
4.39912
4.30978
4.20782
4.0883
3.94273
3.76477
3.55068
3.30328
3.02888
2.74096
2.45442
2.1857
1.95057
1.75689
1.60518
1.49014
1.40327
1.33521
1.2777
1.22424
1.1705
1.11381
1.05343
0.989951
5.09916
5.01163
4.93537
4.87026
4.81653
4.77473
4.74079
4.70706
4.66572
4.6079
4.52323
4.40171
4.23548
4.02193
3.76631
3.47297
3.15323
2.82912
2.52234
2.24885
2.0167
1.82672
1.67402
1.551
1.44958
1.36224
1.28305
1.20775
1.13381
1.06085
5.40902
5.40062
5.40179
5.41502
5.44374
5.48966
5.55043
5.61794
5.68193
5.72841
5.74202
5.7084
5.61476
5.45369
5.22669
4.93075
4.56803
4.16943
3.76202
3.3708
3.01245
2.69607
2.42308
2.19084
1.99395
1.82491
1.67686
1.54438
1.42326
1.31477
7.01683
7.14342
7.26306
7.40806
7.596
7.82784
8.08693
8.35091
8.60237
8.82739
8.9998
9.09917
9.10733
9.02303
8.83869
8.54178
8.11541
7.61286
7.07051
6.51858
5.9786
5.46719
4.99393
4.56442
4.18058
3.82882
3.50622
3.21156
2.9439
2.71767
16.4909
16.4899
16.5398
16.7945
17.1882
17.6342
17.9981
18.2923
18.5423
18.7733
18.9225
18.9752
18.9615
18.9003
18.7515
18.5086
18.082
17.6402
17.1963
16.778
16.3816
16.0185
15.6901
15.399
15.1483
14.7993
14.4042
14.0017
13.6217
13.3141
4.4249
5.59022
6.34691
6.85451
7.13993
7.23148
7.16296
6.97337
6.69964
6.37488
6.02192
5.65942
5.30124
4.96319
4.64659
4.35142
4.07142
3.81366
3.59106
3.41341
3.25706
3.06874
2.79883
2.42689
1.96576
1.45282
0.962601
0.156815
0.134849
0.114562
3.06514
3.42564
3.62188
3.72539
3.74269
3.68441
3.56326
3.39688
3.20257
2.99644
2.79207
2.59369
2.4147
2.25859
2.12724
2.01895
1.93547
1.88211
1.8679
1.89566
1.94207
1.96044
1.90823
1.76566
1.53869
1.2474
0.927386
0.594025
0.353645
0.214409
2.88152
3.10639
3.18141
3.18462
3.13064
3.0338
2.90208
2.74511
2.57342
2.39761
2.22679
2.06677
1.92317
1.79965
1.69847
1.62241
1.57363
1.55783
1.58335
1.65172
1.74051
1.80708
1.81017
1.72954
1.56323
1.32798
1.05447
0.763621
0.51968
0.332898
2.79396
2.94486
2.96838
2.93264
2.85545
2.75005
2.62252
2.47898
2.3262
2.17181
2.02257
1.88381
1.75971
1.65366
1.56796
1.507
1.47377
1.474
1.51463
1.59497
1.69471
1.77622
1.80175
1.74933
1.61706
1.41485
1.16885
0.894888
0.651658
0.446338
2.69654
2.77984
2.77002
2.71769
2.63663
2.53633
2.42123
2.29515
2.16235
2.02857
1.89921
1.77903
1.67165
1.58046
1.50824
1.45961
1.43823
1.45009
1.4996
1.58394
1.685
1.7696
1.80376
1.76795
1.65795
1.48083
1.25803
1.00111
0.763941
0.551517
2.56871
2.57469
2.54061
2.48443
2.41205
2.32719
2.23072
2.12546
2.01445
1.90224
1.79322
1.69157
1.60069
1.52426
1.4652
1.42857
1.41806
1.43996
1.4966
1.58301
1.68114
1.76278
1.79844
1.77061
1.67778
1.52195
1.32085
1.08343
0.856501
0.645698
2.41253
2.32646
2.26342
2.21315
2.16214
2.1026
2.03101
1.95057
1.86381
1.77438
1.68634
1.60363
1.52974
1.4683
1.42252
1.39792
1.39794
1.42873
1.49087
1.57791
1.67121
1.74711
1.78165
1.75871
1.67647
1.53986
1.35928
1.14291
0.930173
0.727557
2.27066
2.09448
1.98973
1.93497
1.89893
1.86383
1.82114
1.76857
1.70682
1.64062
1.57379
1.51028
1.45346
1.40704
1.37473
1.36197
1.37221
1.41093
1.47685
1.56247
1.65066
1.72111
1.75314
1.73356
1.66029
1.53773
1.37694
1.18184
0.985315
0.79443
2.16424
1.92871
1.79246
1.71728
1.6785
1.6533
1.6271
1.59316
1.55035
1.50477
1.45724
1.41174
1.37137
1.33978
1.32052
1.31914
1.33894
1.38449
1.45324
1.53686
1.61998
1.68472
1.71394
1.69679
1.6318
1.52211
1.37686
1.20297
1.0237
0.846389
2.13212
1.86701
1.68079
1.57462
1.51606
1.48467
1.46331
1.44079
1.41221
1.37851
1.34355
1.312
1.28577
1.26761
1.26024
1.26955
1.298
1.34911
1.41967
1.50108
1.57924
1.63877
1.66548
1.65053
1.5932
1.49546
1.36523
1.2094
1.04736
0.884361
2.16927
1.88718
1.66876
1.51651
1.42199
1.37144
1.34024
1.31779
1.29561
1.2704
1.24347
1.21827
1.20123
1.19334
1.19577
1.2145
1.2503
1.30564
1.37698
1.45581
1.52938
1.58446
1.60931
1.59672
1.54654
1.46005
1.34417
1.20467
1.0589
0.910071
2.257
1.96188
1.72309
1.54208
1.41233
1.32533
1.27046
1.23539
1.20847
1.18427
1.16083
1.13945
1.1243
1.12141
1.13068
1.15634
1.19754
1.25553
1.32656
1.4025
1.47185
1.52325
1.54698
1.53707
1.49378
1.41833
1.31589
1.19202
1.06056
0.925388
2.38744
2.08456
1.83147
1.62945
1.47164
1.35311
1.26998
1.20753
1.16266
1.12876
1.10127
1.07884
1.06275
1.05795
1.06966
1.09845
1.14227
1.20096
1.27039
1.343
1.40841
1.45682
1.48012
1.47319
1.4366
1.37151
1.28221
1.17349
1.05653
0.934665
2.55371
2.24742
1.99173
1.77657
1.59688
1.44975
1.33446
1.24288
1.1713
1.11638
1.07462
1.04291
1.02136
1.01131
1.01883
1.04541
1.08804
1.14488
1.21111
1.27968
1.34118
1.38706
1.4105
1.40688
1.37696
1.32196
1.24628
1.15285
1.04949
0.93981
2.74756
2.44862
2.19634
1.9759
1.78171
1.61153
1.4679
1.34486
1.2406
1.15645
1.09138
1.04237
1.00781
0.987894
0.984936
1.00303
1.03957
1.09113
1.15207
1.21545
1.27272
1.31625
1.34024
1.34032
1.31782
1.27377
1.21061
1.13025
1.03907
0.940143
2.96375
2.68401
2.44475
2.22495
2.02053
1.83144
1.66483
1.51101
1.37334
1.25566
1.1598
1.0847
1.02957
0.993312
0.975375
0.978539
1.00297
1.04478
1.09755
1.15405
1.20633
1.24744
1.27266
1.27782
1.26257
1.22774
1.17517
1.10624
1.02593
0.937122
3.19954
2.94635
2.72463
2.51049
2.30233
2.09935
1.91146
1.73153
1.56408
1.41381
1.28462
1.1782
1.09474
1.03469
0.996159
0.979779
0.985854
1.0125
1.05324
1.10045
1.14695
1.18606
1.21231
1.22133
1.212
1.18483
1.14113
1.08196
1.0112
0.931712
3.4413
3.21406
3.01029
2.80417
2.59794
2.39186
2.18986
1.99216
1.80215
1.62462
1.46461
1.3258
1.21061
1.1203
1.05517
1.01424
0.997328
1.00356
1.02755
1.06265
1.10112
1.13579
1.16095
1.17251
1.16748
1.14634
1.10992
1.05889
0.996342
0.925093
3.66557
3.46052
3.27342
3.08275
2.88771
2.68753
2.48408
2.27897
2.07578
1.87933
1.69516
1.52782
1.38134
1.2572
1.16178
1.09138
1.04611
1.02699
1.03
1.04776
1.07341
1.10027
1.1222
1.13378
1.13111
1.11418
1.08337
1.03886
0.983037
0.91864
3.85584
3.67625
3.51277
3.34429
3.16781
2.98145
2.78606
2.58356
2.37756
2.17271
1.97429
1.78653
1.6141
1.4609
1.32984
1.22571
1.14623
1.09544
1.07036
1.06494
1.07249
1.08626
1.10111
1.10939
1.10647
1.09136
1.0642
1.02399
0.973088
0.914006
4.01569
3.86621
3.7313
3.59047
3.43916
3.27446
3.09647
2.90759
2.71134
2.51171
2.31283
2.1173
1.92908
1.75211
1.58721
1.44436
1.32393
1.23254
1.16954
1.13083
1.11141
1.10594
1.10765
1.1075
1.10017
1.08307
1.05551
1.01681
0.968532
0.912875
4.15588
4.04048
3.93846
3.83107
3.71257
3.57942
3.43158
3.27203
3.10428
2.93089
2.75329
2.57052
2.3836
2.19392
2.00247
1.81385
1.64279
1.49512
1.37581
1.2857
1.22344
1.1848
1.16217
1.14439
1.12498
1.0999
1.06675
1.02446
0.974728
0.919732
4.29469
4.21991
4.15825
4.09381
4.0207
3.93609
3.8411
3.73982
3.63527
3.52705
3.41097
3.27881
3.12569
2.94649
2.7422
2.51149
2.26325
2.02479
1.8092
1.62846
1.48808
1.38584
1.31375
1.25833
1.21042
1.16421
1.1158
1.06294
1.00555
0.945775
4.47733
4.45546
4.45009
4.44928
4.44901
4.44964
4.45627
4.4752
4.50807
4.54766
4.57851
4.57778
4.52948
4.41402
4.22764
3.95295
3.59143
3.18831
2.7873
2.42442
2.12015
1.87911
1.6947
1.5505
1.43329
1.33409
1.2457
1.16315
1.08387
1.0088
4.81229
4.87399
4.9659
5.08228
5.2252
5.40382
5.63112
5.91611
6.2566
6.62984
6.99832
7.31422
7.53477
7.60973
7.51719
7.2181
6.67681
5.95982
5.17966
4.42269
3.74301
3.1665
2.69741
2.31954
2.0186
1.77791
1.58204
1.41889
1.27943
1.16271
5.60228
5.83543
6.14029
6.52297
7.00141
7.59732
8.33517
9.2226
10.2454
11.3429
12.4298
13.4139
14.2094
14.721
14.885
14.6181
13.8269
12.6089
11.136
9.58246
8.06974
6.68707
5.48714
4.48748
3.67994
3.03994
2.53675
2.14147
1.82797
1.59054
7.88369
8.56124
9.41441
10.4543
11.723
13.2515
15.0677
17.1551
19.4697
21.8577
24.1555
26.2118
27.906
29.1038
29.6993
29.5266
28.4447
26.5686
24.1224
21.3613
18.4643
15.6071
12.9353
10.5587
8.53319
6.86358
5.52315
4.46584
3.63813
3.03926
15.3636
17.1779
19.1781
21.4327
24.0785
27.079
30.4799
34.181
38.0999
41.8432
45.2336
48.1304
50.4088
51.9592
52.6936
52.384
51.0387
48.7657
45.7236
42.0821
37.9716
33.597
29.1645
24.8857
20.9485
17.4706
14.5015
12.0163
9.96607
8.46575
34.6291
36.6154
39.1217
42.2141
45.6777
49.4151
53.6646
57.8713
61.7946
65.1064
67.7439
69.7628
70.9514
71.3397
70.9482
69.5214
67.6321
65.391
62.9081
59.965
56.5016
52.761
48.8502
44.897
41.0075
37.2443
33.6489
30.2637
27.1215
24.6605
50.1671
48.9271
49.4197
51.1391
53.578
56.2136
58.7421
60.904
62.6608
64.0124
64.8623
65.23
65.1031
64.5291
63.1622
60.7114
58.4473
56.1011
53.8506
51.6875
49.7161
48.0085
46.686
45.7943
45.2896
44.9586
44.676
44.3672
43.8899
43.0892
7.82579
9.42958
10.1498
10.5884
10.7758
10.7117
10.4342
10.0015
9.46959
8.8886
8.29066
7.71
7.16385
6.6733
6.237
5.86298
5.54645
5.32587
5.27544
5.42506
5.63575
5.68524
5.43244
4.8572
4.03467
3.0715
2.11309
1.24784
0.670478
0.548174
4.65655
5.11957
5.2795
5.34809
5.32911
5.21472
5.01299
4.74685
4.44074
4.11856
3.80114
3.50061
3.22809
2.98658
2.78623
2.6349
2.5455
2.54174
2.66963
2.94569
3.2709
3.48782
3.49278
3.27452
2.88097
2.375
1.81364
1.23974
0.786354
0.485425
4.30942
4.53566
4.58451
4.55762
4.46428
4.31588
4.11744
3.88013
3.61883
3.3487
3.0842
2.83561
2.61123
2.41623
2.25728
2.14296
2.08481
2.10699
2.25188
2.53093
2.86235
3.11272
3.18675
3.06628
2.78996
2.3877
1.92103
1.41912
0.986502
0.642837
4.23337
4.31978
4.2995
4.22679
4.1091
3.95491
3.76684
3.55133
3.31836
3.0791
2.84468
2.6241
2.42461
2.25197
2.11335
2.01757
1.97613
2.01218
2.15742
2.41846
2.73057
2.97839
3.0762
3.0019
2.78122
2.44555
2.03602
1.57876
1.16181
0.800241
4.20171
4.15469
4.07019
3.96789
3.8433
3.69615
3.52501
3.33299
3.12683
2.91524
2.70717
2.51051
2.332
2.17856
2.05744
1.97828
1.9528
2.00272
2.15115
2.39069
2.67151
2.90144
3.00247
2.95158
2.76644
2.4782
2.11606
1.7005
1.30528
0.94237
4.14639
3.97361
3.82841
3.7028
3.5791
3.44601
3.29669
3.1313
2.95377
2.7705
2.58903
2.41644
2.25925
2.12501
2.02156
1.95964
1.9509
2.01458
2.16394
2.38763
2.63617
2.83843
2.9309
2.891
2.73104
2.47563
2.15657
1.78257
1.416
1.06619
4.05367
3.76857
3.56367
3.41484
3.29458
3.17963
3.05634
2.92037
2.77328
2.61952
2.46591
2.31858
2.18405
2.06984
1.98491
1.94114
1.95016
2.02654
2.17624
2.3847
2.60253
2.77522
2.85297
2.81683
2.67569
2.4485
2.16178
1.82919
1.49443
1.16494
3.92829
3.54491
3.28004
3.10478
2.98745
2.89212
2.7965
2.69239
2.5781
2.45553
2.33083
2.20975
2.09896
2.00589
1.94022
1.91513
1.94165
2.03145
2.18122
2.37273
2.56076
2.70544
2.76641
2.72994
2.60373
2.40041
2.14327
1.8463
1.54411
1.23925
3.78999
3.30733
2.98319
2.78278
2.66641
2.58785
2.51909
2.44875
2.36953
2.27846
2.18328
2.08898
2.00242
1.93131
1.88533
1.87882
1.92205
2.02298
2.17191
2.34514
2.50821
2.62681
2.67118
2.63248
2.5176
2.33539
2.10601
1.83977
1.56924
1.29122
3.64149
3.09264
2.73733
2.51528
2.38764
2.31248
2.25917
2.21017
2.15561
2.09289
2.02685
1.95881
1.89608
1.84668
1.82045
1.83163
1.8899
1.99886
2.14396
2.30178
2.44288
2.5385
2.56795
2.52679
2.42121
2.25865
2.05424
1.81746
1.57431
1.3238
3.51228
2.96168
2.57008
2.32214
2.17115
2.08489
2.03289
1.99467
1.9572
1.91485
1.86887
1.82447
1.7837
1.75467
1.74702
1.77427
1.84513
1.95942
2.09963
2.24294
2.36411
2.44052
2.45766
2.41475
2.31756
2.17289
1.99151
1.78306
1.56708
1.3437
3.46076
2.91893
2.50924
2.21661
2.03326
1.92394
1.85824
1.81727
1.78579
1.7555
1.72426
1.69382
1.671
1.65964
1.66775
1.70861
1.78878
1.90516
2.03895
2.16874
2.2727
2.33364
2.34155
2.29844
2.20978
2.08156
1.92209
1.74173
1.55307
1.35359
3.4738
2.94933
2.5368
2.22344
1.99719
1.84541
1.75216
1.69466
1.65567
1.62666
1.602
1.58025
1.56574
1.56736
1.58703
1.63786
1.7233
1.8381
1.96409
2.08099
2.17049
2.21961
2.22148
2.18017
2.10077
1.98846
1.85214
1.69709
1.53147
1.35197
3.538
3.03623
2.62764
2.29903
2.0456
1.86127
1.73067
1.64213
1.58123
1.54211
1.51371
1.49269
1.48106
1.48561
1.51126
1.56698
1.65287
1.76236
1.87858
1.9831
2.06049
2.10102
2.09997
2.06277
1.99422
1.89986
1.78286
1.64786
1.50225
1.34191
3.65756
3.18023
2.77942
2.43983
2.16528
1.95012
1.78633
1.66557
1.57896
1.51601
1.47228
1.44202
1.42577
1.42583
1.44897
1.50309
1.58387
1.68389
1.78806
1.88016
1.94722
1.98193
1.98091
1.95175
1.89547
1.81494
1.71408
1.59622
1.468
1.32521
3.8302
3.37825
2.99012
2.65059
2.36138
2.12024
1.92429
1.7685
1.64771
1.5557
1.48829
1.44094
1.41125
1.39988
1.41094
1.45605
1.52551
1.61131
1.70064
1.77957
1.83751
1.86963
1.87282
1.84998
1.80336
1.7349
1.64787
1.54481
1.43145
1.30423
4.04862
3.62498
3.25627
2.92216
2.62485
2.36388
2.13963
1.95037
1.79438
1.66891
1.57159
1.49895
1.44877
1.41983
1.41379
1.43955
1.49089
1.55721
1.62817
1.69257
1.74345
1.77262
1.77717
1.75924
1.72047
1.66207
1.58659
1.49628
1.39533
1.28133
4.30001
3.91015
3.56452
3.24111
2.94248
2.66904
2.42295
2.20534
2.0173
1.85892
1.73005
1.62861
1.55303
1.50131
1.47377
1.47446
1.49933
1.54048
1.58979
1.63752
1.6762
1.69814
1.70069
1.68491
1.65114
1.59999
1.53343
1.45336
1.3622
1.25892
4.57476
4.21906
3.89947
3.59244
3.29995
3.02272
2.76382
2.52649
2.31407
2.12892
1.97284
1.84486
1.74417
1.66828
1.61712
1.59027
1.58491
1.59507
1.61466
1.63695
1.65376
1.66086
1.65552
1.63672
1.60285
1.55463
1.49355
1.41951
1.33494
1.23961
4.85283
4.53505
4.24636
3.96282
3.68563
3.4155
3.15612
2.9121
2.68865
2.48989
2.31889
2.175
2.0576
1.96321
1.8914
1.83788
1.79774
1.76786
1.74514
1.7269
1.70884
1.68857
1.66358
1.6309
1.58836
1.53516
1.47254
1.39944
1.31717
1.22644
5.12292
4.84815
4.597
4.34644
4.09687
3.84894
3.60687
3.37648
3.1644
2.97578
2.81426
2.67803
2.56566
2.47108
2.39215
2.31921
2.24141
2.15744
2.07001
1.98499
1.90543
1.83301
1.7661
1.70131
1.63474
1.56349
1.48464
1.40047
1.31339
1.22261
5.39002
5.16492
4.96058
4.75674
4.55317
4.35063
4.15411
3.97095
3.80894
3.67319
3.56702
3.4856
3.42485
3.37331
3.32369
3.25454
3.14042
2.9792
2.78438
2.57966
2.38345
2.20652
2.05106
1.91451
1.79124
1.67599
1.56465
1.45583
1.34839
1.24485
5.68928
5.5243
5.38293
5.24921
5.12271
5.00526
4.90365
4.8277
4.78636
4.78338
4.82126
4.88845
4.97649
5.06287
5.12901
5.12168
4.98561
4.70999
4.32662
3.8945
3.4634
3.06589
2.71785
2.42151
2.17017
1.95472
1.76708
1.60131
1.45228
1.31883
6.11566
6.03375
5.98922
5.97149
5.98112
6.02437
6.11206
6.25833
6.47387
6.76196
7.1158
7.51369
7.93923
8.34881
8.70697
8.87823
8.7593
8.31772
7.61119
6.75321
5.85506
4.99633
4.22885
3.57547
3.03399
2.59087
2.23017
1.93595
1.69294
1.49564
6.90088
6.95769
7.08996
7.2927
7.56787
7.92819
8.39435
8.98667
9.71653
10.5802
11.5517
12.5886
13.6591
14.6788
15.5852
16.093
16.0397
15.3626
14.1574
12.6034
10.8933
9.17408
7.56942
6.16673
4.99478
4.04594
3.29589
2.71124
2.25625
1.91749
8.65956
9.01785
9.52053
10.1708
10.9682
11.9457
13.135
14.5561
16.2071
18.0584
20.0387
22.0738
24.1051
25.9819
27.6041
28.4909
28.4545
27.4314
25.5964
23.1565
20.3491
17.361
14.4
11.6877
9.334
7.3778
5.81798
4.60732
3.68064
3.02441
13.1053
14.1798
15.4737
16.9471
18.6329
20.6402
22.9718
25.6234
28.5468
31.6522
34.8035
37.9045
40.8406
43.3767
45.381
46.1567
45.7434
44.2906
41.8857
38.7435
35.0203
30.8408
26.4276
22.1546
18.179
14.6654
11.7555
9.41059
7.55935
6.25727
24.3018
26.3422
28.6307
31.2114
34.0886
37.2112
40.6575
44.3742
48.228
52.045
55.651
58.7633
61.301
63.0014
63.8705
63.1535
61.5441
59.2616
56.6238
53.6471
50.2948
46.6252
42.5172
37.9348
33.2322
28.6158
24.5002
20.8963
17.8258
15.5739
45.0148
46.2562
48.2509
50.9595
54.196
57.7368
61.4115
64.952
68.1854
70.9629
73.2179
74.875
75.7949
75.6776
74.5968
71.7853
68.7191
65.5122
62.5556
59.7698
57.1008
54.549
52.1903
50.0048
47.9941
46.0034
43.4687
40.7648
38.0013
35.5894
56.3273
55.494
56.221
58.094
60.6948
63.5445
66.2838
68.633
70.4776
71.7462
72.4
72.4443
71.7266
70.0524
67.2074
62.953
59.0152
55.3071
52.2055
49.6771
47.7714
46.4335
45.7386
45.6883
46.2457
47.1453
48.2213
49.1843
49.7597
49.7262
11.6914
13.8732
14.5448
14.7243
14.7219
14.4529
13.9323
13.2258
12.405
11.5379
10.6682
9.84134
9.06998
8.38808
7.7947
7.31209
6.94949
6.85772
7.31935
8.35936
9.43208
9.9323
9.64975
8.68965
7.29103
5.6745
4.06189
2.58822
1.5448
0.884316
6.47375
7.04119
7.16287
7.1203
7.02519
6.83609
6.54561
6.1727
5.74743
5.30206
4.86293
4.44635
4.0681
3.73252
3.45747
3.25077
3.15027
3.23959
3.68599
4.49665
5.32982
5.80997
5.80563
5.40231
4.74322
3.95279
3.11178
2.24492
1.51339
0.98719
5.93406
6.14079
6.12757
6.02204
5.86162
5.64807
5.37827
5.05927
4.70733
4.34157
3.9809
3.63856
3.32654
3.05145
2.82712
2.66602
2.59714
2.69568
3.09873
3.80261
4.54406
5.02101
5.10833
4.86107
4.39122
3.79218
3.1061
2.37588
1.72347
1.19035
5.86092
5.85655
5.75183
5.6017
5.41835
5.20243
4.94974
4.6626
4.3508
4.02738
3.70746
3.40214
3.12235
2.8762
2.67785
2.5407
2.49396
2.60877
2.98491
3.59823
4.25707
4.70306
4.8208
4.64612
4.26778
3.7576
3.16779
2.51829
1.91173
1.38565
5.86735
5.68158
5.49257
5.30503
5.11226
4.90469
4.67339
4.4165
4.13934
3.85134
3.56489
3.28909
3.0363
2.81487
2.63953
2.52588
2.50488
2.64277
3.01156
3.55498
4.11964
4.51485
4.63045
4.49147
4.16688
3.71899
3.19715
2.61652
2.0544
1.5433
5.8628
5.50891
5.23612
5.01335
4.817
4.6242
4.4191
4.19496
3.95327
3.70068
3.44742
3.2013
2.97562
2.77935
2.62841
2.54092
2.55004
2.71505
3.07412
3.56438
4.04135
4.37342
4.46764
4.34355
4.05511
3.65504
3.18418
2.6659
2.15033
1.66304
5.80445
5.30625
4.95693
4.70014
4.5023
4.32683
4.15044
3.96086
3.75634
3.54084
3.32246
3.10832
2.91133
2.74209
2.61817
2.56052
2.60279
2.79681
3.1477
3.58344
3.98507
4.24965
4.31186
4.19034
3.92847
3.56538
3.13985
2.66943
2.20348
1.74676
5.69029
5.07758
4.65426
4.36311
4.16247
4.00476
3.85859
3.70531
3.53907
3.3616
3.17951
2.99957
2.83377
2.6935
2.59919
2.57398
2.6518
2.87336
3.21437
3.59813
3.92852
4.1288
4.15518
4.02943
3.78595
3.45383
3.06902
2.64416
2.22144
1.79962
5.53811
4.82985
4.33925
4.01335
3.8064
3.66438
3.54781
3.4297
3.30132
3.16251
3.0177
2.87304
2.74056
2.63101
2.56817
2.57703
2.69062
2.93503
3.26128
3.60063
3.86186
4.00268
3.99439
3.8617
3.63174
3.3271
2.97871
2.59755
2.2155
1.83167
5.3649
4.58242
4.02621
3.67189
3.45883
3.32637
3.23108
3.14307
3.04963
2.94911
2.84073
2.7313
2.63245
2.55522
2.52476
2.5678
2.71479
2.97443
3.28485
3.57514
3.77961
3.86654
3.82825
3.68925
3.47103
3.19231
2.87648
2.53811
2.19973
1.85039
5.18353
4.35495
3.76207
3.38453
3.15648
3.02226
2.9376
2.87034
2.80355
2.73157
2.65568
2.57957
2.51339
2.46842
2.47005
2.54574
2.72263
2.99009
3.28265
3.5213
3.67538
3.71781
3.65649
3.51414
3.30797
3.05351
2.77099
2.47495
2.17276
1.85061
5.01425
4.18958
3.5821
3.17004
2.91953
2.77164
2.68447
2.62595
2.57619
2.52617
2.47489
2.42547
2.3894
2.37523
2.40602
2.51137
2.70932
2.97641
3.23787
3.43749
3.5481
3.55649
3.47996
3.3387
3.1469
2.91809
2.67095
2.40744
2.1345
1.83882
4.91237
4.10734
3.49711
3.05217
2.76609
2.59376
2.48982
2.42645
2.38177
2.34425
2.31074
2.28103
2.26881
2.28079
2.33718
2.46677
2.67604
2.92965
3.16115
3.32459
3.39998
3.38536
3.30161
3.16732
2.99513
2.79551
2.57434
2.33656
2.08913
1.81812
4.88489
4.11651
3.51369
3.05542
2.7259
2.50508
2.37009
2.28869
2.23562
2.19999
2.17549
2.15904
2.16201
2.19291
2.27014
2.41666
2.62653
2.85863
3.05801
3.18884
3.23778
3.2107
3.12842
3.01065
2.86028
2.68089
2.48157
2.26575
2.04027
1.79149
4.9201
4.18639
3.59652
3.12927
2.77593
2.5218
2.34475
2.22772
2.15232
2.10789
2.08233
2.07125
2.0829
2.12254
2.21451
2.3698
2.57009
2.77476
2.94088
3.04325
3.07477
3.04573
2.97785
2.87337
2.73749
2.57537
2.39499
2.19768
1.99072
1.76137
5.01714
4.32152
3.74858
3.27563
2.89908
2.61115
2.39944
2.25071
2.14989
2.08276
2.04564
2.03083
2.04405
2.08718
2.18484
2.3409
2.52362
2.69702
2.82994
2.90956
2.93491
2.91265
2.85061
2.75516
2.63073
2.48236
2.31724
2.13469
1.94269
1.72999
5.18024
4.52229
3.9674
3.49581
3.1053
2.79016
2.54417
2.35907
2.22541
2.13325
2.0784
2.05352
2.06266
2.10657
2.20185
2.35333
2.51399
2.655
2.75764
2.82506
2.84452
2.81846
2.75636
2.66489
2.547
2.40802
2.2516
2.07941
1.89845
1.6994
5.40371
4.78226
4.25127
3.78828
3.38997
3.05374
2.77782
2.55873
2.39216
2.27236
2.19682
2.15914
2.16245
2.20605
2.30376
2.44457
2.58345
2.69539
2.78027
2.82771
2.82799
2.7843
2.71152
2.61816
2.49878
2.35792
2.20272
2.03528
1.86076
1.67186
5.67485
5.09039
4.59067
4.14115
3.74272
3.39444
3.0974
2.85209
2.65883
2.51587
2.42351
2.3766
2.37939
2.42927
2.53966
2.68008
2.80507
2.90052
2.95803
2.96891
2.92492
2.84583
2.75555
2.63421
2.49123
2.33742
2.1761
2.00677
1.8331
1.65027
5.9757
5.43857
4.97105
4.5427
4.15497
3.8078
3.50424
3.24784
3.04295
2.89156
2.79721
2.75593
2.77636
2.85264
2.99986
3.16621
3.29792
3.37845
3.39085
3.33142
3.2176
3.08417
2.93918
2.76674
2.57972
2.38331
2.18711
2.0004
1.81995
1.63821
6.29843
5.8142
5.38601
4.99052
4.62936
4.30299
4.01598
3.77449
3.58624
3.45669
3.39311
3.3926
3.47224
3.61991
3.85673
4.0963
4.26541
4.32931
4.26665
4.09914
3.87367
3.63424
3.36833
3.08597
2.80651
2.53854
2.28564
2.05021
1.83793
1.64307
6.66058
6.2317
5.85317
5.50803
5.1975
4.9225
4.68923
4.50616
4.38415
4.33215
4.36274
4.47847
4.69905
5.00863
5.44074
5.84054
6.08985
6.1435
5.96607
5.62717
5.21554
4.75165
4.24013
3.73773
3.2759
2.86628
2.50821
2.19573
1.92502
1.69351
7.11529
6.74913
6.43915
6.17342
5.95327
5.78016
5.66315
5.61269
5.64338
5.77332
6.01998
6.38594
6.90027
7.5365
8.35296
9.0484
9.45752
9.5227
9.1837
8.5973
7.82102
6.88318
5.9113
4.99287
4.18572
3.50726
2.94998
2.49612
2.12504
1.82791
7.79201
7.51279
7.30964
7.17853
7.12064
7.13777
7.24796
7.46472
7.80738
8.29802
8.96212
9.80124
10.854
12.068
13.5392
14.6851
15.362
15.4996
14.9782
13.904
12.4362
10.7161
8.9651
7.32684
5.90406
4.7366
3.81222
3.09403
2.53832
2.12189
9.00011
8.86712
8.84923
8.96411
9.20954
9.58929
10.1207
10.8244
11.7254
12.8467
14.2128
15.8149
17.6984
19.7607
22.1227
23.7575
24.6246
24.6546
23.7613
22.075
19.7728
17.0158
14.1885
11.4668
9.07495
7.08975
5.5233
4.32478
3.42318
2.78752
11.4532
11.6246
11.9843
12.5598
13.3397
14.3355
15.565
17.046
18.7969
20.8304
23.1473
25.7174
28.5834
31.5521
34.4834
35.5853
35.8274
35.1631
33.7758
31.7449
29.1453
25.9917
22.2297
18.284
14.693
11.5579
8.99993
6.99631
5.47539
4.43853
16.7979
17.5799
18.6558
19.9653
21.4993
23.3399
25.4702
27.8903
30.589
33.5501
36.7251
40.075
43.4182
46.2446
48.6754
48.2623
47.1489
45.3715
43.3384
40.9959
38.3198
35.2675
31.833
28.0635
23.8082
19.6301
15.9776
12.9031
10.4595
8.78739
27.9412
29.3215
31.0604
33.1396
35.5084
38.0573
40.8509
43.8672
47.0386
50.3075
53.513
56.3325
58.9126
60.5811
61.347
58.5152
55.4947
52.3632
49.6998
47.254
44.9168
42.6093
40.2279
37.7022
34.9999
31.8967
28.2817
24.6958
21.5692
19.2809
44.7339
45.4979
47.005
49.1265
51.675
54.4653
57.3357
60.1334
62.7473
65.0952
67.0994
68.6196
69.503
69.0556
67.3304
61.7566
56.9866
52.7312
49.4858
47.0251
45.205
43.9078
43.0711
42.6278
42.4277
42.2765
41.7935
40.7898
39.0932
37.3593
51.5699
51.642
52.744
54.6869
57.1749
59.833
62.3871
64.6289
66.4497
67.7658
68.5132
68.6215
67.8114
65.4736
61.4883
54.2365
48.6824
44.0371
40.6525
38.186
36.7107
36.0812
36.2487
37.2129
38.8409
40.8745
43.0527
45.0502
46.5445
47.26
16.1275
18.9482
19.481
19.4439
19.1217
18.5833
17.7729
16.7499
15.5972
14.4004
13.2047
12.0629
10.9853
10.0267
9.19267
8.53736
8.11495
8.36427
10.0844
13.0504
15.6324
16.6498
16.0567
14.3476
12.059
9.5493
7.08965
4.81067
3.09196
1.85391
8.5001
9.19587
9.26308
9.12835
8.89389
8.60219
8.20814
7.71716
7.16482
6.58565
6.01223
5.45794
4.947
4.48116
4.09744
3.80098
3.67005
3.93565
5.06163
6.8719
8.44631
9.13797
8.94576
8.18489
7.14643
6.00627
4.86073
3.69959
2.68141
1.86849
7.71418
7.92342
7.8331
7.63918
7.3815
7.08367
6.73059
6.32238
5.87523
5.40944
4.94661
4.4983
4.08248
3.70581
3.39475
3.16387
3.07638
3.33245
4.28105
5.75728
7.06839
7.71454
7.66262
7.14587
6.38582
5.53846
4.64862
3.69162
2.83266
2.11418
7.62617
7.53992
7.34045
7.10185
6.83439
6.54204
6.21465
5.8502