/*--------------------------------*- C++ -*----------------------------------*\
  =========                 |
  \\      /  F ield         | OpenFOAM: The Open Source CFD Toolbox
   \\    /   O peration     | Website:  https://openfoam.org
    \\  /    A nd           | Version:  12
     \\/     M anipulation  |
\*---------------------------------------------------------------------------*/
FoamFile
{
    format      ascii;
    class       volScalarField;
    location    "1850/air";
    object      k;
}
// * * * * * * * * * * * * * * * * * * * * * * * * * * * * * * * * * * * * * //

dimensions      [0 2 -2 0 0 0 0];

internalField   nonuniform List<scalar> 
243000
(
0.0480667
0.056915
0.0631456
0.0673838
0.0699469
0.071089
0.0710794
0.0701848
0.0686366
0.0666336
0.0643205
0.0618102
0.0591861
0.0565512
0.0539331
0.0513137
0.04864
0.0459119
0.0431391
0.0403424
0.0375248
0.0347224
0.0334428
0.0308198
0.0296937
0.0261122
0.0235673
0.018564
0.0126423
0.0123614
0.0731431
0.0864219
0.0928232
0.0950042
0.0947484
0.0930095
0.090315
0.0870388
0.0834396
0.0797036
0.0759454
0.0722504
0.0686919
0.0653392
0.0622068
0.0592787
0.0565093
0.0539284
0.0515314
0.0493358
0.0473048
0.0453551
0.0434022
0.0409102
0.0380046
0.0340766
0.0294069
0.0233757
0.017353
0.0139932
0.0789138
0.0967978
0.105934
0.109423
0.109751
0.108075
0.105138
0.101454
0.0973608
0.0930989
0.0888128
0.0846202
0.0805929
0.0768091
0.0732941
0.0700478
0.0670346
0.0643124
0.0618566
0.0596606
0.0576617
0.0557488
0.0537255
0.0512381
0.0479594
0.0435434
0.0380129
0.0310463
0.0241931
0.0181579
0.0772832
0.0947619
0.106359
0.112612
0.114968
0.114572
0.11246
0.109282
0.105469
0.101332
0.0970708
0.0928449
0.0887446
0.0848708
0.081274
0.0779756
0.0749544
0.0722836
0.0699172
0.0678078
0.0658536
0.0639304
0.0618473
0.059287
0.0558939
0.0513198
0.0455306
0.0382549
0.0308786
0.0235138
0.074552
0.0876311
0.0998591
0.108327
0.113095
0.114822
0.11437
0.112459
0.109583
0.106129
0.102367
0.0985009
0.094655
0.0909656
0.0875145
0.0843539
0.0814826
0.0789842
0.0767914
0.0748117
0.0729027
0.0709336
0.0687395
0.0660604
0.0625758
0.057955
0.052114
0.044837
0.0372203
0.0292526
0.0743827
0.0805146
0.0898897
0.0991307
0.106015
0.110089
0.111774
0.111653
0.110204
0.107878
0.105021
0.101859
0.0985561
0.0952923
0.0921827
0.0893226
0.086732
0.0845013
0.0825419
0.0807246
0.0788774
0.0768633
0.0745466
0.0717305
0.0681533
0.0635275
0.0577402
0.0506264
0.0429968
0.0348273
0.0809945
0.0803313
0.0845441
0.0909709
0.0973248
0.102325
0.105854
0.107605
0.107882
0.107023
0.105357
0.103156
0.100642
0.0980153
0.0954185
0.0930008
0.0908012
0.0889116
0.0872319
0.0856058
0.0838427
0.0818033
0.0793777
0.0764274
0.0727601
0.0681422
0.0624604
0.0555885
0.0481081
0.0399769
0.0890683
0.0849178
0.0839619
0.0865658
0.0909337
0.0954751
0.0992852
0.101837
0.103448
0.104025
0.103697
0.10266
0.101107
0.099278
0.0973469
0.0954926
0.0937768
0.0922889
0.0909267
0.0895201
0.0878675
0.0858328
0.083327
0.0802631
0.0765152
0.0719114
0.0663577
0.0597591
0.0525459
0.0445879
0.0979017
0.0921859
0.0877183
0.0861613
0.0874736
0.090361
0.0936453
0.0964397
0.0985274
0.0997907
0.100557
0.100665
0.100171
0.0992587
0.0980931
0.0968951
0.0957382
0.0947028
0.0936932
0.0925334
0.0910209
0.0890265
0.0864804
0.0833363
0.0795277
0.0749447
0.0695332
0.0632292
0.0563166
0.0486239
0.107363
0.101109
0.0945777
0.0897919
0.0875729
0.0878077
0.0895652
0.091829
0.0939644
0.0956216
0.0968121
0.0976698
0.0981096
0.098123
0.0977836
0.0973041
0.0967612
0.0962222
0.0955967
0.0947117
0.0933715
0.0914575
0.0889163
0.0857343
0.0818953
0.0773535
0.0720877
0.0660399
0.0594424
0.0520814
0.117204
0.110551
0.103232
0.0965345
0.091429
0.0885905
0.0879188
0.0887205
0.0902155
0.0918087
0.0932137
0.0943655
0.0953478
0.0961248
0.0965779
0.0968303
0.0969267
0.0969144
0.0967021
0.0961208
0.0949874
0.0931948
0.0907067
0.0875355
0.0837132
0.0792209
0.0740749
0.0682686
0.0619824
0.0550106
0.127236
0.120318
0.113019
0.105326
0.0983525
0.0928792
0.0894369
0.0879778
0.0879955
0.0888557
0.0900449
0.0912683
0.0924279
0.09361
0.0946899
0.0956122
0.0963351
0.0968567
0.0970772
0.0968291
0.0959356
0.0943056
0.0919195
0.0888162
0.0850369
0.0806063
0.0755837
0.0699989
0.0640039
0.0574167
0.137308
0.130198
0.122839
0.114908
0.107111
0.0999846
0.0942019
0.0902298
0.0881018
0.0874642
0.0878076
0.0886769
0.0897768
0.0910039
0.0923996
0.0938339
0.0951101
0.0961415
0.0967953
0.0968951
0.0962754
0.0948651
0.0926284
0.0896208
0.0859165
0.0815758
0.0766857
0.0713064
0.0655776
0.0593528
0.147304
0.140069
0.132661
0.124797
0.116785
0.108885
0.101591
0.0954938
0.0910396
0.0883347
0.087149
0.0870714
0.0876944
0.0887313
0.0900495
0.0917303
0.0934114
0.0948828
0.0959451
0.0963991
0.0960686
0.0948686
0.0928296
0.0899879
0.0864122
0.0821941
0.0774527
0.0722722
0.0667871
0.0609063
0.157126
0.14982
0.142431
0.134858
0.126858
0.118715
0.110677
0.103178
0.0967578
0.0918643
0.0886682
0.0870341
0.0866282
0.0870779
0.0880915
0.0896128
0.0914502
0.0932264
0.0946339
0.0954248
0.0953913
0.0944579
0.0926213
0.0899618
0.0865725
0.0825256
0.0780271
0.0731216
0.0679091
0.0623801
0.16666
0.159341
0.152032
0.144609
0.136849
0.128811
0.120583
0.112397
0.104672
0.0979404
0.0926633
0.0890678
0.087089
0.0864473
0.086786
0.0878684
0.0895031
0.0913628
0.092996
0.0940686
0.0943255
0.0936672
0.0920905
0.0896586
0.0865329
0.082801
0.0785802
0.0739458
0.0689984
0.0637782
0.175783
0.168506
0.161328
0.154089
0.146635
0.138849
0.13073
0.122357
0.113973
0.106005
0.0989846
0.0933929
0.0894972
0.0872832
0.0864897
0.0868055
0.0879262
0.0895458
0.0912096
0.092458
0.0929671
0.0925845
0.0913171
0.089237
0.0864405
0.0830244
0.0790913
0.0747275
0.0700399
0.0650997
0.18435
0.177157
0.170145
0.163144
0.156042
0.148594
0.140746
0.132491
0.123929
0.115324
0.107115
0.0998468
0.0940211
0.0899406
0.0875871
0.0867355
0.0870403
0.0881244
0.089531
0.0907776
0.0914789
0.0913966
0.0904764
0.0887457
0.0862823
0.0831836
0.0795443
0.075454
0.0710229
0.0663437
0.192207
0.185134
0.178324
0.171685
0.164938
0.157873
0.150394
0.142438
0.134009
0.125231
0.116394
0.107963
0.100509
0.094556
0.0903827
0.0879916
0.0871237
0.0873843
0.0882976
0.089352
0.0901009
0.0902255
0.0895959
0.0881945
0.0860563
0.0832719
0.0799281
0.076113
0.071938
0.0675084
0.199225
0.192333
0.185792
0.179553
0.173192
0.166553
0.159511
0.151966
0.143864
0.135232
0.126221
0.117159
0.108557
0.101004
0.0950038
0.090844
0.0884728
0.0875847
0.0877156
0.0883375
0.0889459
0.0891478
0.0887271
0.0876086
0.0857751
0.0832915
0.0802404
0.0766996
0.0727793
0.0685905
0.205331
0.19875
0.192696
0.186754
0.180765
0.174563
0.167992
0.16093
0.153282
0.145007
0.136153
0.126911
0.117669
0.108955
0.101367
0.0954253
0.0913447
0.0890022
0.0880397
0.0879436
0.0881773
0.0882805
0.087951
0.0870382
0.0854692
0.0832645
0.0804914
0.0772193
0.0735501
0.0695953
0.210558
0.204424
0.198664
0.193081
0.187514
0.181792
0.175752
0.169256
0.162181
0.154436
0.145987
0.13691
0.127462
0.118055
0.109264
0.101729
0.0959064
0.091909
0.0895588
0.0884364
0.0880163
0.0877958
0.0873968
0.0865785
0.0852032
0.0832362
0.0807161
0.077698
0.0742703
0.0705404
0.214639
0.20891
0.203563
0.198439
0.193383
0.18824
0.182845
0.177114
0.170838
0.163844
0.156013
0.147342
0.137965
0.128216
0.118572
0.109738
0.102288
0.0965627
0.0926001
0.0901518
0.088769
0.0879495
0.087252
0.0863623
0.0850697
0.0832718
0.080967
0.0781791
0.0749778
0.0714607
0.217692
0.212465
0.207598
0.202984
0.198647
0.194409
0.19001
0.185233
0.179867
0.173726
0.16665
0.158574
0.149525
0.139748
0.12957
0.119661
0.110747
0.103326
0.097614
0.0935708
0.0908929
0.0891395
0.087857
0.086657
0.0852634
0.0835136
0.0813435
0.0787372
0.0757314
0.0724072
0.219913
0.215287
0.210997
0.207033
0.203521
0.200199
0.19679
0.193029
0.188686
0.183556
0.177437
0.17021
0.161795
0.152361
0.142134
0.131813
0.121906
0.11297
0.10546
0.0995818
0.0952427
0.0921374
0.0898601
0.0880035
0.0862344
0.084316
0.0821195
0.0795778
0.0766889
0.0735095
0.221588
0.217738
0.214211
0.210987
0.208069
0.205519
0.203016
0.200266
0.197102
0.193363
0.18876
0.183054
0.176066
0.167811
0.1584
0.148209
0.137698
0.127455
0.118138
0.110173
0.103723
0.0986938
0.0948079
0.0917082
0.0890484
0.0865424
0.0839878
0.0812514
0.0782862
0.0751076
0.224005
0.221434
0.219182
0.21725
0.215651
0.214404
0.213391
0.212384
0.211147
0.20941
0.206851
0.203147
0.198019
0.191327
0.183151
0.173529
0.16272
0.151377
0.140227
0.129894
0.120785
0.113064
0.10666
0.101358
0.0968803
0.0929417
0.0892984
0.0857658
0.0822255
0.0786568
0.232983
0.232743
0.232777
0.233158
0.233984
0.235301
0.237039
0.238964
0.240784
0.242107
0.242504
0.241573
0.238943
0.234371
0.22784
0.219174
0.208304
0.196014
0.183034
0.170116
0.157832
0.146571
0.136493
0.127615
0.11984
0.112959
0.106756
0.101051
0.0956905
0.0907598
0.27712
0.280446
0.283572
0.287336
0.292178
0.298097
0.304644
0.311245
0.31747
0.322993
0.327199
0.329618
0.329832
0.32781
0.323345
0.316076
0.305481
0.292746
0.278679
0.263985
0.249197
0.234771
0.221012
0.208142
0.196294
0.185113
0.174556
0.164627
0.155341
0.147272
0.489896
0.489877
0.490866
0.495889
0.503607
0.512282
0.519312
0.524962
0.52974
0.534138
0.53698
0.537985
0.537735
0.536584
0.53377
0.529154
0.520994
0.512476
0.503844
0.495638
0.487797
0.480556
0.473958
0.468068
0.462966
0.455822
0.447668
0.439287
0.431296
0.424773
0.0876362
0.099854
0.106018
0.108955
0.109413
0.107961
0.105104
0.101308
0.0969646
0.0923981
0.0878131
0.0833661
0.0791689
0.075356
0.0719183
0.0688394
0.0660346
0.0635608
0.0615552
0.0601364
0.0590379
0.0575984
0.0551064
0.0510388
0.0452672
0.0378191
0.0294172
0.0244653
0.0217695
0.0198607
0.151348
0.169715
0.172461
0.168274
0.160445
0.150868
0.140669
0.130539
0.120885
0.111952
0.10383
0.0964952
0.0901538
0.0848075
0.0803396
0.0766332
0.0735822
0.0713515
0.0700748
0.0698902
0.0704788
0.0711198
0.0708942
0.0688606
0.0643907
0.0572874
0.048261
0.0382988
0.0311916
0.0267622
0.183803
0.203991
0.207502
0.203122
0.194453
0.183576
0.171783
0.159913
0.148484
0.137839
0.128131
0.119482
0.111951
0.105609
0.100386
0.0962376
0.0930228
0.0909093
0.0899011
0.08997
0.0907
0.0914377
0.0913394
0.0893906
0.0847874
0.0771042
0.0669226
0.0547605
0.0443201
0.0362883
0.201755
0.220637
0.224209
0.220345
0.212192
0.201654
0.190057
0.178211
0.166607
0.155658
0.145594
0.1366
0.128759
0.122191
0.11688
0.112828
0.10992
0.1083
0.107794
0.108159
0.10887
0.109342
0.10889
0.10664
0.10177
0.0937392
0.0829766
0.069645
0.0572056
0.0467561
0.209457
0.225109
0.228646
0.225595
0.218482
0.208977
0.198566
0.187782
0.176914
0.166514
0.156893
0.148233
0.140678
0.134404
0.129452
0.125865
0.123568
0.122655
0.122775
0.123491
0.124196
0.124362
0.12345
0.120796
0.115676
0.10751
0.0965931
0.082854
0.0693903
0.0574082
0.20968
0.220735
0.223765
0.22164
0.216268
0.209081
0.200113
0.190547
0.18084
0.171615
0.163065
0.155228
0.148406
0.142812
0.138538
0.135677
0.134188
0.134099
0.134878
0.135963
0.136696
0.136598
0.135252
0.132205
0.126872
0.118728
0.107916
0.0942836
0.080476
0.0676923
0.206381
0.209966
0.210611
0.209209
0.206056
0.20136
0.194914
0.187617
0.180064
0.172372
0.165009
0.158278
0.152576
0.147956
0.144599
0.14266
0.142121
0.142893
0.144346
0.145807
0.146605
0.146305
0.144594
0.141196
0.135707
0.127678
0.117145
0.103952
0.0902615
0.0772113
0.202496
0.197763
0.194348
0.19231
0.190398
0.187913
0.184385
0.17994
0.174638
0.169014
0.163407
0.158281
0.153761
0.150277
0.148024
0.147161
0.147642
0.149288
0.151407
0.153256
0.154161
0.153739
0.151757
0.148084
0.14249
0.134644
0.124509
0.111955
0.0986918
0.0857219
0.19938
0.188572
0.1817
0.177628
0.175376
0.173736
0.1718
0.169226
0.16595
0.162589
0.158884
0.155408
0.152398
0.15025
0.149178
0.149476
0.150999
0.153514
0.156279
0.158522
0.159585
0.159136
0.156996
0.15315
0.14752
0.139903
0.130266
0.118484
0.105855
0.0931377
0.200595
0.186174
0.174377
0.167329
0.163254
0.161058
0.159613
0.158166
0.156355
0.15433
0.152265
0.150432
0.148964
0.148215
0.148378
0.149862
0.152429
0.155796
0.159177
0.161814
0.16309
0.162709
0.160535
0.156641
0.151066
0.143762
0.134614
0.123569
0.111656
0.0994214
0.205829
0.188951
0.174194
0.162921
0.155698
0.151793
0.149543
0.14817
0.147035
0.145927
0.144883
0.144126
0.14404
0.14461
0.145956
0.148608
0.152169
0.156324
0.160305
0.163337
0.164887
0.164657
0.162576
0.15878
0.153379
0.146336
0.137662
0.127381
0.116247
0.10467
0.214701
0.195813
0.178771
0.164924
0.15457
0.147499
0.143297
0.140834
0.139322
0.13839
0.137828
0.137726
0.138326
0.139937
0.142357
0.146045
0.150495
0.155345
0.159895
0.163402
0.165219
0.165157
0.163238
0.159617
0.154461
0.147777
0.139625
0.130099
0.119769
0.108942
0.226596
0.206297
0.187785
0.171928
0.159058
0.149319
0.142526
0.137785
0.134696
0.132991
0.132138
0.132105
0.132909
0.134887
0.138116
0.142579
0.147728
0.15314
0.158149
0.16206
0.164234
0.164418
0.162719
0.159293
0.154405
0.148192
0.140684
0.131934
0.122509
0.112535
0.241029
0.220425
0.201371
0.184193
0.169319
0.15702
0.14746
0.140155
0.134847
0.131241
0.129097
0.128296
0.128727
0.130477
0.133907
0.138717
0.144266
0.15004
0.15539
0.159629
0.162148
0.16266
0.161289
0.158224
0.153696
0.147945
0.141187
0.133345
0.124784
0.115603
0.25777
0.237681
0.218819
0.201129
0.184958
0.170621
0.158571
0.148507
0.140349
0.134193
0.129981
0.127537
0.126821
0.127772
0.130483
0.135092
0.140615
0.146457
0.151953
0.156404
0.159223
0.160104
0.159133
0.156538
0.152567
0.147456
0.141316
0.134225
0.126411
0.117949
0.276232
0.257619
0.239835
0.222295
0.205379
0.189521
0.175489
0.16279
0.151743
0.142665
0.135721
0.130904
0.128227
0.127618
0.129015
0.1325
0.137424
0.142919
0.148268
0.152757
0.155791
0.157054
0.156582
0.15461
0.151245
0.146675
0.141082
0.134611
0.127441
0.119653
0.295988
0.279484
0.263277
0.246463
0.229488
0.212719
0.197068
0.18224
0.168668
0.156767
0.14687
0.139197
0.133846
0.130925
0.130308
0.131989
0.135489
0.140099
0.144905
0.149183
0.152341
0.154027
0.154038
0.15255
0.149733
0.145693
0.140617
0.13463
0.128015
0.120838
0.315994
0.301668
0.287222
0.271508
0.255092
0.238353
0.221808
0.205634
0.1902
0.175954
0.163325
0.152692
0.144333
0.138463
0.135204
0.134448
0.135849
0.138878
0.142673
0.146434
0.149452
0.151253
0.151564
0.150508
0.148167
0.144637
0.140043
0.134499
0.128326
0.121667
0.334716
0.322369
0.309705
0.295694
0.280603
0.264672
0.24826
0.231625
0.215139
0.199253
0.184442
0.171154
0.159804
0.150665
0.144364
0.140614
0.139291
0.140121
0.14228
0.144969
0.147395
0.149015
0.149494
0.148729
0.146775
0.143681
0.139507
0.134359
0.128552
0.122308
0.351047
0.340822
0.330343
0.318498
0.305299
0.290824
0.275314
0.259025
0.242309
0.225597
0.209353
0.194019
0.180081
0.168047
0.158279
0.151205
0.146579
0.144558
0.144483
0.145477
0.14675
0.147811
0.148207
0.147559
0.145856
0.143037
0.139175
0.134334
0.128845
0.122939
0.36503
0.357069
0.348972
0.339567
0.328661
0.316162
0.302187
0.286981
0.270858
0.254196
0.2374
0.220846
0.205028
0.19054
0.177547
0.166928
0.158686
0.153214
0.150142
0.148747
0.148314
0.148339
0.148251
0.147398
0.14564
0.142901
0.139216
0.134645
0.129411
0.123778
0.377054
0.371357
0.365674
0.358858
0.350529
0.340444
0.328613
0.315248
0.300625
0.285034
0.268767
0.252074
0.235366
0.219189
0.203727
0.189504
0.177496
0.167981
0.161057
0.156351
0.153381
0.15165
0.150491
0.149038
0.146967
0.144079
0.140332
0.135785
0.130623
0.125145
0.387605
0.384174
0.38095
0.376864
0.37139
0.364206
0.355279
0.344757
0.332874
0.319778
0.305558
0.290252
0.27411
0.257435
0.240692
0.223806
0.207408
0.192973
0.180933
0.171522
0.16465
0.159919
0.156632
0.153762
0.15074
0.147262
0.143172
0.138404
0.133128
0.127621
0.397715
0.396707
0.396186
0.395206
0.393119
0.389696
0.385009
0.379204
0.372317
0.364164
0.354486
0.343005
0.329666
0.314425
0.297864
0.279127
0.2583
0.237548
0.218346
0.201822
0.188517
0.178374
0.170831
0.164773
0.159399
0.154255
0.149013
0.143485
0.137648
0.131791
0.409781
0.411829
0.41494
0.418326
0.421435
0.424288
0.427038
0.429691
0.431945
0.433
0.432066
0.428423
0.421506
0.410752
0.3965
0.37731
0.351947
0.322882
0.293299
0.265557
0.241133
0.220705
0.204235
0.190788
0.179675
0.1702
0.161766
0.15394
0.146447
0.139545
0.430344
0.437526
0.447025
0.458464
0.471714
0.486615
0.503204
0.521006
0.539106
0.555785
0.569408
0.578654
0.582377
0.579517
0.570238
0.552538
0.523588
0.486124
0.443758
0.400166
0.357917
0.319033
0.284773
0.25551
0.231044
0.210754
0.193838
0.179548
0.167193
0.157117
0.481676
0.500298
0.52377
0.551616
0.583644
0.619156
0.657433
0.697081
0.736666
0.77308
0.803961
0.827695
0.843252
0.849408
0.845986
0.830979
0.800375
0.756736
0.703555
0.644896
0.583425
0.521995
0.463049
0.408701
0.360299
0.318307
0.282603
0.252613
0.227497
0.208619
0.635647
0.678117
0.724616
0.774844
0.82892
0.884759
0.942068
0.998598
1.0532
1.09979
1.1374
1.16548
1.18329
1.19065
1.1877
1.17224
1.1427
1.10092
1.04881
0.988482
0.921171
0.849369
0.775068
0.700985
0.629817
0.563623
0.503804
0.450638
0.404057
0.369512
0.969095
1.00882
1.05615
1.11021
1.16569
1.22008
1.27653
1.32725
1.37029
1.40266
1.42493
1.4386
1.44122
1.43521
1.42102
1.39551
1.36497
1.33007
1.29239
1.24997
1.20192
1.15134
1.09798
1.04357
0.988776
0.933935
0.879574
0.826418
0.775252
0.735893
1.20929
1.20288
1.2172
1.24601
1.28051
1.31409
1.34385
1.36692
1.38346
1.39408
1.3981
1.39592
1.38705
1.37366
1.35132
1.31755
1.28652
1.25456
1.22406
1.19544
1.17019
1.14904
1.13417
1.12506
1.12099
1.11869
1.1167
1.11412
1.10892
1.09795
0.128175
0.141501
0.144983
0.145597
0.143958
0.140286
0.135057
0.128837
0.122118
0.115313
0.108668
0.102443
0.0967611
0.091791
0.087504
0.0839696
0.0811424
0.0794055
0.079539
0.0818909
0.0850836
0.0868792
0.0857368
0.0810881
0.0731342
0.0623206
0.049698
0.0358449
0.0242842
0.0213107
0.213749
0.23701
0.239715
0.233893
0.223008
0.209682
0.195435
0.181212
0.167589
0.154903
0.143302
0.133
0.123962
0.116167
0.109537
0.104182
0.100024
0.0978856
0.0987056
0.103064
0.109412
0.115031
0.117566
0.115568
0.108526
0.0967649
0.0815866
0.0639077
0.0483103
0.0365015
0.259442
0.285092
0.28965
0.283918
0.27241
0.257804
0.2417
0.22523
0.209182
0.194051
0.180091
0.167624
0.156674
0.147363
0.139647
0.133585
0.129091
0.127077
0.128378
0.133307
0.14025
0.146548
0.149783
0.148286
0.141101
0.128339
0.111159
0.0903922
0.0708937
0.0545912
0.289252
0.311624
0.315869
0.310642
0.299813
0.285721
0.269782
0.253121
0.236608
0.22081
0.206083
0.192822
0.181147
0.171273
0.163284
0.157272
0.153198
0.151869
0.153716
0.158776
0.165447
0.171346
0.174337
0.172829
0.165702
0.152771
0.134966
0.112932
0.0912139
0.0718767
0.309045
0.325235
0.327685
0.322604
0.312798
0.299996
0.28516
0.269393
0.25357
0.238186
0.22369
0.210534
0.19893
0.189183
0.181505
0.176042
0.172799
0.17237
0.17471
0.179616
0.185594
0.190585
0.192861
0.191039
0.184016
0.1714
0.15386
0.131767
0.109194
0.088017
0.321284
0.329635
0.32951
0.324509
0.315756
0.304281
0.290738
0.276608
0.26237
0.248153
0.234608
0.222237
0.211304
0.202212
0.195282
0.190738
0.188596
0.189131
0.191898
0.196462
0.201516
0.20536
0.206685
0.204344
0.197382
0.185319
0.168533
0.147197
0.124762
0.102896
0.327727
0.327669
0.323875
0.317886
0.310124
0.300678
0.289965
0.277762
0.264958
0.251986
0.239965
0.228939
0.219149
0.211133
0.205296
0.20196
0.201104
0.202604
0.205738
0.209884
0.213928
0.216541
0.216809
0.213811
0.206834
0.195397
0.179655
0.159599
0.137981
0.116044
0.329284
0.321275
0.312697
0.304855
0.297713
0.29016
0.281686
0.272139
0.261873
0.251463
0.241085
0.231464
0.223126
0.216512
0.212039
0.210141
0.210659
0.213112
0.216565
0.220291
0.223348
0.224776
0.223953
0.220247
0.213194
0.202394
0.187864
0.169299
0.148851
0.127366
0.329214
0.311783
0.297492
0.287344
0.280369
0.274403
0.268271
0.261628
0.254273
0.246248
0.23815
0.230469
0.223843
0.218851
0.21594
0.215622
0.217517
0.220898
0.224649
0.227994
0.230164
0.230531
0.228675
0.224274
0.217171
0.206874
0.193316
0.176308
0.157304
0.136845
0.327085
0.301895
0.283836
0.271358
0.263397
0.257883
0.253217
0.248537
0.243377
0.237763
0.232122
0.22661
0.221882
0.218639
0.217386
0.218674
0.221916
0.226171
0.23021
0.233244
0.234689
0.234144
0.231388
0.226458
0.21911
0.209148
0.196513
0.18102
0.163659
0.144727
0.325576
0.297403
0.274788
0.259391
0.249327
0.242986
0.238602
0.235043
0.231519
0.227765
0.223953
0.220595
0.217822
0.216385
0.216775
0.219587
0.224059
0.229137
0.233451
0.236274
0.237163
0.235892
0.232367
0.226728
0.219138
0.209554
0.197934
0.183926
0.168349
0.151205
0.32782
0.298507
0.27354
0.253791
0.240332
0.232064
0.226605
0.223037
0.220243
0.217703
0.215331
0.21335
0.212366
0.212628
0.214518
0.218706
0.224261
0.229991
0.234589
0.237324
0.23778
0.235841
0.231786
0.225839
0.218221
0.208955
0.198105
0.185667
0.17197
0.1565
0.333228
0.303611
0.27749
0.255717
0.239115
0.227149
0.219241
0.214543
0.211324
0.209068
0.207449
0.206418
0.206392
0.208001
0.211151
0.216445
0.222799
0.229027
0.233866
0.236624
0.236797
0.234552
0.230241
0.224141
0.216643
0.207806
0.197844
0.186774
0.174522
0.160495
0.342195
0.312952
0.286302
0.262896
0.243874
0.229318
0.21887
0.21149
0.206566
0.203506
0.201718
0.200932
0.20133
0.20337
0.207345
0.213335
0.220144
0.226627
0.231632
0.234415
0.234472
0.232127
0.22778
0.221867
0.214701
0.206535
0.197294
0.187068
0.175978
0.163282
0.354786
0.326386
0.299798
0.275668
0.254918
0.237891
0.22462
0.21461
0.207467
0.202589
0.199627
0.198152
0.198222
0.199952
0.203937
0.210054
0.216867
0.223287
0.228279
0.231058
0.231123
0.228872
0.22473
0.219317
0.212712
0.20506
0.196437
0.186877
0.176678
0.165118
0.370742
0.343784
0.318323
0.29422
0.272408
0.253398
0.237515
0.224663
0.214706
0.207352
0.20234
0.199331
0.198204
0.198976
0.201909
0.207454
0.21371
0.219652
0.224359
0.227044
0.227202
0.225275
0.221649
0.216684
0.210599
0.203477
0.195425
0.186458
0.176923
0.16629
0.389815
0.364916
0.34103
0.317589
0.295419
0.275068
0.257039
0.241531
0.228671
0.218448
0.210783
0.205475
0.202396
0.201435
0.20273
0.206585
0.211621
0.216578
0.220645
0.223085
0.223447
0.221822
0.218591
0.214101
0.208551
0.201941
0.19441
0.185969
0.176955
0.167048
0.411185
0.388605
0.366656
0.344417
0.322563
0.301595
0.282078
0.264414
0.24894
0.235875
0.225342
0.217295
0.211679
0.208392
0.207423
0.208898
0.211839
0.215215
0.218266
0.220255
0.22045
0.218926
0.215991
0.21193
0.206819
0.200646
0.193551
0.185555
0.176955
0.167609
0.433481
0.413437
0.393717
0.373163
0.35226
0.33142
0.311194
0.292099
0.274623
0.259147
0.245972
0.235179
0.226827
0.220849
0.217268
0.215953
0.216297
0.217476
0.218813
0.219614
0.219174
0.217393
0.214535
0.210658
0.205731
0.19982
0.193021
0.185341
0.177057
0.168149
0.455328
0.438008
0.420777
0.402336
0.382989
0.363032
0.342967
0.323346
0.304752
0.287682
0.272549
0.259515
0.248734
0.240171
0.233959
0.229726
0.227
0.22532
0.22414
0.222921
0.221075
0.218427
0.214937
0.210655
0.205593
0.199685
0.192983
0.185498
0.177443
0.168856
0.475743
0.461245
0.446698
0.430767
0.413581
0.395313
0.376394
0.357373
0.33887
0.321436
0.305538
0.291348
0.279083
0.268686
0.260378
0.253507
0.247508
0.242243
0.237471
0.233018
0.228569
0.223988
0.219141
0.213927
0.208204
0.201695
0.194513
0.186744
0.178574
0.170068
0.49435
0.482701
0.471001
0.458002
0.443672
0.428062
0.41152
0.394578
0.377844
0.361852
0.347055
0.33357
0.321617
0.311041
0.302027
0.293499
0.284412
0.274823
0.264972
0.255384
0.246309
0.237852
0.229919
0.222325
0.214793
0.206987
0.198775
0.190147
0.181246
0.172366
0.511646
0.502912
0.494367
0.484937
0.474451
0.462863
0.450455
0.437729
0.425231
0.413416
0.40262
0.392837
0.38425
0.376465
0.369413
0.361288
0.349951
0.335388
0.318452
0.300778
0.283605
0.267695
0.253369
0.240549
0.228885
0.217924
0.207339
0.196927
0.186629
0.176809
0.529689
0.524287
0.519684
0.515044
0.51011
0.504792
0.499336
0.494177
0.489722
0.486264
0.483898
0.482377
0.481748
0.481183
0.480146
0.475507
0.463469
0.443711
0.417639
0.388072
0.35775
0.328639
0.302085
0.278672
0.25827
0.240389
0.224515
0.210182
0.196981
0.185086
0.553777
0.552987
0.554308
0.557147
0.561098
0.566058
0.572214
0.579813
0.588984
0.599645
0.611405
0.623572
0.636006
0.647172
0.656034
0.657174
0.645709
0.620967
0.584812
0.540889
0.493172
0.444717
0.398327
0.356236
0.319364
0.287715
0.260852
0.238078
0.218573
0.202603
0.597149
0.604878
0.616918
0.63265
0.651331
0.672811
0.696954
0.72349
0.751939
0.781592
0.811265
0.839831
0.866917
0.890266
0.908477
0.913861
0.901803
0.87215
0.827552
0.771388
0.70749
0.638734
0.5686
0.501548
0.440241
0.386126
0.33992
0.301232
0.269103
0.244863
0.6947
0.719678
0.75082
0.786291
0.825209
0.867827
0.912947
0.95964
1.00669
1.05272
1.09603
1.13537
1.16998
1.19718
1.21546
1.21558
1.19696
1.16286
1.11445
1.05457
0.984972
0.906764
0.822074
0.736397
0.652467
0.573708
0.503858
0.443292
0.391865
0.354528
0.915206
0.959126
1.00873
1.06297
1.11966
1.17604
1.23216
1.2868
1.33829
1.38487
1.4253
1.4564
1.47814
1.4884
1.48706
1.4652
1.43089
1.3882
1.34133
1.29058
1.23537
1.17612
1.10977
1.03505
0.955919
0.874661
0.797433
0.725411
0.660412
0.613064
1.26217
1.29184
1.33297
1.38289
1.43658
1.48942
1.53856
1.58087
1.61522
1.64097
1.65852
1.66683
1.66476
1.65107
1.62435
1.57627
1.52542
1.47355
1.42595
1.38231
1.34234
1.30604
1.27314
1.24487
1.21949
1.19391
1.15882
1.11974
1.07822
1.04379
1.42005
1.42318
1.44403
1.47775
1.51715
1.55568
1.58908
1.61436
1.63083
1.63845
1.63774
1.62754
1.60719
1.57495
1.52765
1.46258
1.40165
1.34466
1.29668
1.25827
1.23076
1.21349
1.20719
1.21257
1.22782
1.24839
1.27153
1.29287
1.30748
1.31276
0.167511
0.183047
0.184287
0.181396
0.177248
0.171295
0.163766
0.155217
0.146199
0.137213
0.128555
0.12054
0.113237
0.106905
0.101523
0.0972879
0.0943032
0.0939776
0.0989367
0.10924
0.119931
0.126025
0.12576
0.119512
0.108517
0.093846
0.0768458
0.058289
0.0423675
0.0299567
0.278515
0.305773
0.304779
0.295832
0.281588
0.264652
0.246612
0.228619
0.211337
0.195178
0.18033
0.167032
0.155171
0.144875
0.135972
0.128663
0.123293
0.122841
0.130623
0.146713
0.164712
0.17785
0.182762
0.178847
0.167157
0.149189
0.126801
0.101117
0.0777004
0.0588284
0.34014
0.367953
0.368614
0.360057
0.345139
0.326754
0.306602
0.28597
0.265745
0.246536
0.228685
0.212535
0.19808
0.18558
0.175038
0.166676
0.160879
0.16087
0.169829
0.1874
0.20711
0.222044
0.228506
0.2255
0.213581
0.194102
0.168938
0.139019
0.110171
0.0854094
0.38231
0.403977
0.404461
0.396244
0.381924
0.364008
0.344009
0.323095
0.302198
0.282035
0.263085
0.245767
0.230221
0.216805
0.205762
0.19735
0.192096
0.19293
0.202271
0.219413
0.238392
0.252903
0.259465
0.256973
0.245556
0.226271
0.2006
0.169316
0.137735
0.109381
0.41224
0.425015
0.423642
0.415187
0.40173
0.385073
0.366319
0.346371
0.326086
0.306242
0.287384
0.269986
0.25435
0.240929
0.230189
0.222416
0.21823
0.220007
0.229247
0.244884
0.261855
0.274693
0.280425
0.277979
0.267245
0.248937
0.224122
0.193279
0.160915
0.13037
0.432637
0.435589
0.430873
0.421703
0.408983
0.394022
0.377225
0.359059
0.340264
0.321673
0.303769
0.287118
0.272164
0.259448
0.249638
0.243041
0.240276
0.24298
0.251822
0.265405
0.279645
0.290091
0.294374
0.291523
0.281373
0.264369
0.241158
0.211915
0.180221
0.148522
0.445148
0.438906
0.431244
0.420803
0.409074
0.395412
0.380232
0.363475
0.346458
0.329881
0.313591
0.298361
0.284708
0.27329
0.264923
0.25996
0.258832
0.26242
0.270643
0.281954
0.293135
0.300822
0.303262
0.299648
0.289879
0.274298
0.253084
0.225961
0.195672
0.163896
0.451624
0.437999
0.423913
0.411085
0.399503
0.387749
0.375188
0.361854
0.347429
0.332484
0.317827
0.3046
0.292745
0.283111
0.276606
0.273625
0.274235
0.278624
0.286095
0.295091
0.303187
0.308027
0.308423
0.303817
0.294233
0.279527
0.259969
0.235246
0.207126
0.176644
0.455269
0.43239
0.412079
0.396352
0.384452
0.37429
0.364334
0.353677
0.34211
0.33001
0.318183
0.30673
0.296953
0.289442
0.285129
0.284372
0.286697
0.291743
0.298394
0.305156
0.310336
0.312497
0.31082
0.304762
0.294681
0.280682
0.262893
0.240694
0.215284
0.186987
0.456519
0.424379
0.397526
0.378955
0.366523
0.357383
0.34943
0.34132
0.332601
0.323495
0.314285
0.305362
0.297964
0.292816
0.290894
0.292443
0.296388
0.301904
0.307688
0.312374
0.315066
0.31475
0.31081
0.303701
0.293355
0.279751
0.26313
0.243508
0.221329
0.195424
0.455199
0.415591
0.384247
0.363037
0.349261
0.340192
0.333412
0.327245
0.320874
0.314195
0.307592
0.301356
0.296449
0.293761
0.294295
0.298061
0.303461
0.309229
0.314143
0.317081
0.317632
0.315011
0.30952
0.301534
0.291004
0.277858
0.262424
0.24513
0.225424
0.201682
0.452085
0.409755
0.375603
0.350876
0.33504
0.325011
0.318317
0.313203
0.308516
0.303843
0.299376
0.295474
0.293102
0.292854
0.295745
0.301505
0.308069
0.313908
0.31799
0.31951
0.31822
0.313954
0.3073
0.298679
0.288129
0.275607
0.261513
0.245617
0.227684
0.205978
0.452234
0.409446
0.373554
0.345415
0.325969
0.314053
0.306204
0.301087
0.297177
0.293796
0.291006
0.288939
0.288732
0.290665
0.295683
0.303124
0.31047
0.316189
0.319527
0.319883
0.317238
0.311828
0.304401
0.295541
0.285283
0.273594
0.260298
0.245299
0.228729
0.208788
0.454923
0.41272
0.3766
0.347161
0.325062
0.309198
0.298932
0.292807
0.288588
0.285599
0.283807
0.283081
0.284264
0.287941
0.294718
0.303392
0.311106
0.31653
0.319174
0.318616
0.315047
0.308993
0.301284
0.292709
0.282883
0.271589
0.258882
0.244627
0.229033
0.210558
0.460982
0.420136
0.38439
0.354065
0.329886
0.311657
0.298986
0.290085
0.284396
0.280748
0.279139
0.279025
0.281011
0.285572
0.293582
0.30297
0.310629
0.315534
0.317514
0.316309
0.312273
0.306124
0.298857
0.290377
0.280684
0.269704
0.257459
0.243807
0.228948
0.211639
0.470815
0.431891
0.397033
0.366212
0.340496
0.320052
0.304666
0.293411
0.285721
0.280858
0.278362
0.277924
0.280083
0.284857
0.293236
0.302771
0.309971
0.314161
0.315467
0.313912
0.309943
0.30419
0.296943
0.28848
0.27887
0.268102
0.256185
0.242995
0.228717
0.212311
0.484445
0.447777
0.41443
0.384138
0.357654
0.335364
0.317427
0.303524
0.29334
0.286406
0.282438
0.281003
0.282585
0.287065
0.294851
0.304035
0.310416
0.313725
0.314457
0.312975
0.308951
0.30309
0.295735
0.28724
0.277627
0.266934
0.255199
0.242316
0.228453
0.212761
0.501413
0.467463
0.436341
0.407094
0.380453
0.356894
0.336839
0.320398
0.307593
0.298248
0.292298
0.289371
0.289823
0.293448
0.300505
0.30849
0.313786
0.316177
0.316661
0.314763
0.310099
0.303314
0.295487
0.286866
0.277113
0.266352
0.254635
0.241883
0.228263
0.213128