/*--------------------------------*- C++ -*----------------------------------*\
  =========                 |
  \\      /  F ield         | OpenFOAM: The Open Source CFD Toolbox
   \\    /   O peration     | Website:  https://openfoam.org
    \\  /    A nd           | Version:  12
     \\/     M anipulation  |
\*---------------------------------------------------------------------------*/
FoamFile
{
    format      ascii;
    class       volScalarField;
    location    "1850/air";
    object      nut;
}
// * * * * * * * * * * * * * * * * * * * * * * * * * * * * * * * * * * * * * //

dimensions      [0 2 -1 0 0 0 0];

internalField   nonuniform List<scalar> 
243000
(
0.000115816
0.000121158
0.000122975
0.00012256
0.000120641
0.000117707
0.000114143
0.000110256
0.000106271
0.000102365
9.86438e-05
9.51798e-05
9.20185e-05
8.92184e-05
8.67719e-05
8.46399e-05
8.27467e-05
8.10504e-05
7.95197e-05
7.81226e-05
7.68088e-05
7.54637e-05
0.000330583
7.38692e-05
0.000329122
6.84018e-05
0.000291888
0.000248305
0.000182104
0.000192743
0.000428637
0.000448468
0.000447916
0.000437196
0.000421837
0.000404508
0.000386579
0.000368921
0.000352085
0.000336418
0.000322102
0.000309239
0.000297915
0.000288199
0.000280058
0.00027339
0.000268027
0.000263978
0.00026117
0.000259605
0.000259142
0.000259485
0.000261165
0.000258677
0.000258003
0.000251732
0.000242845
0.000224406
0.000200558
0.000187576
0.000525574
0.000582042
0.000608914
0.000618884
0.000619831
0.000615093
0.00060669
0.000595976
0.000583838
0.000570924
0.000557635
0.00054432
0.000531215
0.000518601
0.000506601
0.000495258
0.00048449
0.000474546
0.000465384
0.000457021
0.000449255
0.000441692
0.000433619
0.000423198
0.000409477
0.000390024
0.000364395
0.000329154
0.00029045
0.00025189
0.000520291
0.000575955
0.000610142
0.000627822
0.000634365
0.000633286
0.000627434
0.000618513
0.000607636
0.000595605
0.000582956
0.000570133
0.000557407
0.000545112
0.00053344
0.000522507
0.000512284
0.000503069
0.000494751
0.000487204
0.000480091
0.000472981
0.000465151
0.000455338
0.00044206
0.000423517
0.000398837
0.000365455
0.000328236
0.000286522
0.00051129
0.00055401
0.000591251
0.000615758
0.000629152
0.000633945
0.000632705
0.000627406
0.000619342
0.000609512
0.000598621
0.000587216
0.000575646
0.000564323
0.00055352
0.000543436
0.000534107
0.000525849
0.000518483
0.000511731
0.000505121
0.000498205
0.000490378
0.000480659
0.000467748
0.000450085
0.000426729
0.000395714
0.000360456
0.000319572
0.000510851
0.000531225
0.000561076
0.000589075
0.000609131
0.000620712
0.000625447
0.000625118
0.000621059
0.000614481
0.000606299
0.000597113
0.000587363
0.000577565
0.00056807
0.000559193
0.000551025
0.000543887
0.00053753
0.000531556
0.000525405
0.000518608
0.000510676
0.000500875
0.000488166
0.000471248
0.000449204
0.000420538
0.000387486
0.000348721
0.000533106
0.000530778
0.000544312
0.000564429
0.000583693
0.000598423
0.000608633
0.000613645
0.000614442
0.000612002
0.000607236
0.000600871
0.000593519
0.000585734
0.000577933
0.000570571
0.000563785
0.000557884
0.000552577
0.000547381
0.000541685
0.000535015
0.000526972
0.000517028
0.000504413
0.000488086
0.000467233
0.000440709
0.000409923
0.000373646
0.000559023
0.000545807
0.000542588
0.000550759
0.000564316
0.000578118
0.000589478
0.00059698
0.00060166
0.000603336
0.000602395
0.000599391
0.000594856
0.000589468
0.000583719
0.000578142
0.00057293
0.000568365
0.000564146
0.000559748
0.000554531
0.000548036
0.000539931
0.000529859
0.000517285
0.000501426
0.000481616
0.000456978
0.000428454
0.000394638
0.000586035
0.000568684
0.000554688
0.000549613
0.000553614
0.000562533
0.000572559
0.000580977
0.000587193
0.000590914
0.000593177
0.000593506
0.000592062
0.000589377
0.000585924
0.000582349
0.00057887
0.000575734
0.000572651
0.000569083
0.000564391
0.000558143
0.000550063
0.000539923
0.000527389
0.000511914
0.000493031
0.000470091
0.000443596
0.000412142
0.000613622
0.0005955
0.000575964
0.000561164
0.000554091
0.000554673
0.000560057
0.000566989
0.000573474
0.000578461
0.000582031
0.000584589
0.000585909
0.000585965
0.00058497
0.00058355
0.000581933
0.000580316
0.000578427
0.000575735
0.00057163
0.000565716
0.000557766
0.000547651
0.000535201
0.000520098
0.000502031
0.000480455
0.000455772
0.000426573
0.000641067
0.000622621
0.000601693
0.000581863
0.000566235
0.000557277
0.000555025
0.000557419
0.000561992
0.000566857
0.000571133
0.000574624
0.000577589
0.000579942
0.000581324
0.000582101
0.000582407
0.000582381
0.000581748
0.000579994
0.000576553
0.000571067
0.000563363
0.000553389
0.000541128
0.000526361
0.000508928
0.000488523
0.000465437
0.000438432
0.000667889
0.000649489
0.000629508
0.00060774
0.000587294
0.000570689
0.000559927
0.000555218
0.000555153
0.000557748
0.000561391
0.000565141
0.000568688
0.000572295
0.000575591
0.000578403
0.000580603
0.000582188
0.00058286
0.000582118
0.000579421
0.000574464
0.000567126
0.000557438
0.000545409
0.000530966
0.00051411
0.000494701
0.000472994
0.000447946
0.000693775
0.00067558
0.000656228
0.000634724
0.000612848
0.000592129
0.000574727
0.000562404
0.000555615
0.000553481
0.000554459
0.000557115
0.000560504
0.000564288
0.00056858
0.00057298
0.000576877
0.000580014
0.000581997
0.000582306
0.000580442
0.000576168
0.000569317
0.000559971
0.000548242
0.000534172
0.000517869
0.000499327
0.000478802
0.000455463
0.000718544
0.000700677
0.000681909
0.000661411
0.000639867
0.000617886
0.000596853
0.00057865
0.000564926
0.000556365
0.000552499
0.00055214
0.000554026
0.000557233
0.000561322
0.000566515
0.000571686
0.000576186
0.000579419
0.000580802
0.000579813
0.000576179
0.000569943
0.000561131
0.000549839
0.000536215
0.000520478
0.000502725
0.000483226
0.000461424
0.000742074
0.000724614
0.000706525
0.0006875
0.000666829
0.000645115
0.000622935
0.000601491
0.000582469
0.00056749
0.00055743
0.000552147
0.000550745
0.000552083
0.000555224
0.000559951
0.000565649
0.000571122
0.000575433
0.000577849
0.000577759
0.00057493
0.000569309
0.000561061
0.000550368
0.000537318
0.000522439
0.000505712
0.000487311
0.000467013
0.000764217
0.000747243
0.000729905
0.000711872
0.000692533
0.000671923
0.000650159
0.000627755
0.000605833
0.000586027
0.000569966
0.000558699
0.000552336
0.00055018
0.000551163
0.000554521
0.000559611
0.000565384
0.000570423
0.000573718
0.000574516
0.000572517
0.00056768
0.000560126
0.000550265
0.000538245
0.000524321
0.000508591
0.000491245
0.000472257
0.000784817
0.000768393
0.000751845
0.000734791
0.000716816
0.000697557
0.0006769
0.000654923
0.000632148
0.000609693
0.000589158
0.000572222
0.000560059
0.000552964
0.000550324
0.00055123
0.000554708
0.000559752
0.00056492
0.000568782
0.000570361
0.000569198
0.0005653
0.000558824
0.000549992
0.000538998
0.000526054
0.000511308
0.000494977
0.000477165
0.000803679
0.000787833
0.000772081
0.000756034
0.000739408
0.000721573
0.000702299
0.000681449
0.000659129
0.000635901
0.000612896
0.00059174
0.000574161
0.000561459
0.000553935
0.000551112
0.000551982
0.000555342
0.000559726
0.000563603
0.000565785
0.000565543
0.000562701
0.000557298
0.000549506
0.000539539
0.000527587
0.00051382
0.000498475
0.000481742
0.000820592
0.000805343
0.000790389
0.000775544
0.00076016
0.000743721
0.000725925
0.000706514
0.000685356
0.000662605
0.000638872
0.000615346
0.000593724
0.00057581
0.000562848
0.00055522
0.000552351
0.000553081
0.000555905
0.000559188
0.000561523
0.000561919
0.000559966
0.000555576
0.000548803
0.000539847
0.000528885
0.00051609
0.000501711
0.00048599
0.000835408
0.000820822
0.000806742
0.000793079
0.000778911
0.000763855
0.000747561
0.000729713
0.000710057
0.000688502
0.000665254
0.000641006
0.000617071
0.000595208
0.000577187
0.00056429
0.000556742
0.000553818
0.000554144
0.000556051
0.000557941
0.000558571
0.000557258
0.000553742
0.000547922
0.000539932
0.000529942
0.000518103
0.000504669
0.000489905
0.000848082
0.000834378
0.000821567
0.000808799
0.00079573
0.000781973
0.000767142
0.000750886
0.000732884
0.000712903
0.000690886
0.000667118
0.000642446
0.00061824
0.000596303
0.000578478
0.00056585
0.000558412
0.000555268
0.000554883
0.000555572
0.000555878
0.000554836
0.000551954
0.000546961
0.000539862
0.000530793
0.000519882
0.000507365
0.000493516
0.000858782
0.00084617
0.000834158
0.000822353
0.000810416
0.000797971
0.000784627
0.000770031
0.000753823
0.000735677
0.000715361
0.000692866
0.00066863
0.00064356
0.00061916
0.000597393
0.000579947
0.000567602
0.000560166
0.000556536
0.000555138
0.000554397
0.00055312
0.00055052
0.000546131
0.00053979
0.000531555
0.000521517
0.000509873
0.000496888
0.000867032
0.000855375
0.000844351
0.000833657
0.000822974
0.000811972
0.000800279
0.000787688
0.000773671
0.000757749
0.000739519
0.000718786
0.000695654
0.000670732
0.000645052
0.000620553
0.000599059
0.000581942
0.000569744
0.000562035
0.000557606
0.000554958
0.000552711
0.000549866
0.000545728
0.00053993
0.000532404
0.000523155
0.000512324
0.000500152
0.00087315
0.000862598
0.000852656
0.000843127
0.000834081
0.000825154
0.000815797
0.000805525
0.000793836
0.000780252
0.000764299
0.000745672
0.000724214
0.000700267
0.00067437
0.000648109
0.000623452
0.000602118
0.000585119
0.000572743
0.000564367
0.000558803
0.000554703
0.000550863
0.000546394
0.000540749
0.000533671
0.000525047
0.000514922
0.000503484
0.000877569
0.000868286
0.000859589
0.000851474
0.00084423
0.00083733
0.000830203
0.000822281
0.000813041
0.000801998
0.000788622
0.00077252
0.000753321
0.000731178
0.000706288
0.000680224
0.00065417
0.000629699
0.000608325
0.000591012
0.000577869
0.000568258
0.000561101
0.000555212
0.000549562
0.000543391
0.000536252
0.000527879
0.0005182
0.000507335
0.000880883
0.000873193
0.00086609
0.000859549
0.00085359
0.000848361
0.000843212
0.000837529
0.000830936
0.000823088
0.000813324
0.000801052
0.000785749
0.000767248
0.000745541
0.000721251
0.00069526
0.000668913
0.000643961
0.000621795
0.000603215
0.000588293
0.00057649
0.000566901
0.000558556
0.000550596
0.000542379
0.00053345
0.000523611
0.000512858
0.000885646
0.000880546
0.000876057
0.00087219
0.00086898
0.000866479
0.000864458
0.000862457
0.000859993
0.000856516
0.000851353
0.000843801
0.000833207
0.000819142
0.000801573
0.000780345
0.000755737
0.000728971
0.000701623
0.000675247
0.000651073
0.000629828
0.00061163
0.000596136
0.000582737
0.000570702
0.000559354
0.000548142
0.000536681
0.000524883
0.00090318
0.000902714
0.000902785
0.000903532
0.000905143
0.000907704
0.000911078
0.000914809
0.000918336
0.000920918
0.000921755
0.000920078
0.000915164
0.000906484
0.000893877
0.000876816
0.000854888
0.000829357
0.000801471
0.000772681
0.000744239
0.000717147
0.000691981
0.000669019
0.000648236
0.000629274
0.000611689
0.000595066
0.000579025
0.000563873
0.000985003
0.000990913
0.000996436
0.00100304
0.00101147
0.00102168
0.00103286
0.00104403
0.00105446
0.00106365
0.00107062
0.00107464
0.00107507
0.00107185
0.0010646
0.00105263
0.0010349
0.00101316
0.000988555
0.000962159
0.000934819
0.000907332
0.000880304
0.000854236
0.000829506
0.000805477
0.000782116
0.000759499
0.000737724
0.000718263
0.0013098
0.00130979
0.0013111
0.00131779
0.001328
0.00133939
0.00134857
0.0013559
0.00136209
0.00136776
0.00137145
0.00137276
0.00137248
0.00137104
0.00136746
0.00136154
0.00135102
0.00133994
0.00132861
0.00131774
0.00130726
0.0012975
0.00128853
0.00128047
0.00127344
0.00126355
0.00125218
0.00124038
0.00122903
0.00121968
0.000156209
0.000160526
0.000159381
0.000155869
0.000150898
0.000145062
0.0001388
0.000132462
0.000126304
0.00012053
0.000115246
0.000110522
0.000106408
0.000102971
0.000100182
9.80134e-05
9.63919e-05
9.53408e-05
9.49621e-05
9.53519e-05
9.63116e-05
9.7298e-05
9.76496e-05
9.66037e-05
9.38165e-05
8.86041e-05
8.09094e-05
0.000343523
0.000316294
0.000309876
0.000672584
0.000756727
0.000739076
0.00068408
0.000619032
0.000555989
0.000499798
0.000451484
0.000410667
0.000376444
0.000347504
0.0003231
0.000302934
0.000286598
0.000273077
0.000261789
0.000251769
0.000243446
0.000236598
0.000231907
0.000230194
0.000232204
0.000237046
0.0002417
0.000242514
0.000236785
0.000226034
0.000222233
0.0002476
0.000300636
0.00105518
0.00120562
0.00121806
0.001166
0.00108702
0.000999743
0.000915154
0.000838399
0.000771064
0.000713195
0.000663548
0.000621659
0.000586514
0.000557771
0.000533984
0.000513773
0.000494901
0.000477464
0.000459404
0.000441065
0.000425383
0.000416403
0.0004148
0.000415812
0.000413887
0.00040291
0.000382257
0.000353427
0.000340179
0.000356013
0.0013112
0.00148777
0.00152415
0.00149001
0.00141915
0.00133082
0.00123963
0.00115303
0.00107395
0.00100407
0.000943248
0.000891473
0.000847929
0.000812599
0.000784135
0.000760259
0.000737848
0.000716143
0.000690432
0.00066011
0.000629449
0.000605786
0.000592269
0.000585076
0.000576444
0.000558953
0.000530145
0.000487813
0.00045196
0.000440813
0.00146429
0.00164062
0.00169859
0.0016854
0.00162938
0.00154965
0.0014656
0.00138274
0.00130269
0.00123014
0.00116648
0.0011116
0.00106549
0.00102869
0.000999984
0.000976824
0.000955492
0.000933724
0.00090466
0.000866514
0.000823866
0.000786578
0.000760405
0.000742814
0.000726369
0.000702478
0.000667488
0.000617148
0.000567257
0.000537814
0.00154043
0.00170318
0.00177374
0.00177956
0.00174518
0.0016906
0.00161566
0.00153742
0.00146109
0.00139344
0.00133454
0.00128201
0.00123834
0.00120425
0.00117892
0.00115972
0.00114282
0.00112394
0.001094
0.00105099
0.00100035
0.000952655
0.000915449
0.00088841
0.000863458
0.00083359
0.000793525
0.000738439
0.00068053
0.000638693
0.00158894
0.00170547
0.00176376
0.00177989
0.00176738
0.00173554
0.00168351
0.00162414
0.00156565
0.00150706
0.00145315
0.00140598
0.0013696
0.00134182
0.00132286
0.00131029
0.00130038
0.00128621
0.0012578
0.0012126
0.00115747
0.00110266
0.00105614
0.00102022
0.000988665
0.000952782
0.000908611
0.00085093
0.000788287
0.000737457
0.00162527
0.00168056
0.00170848
0.00172017
0.00171814
0.00170511
0.00168015
0.00164768
0.00160817
0.00156704
0.00152699
0.00149293
0.00146397
0.00144452
0.00143446
0.00143106
0.00142969
0.00142164
0.001397
0.0013529
0.0012958
0.00123596
0.00118229
0.00113847
0.00110059
0.00106105
0.00101328
0.00095449
0.000889671
0.000832473
0.00165311
0.00165933
0.00165768
0.00165358
0.00164916
0.00164311
0.00163259
0.00161777
0.0015987
0.00158109
0.00155908
0.00153969
0.00152421
0.00151649
0.00151672
0.00152439
0.00153262
0.00153197
0.00151255
0.00147159
0.00141487
0.00135285
0.00129427
0.00124408
0.00120027
0.00115731
0.00110922
0.00105028
0.000985124
0.000922409
0.00169853
0.00167083
0.0016282
0.00160032
0.00158216
0.00157246
0.00156692
0.00156267
0.001558
0.001555
0.00155306
0.00155234
0.00155326
0.00155971
0.00157226
0.00159212
0.00161104
0.00161922
0.00160626
0.00156991
0.00151582
0.00145396
0.00139265
0.00133793
0.00128915
0.00124382
0.00119459
0.0011363
0.0010713
0.00100594
0.00175768
0.00170267
0.0016365
0.00157526
0.0015343
0.00151206
0.00150173
0.00149941
0.0015018
0.0015086
0.0015193
0.00153456
0.00155447
0.00157717
0.00160339
0.00163654
0.00166679
0.00168449
0.0016796
0.00164932
0.00159993
0.00154001
0.00147813
0.00142104
0.00136903
0.00132001
0.00126886
0.00121223
0.00114856
0.00108345
0.00183814
0.00175895
0.00166927
0.00158746
0.0015225
0.0014774
0.00145463
0.00144495
0.00144561
0.00145547
0.00147282
0.00149822
0.00153167
0.0015716
0.0016131
0.00166009
0.00170215
0.00172986
0.00173453
0.00171338
0.00166916
0.00161162
0.00155023
0.00149178
0.00143746
0.00138572
0.00133337
0.00127794
0.0012173
0.00115427
0.00193559
0.00183744
0.00173286
0.00163265
0.00154723
0.00148299
0.00143958
0.00141498
0.00140444
0.00141021
0.00142695
0.00145589
0.00149595
0.0015478
0.00160502
0.0016656
0.00171948
0.00175747
0.00177188
0.00176001
0.00172361
0.00167007
0.00161
0.00155015
0.00149358
0.0014411
0.00138921
0.00133499
0.00127849
0.00121944
0.00204744
0.00194571
0.00183234
0.00171872
0.00161578
0.00153059
0.00146651
0.00142242
0.00139721
0.00138859
0.00139578
0.00142044
0.00146017
0.00151505
0.00158398
0.00165659
0.00172156
0.00176968
0.00179434
0.00179211
0.00176432
0.00171676
0.00165989
0.00160151
0.001544
0.00149014
0.00143951
0.00138811
0.00133532
0.0012798
0.00217651
0.00207639
0.00196206
0.00184258
0.00172804
0.0016258
0.00154167
0.00147591
0.001429
0.00140144
0.00139324
0.0014044
0.00143631
0.00148731
0.00155575
0.00163753
0.0017118
0.00176925
0.00180378
0.00181135
0.00179275
0.00175271
0.00170052
0.0016454
0.00158968
0.00153629
0.00148464
0.00143462
0.00138411
0.0013318
0.00231712
0.00222542
0.00211754
0.00199885
0.00187883
0.00176507
0.00166483
0.00157845
0.00150898
0.00145883
0.00142939
0.0014218
0.00143729
0.00147565
0.00153587
0.00161473
0.00169464
0.00175955
0.00180266
0.00181979
0.00181076
0.0017796
0.00173387
0.00168363
0.0016306
0.00157706
0.00152435
0.00147418
0.00142475
0.00137497
0.00246436
0.00238601
0.0022896
0.00217764
0.00205871
0.00193986
0.00182856
0.00172623
0.00163699
0.00156444
0.00151125
0.00148008
0.00147279
0.001491
0.0015341
0.00160025
0.00167585
0.00174469
0.00179424
0.00182015
0.00182108
0.00180023
0.00176152
0.00171488
0.00166484
0.00161238
0.0015595
0.0015077
0.00145856
0.00141049
0.00261142
0.00254828
0.00246643
0.00236593
0.00225428
0.0021377
0.00202199
0.00191033
0.00180665
0.00171509
0.00163917
0.00158268
0.00154872
0.0015402
0.00155918
0.00160403
0.0016654
0.00172968
0.00178288
0.00181608
0.00182563
0.00181282
0.00178083
0.00173878
0.00169237
0.00164244
0.00159028
0.00153755
0.00148752
0.00144014
0.00275077
0.00270277
0.00263717
0.00255263
0.00245399
0.00234588
0.002233
0.00211872
0.00200678
0.00190128
0.00180613
0.00172562
0.00166386
0.00162503
0.0016145
0.0016305
0.00166921
0.00172062
0.00176887
0.00180522
0.00182155
0.00181638
0.00179232
0.00175593
0.00171412
0.00166758
0.0016168
0.00156395
0.00151297
0.00146556
0.00287643
0.00284375
0.00279591
0.00272993
0.00264809
0.00255314
0.00244855
0.00233726
0.00222254
0.00210817
0.00199797
0.00189636
0.0018082
0.00173974
0.00169546
0.00167875
0.00168701
0.00171687
0.00175529
0.00178856
0.00180718
0.00181018
0.00179535
0.0017664
0.00173042
0.00168721
0.0016381
0.00158606
0.00153541
0.00148824
0.00298635
0.00296799
0.00293739
0.0028903
0.00282674
0.0027474
0.00265416
0.00254927
0.00243525
0.00231531
0.00219311
0.0020732
0.00196118
0.0018649
0.00178744
0.00173629
0.00171181
0.0017141
0.00173474
0.00176092
0.00178128
0.0017907
0.00178581
0.00176556
0.00173518
0.0016969
0.00165257
0.00160466
0.00155622
0.0015105
0.00307883
0.0030718
0.00305565
0.0030253
0.00297862
0.00291422
0.00283216
0.00273356
0.00262018
0.0024948
0.00236124
0.00222472
0.00209169
0.00197088
0.00186541
0.00178187
0.001726
0.00169858
0.00169684
0.0017112
0.00173063
0.00174695
0.00175384
0.00174687
0.00172797
0.00169859
0.00166147
0.00161977
0.00157542
0.00153254
0.0031484
0.00314772
0.003141
0.00312238
0.00308746
0.003033
0.0029575
0.00286035
0.00274325
0.00260933
0.0024635
0.00231247
0.00216346
0.00202429
0.00190137
0.00179495
0.00171065
0.00165521
0.0016285
0.00162593
0.00163962
0.00166085
0.00168071
0.00169102
0.00168952
0.00167647
0.00165338
0.00162193
0.00158627
0.00154989
0.00317957
0.00317899
0.00317448
0.00315937
0.00312627
0.00307163
0.00299372
0.00289185
0.00276744
0.00262451
0.00247012
0.00231306
0.00215945
0.00201578
0.00188878
0.00177388
0.00167195
0.00159288
0.00153939
0.00151207
0.00150861
0.00152389
0.00154982
0.00157595
0.00159544
0.00160522
0.00160428
0.00159301
0.00157328
0.00154957
0.00314046
0.00313178
0.00312043
0.00309895
0.00305915
0.00299822
0.00291461
0.00280879
0.00268387
0.00254516
0.00240076
0.0022585
0.00212218
0.00199541
0.00188223
0.00177507
0.00166966
0.00157433
0.00149473
0.00143507
0.00139808
0.00138448
0.00139173
0.00141235
0.00143935
0.00146641
0.00148866
0.00150313
0.00150866
0.0015073
0.00297515
0.00295241
0.00292898
0.00290007
0.00286032
0.00280513
0.00273411
0.00264896
0.00255307
0.00245094
0.00234761
0.0022466
0.0021482
0.00205323
0.0019661
0.00187965
0.00178442
0.00168678
0.0015915
0.00150399
0.00142872
0.00136987
0.00133013
0.00130935
0.00130554
0.00131501
0.00133303
0.00135485
0.00137628
0.00139683
0.00264864
0.00263126
0.00262259
0.00261952
0.00261517
0.00260361
0.00258165
0.00254928
0.00250856
0.00246086
0.00240823
0.00235226
0.0022933
0.00223113
0.00216882
0.00210479
0.00202687
0.00193983
0.0018468
0.00175224
0.00165913
0.00157128
0.00149182
0.00142378
0.00136917
0.00132857
0.00130139
0.00128603
0.00128031
0.0012888
0.00236691
0.00240925
0.00246407
0.00252112
0.00256826
0.00260172
0.00262056
0.00262566
0.00262023
0.00260158
0.002574
0.00253998
0.00249986
0.00245554
0.00240935
0.0023609
0.00230255
0.00223688
0.00216518
0.00208969
0.00201124
0.00193257
0.00185382
0.00177709
0.00170419
0.00163649
0.00157527
0.00152099
0.00147436
0.00145156
0.00244081
0.00250155
0.00256613
0.00262781
0.00267734
0.0027112
0.00273287
0.00273961
0.00273473
0.0027197
0.0026975
0.00266993
0.00263477
0.00259861
0.00256154
0.00252109
0.00247934
0.00243485
0.00238957
0.002345
0.0023011
0.0022612
0.00222109
0.00218308
0.00214573
0.00210773
0.00206927
0.00203105
0.00199441
0.00197638
0.00262352
0.00266156
0.00269815
0.00273233
0.00275437
0.00276472
0.0027669
0.00276109
0.00274904
0.00273245
0.00271221
0.00268854
0.00265965
0.00263176
0.00260198
0.0025734
0.00254867
0.00252496
0.00250413
0.00248837
0.0024789
0.00247513
0.00247978
0.00248763
0.00249717
0.00250524
0.0025121
0.00251794
0.00252163
0.00251791
0.000188939
0.000191105
0.00018639
0.000180185
0.000173087
0.000165353
0.000157333
0.00014937
0.000141732
0.000134638
0.000128191
0.000122504
0.000117625
0.000113632
0.00011049
0.000108235
0.000106837
0.00010655
0.00010793
0.000111252
0.000115606
0.000119488
0.000121782
0.000121835
0.000119309
0.000113803
0.000105197
9.26696e-05
7.916e-05
7.45624e-05
0.000883052
0.000987511
0.000979584
0.000920616
0.000839903
0.000758809
0.000685724
0.000622602
0.000569216
0.000524342
0.000486223
0.000454779
0.000428425
0.000406659
0.000387567
0.000370732
0.000353738
0.000339272
0.000328455
0.000324544
0.000329388
0.000341446
0.000356153
0.000367088
0.000367933
0.000354825
0.000330315
0.000296496
0.000267118
0.000247026
0.00140574
0.00161277
0.00164702
0.0015918
0.00149602
0.00138597
0.00127693
0.00117666
0.00108824
0.00101204
0.000946421
0.000891798
0.000846045
0.000808879
0.000777533
0.000749451
0.000719401
0.000689782
0.000658689
0.000631932
0.000618484
0.000620956
0.000633609
0.000645403
0.00064225
0.000620841
0.000578894
0.000518184
0.000458521
0.000417242
0.00177872
0.00202322
0.00208852
0.00205472
0.00196878
0.00185776
0.00173896
0.00162371
0.00151838
0.00142514
0.00134367
0.00127519
0.00121804
0.00117235
0.00113542
0.00110335
0.00106889
0.00103161
0.000985695
0.000938155
0.000902213
0.000887177
0.000889211
0.000895534
0.00088851
0.000858907
0.000805205
0.000727044
0.000644509
0.000581029
0.00204578
0.00229138
0.00237433
0.00236059
0.00229122
0.00219142
0.00207614
0.00195966
0.00185069
0.00175146
0.0016635
0.00158901
0.00152727
0.00147856
0.00144109
0.0014099
0.00137615
0.00133519
0.00127704
0.00121454
0.00116041
0.0011267
0.00111494
0.00111284
0.00110162
0.00106691
0.00100685
0.000918928
0.000822126
0.000739868
0.00224053
0.00246107
0.00255247
0.00255956
0.0025071
0.00241811
0.00230764
0.00219911
0.00209746
0.00200043
0.00191333
0.00183949
0.00177866
0.00173178
0.00169779
0.00167087
0.00164087
0.00159802
0.00153158
0.00145489
0.0013864
0.00133721
0.00131178
0.00129992
0.00128389
0.00124853
0.00118535
0.00109394
0.000989339
0.000893726
0.00238462
0.00256411
0.00264911
0.00266327
0.00262732
0.002559
0.0024759
0.00237766
0.00227826
0.0021816
0.00210165
0.00203451
0.00197906
0.00193829
0.00191101
0.0018911
0.00186644
0.00182299
0.00175051
0.00166253
0.00158263
0.00152064
0.00148286
0.00146064
0.00143896
0.00140339
0.00134372
0.00125326
0.00114659
0.00104037
0.00248416
0.00262053
0.00268295
0.002694
0.00267016
0.00261999
0.00255364
0.00247563
0.00239401
0.00231765
0.00224425
0.00218207
0.00213471
0.0021033
0.00208557
0.00207523
0.00205699
0.00201211
0.00193517
0.00184071
0.00175323
0.00168076
0.0016317
0.00159923
0.00157108
0.00153587
0.00148201
0.00139717
0.00129142
0.00117812
0.00257372
0.00264526
0.00267002
0.00267036
0.00265322
0.00261868
0.00257126
0.00251573
0.00245574
0.00239522
0.00233795
0.00228841
0.00225204
0.00223197
0.00222598
0.00222713
0.00221546
0.00217087
0.00209126
0.00199489
0.00190088
0.00182084
0.00176187
0.00171964
0.00168601
0.00164927
0.00159705
0.00152062
0.00141916
0.00130526
0.00264415
0.00265232
0.00264881
0.00263475
0.00261515
0.00258826
0.00255434
0.00251536
0.00247304
0.00243099
0.0023925
0.00235943
0.00233685
0.00232974
0.00233629
0.00234963
0.00234521
0.00230322
0.0022247
0.00212716
0.00202921
0.00194371
0.00187646
0.00182662
0.00178458
0.00174301
0.00169189
0.00162267
0.00153121
0.00142403
0.00271619
0.00268778
0.00264419
0.00260775
0.00257686
0.00254871
0.00252044
0.00249268
0.00246479
0.00243827
0.00241534
0.00240048
0.00239399
0.00240159
0.00242082
0.00244589
0.00244872
0.0024116
0.0023361
0.00224004
0.00214126
0.00205204
0.00197728
0.00191595
0.00186486
0.00181884
0.00177051
0.00170751
0.00162769
0.00153134
0.00279473
0.00274744
0.00268374
0.00261521
0.00255665
0.00251921
0.00248702
0.00246363
0.00244464
0.0024298
0.0024202
0.00241859
0.00242905
0.00245172
0.00248337
0.00251954
0.00253042
0.00249881
0.00242912
0.00233732
0.00223898
0.0021451
0.00206497
0.00199713
0.00193948
0.0018878
0.00183763
0.00178127
0.00171379
0.00162849
0.00287688
0.0028129
0.00273181
0.00264689
0.00257654
0.00251635
0.00246896
0.00244449
0.00242753
0.00241837
0.00241769
0.00242667
0.00244856
0.00248431
0.00252839
0.00257431
0.00259243
0.00256829
0.0025062
0.00242154
0.00232508
0.0022307
0.00214766
0.00207392
0.00201072
0.00195454
0.00190203
0.00185
0.00178991
0.00171474
0.00297873
0.0029031
0.00280753
0.00270562
0.0026167
0.00254278
0.00249115
0.0024514
0.00242865
0.00241702
0.00241931
0.00243428
0.00246312
0.00250559
0.0025603
0.00261399
0.00263886
0.00262284
0.00257045
0.00249385
0.00240134
0.00230814
0.00222362
0.00214772
0.00208035
0.00202073
0.00196495
0.00191126
0.00185531
0.00178811
0.00309731
0.00301472
0.00291036
0.0028032
0.00270102
0.00261178
0.002542
0.00248875
0.00245341
0.00243652
0.00243608
0.00245059
0.00248028
0.00252363
0.00258332
0.00264192
0.00267245
0.00266474
0.00262296
0.00255559
0.00246896
0.00237871
0.00229456
0.00221801
0.00214837
0.00208518
0.0020261
0.00196908
0.00191373
0.00185159
0.00322972
0.00314864
0.00304993
0.0029393
0.00282825
0.00272562
0.00263847
0.00256863
0.00251796
0.00248733
0.00247583
0.00248167
0.00250532
0.00254538
0.00260044
0.00266016
0.0026945
0.00269484
0.00266389
0.00260703
0.00252834
0.00244293
0.00236091
0.00228417
0.00221347
0.00214782
0.00208584
0.00202549
0.00196804
0.00190817
0.00337794
0.00330615
0.00321445
0.00310649
0.00299236
0.0028807
0.00277909
0.00269196
0.00262271
0.00257338
0.00254434
0.00253497
0.00254474
0.00257201
0.00261634
0.00266818
0.00270343
0.00271097
0.00269111
0.00264629
0.0025774
0.00249825
0.00241979
0.00234506
0.00227519
0.00220823
0.00214395
0.00208023
0.00201972
0.00196004
0.00353872
0.00347589
0.00339437
0.00329396
0.00318242
0.00306716
0.00295554
0.00285322
0.0027648
0.00269367
0.00264161
0.0026093
0.00259668
0.00260336
0.0026274
0.00266365
0.00269374
0.00270603
0.00269697
0.00266628
0.00260938
0.00254017
0.00246882
0.00239911
0.00233152
0.00226458
0.00219872
0.00213214
0.00206884
0.00200835
0.00369669
0.00364624
0.00357772
0.00348859
0.00338424
0.00327042
0.00315352
0.0030394
0.00293318
0.00283906
0.00276008
0.00269821
0.00265487
0.00263126
0.00262719
0.0026393
0.00265667
0.00266862
0.00266875
0.00265172
0.00261425
0.00256094
0.00250211
0.00244018
0.00237657
0.0023115
0.00224508
0.00217796
0.00211352
0.00205279
0.00384501
0.00380736
0.00375257
0.00367634
0.00358181
0.00347278
0.00335422
0.00323126
0.00310886
0.0029915
0.00288304
0.00278681
0.00270615
0.00264434
0.0026046
0.00258431
0.0025797
0.00258462
0.00259092
0.00258988
0.00257406
0.00254295
0.0024993
0.00244882
0.00239501
0.00233766
0.00227623
0.00221294
0.00215139
0.00209232
0.00397621
0.00394939
0.00390657
0.00384231
0.0037576
0.00365413
0.00353506
0.00340426
0.003266
0.00312485
0.00298544
0.00285268
0.00273219
0.00262933
0.00255071
0.00249391
0.00245979
0.00244798
0.00245183
0.00246185
0.00246765
0.00246335
0.00244723
0.00242097
0.00238656
0.00234174
0.00229361
0.0022411
0.00218518
0.00212911
0.00408058
0.00406009
0.00402489
0.00396888
0.00389092
0.00379056
0.00366899
0.00352869
0.00337337
0.00320819
0.00303902
0.00287302
0.00271819
0.00258119
0.00247009
0.00238213
0.00231821
0.00228165
0.00226942
0.00227545
0.00229086
0.00230754
0.00231961
0.0023236
0.00231808
0.00230069
0.00227275
0.00223516
0.00219263
0.00214798
0.00414118
0.00412049
0.00408623
0.00403198
0.0039548
0.00385231
0.00372414
0.00357201
0.00340006
0.00321575
0.00302603
0.00284116
0.00267022
0.00251939
0.0023946
0.00229369
0.00221075
0.0021494
0.00210951
0.00209066
0.0020901
0.00210362
0.00212582
0.00215062
0.00217263
0.00218659
0.00218952
0.00217961
0.00215849
0.00213336
0.00412897
0.00410008
0.00405836
0.00399805
0.0039155
0.00380676
0.00367148
0.00351195
0.00333409
0.00314712
0.0029616
0.00278716
0.0026309
0.00249596
0.00238299
0.00229208
0.00220707
0.00213029
0.00206249
0.00200704
0.0019673
0.0019455
0.00194212
0.00195477
0.00197869
0.00200737
0.00203421
0.00205371
0.00206276
0.0020614
0.00399952
0.00395556
0.00390033
0.00383084
0.00374409
0.00363739
0.00351053
0.00336682
0.0032132
0.0030587
0.00291242
0.00277995
0.00266529
0.00256798
0.00248532
0.00241527
0.00233948
0.00225899
0.00217416
0.00208915
0.00200945
0.0019402
0.00188651
0.0018521
0.0018378
0.0018414
0.00185805
0.00188153
0.00190567
0.00192665
0.00370606
0.00365153
0.00359779
0.00354172
0.00348105
0.00341049
0.00332828
0.0032364
0.00313981
0.00304455
0.00295596
0.00287574
0.00280601
0.00274543
0.0026909
0.00263813
0.00257226
0.00249561
0.00240799
0.00231268
0.0022138
0.00211499
0.00202067
0.00193703
0.00186877
0.00181875
0.00178741
0.00177255
0.00177075
0.00178421
0.00331429
0.00328738
0.00327884
0.00328333
0.00328919
0.00328394
0.00326542
0.00323461
0.00319506
0.00315109
0.00310642
0.00306074
0.00301653
0.00297377