/*--------------------------------*- C++ -*----------------------------------*\
  =========                 |
  \\      /  F ield         | OpenFOAM: The Open Source CFD Toolbox
   \\    /   O peration     | Website:  https://openfoam.org
    \\  /    A nd           | Version:  12
     \\/     M anipulation  |
\*---------------------------------------------------------------------------*/
FoamFile
{
    format      ascii;
    class       volScalarField;
    location    "1850/air";
    object      p_rgh;
}
// * * * * * * * * * * * * * * * * * * * * * * * * * * * * * * * * * * * * * //

dimensions      [1 -1 -2 0 0 0 0];

internalField   nonuniform List<scalar> 
243000
(
30.2967
30.1815
30.0579
29.8893
29.7213
29.5724
29.4441
29.339
29.2554
29.193
29.1484
29.124
29.1141
29.1202
29.1355
29.1701
29.2202
29.2914
29.3764
29.4768
29.5854
29.6945
29.7956
29.8861
29.9642
30.023
30.0738
30.1004
30.1347
30.1315
30.2931
30.1533
30.0407
29.8804
29.7219
29.5763
29.4503
29.3465
29.2633
29.201
29.1574
29.1344
29.1251
29.1313
29.1461
29.1798
29.2287
29.2984
29.3835
29.484
29.5928
29.7023
29.8055
29.8969
29.9729
30.03
30.0795
30.1032
30.1373
30.1189
30.2768
30.1029
29.9924
29.8334
29.6797
29.5401
29.4202
29.3219
29.2445
29.1872
29.1473
29.1271
29.1199
29.1273
29.1422
29.1757
29.2236
29.2924
29.3772
29.4779
29.5868
29.697
29.8002
29.8909
29.9674
30.0244
30.0765
30.0982
30.1384
30.1138
30.2463
30.0482
29.9246
29.7655
29.6185
29.4879
29.3772
29.287
29.2159
29.1633
29.127
29.1095
29.104
29.1123
29.127
29.1601
29.2067
29.2737
29.3558
29.4536
29.5604
29.6702
29.7759
29.8701
29.9513
30.0126
30.0695
30.0888
30.1357
30.1084
30.2066
29.9983
29.8611
29.7021
29.5597
29.4365
29.3332
29.2495
29.1832
29.1343
29.1007
29.0851
29.0806
29.0892
29.1035
29.1355
29.1806
29.2455
29.3245
29.4196
29.5242
29.6333
29.7399
29.8362
29.9214
29.9872
30.05
30.0708
30.127
30.0986
30.1582
29.9501
29.8053
29.65
29.5096
29.3914
29.2939
29.215
29.152
29.1054
29.0733
29.0586
29.0543
29.0625
29.0758
29.1061
29.1492
29.2115
29.2872
29.3789
29.4811
29.5893
29.6966
29.7952
29.8846
29.9551
30.024
30.0479
30.1128
30.0844
30.1011
29.8975
29.7555
29.6071
29.472
29.3558
29.2611
29.1851
29.1238
29.0778
29.0457
29.0305
29.0251
29.0322
29.0437
29.0718
29.1122
29.1715
29.2432
29.3313
29.4308
29.5382
29.6464
29.7475
29.8412
29.9165
29.9916
30.0202
30.0926
30.0654
30.0361
29.8362
29.7073
29.5696
29.4416
29.3299
29.2359
29.1611
29.1001
29.0533
29.0197
29.0023
28.9942
28.9991
29.0081
29.0334
29.0705
29.1259
29.1933
29.2774
29.3743
29.4809
29.5901
29.6938
29.7918
29.8721
29.9534
29.9877
30.0669
30.042
29.9637
29.7657
29.6505
29.5329
29.4144
29.3089
29.2168
29.1414
29.0805
29.0325
28.9963
28.9756
28.9631
28.9645
28.9699
28.9916
29.0247
29.0756
29.1382
29.2183
29.3125
29.4183
29.5287
29.6352
29.7374
29.8228
29.9102
29.9507
30.0361
30.0143
29.8844
29.6839
29.5849
29.4851
29.383
29.2868
29.2003
29.1255
29.0633
29.0142
28.9754
28.9507
28.9329
28.9291
28.93
28.9474
28.9757
29.0214
29.0789
29.1548
29.2464
29.3515
29.4632
29.5726
29.6791
29.7695
29.8627
29.91
30.0008
29.9831
29.7998
29.5965
29.5137
29.4293
29.3407
29.2565
29.1789
29.1087
29.0472
28.9971
28.9558
28.9272
28.9039
28.8939
28.889
28.9014
28.9241
28.9641
29.0162
29.0879
29.1768
29.2814
29.3945
29.507
29.6177
29.7131
29.8118
29.8661
29.9618
29.9493
29.7098
29.5078
29.4384
29.3691
29.2925
29.2195
29.151
29.0874
29.0294
28.98
28.9367
28.9044
28.8758
28.8592
28.8476
28.8543
28.8708
28.9045
28.951
29.0183
29.1047
29.2088
29.3235
29.4391
29.554
29.6544
29.7581
29.8198
29.9201
29.9139
29.6147
29.4194
29.3597
29.305
29.2402
29.1776
29.1178
29.0609
29.008
28.9607
28.9169
28.8815
28.8478
28.825
28.8062
28.8065
28.8164
28.8435
28.884
28.9468
29.0307
29.1345
29.2509
29.3697
29.4888
29.5941
29.7026
29.772
29.8761
29.8772
29.5145
29.33
29.2793
29.2369
29.1838
29.1316
29.08
29.0293
28.9813
28.9374
28.8944
28.8573
28.8191
28.7902
28.7648
28.7583
28.7614
28.7814
28.8158
28.8741
28.9555
29.0591
29.1771
29.2992
29.4223
29.5328
29.6459
29.7226
29.8291
29.8397
29.4104
29.2387
29.1973
29.1647
29.1223
29.0798
29.0367
28.9928
28.9491
28.9085
28.8676
28.83
28.7886
28.7538
28.7226
28.7096
28.706
28.7189
28.7468
28.8006
28.8795
28.9828
29.1026
29.2279
29.3553
29.4707
29.588
29.672
29.7802
29.8014
29.3018
29.1451
29.113
29.0895
29.0559
29.0222
28.987
28.95
28.9115
28.8737
28.8349
28.7979
28.7546
28.7156
28.6784
28.6597
28.6502
28.6559
28.6773
28.7264
28.8028
28.9059
29.0275
29.1562
29.2876
29.4081
29.5293
29.6205
29.7299
29.7627
29.1888
29.0495
29.0248
29.011
28.9855
28.9591
28.9311
28.9002
28.8671
28.8329
28.7957
28.7597
28.7155
28.6736
28.6315
28.6074
28.5929
28.5924
28.6074
28.6517
28.7256
28.8285
28.9518
29.0838
29.2192
29.3447
29.4695
29.5677
29.6785
29.7231
29.0713
28.9515
28.9327
28.9274
28.9103
28.8903
28.8688
28.8439
28.8154
28.7849
28.7497
28.7145
28.6699
28.6262
28.5805
28.5518
28.5329
28.5274
28.5366
28.5763
28.6476
28.75
28.8748
29.0103
29.1497
29.2804
29.4084
29.5134
29.6256
29.6818
28.9492
28.8501
28.8366
28.8376
28.8284
28.8148
28.799
28.78
28.7561
28.7291
28.6961
28.6616
28.6165
28.5715
28.5236
28.4916
28.4691
28.4595
28.4637
28.4991
28.5677
28.6693
28.7958
28.9352
29.0786
29.2142
29.3461
29.457
29.5712
29.6387
28.8213
28.7441
28.736
28.7412
28.7387
28.7311
28.7203
28.7063
28.6873
28.6642
28.6337
28.6001
28.5548
28.5085
28.4587
28.4248
28.3999
28.3872
28.3871
28.4187
28.4844
28.5857
28.7146
28.8577
29.005
29.1456
29.2817
29.3986
29.5155
29.5928
28.6863
28.6306
28.6289
28.6383
28.6407
28.6386
28.6327
28.6231
28.6085
28.5889
28.5612
28.5286
28.4836
28.4362
28.3846
28.3495
28.3234
28.3086
28.3055
28.3338
28.3972
28.4988
28.63
28.7765
28.9278
29.0736
29.2143
29.3373
29.4577
29.5436
28.5421
28.509
28.5126
28.5254
28.5325
28.5357
28.5353
28.5303
28.5198
28.5036
28.478
28.4465
28.4016
28.3537
28.301
28.2651
28.238
28.2219
28.2171
28.2427
28.3051
28.407
28.5406
28.6902
28.8456
28.9968
29.1424
29.2718
29.3962
29.4903
28.3899
28.3757
28.384
28.401
28.4133
28.4221
28.4268
28.4268
28.4203
28.4074
28.3842
28.3534
28.3083
28.2601
28.2066
28.1701
28.1424
28.1257
28.12
28.1441
28.2064
28.3089
28.4447
28.5974
28.7569
28.9135
29.0644
29.2004
29.3296
29.4317
28.2221
28.2221
28.2359
28.2586
28.2778
28.2934
28.3045
28.3095
28.3078
28.2987
28.2781
28.2482
28.2032
28.1546
28.0999
28.0628
28.0347
28.0181
28.0123
28.0368
28.0995
28.2028
28.3404
28.4959
28.6594
28.8213
28.9776
29.1202
29.2544
29.3644
28.0436
28.0528
28.0738
28.1033
28.1301
28.1534
28.1709
28.1809
28.1838
28.1792
28.1617
28.1328
28.0878
28.0389
27.9834
27.9453
27.9166
27.9002
27.8952
27.9209
27.9845
28.0886
28.2277
28.3857
28.5531
28.7202
28.8818
29.0309
29.1706
29.2889
27.8186
27.8347
27.8665
27.909
27.9508
27.9886
28.0181
28.0377
28.0483
28.0505
28.0379
28.011
27.9668
27.9181
27.8618
27.8221
27.7921
27.7751
27.77
27.7956
27.859
27.9625
28.1013
28.2602
28.4299
28.6006
28.7661
28.9205
29.0643
29.1891
27.6164
27.6429
27.6864
27.7418
27.7984
27.8492
27.8886
27.9155
27.9319
27.9386
27.929
27.9028
27.858
27.8085
27.7518
27.7111
27.6798
27.6629
27.6574
27.6817
27.7431
27.8442
27.9815
28.1409
28.3129
28.4877
28.658
28.8187
28.9686
29.104
27.2006
27.2589
27.3432
27.4453
27.5482
27.6377
27.7053
27.7529
27.7851
27.8035
27.8042
27.7835
27.742
27.6938
27.6356
27.5911
27.554
27.5338
27.5246
27.5441
27.5987
27.6899
27.8152
27.965
28.1305
28.3003
28.4651
28.6215
28.7648
28.8993
27.2132
27.2965
27.4034
27.5238
27.6374
27.7265
27.786
27.8243
27.8455
27.8523
27.8413
27.8138
27.7672
27.7148
27.6522
27.6051
27.5678
27.5502
27.5452
27.5709
27.6311
27.7278
27.8583
28.0142
28.187
28.3671
28.5432
28.714
28.872
29.0268
25.931
26.0899
26.3239
26.5837
26.8184
26.9955
27.1225
27.2148
27.2769
27.312
27.3171
27.3016
27.2636
27.2161
27.1556
27.1004
27.0461
27.0104
26.9834
26.982
27.0078
27.0649
27.1529
27.2652
27.3924
27.5189
27.6358
27.7476
27.8506
27.9793
30.0797
29.9223
29.7902
29.6027
29.4362
29.2988
29.1909
29.1092
29.0492
29.0073
28.9777
28.9633
28.957
28.9644
28.9751
29.0038
29.0448
29.1102
29.1935
29.2986
29.4165
29.5403
29.6601
29.7697
29.8705
29.9543
30.0287
30.0696
30.1201
30.1098
30.0786
29.8983
29.7671
29.5872
29.4322
29.3009
29.1953
29.1149
29.0554
29.0135
28.9848
28.971
28.965
28.9723
28.9824
29.0104
29.0502
29.115
29.1985
29.3041
29.4225
29.5469
29.6672
29.7773
29.8781
29.9609
30.0349
30.0751
30.1278
30.1035
30.0701
29.8702
29.7398
29.5645
29.4157
29.2885
29.1864
29.1085
29.0507
29.0095
28.9808
28.9678
28.9621
28.969
28.9781
29.0048
29.0427
29.1049
29.1849
29.2876
29.4052
29.5305
29.6527
29.7653
29.8686
29.9527
30.0296
30.0666
30.1256
30.0967
30.0458
29.835
29.7039
29.5323
29.3894
29.2681
29.1716
29.0981
29.043
29.003
28.9755
28.9632
28.9572
28.9635
28.971
28.9959
29.0309
29.0898
29.1656
29.2638
29.3774
29.5005
29.6248
29.7405
29.8474
29.9343
30.0163
30.0524
30.1195
30.0875
30.0056
29.7938
29.6659
29.4996
29.3621
29.2459
29.1538
29.0837
29.031
28.9933
28.9669
28.9546
28.9476
28.9528
28.9581
28.9804
29.0117
29.0666
29.1374
29.2309
29.3406
29.4616
29.5853
29.7021
29.812
29.9036
29.9905
30.0293
30.1067
30.0735
29.9534
29.7461
29.6265
29.4683
29.3368
29.2258
29.1375
29.0698
29.0192
28.9831
28.957
28.9439
28.9352
28.9385
28.9409
28.96
28.9867
29.0368
29.102
29.1903
29.296
29.415
29.5385
29.6568
29.7695
29.8645
29.9576
29.9996
30.0877
30.055
29.8907
29.6886
29.5833
29.4382
29.3148
29.209
29.1243
29.0587
29.0086
28.9736
28.947
28.9323
28.921
28.9215
28.9204
28.9354
28.957
29.0016
29.0606
29.1434
29.2451
29.3623
29.4858
29.6058
29.7218
29.8203
29.9194
29.9652
30.0629
30.0317
29.8229
29.6227
29.5356
29.4098
29.2972
29.1975
29.1156
29.0508
29.0004
28.9651
28.9376
28.9204
28.9058
28.9026
28.8972
28.9077
28.9234
28.9617
29.0141
29.0913
29.1891
29.3047
29.4286
29.5505
29.6698
29.7722
29.877
29.9271
30.0331
30.0042
29.7533
29.5499
29.48
29.3782
29.2803
29.1902
29.1119
29.0472
28.9954
28.9576
28.9289
28.9087
28.8901
28.8827
28.872
28.8774
28.8868
28.9181
28.9636
29.0352
29.1292
29.2435
29.3679
29.4918
29.6145
29.7209
29.8313
29.8866
29.999
29.9736
29.6818
29.4751
29.421
29.3351
29.2571
29.1803
29.1098
29.0473
28.9942
28.9528
28.9208
28.8971
28.8743
28.862
28.8453
28.8452
28.8479
28.8718
28.9102
28.976
29.0666
29.1797
29.3049
29.431
29.5571
29.6675
29.7831
29.8443
29.9615
29.9407
29.6075
29.4019
29.3608
29.2898
29.2261
29.1637
29.1038
29.0471
28.9943
28.9507
28.9138
28.886
28.8581
28.8404
28.8175
28.8116
28.8073
28.8237
28.8547
28.9149
29.0021
29.1142
29.2404
29.3689
29.4984
29.6126
29.7329
29.8011
29.9213
29.9061
29.531
29.3295
29.3001
29.2431
29.192
29.1399
29.0898
29.0419
28.9928
28.9487
28.9076
28.8755
28.842
28.8183
28.7892
28.7767
28.7655
28.7744
28.798
28.8527
28.9366
29.048
29.1752
29.3061
29.4389
29.557
29.6815
29.7573
29.8793
29.8708
29.4533
29.2578
29.2398
29.1938
29.1527
29.1112
29.0697
29.0283
28.9851
28.9436
28.9006
28.8651
28.8261
28.7958
28.7603
28.7409
28.7228
28.7244
28.7409
28.79
28.8708
28.9817
29.11
29.2435
29.3794
29.5013
29.6294
29.7132
29.8359
29.8353
29.375
29.1866
29.1788
29.1432
29.1108
29.0781
29.0447
29.0094
28.9714
28.933
28.891
28.8537
28.8097
28.7735
28.7307
28.7042
28.6789
28.674
28.6837
28.7274
28.8054
28.9158
29.0454
29.1814
29.3204
29.4461
29.5766
29.668
29.7906
29.8002
29.2952
29.115
29.1159
29.0914
29.0673
29.0419
29.0149
28.9854
28.9526
28.9181
28.8777
28.8396
28.7921
28.7506
28.7004
28.6664
28.6342
28.6233
28.6268
28.6654
28.7407
28.8509
28.9818
29.1204
29.2622
29.3914
29.523
29.6221
29.7441
29.7662
29.2124
29.0423
29.0496
29.0359
29.0198
29.0015
28.9802
28.9563
28.9283
28.8981
28.8598
28.8218
28.7719
28.7259
28.6691
28.6279
28.5886
28.5723
28.5703
28.6041
28.6769
28.7872
28.9195
29.0605
29.2049
29.3371
29.47
29.5756
29.697
29.7336
29.1261
28.9686
28.9803
28.9762
28.9673
28.9561
28.9408
28.9218
28.8984
28.8721
28.8366
28.7992
28.7476
28.6983
28.6359
28.5884
28.5422
28.5208
28.5142
28.5435
28.6141
28.7245
28.8582
29.0012
29.1482
29.2841
29.4188
29.5291
29.6494
29.7017
29.036
28.894
28.9094
28.9129
28.9109
28.9057
28.8962
28.882
28.8628
28.8402
28.8073
28.7711
28.7182
28.6666
28.5997
28.547
28.4944
28.4684
28.4576
28.4831
28.552
28.6631
28.7976
28.9422
29.092
29.2322
29.3688
29.4835
29.6021
29.6692
28.9413
28.8179
28.8372
28.847
28.8507
28.8511
28.8463
28.8366
28.8216
28.8024
28.7717
28.7367
28.6826
28.6296
28.5594
28.5023
28.4447
28.4148
28.4006
28.4229
28.4912
28.6023
28.7365
28.8834
29.0361
29.1808
29.3199
29.439
29.5576
29.635
28.8406
28.7395
28.7628
28.7782
28.7867
28.7915
28.7913
28.7858
28.7745
28.7585
28.73
28.696
28.6407
28.5866
28.5141
28.4538
28.3924
28.3601
28.3434
28.3634
28.4307
28.5402
28.6747
28.8244
28.98
29.1293
29.2713
29.3949
29.514
29.5998
28.7332
28.6576
28.6845
28.7051
28.7182
28.7272
28.731
28.7297
28.7223
28.7091
28.6823
28.6489
28.593
28.5376
28.4642
28.4017
28.3367
28.3028
28.2844
28.3026
28.3681
28.4769
28.6125
28.7647
28.9232
29.0772
29.2224
29.3503
29.4706
29.5632
28.6181
28.5703
28.6012
28.6267
28.6443
28.6576
28.6655
28.6683
28.6647
28.6545
28.6293
28.5962
28.5396
28.4833
28.4088
28.3455
28.2778
28.2414
28.2216
28.2388
28.3033
28.4123
28.5491
28.7036
28.865
29.0235
29.1723
29.3045
29.4263
29.5245
28.4961
28.4768
28.5116
28.5418
28.5641
28.582
28.5945
28.6016
28.6022
28.5954
28.572
28.5389
28.4819
28.4247
28.3469
28.2836
28.2144
28.1761
28.1553
28.1719
28.2368
28.3463
28.484
28.6403
28.8047
28.9672
29.1201
29.2568
29.3806
29.4838
28.3674
28.3734
28.413
28.448
28.4759
28.4996
28.5182
28.5314
28.5368
28.5339
28.5124
28.4794
28.4226
28.3645
28.2823
28.216
28.1441
28.1056
28.0849
28.1023
28.1683
28.2783
28.4174
28.5756
28.7425
28.908
29.0641
29.2053
29.3313
29.4406
28.2369
28.2625
28.3072
28.3472
28.3822
28.4137
28.4404
28.4609
28.4717
28.4729
28.4532
28.4201
28.3636
28.3048
28.2191
28.1477
28.071
28.0313
28.0113
28.0313
28.0988
28.2087
28.3495
28.5107
28.6808
28.8499
29.009
29.1537
29.2819
29.3974
28.0924
28.1378
28.188
28.2347
28.2793
28.3221
28.3602
28.3903
28.4077
28.4128
28.3953
28.3623
28.3064
28.2472
28.1592
28.0853
28.0043
27.9612
27.9417
27.9647
28.0328
28.1421
28.2829
28.445
28.6173
28.7899
28.9527
29.1015
29.2313
29.3519
27.9669
28.0307
28.0826
28.1338
28.1883
28.2436
28.2939
28.3341
28.3582
28.366
28.3495
28.3175
28.2634
28.2047
28.1147
28.0377
27.9531
27.9056
27.8862
27.9122
27.9794
28.0882
28.2288
28.3911
28.5648
28.7406
28.9072
29.0607
29.1931
29.3222
27.8133
27.8939
27.9494
28.015
28.0927
28.1734
28.2459
28.3028
28.3406
28.3552
28.3423
28.3164
28.2672
28.2118
28.1226
28.044
27.9528
27.9015
27.8801
27.9045
27.9633
28.0613
28.1932
28.351
28.5222
28.6963
28.8595
29.0107
29.1396
29.2717
27.8603
27.9404
27.998
28.0834
28.1879
28.2951
28.3867
28.4555
28.5013
28.5235
28.5173
28.4979
28.4542
28.4033
28.3186
28.2406
28.142
28.0849
28.0557
28.0722
28.1217
28.2094
28.3292
28.4741
28.6344
28.8006
28.9625
29.1134
29.2391
29.3714
28.4893
28.5741
28.612
28.6864
28.7849
28.884
28.9633
29.0186
29.0472
29.0511
29.0323
29.0018
28.95
28.8958
28.8109
28.737
28.6403
28.5845
28.5562
28.5777
28.6345
28.7296
28.8554
29.0058
29.1714
29.343
29.5098
29.6653
29.7942
29.9335
30.0295
29.8268
29.7175
29.5118
29.3369
29.1973
29.0956
29.0249
28.9775
28.949
28.9318
28.9292
28.9286
28.9418
28.9461
28.9649
28.9793
29.0144
29.0602
29.1319
29.2243
29.3365
29.4598
29.5869
29.7154
29.8329
29.9446
30.017
30.0932
30.082
30.0174
29.7798
29.68
29.4849
29.3272
29.1985
29.0999
29.0307
28.984
28.9569
28.9408
28.9387
28.9381
28.9513
28.9553
28.9746
28.9889
29.0242
29.0693
29.1414
29.2345
29.3472
29.4706
29.5977
29.7258
29.8423
29.9532
30.023
30.101
30.0866
29.9968
29.7372
29.6452
29.4604
29.3136
29.1916
29.0983
29.0314
28.9855
28.9587
28.9423
28.9411
28.9403
28.9531
28.9562
28.9753
28.9885
29.0219
29.0629
29.1313
29.222
29.3352
29.4604
29.5892
29.7186
29.8349
29.9481
30.0157
30.102
30.0813
29.9567
29.6891
29.6009
29.4243
29.2881
29.175
29.0894
29.028
28.9855
28.9593
28.9429
28.9422
28.9412
28.9535
28.9552
28.9735
28.984
29.0146
29.0508
29.1135
29.1986
29.3088
29.4359
29.5673
29.699
29.8161
29.9324
29.9989
30.0948
30.0701
29.9006
29.6362
29.5505
29.3842
29.2584
29.1542
29.0757
29.0195
28.9803
28.9557
28.9398
28.94
28.9382
28.9496
28.9492
28.9659
28.9727
28.9992
29.0291
29.0855
29.1648
29.271
29.3958
29.5284
29.6641
29.7836
29.9053
29.9718
30.0776
30.0515
29.8329
29.5799
29.4954
29.3423
29.2273
29.132
29.0605
29.0092
28.973
28.9505
28.9352
28.9359
28.9327
28.9429
28.9395
28.954
28.9559
28.9771
29
29.0494
29.1229
29.2255
29.3486
29.481
29.6188
29.742
29.8681
29.9375
30.0528
30.027
29.7584
29.521
29.4386
29.3016
29.1975
29.1108
29.0459
28.9991
28.9656
28.9449
28.9298
28.9303
28.9252
28.9338
28.9268
28.9382
28.9344
28.9493
28.9646
29.0067
29.0745
29.174
29.296
29.4286
29.5678
29.6941
29.8246
29.8986
30.0223
29.9978
29.6801
29.4571
29.3821
29.2619
29.1695
29.0916
29.0328
28.99
28.9588
28.9394
28.9241
28.924
28.9163
28.923
28.9114
28.9192
28.9091
28.9168
28.9242
28.9589
29.0212
29.1179
29.2394
29.3728
29.5137
29.6422
29.777
29.8567
29.9871
29.9652
29.5997
29.3896
29.3272
29.2235
29.1436
29.0748
29.0219
28.9825
28.9526
28.9341
28.9184
28.9172
28.9064
28.9107
28.8939
28.8974
28.8802
28.8805
28.88
28.9072
28.9642
29.0587
29.1802
29.3148
29.4576
29.588
29.7266
29.8128
29.948
29.9304
29.5198
29.324
29.2753
29.1859
29.119
29.0598
29.0128
28.9764
28.9475
28.9293
28.9127
28.9101
28.8957
28.8973
28.8748
28.8734
28.8482
28.841
28.8331
28.8529
28.9047
28.9974
29.1193
29.2557
29.4005
29.5329
29.6748
29.768
29.9061
29.8941
29.4435
29.2589
29.2245
29.1488
29.0933
29.0437
29.0032
28.9705
28.9431
28.9249
28.9071
28.9026
28.8845
28.8831
28.8542
28.8477
28.8137
28.7993
28.7843
28.7969
28.8435
28.9349
29.0577
29.1962
29.3432
29.478
29.6226
29.7229
29.8625
29.8574
29.3707
29.1948
29.1741
29.1124
29.0682
29.0266
28.992
28.9634
28.9378
28.9203
28.9015
28.895
28.8727
28.8679
28.8325
28.8205
28.7774
28.7557
28.734
28.7399
28.7816
28.872
28.9961
29.1373
29.2863
29.4248
29.5707
29.6779
29.8175
29.8212
29.2996
29.1318
29.1239
29.0756
29.0422
29.0089
28.9798
28.955
28.9315
28.915
28.8951
28.8871
28.8605
28.8519
28.8097
28.7923
28.7397
28.7109
28.6827
28.6826
28.7195
28.8094
28.9353
29.0796
29.2303
29.3732
29.5195
29.6321
29.7708
29.7864
29.23
29.07
29.0726
29.0376
29.0144
28.9891
28.9658
28.945
28.9236
28.9083
28.8877
28.8782
28.8478
28.8351
28.7861
28.7633
28.7011
28.6653
28.6308
28.6255
28.6579
28.7477
28.8758
29.0234
29.1763
29.3227
29.469
29.5857
29.7229
29.7529
29.1601
29.0077
29.0196
28.9981
28.9844
28.9668
28.9492
28.9323
28.9135
28.8996
28.8785
28.8679
28.8338
28.8176
28.7613
28.7335
28.6618
28.6191
28.5785
28.5685
28.5968
28.6869
28.8176
28.9681
29.1237
29.2727
29.4198
29.54
29.6744
29.7211
29.0899
28.9456
28.9657
28.9564
28.9512
28.941
28.9292
28.9164
28.9006
28.8882
28.867
28.8556
28.8181
28.7989
28.7357
28.7031
28.6222
28.5725
28.5261
28.5119
28.5365
28.6269
28.7599
28.9132
29.0717
29.2239
29.3725
29.496
29.6275
29.6909
29.0184
28.8832
28.9098
28.9113
28.9137
28.9109
28.9048
28.8966
28.8841
28.8735
28.8525
28.8408
28.8002
28.7785
28.709
28.6721
28.5821
28.5255
28.4735
28.4555
28.4765
28.5674
28.702
28.8585
29.0206
29.1766
29.327
29.4541
29.584
29.6602
28.9429
28.8187
28.8519
28.8625
28.8717
28.8757
28.8757
28.8723
28.8635
28.8552
28.8347
28.823
28.7797
28.7559
28.6805
28.6405
28.5418
28.4784
28.4206
28.3989
28.4165
28.5078
28.6439
28.8037
28.9702
29.1303
29.2829
29.4138
29.5427
29.6292
28.8612
28.7523
28.7915
28.8104
28.8261
28.8362
28.8415
28.843
28.8383
28.8329
28.8133
28.8019
28.7563
28.7311
28.6501
28.6079
28.5012
28.431
28.3672
28.3421
28.3561
28.4471
28.5851
28.7483
28.9197
29.0842
29.2394
29.3743
29.5029
29.5977
28.7713
28.684
28.7286
28.7552
28.7769
28.7928
28.8031
28.8091
28.8088
28.8067
28.7886
28.7777
28.7303
28.7042
28.6181
28.5744
28.4597
28.3833
28.3128
28.2838
28.2938
28.3848
28.5253
28.6918
28.8683
29.0375
29.196
29.335
29.4638
29.5656
28.6729
28.6126
28.6623
28.6963
28.724
28.7456
28.7612
28.7718
28.7757
28.7771
28.7611
28.7512
28.7025
28.676
28.5851
28.5404
28.418
28.3351
28.2563
28.2227
28.2295
28.3218
28.4639
28.6337
28.8154
28.9895
29.1518
29.2951
29.4247
29.5324
28.5658
28.5369
28.5921
28.6336
28.6676
28.6953
28.7164
28.7322
28.7405
28.7454
28.7322
28.7236
28.6744
28.6479
28.5522
28.5069
28.3762
28.2856
28.1978
28.16
28.1657
28.2588
28.401
28.5735
28.7602
28.9394
29.1058
29.2539
29.3849
29.4981
28.4516
28.4561
28.5177
28.5674
28.6085
28.6429
28.6702
28.6917
28.705
28.7139
28.7041
28.6966
28.647
28.6208
28.5206
28.4751
28.3355
28.2364
28.1392
28.0995
28.1053
28.1968
28.3377
28.5114
28.7021
28.8875
29.0586
29.2111
29.344
29.4629
28.3338
28.3677
28.4393
28.4982
28.5476
28.5896
28.6241
28.6525
28.6714
28.6849
28.6783
28.6717
28.6217
28.5958
28.4912
28.4465
28.2979
28.1917
28.0863
28.0443
28.0487
28.1365
28.275
28.4492
28.6414
28.8316
29.0088
29.1673
29.3025
29.4269
28.2112
28.277
28.3614
28.4299
28.4881
28.5385
28.5814
28.6176
28.6425
28.6604
28.6559
28.6494
28.5993
28.5744
28.4652
28.4214
28.2637
28.1521
28.0379
27.9912
27.9939
28.0781
28.2138
28.3878
28.5807
28.7751
28.957
29.1213
29.2602
29.3933
28.0836
28.1884
28.2853
28.3638
28.4314
28.4915
28.5442
28.589
28.6199
28.6423
28.6392
28.6335
28.5844
28.5626
28.4511
28.4127
28.2478
28.1328
28.0076
27.952
27.9496
28.0245
28.1545
28.3278
28.5209
28.7198
28.9068
29.0766
29.2188
29.3596
27.9672
28.1111
28.2176
28.3058
28.3841
28.455
28.5187
28.5729
28.6107
28.6391
28.6381
28.6353
28.5885
28.5729
28.4615
28.4305
28.2587
28.1373
28.0011
27.9393
27.9332
28.0003
28.1211
28.2869
28.4809
28.6815
28.8716
29.0451
29.189
29.3348
27.8715
28.0411
28.154
28.253
28.3444
28.4311
28.5082
28.5726
28.6233
28.6591
28.6607
28.6623
28.6223
28.6164
28.5077
28.4913
28.3153
28.1924
28.0451
27.9726
27.9616
28.0174
28.1304
28.2904
28.4801
28.6812
28.8727
29.0464
29.1868
29.3288
27.8512
28.0297
28.1492
28.2601
28.3647
28.462
28.5473
28.6188
28.6741
28.7136
28.7183
28.7259
28.693
28.7018
28.6024
28.612
28.4414
28.3273
28.1752
28.0939
28.0697
28.1127
28.2066
28.3517
28.528
28.7169
28.8981
29.0683
29.2091
29.3553
27.9192
28.0828
28.202
28.3195
28.4304
28.5327
28.6203
28.6927
28.7473
28.7877
28.7972
28.8117
28.7867
28.8118
28.7278
28.7712
28.6144
28.5168
28.3676
28.2845
28.2521
28.2865
28.3678
28.497
28.6614
28.8454
29.0315
29.2093
29.3583
29.504
29.94
29.71
29.6325
29.3942
29.2022
29.0564
28.9594
28.9043
28.8762
28.8667
28.8645
28.8807
28.8867
28.9017
28.8858
28.8773
28.8397
28.8242
28.81
28.833
28.8968
29.0073
29.1493
29.3085
29.4775
29.6403
29.801
29.9171
30.0371
30.0439
29.9193
29.6246
29.5664
29.3443
29.1773
29.0496
28.9612
28.9085
28.8822
28.8746
28.8735
28.89
28.8954
28.9098
28.8932
28.8855
28.8492
28.8363
28.8237
28.8456
28.9085
29.0195
29.1617
29.3208
29.4892
29.6509
29.8112
29.925
30.0463
30.0508
29.8892
29.5598
29.5095
29.3065
29.1574
29.0406
28.96
28.9102
28.8852
28.8795
28.8793
28.8956
28.8997
28.9129
28.8943
28.8857
28.8474
28.8327
28.8166
28.833
28.8912
29.0065
29.1525
29.3133
29.4823
29.6435
29.8054
29.9185
30.0476
30.0463
29.8339
29.4948
29.4456
29.2594
29.1274
29.0232
28.9526
28.9101
28.8871
28.8835
28.8844
28.9006
28.9033
28.9151
28.8936
28.8828
28.8401
28.8222
28.8015
28.8118
28.8635
28.9748
29.1259
29.2901
29.4603
29.6213
29.785
29.8996
30.0377
30.0325
29.7577
29.4275
29.3795
29.2104
29.0951
29.0034
28.9422
28.9065
28.8875
28.8858
28.8877
28.9037
28.9045
28.9145
28.8887
28.8742
28.8247
28.8009
28.7742
28.7781
28.8242
28.9316
29.0804
29.2496
29.4224
29.5849
29.7512
29.8687
30.0158
30.0099
29.6669
29.357
29.3112
29.1592
29.0601
28.982
28.9304
28.9014
28.8867
28.8871
28.89
28.9055
28.904
28.9118
28.8807
28.8611
28.8023
28.7709
28.7372
28.7349
28.776
28.881
29.0284
29.1984
29.3742
29.5389
29.7087
29.829
29.9837
29.9798
29.5678
29.2835
29.2424
29.1076
29.0252
28.9601
28.9184
28.896
28.8853
28.8881
28.8916
28.9066
28.9022
28.9074
28.8699
28.8438
28.7738
28.7335
28.6922
28.6843
28.721
28.8249
28.972
29.1414
29.32
29.4871
29.6598
29.784
29.9438
29.9441
29.4651
29.2089
29.1752
29.0591
28.9933
28.9405
28.9078
28.8913
28.8842
28.8889
28.8925
28.9068
28.8993
28.9016
28.8567
28.8231
28.7404
28.6899
28.6408
28.6281
28.661
28.7649
28.913
29.0824
29.2628
29.4324
29.6067
29.7355
29.8981
29.9059
29.363
29.1352
29.1116
29.015
28.9646
28.9232
28.8987
28.8875
28.8834
28.8897
28.8929
28.9066
28.8956
28.8948
28.8415
28.7996
28.7028
28.6411
28.5843
28.5672
28.5975
28.7027
28.8528
29.0228
29.2048
29.3767
29.5517
29.6855
29.8489
29.8666
29.2643
29.066
29.0531
28.9752
28.939
28.9082
28.8911
28.8845
28.8831
28.8904
28.8929
28.9061
28.8912
28.8869
28.8245
28.7735
28.6615
28.5883
28.5241
28.5031
28.5325
28.6398
28.7929
28.9642
29.1484
29.3221
29.4972
29.6361
29.7979
29.8274
29.172
29.0016
28.9994
28.9399
28.9163
28.8953
28.8849
28.8826
28.883
28.8914
28.8929
28.9054
28.8862
28.8783
28.8061
28.7455
28.6173
28.5326
28.4614
28.4376
28.467
28.5773
28.7344
28.908
29.0947
29.2706
29.4465
29.5874
29.7462
29.7892
29.0885
28.9416
28.9486
28.9072
28.8955
28.8836
28.8795
28.881
28.8832
28.8929
28.893
28.9045
28.8807
28.869
28.7864
28.716
28.5709
28.4752
28.3974
28.3717
28.4018
28.5163
28.6776
28.8551
29.0446
29.2236
29.3983
29.5396
29.6956
29.7531
29.013
28.8852
28.9007
28.8767
28.8757
28.8725
28.8742
28.8792
28.8832
28.8944
28.8934
28.9035
28.8745
28.8591
28.7656
28.6852
28.523
28.4171
28.3331
28.3063
28.3379
28.4572
28.6225
28.8056
28.9985
29.1793
29.3518
29.4947
29.6477
29.7195
28.9429
28.8317
28.8554
28.848
28.856
28.861
28.8681
28.8767
28.8826
28.8955
28.8936
28.9023
28.8677
28.8485
28.7437
28.6534
28.4742
28.3591
28.2692
28.242
28.2756
28.4001
28.5694
28.7589
28.9542
29.1361
29.3088
29.4536
29.6038
29.6877
28.8774
28.7802
28.813
28.8196
28.8359
28.8484
28.8608
28.8732
28.8813
28.8954
28.8933
28.901
28.8605
28.8372
28.7209
28.6209
28.4251
28.3019
28.2062
28.1789
28.2151
28.3448
28.5184
28.7129
28.9111
29.0959
29.2695
29.4164
29.5643
29.6571
28.8143
28.7299
28.7723
28.7904
28.8147
28.8343
28.8519
28.8683
28.879
28.8946
28.8923
28.8989
28.8529
28.8255
28.697
28.5882
28.3763
28.2459
28.1444
28.1176
28.1563
28.2899
28.4671
28.6676
28.8703
29.0587
29.2335
29.3826
29.5283
29.6282
28.7517
28.681
28.7322
28.7603
28.7918
28.8183
28.8412
28.8618
28.8754
28.8925
28.8902
28.8958
28.8447
28.8134
28.6726
28.5555
28.3284
28.1912
28.0845
28.0572
28.0972
28.2338
28.4175
28.6237
28.8313
29.0238
29.2003
29.3516
29.4954
29.6009
28.6889
28.6326
28.6917
28.7287
28.7672
28.8001
28.8283
28.8532
28.8699
28.8888
28.8866
28.8919
28.8359
28.8015
28.6481
28.5236
28.282
28.1389
28.0251
27.9959
28.0375
28.1787
28.3685
28.5801
28.7935
28.9907
29.1694
29.3229
29.4649
29.5751
28.6231
28.5829
28.6497
28.6953
28.7405
28.7797
28.8132
28.8427
28.8627
28.8837
28.8817
28.8871
28.8268
28.7899
28.6242
28.4937
28.2374
28.0879
27.9652
27.9349
27.9799
28.1241
28.3161
28.5356
28.7559
28.9586
29.1401
29.2961
29.4367
29.5508
28.5503
28.5306
28.6053
28.6595
28.7115
28.7571
28.796
28.8302
28.8539
28.8774
28.8761
28.882
28.8179
28.7793
28.6016
28.4664
28.1939
28.0378
27.9077
27.8782
27.924
28.0659
28.2615
28.4896
28.7171
28.9264
29.1116
29.2706
29.4103
29.5279
28.4701
28.4739
28.5576
28.6208
28.6802
28.7325
28.777
28.8162
28.8439
28.8706
28.8706
28.8771
28.81
28.7705
28.581
28.4421
28.154
27.9953
27.8565
27.8245
27.8652
28.0045
28.2064
28.4414
28.676
28.8926
29.0832
29.2457
29.385
29.5062
28.383
28.4103
28.5052
28.5794
28.6471
28.7065
28.7569
28.8013
28.8336
28.8641
28.866
28.8741
28.8038
28.7642
28.5629
28.4217
28.1214
27.9608
27.8102
27.772
27.8051
27.9433
28.1496
28.3905
28.6321
28.8556
29.0528
29.221
29.3609
29.4856
28.2864
28.3418
28.4498
28.5361
28.6127
28.6795
28.7365
28.7867
28.8241
28.8588
28.8629
28.8742
28.8015
28.763
28.5476
28.4069
28.0939
27.9277
27.762
27.7173
27.7493
27.8873
28.0906
28.3369
28.5854
28.8159
29.0189
29.1937
29.3369
29.4663
28.1814
28.2709
28.3928
28.4917
28.5779
28.6528
28.717
28.7737
28.816
28.855
28.8614
28.8757
28.8021
28.7648
28.5364
28.4011
28.0709
27.8991
27.7206
27.6724
27.7045
27.8363
28.0334
28.2792
28.5359
28.7741
28.9837
29.1643
29.3111
29.4486
28.0706
28.2021
28.3374
28.4486
28.5445
28.6279
28.6993
28.762
28.809
28.8522
28.8609
28.8787
28.8045
28.7704
28.5325
28.4011
28.0525
27.8805
27.6912
27.6394
27.6693
27.795
27.9857
28.2265
28.4854
28.7322
28.9493
29.1366
29.2874
29.4318
27.9616
28.1363
28.2848
28.4078
28.5131
28.6044
28.6828
28.7516
28.8031
28.8509
28.8642
28.8862
28.8113
28.7823
28.5371
28.4147
28.0452
27.8756
27.6777
27.6222
27.6472
27.7653
27.9485
28.1893
28.4448
28.6946
28.9199
29.1139
29.2691
29.4186
27.863
28.0768
28.2369
28.3705
28.4843
28.5833
28.6688
28.7438
28.8003
28.8562
28.8749
28.9031
28.8276
28.8084
28.5607
28.4626
28.0802
27.9182
27.7065
27.6417
27.6569
27.7703
27.9495
28.177
28.4234
28.6723
28.902
29.1027
29.2622
29.4139
27.7916
28.0265
28.1927
28.3374
28.4597
28.5664
28.6599
28.7418
28.8078
28.8714
28.8941
28.9296
28.8562
28.8528
28.6035
28.5417
28.1499
27.9982
27.7765
27.7058
27.713
27.8116
27.9773
28.1944
28.4332
28.6737
28.8985
29.1041
29.268
29.4213
27.7448
27.9859
28.1577
28.3097
28.4407
28.5559
28.6566
28.7467
28.8205
28.8877
28.9142
28.9579
28.8894
28.9079
28.6613
28.6495
28.2556
28.119
27.8905
27.815
27.8096
27.8903
28.0354
28.2372
28.4667
28.7027
28.921
29.1192
29.2793
29.4356
27.7426
27.9662
28.1369
28.2923
28.4279
28.5489
28.6546
28.7504
28.8293
28.9009
28.9321
28.982
28.9212
28.9625
28.7282
28.7782
28.3934
28.2782
28.0494
27.9721
27.9528
28.0183
28.1402
28.3181
28.5258
28.7465
28.959
29.1584
29.327
29.485
29.9274
29.6635
29.6074
29.3435
29.1282
28.9688
28.8676
28.8208
28.8044
28.8147
28.8367
28.8833
28.9148
28.9677
28.9663
28.9742
28.8965
28.8121
28.6919
28.6289
28.6351
28.7241
28.8751
29.0538
29.246
29.4357
29.6317
29.7879
29.9623
29.9924
29.8922
29.5492
29.5192
29.2734
29.0899
28.9537
28.8673
28.8241
28.8116
28.8249
28.8481
28.8952
28.9261
28.9785
28.9759
28.986
28.9115
28.8338
28.7167
28.6506
28.6475
28.734
28.884
29.0622
29.2544
29.4444
29.6416
29.7974
29.974
30.0019
29.8524
29.4533
29.4403
29.2183
29.0599
28.9394
28.8638
28.8259
28.8168
28.8333
28.8574
28.9048
28.9342
28.987
28.9825
28.9945
28.9182
28.8364
28.7138
28.6465
28.6359
28.7214
28.8748
29.0546
29.2481
29.4381
29.6361
29.7896
29.9717
29.9976
29.7799
29.364
29.3569
29.1529
29.0183
28.9156
28.8529
28.8248
28.8201
28.8404
28.8656
28.9137
28.9415
28.9954
28.9878
29.0016
28.9181
28.8318
28.7031
28.6307
28.6116
28.6877