/*--------------------------------*- C++ -*----------------------------------*\
  =========                 |
  \\      /  F ield         | OpenFOAM: The Open Source CFD Toolbox
   \\    /   O peration     | Website:  https://openfoam.org
    \\  /    A nd           | Version:  12
     \\/     M anipulation  |
\*---------------------------------------------------------------------------*/
FoamFile
{
    format      ascii;
    class       volScalarField;
    location    "1850/air";
    object      T;
}
// * * * * * * * * * * * * * * * * * * * * * * * * * * * * * * * * * * * * * //

dimensions      [0 0 0 1 0 0 0];

internalField   nonuniform List<scalar> 
243000
(
301.375
301.29
301.238
301.203
301.175
301.152
301.132
301.115
301.099
301.084
301.07
301.056
301.042
301.029
301.015
301.002
300.987
300.972
300.955
300.936
300.914
300.889
300.859
300.827
300.795
300.764
300.737
300.713
300.662
300.599
301.701
301.457
301.338
301.267
301.219
301.184
301.156
301.132
301.112
301.094
301.078
301.062
301.047
301.033
301.018
301.003
300.988
300.972
300.955
300.936
300.914
300.888
300.86
300.829
300.797
300.766
300.738
300.713
300.679
300.622
301.944
301.628
301.453
301.346
301.274
301.223
301.185
301.154
301.129
301.107
301.088
301.07
301.054
301.038
301.022
301.006
300.99
300.973
300.955
300.935
300.914
300.889
300.861
300.832
300.801
300.771
300.742
300.716
300.688
300.643
302.16
301.825
301.6
301.45
301.349
301.277
301.225
301.184
301.152
301.125
301.102
301.081
301.062
301.045
301.027
301.01
300.993
300.975
300.956
300.936
300.914
300.89
300.864
300.835
300.806
300.776
300.748
300.721
300.694
300.659
302.346
302.049
301.789
301.594
301.454
301.354
301.281
301.226
301.184
301.15
301.121
301.096
301.074
301.054
301.035
301.016
300.998
300.979
300.959
300.938
300.916
300.893
300.867
300.84
300.811
300.782
300.754
300.727
300.701
300.671
302.481
302.265
302.009
301.778
301.597
301.461
301.36
301.285
301.228
301.183
301.147
301.116
301.09
301.066
301.045
301.024
301.004
300.984
300.963
300.942
300.919
300.896
300.871
300.844
300.817
300.789
300.761
300.734
300.707
300.68
302.538
302.404
302.201
301.975
301.769
301.599
301.466
301.365
301.288
301.228
301.181
301.143
301.111
301.083
301.058
301.034
301.012
300.99
300.968
300.946
300.923
300.9
300.875
300.849
300.823
300.795
300.768
300.741
300.715
300.689
302.568
302.489
302.349
302.157
301.95
301.759
301.598
301.47
301.368
301.289
301.227
301.178
301.137
301.103
301.074
301.047
301.022
300.998
300.975
300.951
300.928
300.904
300.88
300.855
300.829
300.802
300.776
300.749
300.723
300.698
302.593
302.544
302.456
302.313
302.129
301.934
301.753
301.597
301.47
301.369
301.288
301.224
301.172
301.13
301.095
301.063
301.035
301.008
300.983
300.958
300.934
300.91
300.885
300.861
300.835
300.809
300.783
300.757
300.731
300.707
302.616
302.584
302.529
302.434
302.291
302.112
301.925
301.749
301.596
301.469
301.366
301.284
301.218
301.165
301.121
301.084
301.051
301.021
300.993
300.966
300.941
300.916
300.891
300.867
300.842
300.817
300.791
300.766
300.74
300.716
302.641
302.616
302.58
302.521
302.421
302.277
302.103
301.919
301.746
301.593
301.465
301.36
301.276
301.209
301.154
301.109
301.071
301.036
301.005
300.976
300.949
300.924
300.899
300.874
300.849
300.825
300.8
300.775
300.749
300.725
302.666
302.645
302.621
302.582
302.517
302.414
302.269
302.096
301.915
301.741
301.588
301.458
301.352
301.266
301.197
301.142
301.095
301.056
301.021
300.989
300.96
300.932
300.907
300.882
300.857
300.833
300.808
300.784
300.759
300.735
302.69
302.672
302.653
302.626
302.584
302.515
302.409
302.263
302.09
301.908
301.734
301.579
301.447
301.339
301.252
301.183
301.127
301.08
301.039
301.004
300.972
300.943
300.916
300.89
300.866
300.841
300.817
300.793
300.769
300.745
302.714
302.697
302.68
302.659
302.63
302.585
302.513
302.403
302.255
302.081
301.898
301.722
301.564
301.431
301.323
301.236
301.166
301.11
301.062
301.022
300.986
300.955
300.927
300.9
300.875
300.851
300.827
300.803
300.779
300.755
302.735
302.719
302.703
302.686
302.664
302.633
302.584
302.507
302.394
302.243
302.067
301.881
301.703
301.545
301.411
301.303
301.217
301.148
301.091
301.044
301.004
300.97
300.939
300.911
300.885
300.861
300.837
300.813
300.789
300.766
302.753
302.737
302.722
302.706
302.687
302.664
302.631
302.579
302.498
302.379
302.225
302.045
301.857
301.677
301.519
301.387
301.28
301.195
301.127
301.072
301.026
300.987
300.954
300.924
300.897
300.871
300.847
300.823
300.8
300.777
302.766
302.75
302.735
302.72
302.704
302.685
302.661
302.625
302.569
302.482
302.358
302.198
302.014
301.825
301.645
301.489
301.36
301.256
301.173
301.107
301.053
301.008
300.971
300.938
300.909
300.883
300.858
300.834
300.81
300.788
302.773
302.758
302.744
302.73
302.715
302.699
302.679
302.653
302.615
302.553
302.46
302.329
302.163
301.976
301.785
301.609
301.456
301.331
301.23
301.15
301.087
301.035
300.992
300.956
300.924
300.896
300.87
300.846
300.822
300.799
302.775
302.761
302.747
302.734
302.72
302.705
302.689
302.669
302.641
302.598
302.531
302.43
302.292
302.12
301.93
301.741
301.57
301.423
301.302
301.206
301.129
301.068
301.018
300.977
300.942
300.912
300.884
300.859
300.834
300.811
302.769
302.756
302.744
302.731
302.719
302.706
302.692
302.675
302.654
302.624
302.577
302.503
302.393
302.246
302.07
301.88
301.695
301.53
301.389
301.274
301.183
301.11
301.051
301.004
300.964
300.93
300.9
300.873
300.848
300.824
302.755
302.743
302.732
302.721
302.709
302.698
302.687
302.674
302.658
302.636
302.603
302.55
302.468
302.349
302.194
302.015
301.828
301.65
301.492
301.358
301.249
301.162
301.093
301.037
300.991
300.953
300.92
300.89
300.864
300.839
302.731
302.72
302.711
302.701
302.692
302.684
302.674
302.665
302.653
302.637
302.614
302.577
302.517
302.426
302.298
302.138
301.959
301.777
301.606
301.456
301.33
301.227
301.145
301.079
301.025
300.981
300.943
300.911
300.882
300.856
302.696
302.688
302.681
302.674
302.668
302.662
302.655
302.648
302.64
302.629
302.614
302.588
302.546
302.479
302.378
302.243
302.081
301.905
301.729
301.567
301.426
301.307
301.21
301.132
301.068
301.016
300.973
300.936
300.904
300.875
302.651
302.647
302.642
302.639
302.636
302.632
302.629
302.625
302.62
302.613
302.603
302.587
302.558
302.51
302.435
302.327
302.187
302.025
301.854
301.687
301.534
301.401
301.289
301.198
301.122
301.061
301.01
300.967
300.93
300.898
302.595
302.594
302.594
302.595
302.595
302.595
302.596
302.595
302.594
302.592
302.587
302.577
302.559
302.527
302.472
302.389
302.274
302.133
301.974
301.81
301.651
301.508
301.383
301.277
301.189
301.117
301.057
301.006
300.964
300.927
302.524
302.529
302.535
302.541
302.547
302.552
302.557
302.561
302.564
302.566
302.565
302.56
302.55
302.528
302.49
302.428
302.339
302.221
302.081
301.928
301.772
301.624
301.489
301.371
301.27
301.186
301.115
301.055
301.005
300.962
302.438
302.45
302.462
302.474
302.486
302.497
302.506
302.514
302.52
302.524
302.526
302.525
302.519
302.505
302.479
302.436
302.37
302.278
302.162
302.028
301.884
301.739
301.601
301.475
301.363
301.267
301.184
301.114
301.054
301.004
302.323
302.341
302.359
302.376
302.392
302.405
302.415
302.423
302.428
302.429
302.428
302.424
302.418
302.407
302.39
302.361
302.317
302.253
302.168
302.063
301.943
301.815
301.686
301.562
301.448
301.344
301.253
301.174
301.106
301.048
302.087
302.099
302.113
302.125
302.134
302.138
302.136
302.128
302.117
302.102
302.086
302.069
302.054
302.039
302.024
302.007
301.986
301.954
301.908
301.847
301.771
301.683
301.59
301.494
301.4
301.312
301.23
301.157
301.092
301.035
301.055
301.044
301.057
301.07
301.074
301.068
301.056
301.041
301.023
301.004
300.987
300.969
300.953
300.939
300.927
300.919
300.913
300.905
300.891
300.871
300.846
300.818
300.787
300.755
300.723
300.69
300.658
300.629
300.602
300.576
301.188
301.155
301.132
301.112
301.095
301.079
301.065
301.051
301.038
301.026
301.013
301.001
300.988
300.975
300.962
300.947
300.931
300.913
300.891
300.865
300.834
300.798
300.76
300.723
300.691
300.663
300.64
300.621
300.601
300.564
301.236
301.193
301.161
301.135
301.113
301.094
301.077
301.062
301.047
301.033
301.02
301.006
300.993
300.979
300.965
300.949
300.932
300.913
300.891
300.866
300.836
300.802
300.766
300.731
300.699
300.67
300.646
300.626
300.606
300.575
301.279
301.231
301.194
301.163
301.138
301.115
301.096
301.078
301.061
301.045
301.03
301.015
301.001
300.986
300.97
300.953
300.935
300.915
300.892
300.867
300.838
300.806
300.772
300.739
300.708
300.679
300.654
300.633
300.612
300.586
301.324
301.276
301.235
301.201
301.171
301.145
301.121
301.1
301.08
301.062
301.045
301.028
301.011
300.995
300.977
300.959
300.939
300.918
300.895
300.869
300.841
300.81
300.779
300.747
300.716
300.688
300.663
300.64
300.619
300.596
301.375
301.33
301.289
301.251
301.217
301.185
301.157
301.131
301.107
301.086
301.065
301.045
301.026
301.007
300.988
300.967
300.946
300.923
300.898
300.872
300.844
300.815
300.785
300.754
300.725
300.697
300.672
300.648
300.627
300.605
301.437
301.402
301.362
301.321
301.28
301.241
301.206
301.174
301.144
301.117
301.092
301.068
301.046
301.023
301.001
300.978
300.954
300.929
300.903
300.876
300.848
300.82
300.791
300.762
300.733
300.706
300.681
300.657
300.635
300.613
301.518
301.503
301.468
301.421
301.369
301.318
301.273
301.231
301.193
301.159
301.128
301.099
301.071
301.045
301.019
300.992
300.966
300.938
300.91
300.882
300.854
300.826
300.797
300.769
300.742
300.715
300.69
300.666
300.644
300.622
301.605
301.611
301.59
301.544
301.485
301.422
301.361
301.306
301.257
301.214
301.174
301.138
301.104
301.072
301.041
301.011
300.981
300.95
300.92
300.89
300.861
300.833
300.805
300.777
300.75
300.725
300.7
300.676
300.653
300.632
301.693
301.713
301.705
301.669
301.611
301.541
301.469
301.401
301.339
301.283
301.233
301.187
301.145
301.106
301.07
301.034
300.999
300.965
300.932
300.9
300.87
300.841
300.813
300.786
300.759
300.734
300.71
300.686
300.663
300.642
301.778
301.804
301.807
301.786
301.737
301.668
301.59
301.51
301.435
301.367
301.304
301.248
301.197
301.149
301.105
301.063
301.023
300.984
300.948
300.913
300.881
300.851
300.822
300.795
300.769
300.744
300.72
300.696
300.673
300.652
301.86
301.886
301.897
301.888
301.853
301.794
301.717
301.632
301.546
301.465
301.39
301.322
301.259
301.202
301.149
301.099
301.053
301.008
300.967
300.929
300.894
300.863
300.833
300.806
300.78
300.755
300.731
300.707
300.684
300.663
301.942
301.963
301.977
301.977
301.956
301.91
301.842
301.759
301.667
301.576
301.489
301.408
301.334
301.265
301.202
301.143
301.089
301.038
300.991
300.949
300.911
300.877
300.846
300.817
300.791
300.766
300.742
300.719
300.696
300.674
302.023
302.039
302.051
302.055
302.044
302.012
301.958
301.883
301.793
301.697
301.6
301.507
301.42
301.34
301.265
301.196
301.132
301.074
301.021
300.973
300.931
300.894
300.861
300.831
300.804
300.778
300.754
300.731
300.708
300.686
302.103
302.113
302.122
302.126
302.12
302.099
302.059
301.997
301.915
301.821
301.719
301.617
301.518
301.426
301.34
301.259
301.185
301.117
301.057
301.003
300.955
300.914
300.878
300.847
300.818
300.792
300.767
300.743
300.72
300.698
302.182
302.186
302.189
302.191
302.187
302.173
302.143
302.095
302.027
301.94
301.841
301.734
301.627
301.523
301.425
301.333
301.248
301.17
301.1
301.039
300.985
300.939
300.9
300.865
300.834
300.807
300.781
300.757
300.733
300.712
302.256
302.255
302.254
302.252
302.247
302.235
302.213
302.176
302.121
302.048
301.956
301.852
301.741
301.629
301.52
301.417
301.32
301.232
301.152
301.082
301.021
300.97
300.925
300.887
300.853
300.824
300.797
300.772
300.748
300.726
302.325
302.319
302.314
302.308
302.301
302.289
302.271
302.242
302.198
302.138
302.059
301.963
301.854
301.74
301.624
301.51
301.403
301.304
301.214
301.134
301.065
301.006
300.956
300.913
300.876
300.843
300.814
300.788
300.763
300.741
302.384
302.375
302.366
302.357
302.347
302.334
302.317
302.293
302.258
302.209
302.143
302.06
301.96
301.848
301.73
301.611
301.495
301.385
301.285
301.195
301.117
301.05
300.992
300.944
300.902
300.867
300.835
300.807
300.781
300.757
302.432
302.42
302.409
302.397
302.384
302.37
302.353
302.331
302.302
302.263
302.209
302.139
302.052
301.949
301.834
301.714
301.592
301.475
301.365
301.266
301.178
301.102
301.036
300.981
300.934
300.894
300.859
300.828
300.8
300.776
302.466
302.453
302.439
302.425
302.411
302.395
302.378
302.358
302.333
302.3
302.256
302.199
302.125
302.035
301.93
301.814
301.692
301.571
301.454
301.346
301.248
301.163
301.089
301.027
300.973
300.928
300.888
300.854
300.823
300.797
302.483
302.469
302.455
302.44
302.425
302.409
302.392
302.373
302.35
302.322
302.286
302.24
302.18
302.103
302.011
301.905
301.789
301.669
301.549
301.434
301.328
301.234
301.152
301.081
301.02
300.968
300.923
300.885
300.85
300.821
302.484
302.47
302.456
302.442
302.427
302.411
302.394
302.376
302.356
302.331
302.302
302.264
302.216
302.153
302.076
301.983
301.878
301.764
301.646
301.528
301.417
301.315
301.224
301.145
301.076
301.017
300.966
300.922
300.883
300.85
302.462
302.45
302.437
302.424
302.411
302.397
302.382
302.366
302.349
302.329
302.304
302.274
302.235
302.185
302.122
302.045
301.954
301.851
301.74
301.625
301.511
301.405
301.307
301.219
301.142
301.075
301.017
300.966
300.922
300.884
302.418
302.408
302.398
302.388
302.377
302.366
302.354
302.341
302.327
302.311
302.292
302.267
302.237
302.198
302.148
302.086
302.012
301.924
301.825
301.718
301.608
301.5
301.398
301.304
301.219
301.144
301.078
301.02
300.97
300.926
302.35
302.344
302.337
302.33
302.323
302.315
302.307
302.297
302.286
302.273
302.258
302.239
302.214
302.184
302.146
302.099
302.042
301.972
301.89
301.797
301.698
301.594
301.492
301.395
301.304
301.222
301.149
301.083
301.026
300.976
302.257
302.254
302.251
302.246
302.242
302.237
302.231
302.224
302.215
302.204
302.191
302.175
302.155
302.132
302.103
302.068
302.027
301.976
301.914
301.841
301.758
301.668
301.574
301.479
301.388
301.302
301.224
301.152
301.088
301.032
302.131
302.13
302.127
302.124
302.121
302.118
302.113
302.107
302.098
302.086
302.072
302.055
302.036
302.016
301.992
301.966
301.938
301.905
301.863
301.811
301.748
301.677
301.599
301.518
301.435
301.355
301.278
301.207
301.141
301.082
301.945
301.935
301.928
301.924
301.922
301.92
301.915
301.907
301.894
301.877
301.857
301.836
301.814
301.791
301.768
301.746
301.728
301.708
301.685
301.653
301.611
301.56
301.502
301.44
301.376
301.311
301.248
301.187
301.13
301.077
301.607
301.571
301.553
301.548
301.55
301.55
301.543
301.53
301.511
301.489
301.466
301.443
301.419
301.396
301.373
301.352
301.334
301.317
301.297
301.274
301.248
301.218
301.184
301.149
301.112
301.075
301.037
301
300.964
300.928
300.896
300.883
300.887
300.898
300.91
300.916
300.917
300.913
300.905
300.893
300.88
300.865
300.849
300.832
300.814
300.796
300.781
300.765
300.748
300.729
300.707
300.684
300.66
300.635
300.611
300.587
300.563
300.54
300.519
300.499
301.151
301.122
301.1
301.081
301.064
301.048
301.034
301.02
301.007
300.994
300.982
300.969
300.957
300.943
300.929
300.913
300.895
300.873
300.846
300.812
300.773
300.731
300.692
300.658
300.631
300.61
300.594
300.58
300.567
300.545
301.168
301.134
301.108
301.086
301.067
301.051
301.036
301.022
301.009
300.996
300.983
300.971
300.958
300.944
300.929
300.912
300.893
300.871
300.844
300.812
300.776
300.737
300.7
300.668
300.641
300.619
300.601
300.586
300.571
300.551
301.181
301.147
301.12
301.097
301.078
301.06
301.045
301.03
301.016
301.003
300.99
300.976
300.962
300.948
300.932
300.914
300.894
300.87
300.844
300.813
300.779
300.743
300.709
300.677
300.651
300.628
300.609
300.592
300.576
300.558
301.197
301.164
301.138
301.114
301.094
301.076
301.059
301.043
301.029
301.014
301
300.985
300.97
300.955
300.937
300.918
300.896
300.871
300.844
300.814
300.782
300.749
300.716
300.686
300.66
300.637
300.617
300.599
300.582
300.564
301.218
301.188
301.162
301.139
301.118
301.099
301.081
301.063
301.047
301.031
301.015
300.999
300.982
300.965
300.946
300.924
300.901
300.874
300.846
300.816
300.785
300.754
300.724
300.695
300.67
300.647
300.626
300.607
300.589
300.571
301.245
301.22
301.195
301.173
301.151
301.13
301.11
301.091
301.072
301.054
301.036
301.018
300.999
300.979
300.958
300.934
300.908
300.88
300.851
300.821
300.79
300.76
300.731
300.704
300.679
300.656
300.635
300.615
300.597
300.578
301.282
301.26
301.239
301.217
301.195
301.172
301.15
301.128
301.106
301.085
301.064
301.042
301.021
300.998
300.974
300.947
300.918
300.888
300.857
300.827
300.797
300.768
300.74
300.713
300.689
300.666
300.645
300.624
300.605
300.586
301.328
301.311
301.294
301.274
301.252
301.227
301.202
301.176
301.15
301.124
301.099
301.074
301.048
301.022
300.995
300.965
300.933
300.899
300.867
300.835
300.805
300.776
300.749
300.723
300.699
300.676
300.655
300.634
300.614
300.595
301.384
301.375
301.365
301.349
301.327
301.299
301.269
301.237
301.205
301.174
301.144
301.114
301.083
301.053
301.021
300.987
300.951
300.914
300.879
300.846
300.815
300.786
300.759
300.733
300.709
300.687
300.665
300.644
300.624
300.605
301.45
301.451
301.446
301.434
301.413
301.383
301.349
301.312
301.274
301.236
301.199
301.162
301.126
301.09
301.053
301.014
300.974
300.934
300.895
300.86
300.827
300.797
300.77
300.744
300.721
300.698
300.676
300.655
300.634
300.615
301.526
301.531
301.531
301.523
301.505
301.476
301.439
301.398
301.353
301.309
301.265
301.221
301.178
301.135
301.093
301.048
301.003
300.958
300.916
300.877
300.842
300.811
300.783
300.757
300.733
300.71
300.688
300.667
300.645
300.625
301.606
301.614
301.617
301.613
301.599
301.573
301.536
301.492
301.443
301.392
301.341
301.29
301.239
301.189
301.14
301.089
301.038
300.988
300.941
300.899
300.861
300.828
300.798
300.771
300.746
300.723
300.701
300.679
300.657
300.637
301.69
301.699
301.704
301.702
301.691
301.669
301.635
301.591
301.54
301.484
301.426
301.368
301.31
301.252
301.195
301.137
301.08
301.024
300.973
300.926
300.884
300.848
300.816
300.787
300.761
300.737
300.714
300.692
300.67
300.649
301.777
301.786
301.791
301.79
301.781
301.763
301.733
301.691
301.64
301.581
301.519
301.454
301.389
301.324
301.259
301.194
301.129
301.068
301.01
300.959
300.913
300.872
300.837
300.806
300.779
300.753
300.729
300.706
300.684
300.663
301.866
301.873
301.876
301.875
301.868
301.852
301.825
301.787
301.738
301.68
301.615
301.546
301.475
301.403
301.331
301.258
301.187
301.119
301.055
300.998
300.947
300.902
300.863
300.829
300.799
300.771
300.746
300.722
300.699
300.678
301.955
301.959
301.96
301.957
301.949
301.935
301.911
301.877
301.832
301.776
301.712
301.641
301.565
301.488
301.41
301.331
301.253
301.178
301.108
301.044
300.987
300.937
300.893
300.855
300.822
300.792
300.765
300.74
300.715
300.694
302.039
302.041
302.039
302.034
302.025
302.011
301.989
301.958
301.917
301.866
301.804
301.734
301.657
301.577
301.494
301.41
301.326
301.245
301.168
301.098
301.034
300.978
300.929
300.887
300.85
300.817
300.787
300.76
300.734
300.712
302.117
302.116
302.112
302.105
302.094
302.079
302.058
302.029
301.992
301.945
301.888
301.821
301.746
301.665
301.58
301.493
301.405
301.319
301.236
301.159
301.089
301.027
300.972
300.925
300.883
300.846
300.813
300.783
300.756
300.731
302.185
302.181
302.175
302.166
302.153
302.137
302.116
302.09
302.056
302.013
301.961
301.899
301.828
301.75
301.666
301.578
301.488
301.398
301.311
301.228
301.152
301.083
301.022
300.969
300.922
300.881
300.844
300.811
300.78
300.754
302.238
302.233
302.225
302.214
302.201
302.184
302.164
302.138
302.107
302.069
302.022
301.966
301.901
301.827
301.747
301.661
301.572
301.482
301.391
301.304
301.222
301.148
301.08
301.021
300.968
300.921
300.88
300.843
300.809
300.78
302.273
302.267
302.259
302.248
302.234
302.217
302.197
302.173
302.145
302.11
302.069
302.019
301.961
301.895
301.821
301.74
301.655
301.566
301.476
301.386
301.3
301.22
301.147
301.081
301.022
300.97
300.923
300.88
300.843
300.81
302.288
302.282
302.274
302.263
302.25
302.234
302.215
302.194
302.168
302.138
302.101
302.058
302.007
301.949
301.883
301.811
301.732
301.649
301.562
301.473
301.385
301.301
301.222
301.15
301.085
301.026
300.973
300.925
300.882
300.845
302.279
302.273
302.267
302.258
302.248
302.234
302.218
302.198
302.175
302.148
302.116
302.078
302.035
301.985
301.929
301.866
301.797
301.723
301.643
301.558
301.472
301.387
301.305
301.227
301.156
301.09
301.031
300.977
300.929
300.887
302.243
302.24
302.236
302.23
302.222
302.211
302.197
302.181
302.161
302.138
302.11
302.078
302.039
301.996
301.947
301.894
301.836
301.773
301.705
301.631
301.552
301.471
301.389
301.31
301.234
301.163
301.097
301.037
300.982
300.934
302.18
302.18
302.178
302.174
302.168
302.16
302.149
302.136
302.118
302.097
302.072
302.043
302.008
301.968
301.925
301.878
301.83
301.78
301.727
301.668
301.604
301.535
301.461
301.386
301.31
301.236
301.166
301.1
301.04
300.987
302.084
302.086
302.085
302.083
302.078
302.071
302.062
302.05
302.034
302.013
301.988
301.959
301.925
301.886
301.844
301.8
301.758
301.719
301.681
301.641
301.595
301.545
301.489
301.426
301.36
301.292
301.224
301.158
301.095
301.038
301.946
301.943
301.938
301.934
301.93
301.924
301.916
301.905
301.888
301.866
301.84
301.807
301.77
301.729
301.683
301.637
301.598
301.565
301.539
301.515
301.49
301.463
301.429
301.388
301.34
301.288
301.232
301.175
301.119
301.065
301.735
301.72
301.706
301.696
301.691
301.688
301.683
301.673
301.655
301.631
301.601
301.567
301.53
301.489
301.444
301.399
301.363
301.333
301.31
301.291
301.273
301.255
301.237
301.219
301.199
301.174
301.139
301.1
301.059
301.018
301.387
301.361
301.344
301.338
301.339
301.342
301.34
301.332
301.318
301.296
301.269
301.239
301.205
301.167
301.126
301.083
301.048
301.019
300.997
300.979
300.964
300.95
300.937
300.925
300.911
300.897
300.885
300.87
300.851
300.828
300.818
300.815
300.821
300.835
300.851
300.865
300.875
300.879
300.876
300.867
300.852
300.832
300.808
300.779
300.745
300.709
300.679
300.652
300.63
300.611
300.595
300.58
300.566
300.554
300.542
300.529
300.516
300.501
300.486
300.471
301.137
301.105
301.081
301.061
301.043
301.027
301.012
300.997
300.984
300.971
300.958
300.945
300.932
300.918
300.903
300.886
300.865
300.84
300.806
300.764
300.719
300.676
300.642
300.616
300.597
300.583
300.571
300.562
300.552
300.539
301.141
301.103
301.075
301.053
301.035
301.019
301.004
300.991
300.978
300.966
300.954
300.942
300.929
300.915
300.899
300.881
300.86
300.834
300.803
300.764
300.724
300.685
300.653
300.627
300.607
300.592
300.579
300.567
300.556
300.541
301.141
301.105
301.078
301.056
301.037
301.021
301.007
300.994
300.981
300.968
300.956
300.943
300.93
300.915
300.899
300.88
300.857
300.831
300.8
300.765
300.728
300.693
300.662
300.637
300.617
300.601
300.586
300.573
300.56
300.545
301.144
301.112
301.086
301.064
301.046
301.03
301.015
301.002
300.988
300.976
300.963
300.949
300.935
300.919
300.901
300.881
300.857
300.83
300.799
300.766
300.732
300.699
300.671
300.647
300.627
300.61
300.594
300.58
300.566
300.55
301.152
301.124
301.1
301.079
301.061
301.045
301.03
301.015
301.001
300.988
300.974
300.959
300.944
300.926
300.907
300.884
300.858
300.83
300.8
300.768
300.736
300.707
300.68
300.657
300.637
300.619
300.603
300.587
300.572
300.555
301.167
301.143
301.121
301.102
301.084
301.067
301.051
301.036
301.02
301.005
300.99
300.974
300.956
300.937
300.916
300.891
300.863
300.833
300.802
300.771
300.742
300.714
300.689
300.667
300.647
300.629
300.612
300.595
300.578
300.561
301.19
301.17
301.151
301.133
301.115
301.098
301.08
301.063
301.046
301.029
301.012
300.993
300.974
300.952
300.928
300.9
300.87
300.838
300.807
300.777
300.749
300.723
300.699
300.677
300.658
300.639
300.621
300.604
300.586
300.568
301.223
301.207
301.191
301.173
301.155
301.136
301.117
301.098
301.079
301.059
301.04
301.019
300.996
300.972
300.945
300.914
300.881
300.847
300.815
300.785
300.757
300.732
300.709
300.688
300.669
300.65
300.631
300.613
300.594
300.576
301.265
301.254
301.24
301.223
301.205
301.185
301.164
301.142
301.12
301.097
301.075
301.051
301.025
300.997
300.967
300.932
300.895
300.859
300.826
300.795
300.768
300.743
300.72
300.7
300.68
300.661
300.642
300.623
300.603
300.584
301.317
301.31
301.299
301.285
301.266
301.245
301.221
301.196
301.17
301.144
301.117
301.09
301.06
301.028
300.994
300.955
300.915
300.876
300.84
300.809
300.781
300.756
300.733
300.712
300.692
300.673
300.653
300.633
300.613
300.593
301.378
301.376
301.368
301.354
301.336
301.314
301.288
301.26
301.23
301.2
301.168
301.136
301.102
301.066
301.026
300.983
300.939
300.897
300.859
300.826
300.797
300.771
300.747
300.726
300.706
300.686
300.665
300.645
300.624
300.604
301.449
301.449
301.443
301.431
301.414
301.391
301.363
301.332
301.299
301.264
301.228
301.191
301.152
301.111
301.066
301.018
300.97
300.924
300.883
300.848
300.816
300.789
300.764
300.742
300.72
300.699
300.678
300.657
300.635
300.615
301.525
301.527
301.523
301.513
301.496
301.473
301.445
301.412
301.375
301.336
301.296
301.254
301.209
301.162
301.112
301.059
301.007
300.957
300.913
300.874
300.84
300.81
300.784
300.76
300.737
300.715
300.693
300.671
300.649
300.628
301.606
301.61
301.607
301.598
301.582
301.56
301.531
301.497
301.458
301.415
301.37
301.323
301.274
301.221
301.166
301.108
301.051
300.997
300.949
300.907
300.869
300.836
300.807
300.78
300.756
300.732
300.709
300.686
300.663
300.642
301.69
301.695
301.693
301.684
301.669
301.647
301.619
301.584
301.543
301.499
301.45
301.398
301.344
301.287
301.226
301.164
301.102
301.045
300.993
300.946
300.904
300.867
300.835
300.805
300.778
300.753
300.728
300.704
300.679
300.657
301.775
301.781
301.778
301.77
301.756
301.734
301.706
301.671
301.63
301.584
301.533
301.478
301.419
301.358
301.293
301.226
301.161
301.1
301.043
300.992
300.945
300.904
300.868
300.835
300.805
300.777
300.75
300.724
300.698
300.674
301.859
301.864
301.862
301.853
301.839
301.818
301.79
301.756
301.715
301.668
301.616
301.559
301.497
301.433
301.366
301.295
301.227
301.162
301.101
301.045
300.993
300.948
300.907
300.87
300.836
300.805
300.775
300.746
300.718
300.694
301.937
301.942
301.939
301.931
301.916
301.896
301.869
301.835
301.795
301.749
301.697
301.639
301.576
301.51
301.441
301.369
301.298
301.23
301.165
301.105
301.049
300.999
300.953
300.911
300.873
300.838
300.804
300.773
300.742
300.716
302.006
302.01
302.008
302
301.985
301.965
301.939
301.907
301.868
301.823
301.772
301.715
301.652
301.587
301.517
301.445
301.374
301.304
301.236
301.172
301.112
301.057
301.006
300.96
300.916
300.876
300.839
300.803
300.77
300.74
302.062
302.066
302.064
302.056
302.043
302.023
301.998
301.968
301.931
301.888
301.84
301.785
301.725
301.661
301.593
301.522
301.452
301.382
301.313
301.246
301.183
301.123
301.067
301.015
300.967
300.921
300.878
300.839
300.801
300.769
302.101
302.105
302.104
302.097
302.085
302.067
302.044
302.016
301.982
301.942
301.897
301.845
301.789
301.728
301.664
301.597
301.529
301.461
301.392
301.324
301.259
301.196
301.135
301.078
301.024
300.972
300.924
300.88
300.838
300.802
302.119
302.124
302.124
302.119
302.11
302.095
302.074
302.049
302.018
301.982
301.94
301.893
301.842
301.786
301.726
301.663
301.599
301.534
301.468
301.403
301.337
301.272
301.209
301.147
301.087
301.03
300.977
300.926
300.88
300.839
302.114
302.12
302.122
302.121
302.114
302.102
302.085
302.063
302.035
302.002
301.965
301.923
301.876
301.824
301.769
301.709
301.649
301.589
301.529
301.469
301.408
301.346
301.283
301.219
301.155
301.094
301.034
300.979
300.927
300.881
302.083
302.091
302.096
302.097
302.094
302.086
302.072
302.053
302.029
302.001
301.967
301.927
301.883
301.833
301.779
301.72
301.661
301.606
301.554
301.504
301.454
301.401
301.344
301.284
301.221
301.157
301.095
301.035
300.978
300.928
302.023
302.034
302.041
302.044
302.044
302.038
302.027
302.011
301.99
301.963
301.931
301.892
301.848
301.797
301.74
301.675
301.614
301.561
301.517
301.48
301.446
301.411
301.37
301.322
301.269
301.21
301.149
301.088
301.029
300.976
301.93
301.941
301.948
301.952
301.952
301.947
301.938
301.924
301.904
301.878
301.845
301.805
301.758
301.701
301.639
301.567
301.504
301.452
301.414
301.387
301.366
301.348
301.33
301.305
301.27
301.228
301.177
301.123
301.068
301.015
301.791
301.796
301.799
301.799
301.799
301.795
301.788
301.776
301.757
301.731
301.697
301.653
301.603
301.543
301.476
301.4
301.336
301.285
301.251
301.231
301.219
301.212
301.208
301.202
301.194
301.176
301.146
301.108
301.064
301.019
301.576
301.572
301.566
301.563
301.562
301.563
301.561
301.553
301.536
301.51
301.476
301.433
301.385
301.325
301.258
301.179
301.117
301.068
301.037
301.019
301.011
301.009
301.011
301.016
301.02
301.021
301.018
301.004
300.979
300.948
301.239
301.232
301.228
301.231
301.238
301.246
301.25
301.248
301.238
301.219
301.191
301.155
301.111
301.056
300.992
300.917
300.859
300.813
300.783
300.765
300.757
300.754
300.757
300.762
300.768
300.772
300.774
300.773
300.767
300.753
300.764
300.773
300.788
300.808
300.831
300.852
300.869
300.878
300.88
300.873
300.857
300.832
300.799
300.754
300.699
300.635
300.585
300.545
300.517
300.498
300.487
300.481
300.478
300.478
300.479
300.479
300.477
300.472
300.464
300.454
301.132
301.095
301.068
301.046
301.027
301.009
300.993
300.978
300.964
300.95
300.937
300.924
300.911
300.896
300.881
300.862
300.84
300.81
300.768
300.719
300.672
300.635
300.608
300.589
300.576
300.566
300.558
300.551
300.543
300.531
301.125
301.08
301.05
301.027
301.008
300.992
300.978
300.965
300.952
300.94
300.928
300.916
300.903
300.889
300.873
300.854
300.831
300.801
300.764
300.721
300.679
300.645
300.619
300.601
300.588
300.577
300.567
300.558
300.547
300.534
301.11
301.069
301.04
301.019
301.001
300.987
300.973
300.961
300.949
300.938
300.926
300.914
300.901
300.886
300.869
300.849
300.825
300.795
300.76
300.722
300.685
300.654
300.63
300.612
300.598
300.587
300.576
300.564
300.553
300.538
301.1
301.066
301.041
301.021
301.004
300.99
300.977
300.965
300.953
300.941
300.929
300.916
300.902
300.887
300.868
300.847
300.821
300.792
300.759
300.723
300.69
300.662
300.64
300.623
300.609