/*--------------------------------*- C++ -*----------------------------------*\
  =========                 |
  \\      /  F ield         | OpenFOAM: The Open Source CFD Toolbox
   \\    /   O peration     | Website:  https://openfoam.org
    \\  /    A nd           | Version:  12
     \\/     M anipulation  |
\*---------------------------------------------------------------------------*/
FoamFile
{
    format      ascii;
    class       volScalarField;
    location    "50/porous";
    object      rho;
}
// * * * * * * * * * * * * * * * * * * * * * * * * * * * * * * * * * * * * * //

dimensions      [1 -3 0 0 0 0 0];

internalField   nonuniform List<scalar> 
140000
(
933.892
933.903
933.992
934.358
935.333
937.258
940.298
944.336
949.007
953.833
958.495
962.506
965.762
968.271
970.12
971.428
972.321
972.91
973.287
973.521
973.663
973.746
973.794
973.82
973.835
973.843
973.847
973.85
973.851
973.851
973.852
973.852
973.852
973.852
973.852
973.852
973.852
973.852
973.852
973.852
973.852
973.852
973.852
973.852
973.852
973.852
973.852
973.852
973.852
973.852
973.852
973.852
973.852
973.852
973.852
973.852
973.852
973.852
973.851
973.85
973.77
973.715
973.673
973.638
973.608
973.584
973.563
973.545
973.531
973.521
933.892
933.905
933.995
934.344
935.228
936.923
939.578
943.134
947.34
951.837
956.351
960.427
963.9
966.709
968.877
970.484
971.631
972.422
972.951
973.294
973.509
973.642
973.721
973.767
973.794
973.809
973.817
973.821
973.824
973.825
973.826
973.826
973.826
973.826
973.827
973.827
973.827
973.827
973.827
973.827
973.827
973.827
973.827
973.826
973.826
973.826
973.826
973.826
973.826
973.826
973.826
973.826
973.826
973.826
973.826
973.826
973.826
973.826
973.825
973.824
973.761
973.715
973.677
973.645
973.617
973.593
973.572
973.554
973.539
973.527
933.892
933.905
933.995
934.337
935.192
936.82
939.365
942.793
946.886
951.312
955.809
959.918
963.456
966.344
968.592
970.27
971.476
972.313
972.876
973.243
973.476
973.619
973.706
973.756
973.785
973.802
973.811
973.816
973.819
973.82
973.821
973.821
973.822
973.822
973.822
973.822
973.822
973.822
973.822
973.822
973.822
973.822
973.822
973.822
973.822
973.822
973.822
973.821
973.821
973.821
973.821
973.821
973.821
973.821
973.821
973.821
973.821
973.821
973.82
973.819
973.758
973.713
973.677
973.646
973.619
973.595
973.574
973.556
973.541
973.529
933.892
933.905
933.995
934.338
935.196
936.825
939.371
942.797
946.889
951.313
955.807
959.912
963.447
966.333
968.581
970.26
971.467
972.306
972.871
973.239
973.473
973.617
973.704
973.755
973.785
973.801
973.81
973.815
973.818
973.82
973.82
973.821
973.821
973.821
973.821
973.821
973.821
973.822
973.822
973.822
973.822
973.821
973.821
973.821
973.821
973.821
973.821
973.821
973.821
973.821
973.821
973.821
973.821
973.821
973.821
973.821
973.821
973.82
973.82
973.819
973.758
973.713
973.677
973.646
973.619
973.595
973.574
973.556
973.541
973.529
933.892
933.905
933.995
934.337
935.195
936.828
939.378
942.81
946.906
951.332
955.826
959.928
963.46
966.344
968.589
970.265
971.471
972.309
972.872
973.24
973.473
973.617
973.704
973.755
973.784
973.801
973.81
973.815
973.818
973.82
973.82
973.821
973.821
973.821
973.821
973.821
973.821
973.821
973.821
973.822
973.821
973.821
973.821
973.821
973.821
973.821
973.821
973.821
973.821
973.821
973.821
973.821
973.821
973.821
973.821
973.821
973.821
973.82
973.82
973.819
973.758
973.713
973.677
973.646
973.619
973.595
973.574
973.556
973.541
973.529
933.892
933.905
933.994
934.338
935.2
936.84
939.403
942.848
946.953
951.383
955.875
959.97
963.494
966.368
968.606
970.277
971.479
972.313
972.875
973.242
973.474
973.618
973.704
973.755
973.785
973.801
973.81
973.815
973.818
973.82
973.821
973.821
973.821
973.821
973.821
973.821
973.821
973.822
973.822
973.822
973.822
973.822
973.821
973.821
973.821
973.821
973.821
973.821
973.821
973.821
973.821
973.821
973.821
973.821
973.821
973.821
973.821
973.82
973.82
973.818
973.758
973.713
973.677
973.646
973.619
973.595
973.574
973.556
973.541
973.529
933.892
933.904
933.994
934.337
935.199
936.842
939.41
942.86
946.971
951.404
955.895
959.989
963.509
966.38
968.615
970.283
971.483
972.316
972.877
973.243
973.475
973.618
973.705
973.755
973.785
973.801
973.81
973.816
973.818
973.82
973.821
973.821
973.821
973.821
973.821
973.821
973.822
973.822
973.822
973.822
973.822
973.822
973.822
973.821
973.821
973.821
973.821
973.821
973.821
973.821
973.821
973.821
973.821
973.821
973.821
973.821
973.821
973.82
973.82
973.818
973.758
973.713
973.677
973.646
973.619
973.595
973.574
973.556
973.541
973.529
933.892
933.904
933.993
934.336
935.199
936.845
939.419
942.876
946.993
951.429
955.92
960.011
963.527
966.394
968.625
970.29
971.487
972.319
972.878
973.244
973.475
973.619
973.705
973.756
973.785
973.801
973.811
973.816
973.818
973.82
973.821
973.821
973.821
973.821
973.821
973.822
973.822
973.822
973.822
973.822
973.822
973.822
973.822
973.822
973.821
973.821
973.821
973.821
973.821
973.821
973.821
973.821
973.821
973.821
973.821
973.821
973.821
973.82
973.82
973.818
973.758
973.713
973.677
973.646
973.619
973.595
973.574
973.556
973.541
973.529
933.892
933.904
933.993
934.335
935.197
936.843
939.419
942.879
946.999
951.438
955.931
960.021
963.536
966.401
968.63
970.294
971.49
972.321
972.88
973.244
973.476
973.619
973.705
973.756
973.785
973.802
973.811
973.816
973.818
973.82
973.821
973.821
973.821
973.821
973.822
973.822
973.822
973.822
973.822
973.822
973.822
973.822
973.822
973.822
973.822
973.821
973.821
973.821
973.821
973.821
973.821
973.821
973.821
973.821
973.821
973.821
973.821
973.82
973.82
973.818
973.758
973.713
973.677
973.646
973.619
973.595
973.574
973.556
973.541
973.529
933.892
933.904
933.993
934.334
935.195
936.842
939.419
942.882
947.006
951.447
955.94
960.031
963.544
966.408
968.635
970.297
971.492
972.322
972.881
973.245
973.476
973.619
973.705
973.756
973.785
973.802
973.811
973.816
973.819
973.82
973.821
973.821
973.821
973.821
973.822
973.822
973.822
973.822
973.822
973.822
973.822
973.822
973.822
973.822
973.822
973.821
973.821
973.821
973.821
973.821
973.821
973.821
973.821
973.821
973.821
973.821
973.821
973.82
973.82
973.819
973.758
973.713
973.677
973.646
973.619
973.595
973.574
973.556
973.541
973.529
933.892
933.904
933.992
934.332
935.192
936.838
939.415
942.88
947.005
951.448
955.943
960.034
963.548
966.411
968.638
970.299
971.493
972.323
972.881
973.245
973.477
973.619
973.705
973.756
973.785
973.802
973.811
973.816
973.819
973.82
973.821
973.821
973.821
973.822
973.822
973.822
973.822
973.822
973.822
973.822
973.822
973.822
973.822
973.822
973.822
973.822
973.821
973.821
973.821
973.821
973.821
973.821
973.821
973.821
973.821
973.821
973.821
973.82
973.82
973.819
973.758
973.713
973.677
973.646
973.619
973.595
973.574
973.556
973.541
973.529
933.892
933.904
933.992
934.331
935.19
936.834
939.411
942.876
947.003
951.448
955.944
960.036
963.55
966.413
968.639
970.3
971.494
972.324
972.882
973.246
973.477
973.619
973.705
973.756
973.785
973.802
973.811
973.816
973.819
973.82
973.821
973.821
973.821
973.822
973.822
973.822
973.822
973.822
973.822
973.822
973.822
973.822
973.822
973.822
973.822
973.822
973.822
973.821
973.821
973.821
973.821
973.821
973.821
973.821
973.821
973.821
973.821
973.82
973.82
973.819
973.758
973.713
973.677
973.646
973.619
973.595
973.574
973.556
973.541
973.529
933.892
933.904
933.992
934.33
935.187
936.83
939.405
942.87
946.997
951.443
955.941
960.035
963.549
966.413
968.639
970.301
971.495
972.324
972.882
973.246
973.477
973.62
973.706
973.756
973.785
973.802
973.811
973.816
973.819
973.82
973.821
973.821
973.821
973.822
973.822
973.822
973.822
973.822
973.822
973.822
973.822
973.822
973.822
973.822
973.822
973.822
973.822
973.821
973.821
973.821
973.821
973.821
973.821
973.821
973.821
973.821
973.821
973.82
973.82
973.819
973.758
973.713
973.677
973.646
973.619
973.595
973.574
973.556
973.541
973.529
933.892
933.904
933.991
934.329
935.185
936.825
939.399
942.863
946.99
951.437
955.937
960.031
963.547
966.411
968.639
970.3
971.494
972.324
972.882
973.246
973.477
973.62
973.706
973.756
973.785
973.802
973.811
973.816
973.819
973.82
973.821
973.821
973.822
973.822
973.822
973.822
973.822
973.822
973.822
973.822
973.822
973.822
973.822
973.822
973.822
973.822
973.822
973.822
973.821
973.821
973.821
973.821
973.821
973.821
973.821
973.821
973.821
973.82
973.82
973.819
973.758
973.713
973.677
973.646
973.619
973.595
973.574
973.556
973.541
973.529
933.892
933.904
933.991
934.328
935.182
936.82
939.392
942.855
946.982
951.43
955.93
960.026
963.544
966.409
968.637
970.299
971.494
972.323
972.881
973.246
973.477
973.62
973.706
973.756
973.786
973.802
973.811
973.816
973.819
973.82
973.821
973.821
973.822
973.822
973.822
973.822
973.822
973.822
973.822
973.822
973.822
973.822
973.822
973.822
973.822
973.822
973.822
973.822
973.821
973.821
973.821
973.821
973.821
973.821
973.821
973.821
973.821
973.82
973.82
973.819
973.758
973.713
973.677
973.646
973.619
973.595
973.574
973.556
973.541
973.529
933.892
933.904
933.991
934.327
935.179
936.815
939.385
942.846
946.972
951.42
955.922
960.02
963.539
966.405
968.634
970.297
971.493
972.323
972.881
973.246
973.477
973.62
973.706
973.756
973.786
973.802
973.811
973.816
973.819
973.82
973.821
973.821
973.822
973.822
973.822
973.822
973.822
973.822
973.822
973.822
973.822
973.822
973.822
973.822
973.822
973.822
973.822
973.822
973.822
973.821
973.821
973.821
973.821
973.821
973.821
973.821
973.821
973.821
973.82
973.819
973.758
973.713
973.677
973.646
973.619
973.595
973.574
973.556
973.541
973.529
933.892
933.904
933.991
934.326
935.177
936.811
939.377
942.836
946.962
951.41
955.913
960.012
963.533
966.401
968.631
970.295
971.491
972.322
972.881
973.245
973.477
973.62
973.706
973.756
973.786
973.802
973.811
973.816
973.819
973.82
973.821
973.821
973.822
973.822
973.822
973.822
973.822
973.822
973.822
973.822
973.822
973.822
973.822
973.822
973.822
973.822
973.822
973.822
973.822
973.821
973.821
973.821
973.821
973.821
973.821
973.821
973.821
973.821
973.82
973.819
973.758
973.713
973.677
973.646
973.619
973.595
973.574
973.556
973.541
973.529
933.892
933.904
933.991
934.325
935.174
936.806
939.369
942.826
946.95
951.399
955.903
960.004
963.526
966.396
968.628
970.293
971.49
972.321
972.88
973.245
973.476
973.62
973.706
973.756
973.786
973.802
973.811
973.816
973.819
973.82
973.821
973.822
973.822
973.822
973.822
973.822
973.822
973.822
973.822
973.822
973.822
973.822
973.822
973.822
973.822
973.822
973.822
973.822
973.822
973.821
973.821
973.821
973.821
973.821
973.821
973.821
973.821
973.821
973.82
973.819
973.758
973.713
973.677
973.646
973.619
973.595
973.574
973.556
973.541
973.529
933.892
933.904
933.99
934.324
935.172
936.801
939.362
942.816
946.939
951.387
955.892
959.994
963.518
966.39
968.624
970.29
971.488
972.32
972.879
973.245
973.476
973.619
973.706
973.756
973.786
973.802
973.811
973.816
973.819
973.82
973.821
973.822
973.822
973.822
973.822
973.822
973.822
973.822
973.822
973.822
973.822
973.822
973.822
973.822
973.822
973.822
973.822
973.822
973.822
973.822
973.821
973.821
973.821
973.821
973.821
973.821
973.821
973.821
973.82
973.819
973.758
973.713
973.677
973.646
973.619
973.595
973.574
973.556
973.541
973.529
933.892
933.904
933.99
934.323
935.169
936.796
939.354
942.805
946.926
951.374
955.88
959.984
963.51
966.384
968.619
970.287
971.486
972.318
972.878
973.244
973.476
973.619
973.706
973.756
973.786
973.802
973.811
973.816
973.819
973.82
973.821
973.822
973.822
973.822
973.822
973.822
973.822
973.822
973.822
973.822
973.822
973.822
973.822
973.822
973.822
973.822
973.822
973.822
973.822
973.822
973.821
973.821
973.821
973.821
973.821
973.821
973.821
973.821
973.82
973.819
973.758
973.713
973.677
973.646
973.619
973.595
973.574
973.556
973.541
973.529
933.892
933.904
933.99
934.322
935.167
936.791
939.346
942.794
946.913
951.36
955.867
959.973
963.501
966.377
968.614
970.283
971.483
972.317
972.877
973.243
973.476
973.619
973.706
973.756
973.786
973.802
973.811
973.816
973.819
973.82
973.821
973.822
973.822
973.822
973.822
973.822
973.822
973.822
973.822
973.822
973.822
973.822
973.822
973.822
973.822
973.822
973.822
973.822
973.822
973.822
973.822
973.821
973.821
973.821
973.821
973.821
973.821
973.821
973.82
973.819
973.758
973.713
973.677
973.646
973.619
973.595
973.574
973.556
973.541
973.529
933.892
933.904
933.99
934.322
935.165
936.786
939.337
942.783
946.9
951.346
955.854
959.961
963.491
966.369
968.608
970.279
971.481
972.315
972.876
973.243
973.475
973.619
973.705
973.756
973.786
973.802
973.811
973.816
973.819
973.82
973.821
973.822
973.822
973.822
973.822
973.822
973.822
973.822
973.822
973.822
973.822
973.822
973.822
973.822
973.822
973.822
973.822
973.822
973.822
973.822
973.822
973.821
973.821
973.821
973.821
973.821
973.821
973.821
973.82
973.819
973.758
973.713
973.677
973.646
973.619
973.595
973.574
973.556
973.541
973.529
933.892
933.904
933.99
934.321
935.162
936.781
939.329
942.772
946.886
951.332
955.84
959.949
963.481
966.361
968.603
970.275
971.478
972.313
972.875
973.242
973.475
973.619
973.705
973.756
973.786
973.802
973.811
973.816
973.819
973.82
973.821
973.822
973.822
973.822
973.822
973.822
973.822
973.822
973.822
973.822
973.822
973.822
973.822
973.822
973.822
973.822
973.822
973.822
973.822
973.822
973.822
973.821
973.821
973.821
973.821
973.821
973.821
973.821
973.82
973.819
973.758
973.713
973.677
973.646
973.619
973.595
973.574
973.556
973.541
973.529
933.892
933.904
933.989
934.32
935.16
936.776
939.321
942.76
946.872
951.317
955.825
959.936
963.47
966.353
968.596
970.271
971.475
972.311
972.874
973.241
973.475
973.618
973.705
973.756
973.786
973.802
973.811
973.816
973.819
973.82
973.821
973.822
973.822
973.822
973.822
973.822
973.822
973.822
973.822
973.822
973.822
973.822
973.822
973.822
973.822
973.822
973.822
973.822
973.822
973.822
973.822
973.821
973.821
973.821
973.821
973.821
973.821
973.821
973.82
973.819
973.758
973.713
973.677
973.646
973.619
973.595
973.574
973.556
973.541
973.529
933.892
933.904
933.989
934.319
935.158
936.771
939.313
942.749
946.859
951.303
955.812
959.924
963.461
966.345
968.591
970.267
971.472
972.31
972.873
973.241
973.474
973.618
973.705
973.756
973.786
973.802
973.811
973.816
973.819
973.82
973.821
973.822
973.822
973.822
973.822
973.822
973.822
973.822
973.822
973.822
973.822
973.822
973.822
973.822
973.822
973.822
973.822
973.822
973.822
973.822
973.822
973.822
973.821
973.821
973.821
973.821
973.821
973.821
973.82
973.819
973.758
973.713
973.677
973.646
973.619
973.595
973.574
973.556
973.541
973.529
933.892
933.904
933.989
934.319
935.158
936.771
939.313
942.749
946.86
951.303
955.812
959.924
963.461
966.346
968.591
970.267
971.472
972.31
972.873
973.241
973.474
973.618
973.705
973.756
973.786
973.802
973.811
973.816
973.819
973.82
973.821
973.822
973.822
973.822
973.822
973.822
973.822
973.822
973.822
973.822
973.822
973.822
973.822
973.822
973.822
973.822
973.822
973.822
973.822
973.822
973.822
973.822
973.821
973.821
973.821
973.821
973.821
973.821
973.82
973.819
973.758
973.713
973.677
973.646
973.619
973.595
973.574
973.556
973.541
973.529
933.892
933.904
933.989
934.32
935.16
936.776
939.321
942.76
946.873
951.318
955.826
959.937
963.472
966.354
968.597
970.272
971.475
972.312
972.874
973.242
973.475
973.619
973.705
973.756
973.786
973.802
973.811
973.816
973.819
973.82
973.821
973.822
973.822
973.822
973.822
973.822
973.822
973.822
973.822
973.822
973.822
973.822
973.822
973.822
973.822
973.822
973.822
973.822
973.822
973.822
973.822
973.821
973.821
973.821
973.821
973.821
973.821
973.821
973.82
973.819
973.758
973.713
973.677
973.646
973.619
973.595
973.574
973.556
973.541
973.529
933.892
933.904
933.99
934.321
935.162
936.781
939.33
942.772
946.888
951.333
955.842
959.951
963.483
966.363
968.604
970.276
971.479
972.314
972.876
973.242
973.475
973.619
973.705
973.756
973.786
973.802
973.811
973.816
973.819
973.82
973.821
973.822
973.822
973.822
973.822
973.822
973.822
973.822
973.822
973.822
973.822
973.822
973.822
973.822
973.822
973.822
973.822
973.822
973.822
973.822
973.822
973.821
973.821
973.821
973.821
973.821
973.821
973.821
973.82
973.819
973.758
973.713
973.677
973.646
973.619
973.595
973.574
973.556
973.541
973.529
933.892
933.904
933.99
934.322
935.165
936.786
939.338
942.784
946.902
951.349
955.856
959.964
963.494
966.372
968.61
970.281
971.482
972.316
972.877
973.243
973.476
973.619
973.706
973.756
973.786
973.802
973.811
973.816
973.819
973.82
973.821
973.822
973.822
973.822
973.822
973.822
973.822
973.822
973.822
973.822
973.822
973.822
973.822
973.822
973.822
973.822
973.822
973.822
973.822
973.822
973.822
973.821
973.821
973.821
973.821
973.821
973.821
973.821
973.82
973.819
973.758
973.713
973.677
973.646
973.619
973.595
973.574
973.556
973.541
973.529
933.892
933.904
933.99
934.322
935.167
936.791
939.346
942.796
946.916
951.363
955.871
959.976
963.504
966.38
968.616
970.285
971.485
972.318
972.878
973.244
973.476
973.619
973.706
973.756
973.786
973.802
973.811
973.816
973.819
973.82
973.821
973.822
973.822
973.822
973.822
973.822
973.822
973.822
973.822
973.822
973.822
973.822
973.822
973.822
973.822
973.822
973.822
973.822
973.822
973.822
973.822
973.821
973.821
973.821
973.821
973.821
973.821
973.821
973.82
973.819
973.758
973.713
973.677
973.646
973.619
973.595
973.574
973.556
973.541
973.529
933.892
933.904
933.99
934.323
935.169
936.796
939.355
942.807
946.929
951.377
955.884
959.988
963.514
966.387
968.622
970.289
971.487
972.319
972.879
973.245
973.476
973.619
973.706
973.756
973.786
973.802
973.811
973.816
973.819
973.82
973.821
973.822
973.822
973.822
973.822
973.822
973.822
973.822
973.822
973.822
973.822
973.822
973.822
973.822
973.822
973.822
973.822
973.822
973.822
973.822
973.821
973.821
973.821
973.821
973.821
973.821
973.821
973.821
973.82
973.819
973.758
973.713
973.677
973.646
973.619
973.595
973.574
973.556
973.541
973.529
933.892
933.904
933.99
934.324
935.172
936.801
939.363
942.818
946.942
951.391
955.897
959.999
963.523
966.394
968.627
970.293
971.49
972.321
972.88
973.245
973.477
973.62
973.706
973.756
973.786
973.802
973.811
973.816
973.819
973.82
973.821
973.822
973.822
973.822
973.822
973.822
973.822
973.822
973.822
973.822
973.822
973.822
973.822
973.822
973.822
973.822
973.822
973.822
973.822
973.822
973.821
973.821
973.821
973.821
973.821
973.821
973.821
973.821
973.82
973.819
973.758
973.713
973.677
973.646
973.619
973.595
973.574
973.556
973.541
973.529
933.892
933.904
933.99
934.325
935.174
936.806
939.371
942.829
946.954
951.404
955.909
960.01
963.532
966.401
968.632
970.296
971.492
972.322
972.881
973.246
973.477
973.62
973.706
973.756
973.786
973.802
973.811
973.816
973.819
973.82
973.821
973.822
973.822
973.822
973.822
973.822
973.822
973.822
973.822
973.822
973.822
973.822
973.822
973.822
973.822
973.822
973.822
973.822
973.822
973.821
973.821
973.821
973.821
973.821
973.821
973.821
973.821
973.821
973.82
973.819
973.758
973.713
973.677
973.646
973.619
973.595
973.574
973.556
973.541
973.529
933.892
933.904
933.991
934.326
935.177
936.811
939.379
942.839
946.966
951.416
955.92
960.019
963.539
966.406
968.636
970.299
971.494
972.324
972.882
973.246
973.477
973.62
973.706
973.757
973.786
973.802
973.811
973.816
973.819
973.82
973.821
973.821
973.822
973.822
973.822
973.822
973.822
973.822
973.822
973.822
973.822
973.822
973.822
973.822
973.822
973.822
973.822
973.822
973.822
973.821
973.821
973.821
973.821
973.821
973.821
973.821
973.821
973.821
973.82
973.819
973.758
973.713
973.677
973.646
973.619
973.595
973.574
973.556
973.541
973.529
933.892
933.904
933.991
934.327
935.179
936.816
939.386
942.849
946.977
951.427
955.93
960.028
963.546
966.411
968.639
970.301
971.495
972.325
972.882
973.246
973.477
973.62
973.706
973.756
973.786
973.802
973.811
973.816
973.819
973.82
973.821
973.821
973.822
973.822
973.822
973.822
973.822
973.822
973.822
973.822
973.822
973.822
973.822
973.822
973.822
973.822
973.822
973.822
973.822
973.821
973.821
973.821
973.821
973.821
973.821
973.821
973.821
973.821
973.82
973.819
973.758
973.713
973.677
973.646
973.619
973.595
973.574
973.556
973.541
973.529
933.892
933.904
933.991
934.328
935.182
936.821
939.394
942.858
946.988
951.437
955.939
960.035
963.551
966.416
968.642
970.303
971.497
972.325
972.883
973.247
973.477
973.62
973.706
973.756
973.786
973.802
973.811
973.816
973.819
973.82
973.821
973.821
973.822
973.822
973.822
973.822
973.822
973.822
973.822
973.822
973.822
973.822
973.822
973.822
973.822
973.822
973.822
973.822
973.821
973.821
973.821
973.821
973.821
973.821
973.821
973.821
973.821
973.82
973.82
973.819
973.758
973.713
973.677
973.646
973.619
973.595
973.574
973.556
973.541
973.529
933.892
933.904
933.991
934.329
935.185
936.826
939.401
942.867
946.997
951.446
955.946
960.041
963.556
966.419
968.644
970.305
971.498
972.326
972.883
973.247
973.477
973.62
973.706
973.756
973.786
973.802
973.811
973.816
973.819
973.82
973.821
973.821
973.822
973.822
973.822
973.822
973.822
973.822
973.822
973.822
973.822
973.822
973.822
973.822
973.822
973.822
973.822
973.822
973.821
973.821
973.821
973.821
973.821
973.821
973.821
973.821
973.821
973.82
973.82
973.819
973.758
973.713
973.677
973.646
973.619
973.595
973.574
973.556
973.541
973.529
933.892
933.904
933.992
934.33
935.187
936.831
939.408
942.875
947.004
951.452
955.951
960.045
963.558
966.42
968.646
970.305
971.498
972.326
972.883
973.247
973.477
973.62
973.706
973.756
973.785
973.802
973.811
973.816
973.819
973.82
973.821
973.821
973.821
973.822
973.822
973.822
973.822
973.822
973.822
973.822
973.822
973.822
973.822
973.822
973.822
973.822
973.822
973.821
973.821
973.821
973.821
973.821
973.821
973.821
973.821
973.821
973.821
973.82
973.82
973.819
973.758
973.713
973.677
973.646
973.619
973.595
973.574
973.556
973.541
973.529
933.892
933.904
933.992
934.331
935.19
936.835
939.414
942.882
947.011
951.458
955.955
960.047
963.56
966.421
968.646
970.305
971.498
972.326
972.883
973.247
973.477
973.62
973.706
973.756
973.785
973.802
973.811
973.816
973.819
973.82
973.821
973.821
973.821
973.822
973.822
973.822
973.822
973.822
973.822
973.822
973.822
973.822
973.822
973.822
973.822
973.822
973.822
973.821
973.821
973.821
973.821
973.821
973.821
973.821
973.821
973.821
973.821
973.82
973.82
973.819
973.758
973.713
973.677
973.646
973.619
973.595
973.574
973.556
973.541
973.529
933.892
933.904
933.992
934.332
935.193
936.839
939.418
942.886
947.014
951.459
955.955
960.046
963.559
966.42
968.645
970.305
971.497
972.326
972.883
973.247
973.477
973.62
973.706
973.756
973.785
973.802
973.811
973.816
973.819
973.82
973.821
973.821
973.821
973.822
973.822
973.822
973.822
973.822
973.822
973.822
973.822
973.822
973.822
973.822
973.822
973.822
973.821
973.821
973.821
973.821
973.821
973.821
973.821
973.821
973.821
973.821
973.821
973.82
973.82
973.819
973.758
973.713
973.677
973.646
973.619
973.595
973.574
973.556
973.541
973.529
933.892
933.904
933.993
934.334
935.195
936.843
939.423
942.889
947.015
951.459
955.953
960.044
963.556
966.417
968.643
970.303
971.496
972.325
972.882
973.246
973.477
973.62
973.705
973.756
973.785
973.802
973.811
973.816
973.819
973.82
973.821
973.821
973.821
973.821
973.822
973.822
973.822
973.822
973.822
973.822
973.822
973.822
973.822
973.822
973.822
973.821
973.821
973.821
973.821
973.821
973.821
973.821
973.821
973.821
973.821
973.821
973.821
973.82
973.82
973.819
973.758
973.713
973.677
973.646
973.619
973.595
973.574
973.556
973.541
973.529
933.892
933.904
933.993
934.335
935.197
936.845
939.423
942.887
947.01
951.451
955.945
960.035
963.548
966.411
968.638
970.3
971.494
972.324
972.882
973.246
973.477
973.619
973.705
973.756
973.785
973.802
973.811
973.816
973.818
973.82
973.821
973.821
973.821
973.821
973.822
973.822
973.822
973.822
973.822
973.822
973.822
973.822
973.822
973.822
973.822
973.821
973.821
973.821
973.821
973.821
973.821
973.821
973.821
973.821
973.821
973.821
973.821
973.82
973.82
973.819
973.758
973.713
973.677
973.646
973.619
973.595
973.574
973.556
973.541
973.529
933.892
933.904
933.993
934.336
935.199
936.847
939.423
942.884
947.004
951.443
955.935
960.026
963.54
966.405
968.633
970.296
971.492
972.322
972.88
973.245
973.476
973.619
973.705
973.756
973.785
973.801
973.811
973.816
973.818
973.82
973.821
973.821
973.821
973.821
973.821
973.822
973.822
973.822
973.822
973.822
973.822
973.822
973.822
973.822
973.821
973.821
973.821
973.821
973.821
973.821
973.821
973.821
973.821
973.821
973.821
973.821
973.821
973.82
973.82
973.819
973.758
973.713
973.677
973.646
973.619
973.595
973.574
973.556
973.541
973.529
933.892
933.904
933.994
934.337
935.2
936.844
939.415
942.869
946.983
951.419
955.911
960.004
963.522
966.391
968.623
970.29
971.487
972.319
972.879
973.244
973.476
973.619
973.705
973.756
973.785
973.801
973.811
973.816
973.818
973.82
973.821
973.821
973.821
973.821
973.821
973.821
973.822
973.822
973.822
973.822
973.822
973.822
973.822
973.821
973.821
973.821
973.821
973.821
973.821
973.821
973.821
973.821
973.821
973.821
973.821
973.821
973.821
973.82
973.82
973.819
973.758
973.713
973.677
973.646
973.619
973.595
973.574
973.556
973.541
973.529
933.892
933.905
933.994
934.338
935.2
936.843
939.409
942.858
946.967
951.4
955.891
959.986
963.508
966.38
968.615
970.283
971.483
972.316
972.877
973.243
973.475
973.618
973.705
973.755
973.785
973.801
973.81
973.815
973.818
973.82
973.821
973.821
973.821
973.821
973.821
973.821
973.821
973.822
973.822
973.822
973.822
973.822
973.821
973.821
973.821
973.821
973.821
973.821
973.821
973.821
973.821
973.821
973.821
973.821
973.821
973.821
973.821
973.82
973.82
973.819
973.758
973.713
973.677
973.646
973.619
973.595
973.574
973.556
973.541
973.529
933.892
933.905
933.995
934.338
935.196
936.831
939.385
942.821
946.921
951.349
955.843
959.944
963.474
966.355
968.597
970.272
971.476
972.312
972.874
973.241
973.474
973.618
973.704
973.755
973.785
973.801
973.81
973.815
973.818
973.82
973.82
973.821
973.821
973.821
973.821
973.821
973.821
973.821
973.821
973.822
973.821
973.821
973.821
973.821
973.821
973.821
973.821
973.821
973.821
973.821
973.821
973.821
973.821
973.821
973.821
973.821
973.821
973.82
973.82
973.819
973.758
973.713
973.677
973.646
973.619
973.595
973.574
973.556
973.541
973.529
933.892
933.905
933.995
934.339
935.197
936.829
939.379
942.809
946.904
951.331
955.825
959.928
963.461
966.344
968.59
970.266
971.472
972.309
972.873
973.24
973.473
973.617
973.704
973.755
973.785
973.801
973.81
973.815
973.818
973.82
973.82
973.821
973.821
973.821
973.821
973.821
973.821
973.822
973.822
973.822
973.822
973.821
973.821
973.821
973.821
973.821
973.821
973.821
973.821
973.821
973.821
973.821
973.821
973.821
973.821
973.821
973.821
973.82
973.82
973.819
973.758
973.713
973.677
973.646
973.619
973.595
973.574
973.556
973.541
973.529
933.892
933.905
933.995
934.337
935.193
936.823
939.373
942.805
946.901
951.329
955.826
959.933
963.468
966.354
968.599
970.275
971.479
972.315
972.877
973.244
973.476
973.619
973.706
973.756
973.785
973.802
973.811
973.816
973.819
973.82
973.821
973.821
973.822
973.822
973.822
973.822
973.822
973.822
973.822
973.822
973.822
973.822
973.822
973.822
973.822
973.822
973.822
973.821
973.821
973.821
973.821
973.821
973.821
973.821
973.821
973.821
973.821
973.821
973.82
973.819
973.758
973.713
973.677
973.646
973.619
973.595
973.574
973.556
973.541
973.529
933.892
933.905
933.995
934.344
935.228
936.925
939.581
943.139
947.348
951.845
956.359
960.434
963.905
966.712
968.879
970.485
971.631
972.422
972.951
973.293
973.509
973.642
973.721
973.767
973.794
973.809
973.817
973.821
973.824
973.825
973.826
973.826
973.826
973.826
973.827
973.827
973.827
973.827
973.827
973.827
973.827
973.827
973.827
973.826
973.826
973.826
973.826
973.826
973.826
973.826
973.826
973.826
973.826
973.826
973.826
973.826
973.826
973.826
973.825
973.824
973.761
973.715
973.677
973.645
973.617
973.593
973.572
973.554
973.539
973.527
933.892
933.903
933.992
934.358
935.333
937.256
940.293
944.327
948.994
953.818
958.478
962.489
965.746
968.258
970.109
971.42
972.315
972.906
973.284
973.519
973.661
973.745
973.793
973.82
973.835
973.843
973.847
973.85
973.851
973.852
973.852
973.852
973.852
973.852
973.852
973.852
973.852
973.852
973.852
973.852
973.852
973.852
973.852
973.852
973.852
973.852
973.852
973.852
973.852
973.852
973.852
973.852
973.852
973.852
973.852
973.852
973.852
973.852
973.851
973.85
973.77
973.715
973.673
973.638
973.609
973.584
973.563
973.545
973.531
973.521
933.892
933.906
933.989
934.312
935.176
936.913
939.72
943.535
948.05
952.815
957.475
961.585
964.984
967.648
969.64
971.072
972.063
972.727
973.158
973.429
973.595
973.694
973.752
973.784
973.803
973.812
973.818
973.821
973.822
973.823
973.823
973.824
973.824
973.824
973.824
973.824
973.824
973.824
973.824
973.824
973.824
973.824
973.824
973.824
973.824
973.824
973.824
973.824
973.824
973.824
973.824
973.824
973.824
973.824
973.824
973.824
973.824
973.823
973.823
973.822
973.764
973.716
973.676
973.642
973.613
973.588
973.566
973.549
973.534
973.523
933.893
933.907
933.992
934.299
935.076
936.591
939.008
942.316
946.317
950.687
955.139
959.268
962.866
965.835
968.173
969.938
971.222
972.123
972.737
973.142
973.401
973.563
973.662
973.72
973.754
973.773
973.784
973.79
973.793
973.795
973.796
973.796
973.797
973.797
973.797
973.797
973.797
973.797
973.797
973.797
973.797
973.797
973.797
973.797
973.797
973.797
973.797
973.797
973.797
973.796
973.796
973.796
973.796
973.796
973.797
973.796
973.796
973.796
973.796
973.795
973.752
973.714
973.679
973.649
973.622
973.598
973.577
973.559
973.543
973.531
933.893
933.907
933.992
934.292
935.044
936.497
938.813
941.995
945.879
950.171
954.595
958.747
962.403
965.449
967.867
969.705
971.05
972.001
972.652
973.083
973.362
973.537
973.644
973.707
973.745
973.766
973.778
973.785
973.788
973.79
973.791
973.792
973.792
973.792
973.792
973.792
973.793
973.793
973.793
973.793
973.793
973.793
973.792
973.792
973.792
973.792
973.792
973.792
973.792
973.792
973.792
973.792
973.792
973.792
973.792
973.792
973.792
973.792