/*--------------------------------*- C++ -*----------------------------------*\
  =========                 |
  \\      /  F ield         | OpenFOAM: The Open Source CFD Toolbox
   \\    /   O peration     | Website:  https://openfoam.org
    \\  /    A nd           | Version:  12
     \\/     M anipulation  |
\*---------------------------------------------------------------------------*/
FoamFile
{
    format      ascii;
    class       volScalarField;
    location    "50/porous";
    object      T;
}
// * * * * * * * * * * * * * * * * * * * * * * * * * * * * * * * * * * * * * //

dimensions      [0 0 0 1 0 0 0];

internalField   nonuniform List<scalar> 
140000
(
399.999
399.987
399.892
399.499
398.448
396.355
392.997
388.431
382.98
377.13
371.233
365.933
361.45
357.869
355.153
353.186
351.821
350.91
350.322
349.956
349.734
349.603
349.528
349.485
349.462
349.449
349.443
349.439
349.437
349.436
349.436
349.435
349.435
349.435
349.435
349.435
349.435
349.435
349.435
349.435
349.435
349.435
349.435
349.435
349.435
349.435
349.436
349.436
349.436
349.436
349.436
349.436
349.436
349.436
349.436
349.436
349.436
349.436
349.437
349.439
349.565
349.651
349.718
349.773
349.819
349.858
349.891
349.918
349.94
349.957
399.999
399.986
399.889
399.514
398.562
396.721
393.799
389.804
384.947
379.579
373.977
368.708
364.034
360.113
356.987
354.609
352.878
351.665
350.847
350.313
349.974
349.766
349.642
349.569
349.527
349.504
349.491
349.484
349.48
349.478
349.477
349.476
349.476
349.476
349.476
349.476
349.476
349.476
349.476
349.476
349.476
349.476
349.476
349.476
349.476
349.476
349.476
349.476
349.476
349.476
349.476
349.476
349.476
349.476
349.476
349.476
349.476
349.477
349.477
349.48
349.58
349.652
349.711
349.761
349.805
349.843
349.876
349.904
349.928
349.946
399.999
399.986
399.889
399.522
398.601
396.834
394.034
390.192
385.48
380.216
374.662
369.378
364.642
360.63
357.403
354.929
353.114
351.834
350.964
350.392
350.028
349.802
349.666
349.586
349.54
349.515
349.5
349.492
349.488
349.486
349.484
349.484
349.483
349.483
349.483
349.483
349.483
349.483
349.483
349.483
349.483
349.483
349.483
349.483
349.483
349.483
349.484
349.484
349.484
349.484
349.484
349.484
349.484
349.484
349.484
349.484
349.484
349.485
349.485
349.487
349.584
349.654
349.711
349.76
349.803
349.841
349.874
349.902
349.925
349.944
399.999
399.986
399.889
399.52
398.597
396.828
394.028
390.187
385.476
380.215
374.665
369.387
364.655
360.645
357.419
354.944
353.126
351.844
350.971
350.398
350.032
349.805
349.669
349.588
349.542
349.516
349.501
349.493
349.489
349.487
349.485
349.485
349.484
349.484
349.484
349.484
349.484
349.484
349.484
349.484
349.484
349.484
349.484
349.484
349.484
349.484
349.484
349.485
349.485
349.485
349.485
349.485
349.485
349.485
349.485
349.485
349.485
349.486
349.486
349.488
349.584
349.654
349.711
349.76
349.803
349.841
349.873
349.901
349.925
349.944
399.999
399.986
399.889
399.521
398.597
396.825
394.02
390.172
385.456
380.191
374.641
369.365
364.636
360.63
357.408
354.936
353.121
351.84
350.969
350.396
350.031
349.805
349.669
349.588
349.542
349.516
349.501
349.493
349.489
349.487
349.485
349.485
349.484
349.484
349.484
349.484
349.484
349.484
349.484
349.484
349.484
349.484
349.484
349.484
349.484
349.484
349.484
349.485
349.485
349.485
349.485
349.485
349.485
349.485
349.485
349.485
349.485
349.486
349.487
349.488
349.584
349.654
349.711
349.76
349.803
349.841
349.873
349.901
349.925
349.944
399.999
399.986
399.89
399.521
398.592
396.811
393.993
390.129
385.401
380.129
374.58
369.309
364.591
360.595
357.382
354.918
353.109
351.833
350.965
350.394
350.03
349.804
349.668
349.588
349.542
349.516
349.501
349.493
349.489
349.486
349.485
349.485
349.484
349.484
349.484
349.484
349.484
349.484
349.484
349.484
349.484
349.484
349.484
349.484
349.484
349.484
349.484
349.485
349.485
349.485
349.485
349.485
349.485
349.485
349.485
349.485
349.485
349.486
349.487
349.488
349.584
349.654
349.711
349.76
349.803
349.841
349.873
349.901
349.925
349.944
399.999
399.986
399.89
399.522
398.593
396.809
393.985
390.115
385.38
380.105
374.554
369.285
364.57
360.578
357.37
354.909
353.103
351.829
350.962
350.392
350.029
349.804
349.668
349.588
349.542
349.516
349.501
349.493
349.489
349.486
349.485
349.484
349.484
349.484
349.484
349.484
349.484
349.484
349.484
349.484
349.484
349.484
349.484
349.484
349.484
349.484
349.484
349.484
349.485
349.485
349.485
349.485
349.485
349.485
349.485
349.485
349.485
349.486
349.487
349.488
349.584
349.654
349.711
349.76
349.803
349.841
349.873
349.901
349.925
349.944
399.999
399.986
399.891
399.523
398.593
396.806
393.975
390.097
385.355
380.074
374.522
369.256
364.545
360.559
357.355
354.899
353.096
351.824
350.959
350.39
350.028
349.803
349.667
349.588
349.541
349.515
349.501
349.493
349.489
349.486
349.485
349.484
349.484
349.484
349.484
349.484
349.484
349.484
349.484
349.484
349.484
349.484
349.484
349.484
349.484
349.484
349.484
349.484
349.485
349.485
349.485
349.485
349.485
349.485
349.485
349.485
349.485
349.486
349.487
349.488
349.584
349.654
349.711
349.76
349.803
349.841
349.873
349.901
349.925
349.944
399.999
399.986
399.891
399.524
398.595
396.808
393.975
390.093
385.347
380.063
374.509
369.242
364.533
360.549
357.347
354.893
353.092
351.822
350.958
350.389
350.027
349.803
349.667
349.587
349.541
349.515
349.501
349.493
349.488
349.486
349.485
349.484
349.484
349.484
349.484
349.484
349.483
349.483
349.483
349.483
349.483
349.484
349.484
349.484
349.484
349.484
349.484
349.484
349.484
349.485
349.485
349.485
349.485
349.485
349.485
349.485
349.485
349.486
349.487
349.488
349.584
349.654
349.711
349.76
349.803
349.841
349.873
349.901
349.925
349.944
399.999
399.986
399.891
399.525
398.597
396.81
393.975
390.09
385.339
380.052
374.497
369.23
364.521
360.539
357.34
354.888
353.089
351.819
350.956
350.388
350.026
349.802
349.667
349.587
349.541
349.515
349.501
349.493
349.488
349.486
349.485
349.484
349.484
349.484
349.484
349.483
349.483
349.483
349.483
349.483
349.483
349.483
349.483
349.484
349.484
349.484
349.484
349.484
349.484
349.484
349.485
349.485
349.485
349.485
349.485
349.485
349.485
349.486
349.486
349.488
349.584
349.654
349.711
349.76
349.803
349.841
349.873
349.901
349.925
349.944
399.999
399.986
399.892
399.527
398.6
396.814
393.979
390.093
385.34
380.051
374.493
369.225
364.517
360.535
357.337
354.886
353.087
351.818
350.955
350.388
350.026
349.802
349.667
349.587
349.541
349.515
349.5
349.493
349.488
349.486
349.485
349.484
349.484
349.484
349.483
349.483
349.483
349.483
349.483
349.483
349.483
349.483
349.483
349.483
349.484
349.484
349.484
349.484
349.484
349.484
349.484
349.484
349.485
349.485
349.485
349.485
349.485
349.486
349.486
349.488
349.584
349.654
349.711
349.76
349.803
349.841
349.873
349.901
349.925
349.944
399.999
399.986
399.892
399.528
398.603
396.818
393.984
390.097
385.343
380.052
374.492
369.223
364.514
360.532
357.334
354.884
353.085
351.817
350.955
350.387
350.026
349.802
349.666
349.587
349.541
349.515
349.5
349.492
349.488
349.486
349.485
349.484
349.484
349.484
349.483
349.483
349.483
349.483
349.483
349.483
349.483
349.483
349.483
349.483
349.483
349.484
349.484
349.484
349.484
349.484
349.484
349.484
349.484
349.484
349.484
349.485
349.485
349.485
349.486
349.488
349.584
349.654
349.711
349.76
349.803
349.841
349.873
349.901
349.925
349.944
399.999
399.986
399.892
399.529
398.606
396.823
393.991
390.104
385.349
380.057
374.495
369.225
364.515
360.533
357.334
354.883
353.085
351.817
350.954
350.387
350.026
349.802
349.666
349.587
349.541
349.515
349.5
349.492
349.488
349.486
349.485
349.484
349.484
349.483
349.483
349.483
349.483
349.483
349.483
349.483
349.483
349.483
349.483
349.483
349.483
349.483
349.484
349.484
349.484
349.484
349.484
349.484
349.484
349.484
349.484
349.484
349.485
349.485
349.486
349.488
349.584
349.654
349.711
349.76
349.803
349.841
349.873
349.901
349.925
349.944
399.999
399.986
399.893
399.53
398.609
396.828
393.997
390.112
385.357
380.064
374.501
369.229
364.518
360.534
357.335
354.884
353.085
351.817
350.954
350.387
350.026
349.801
349.666
349.586
349.54
349.515
349.5
349.492
349.488
349.486
349.485
349.484
349.484
349.483
349.483
349.483
349.483
349.483
349.483
349.483
349.483
349.483
349.483
349.483
349.483
349.483
349.484
349.484
349.484
349.484
349.484
349.484
349.484
349.484
349.484
349.484
349.485
349.485
349.486
349.488
349.584
349.654
349.711
349.76
349.803
349.841
349.873
349.901
349.925
349.944
399.999
399.986
399.893
399.531
398.611
396.833
394.005
390.121
385.367
380.073
374.509
369.236
364.523
360.538
357.338
354.886
353.086
351.818
350.955
350.387
350.026
349.801
349.666
349.586
349.54
349.514
349.5
349.492
349.488
349.486
349.485
349.484
349.484
349.483
349.483
349.483
349.483
349.483
349.483
349.483
349.483
349.483
349.483
349.483
349.483
349.483
349.483
349.484
349.484
349.484
349.484
349.484
349.484
349.484
349.484
349.484
349.485
349.485
349.486
349.488
349.584
349.654
349.711
349.76
349.803
349.841
349.873
349.901
349.925
349.944
399.999
399.986
399.893
399.533
398.614
396.838
394.013
390.131
385.379
380.085
374.519
369.244
364.529
360.543
357.341
354.888
353.088
351.818
350.955
350.388
350.026
349.801
349.666
349.586
349.54
349.514
349.5
349.492
349.488
349.486
349.484
349.484
349.483
349.483
349.483
349.483
349.483
349.483
349.483
349.483
349.483
349.483
349.483
349.483
349.483
349.483
349.483
349.484
349.484
349.484
349.484
349.484
349.484
349.484
349.484
349.484
349.484
349.485
349.486
349.488
349.584
349.654
349.711
349.76
349.803
349.841
349.873
349.901
349.925
349.944
399.999
399.987
399.894
399.534
398.617
396.844
394.021
390.142
385.391
380.097
374.531
369.254
364.537
360.549
357.346
354.891
353.09
351.82
350.956
350.388
350.026
349.801
349.666
349.586
349.54
349.514
349.5
349.492
349.488
349.486
349.484
349.484
349.483
349.483
349.483
349.483
349.483
349.483
349.483
349.483
349.483
349.483
349.483
349.483
349.483
349.483
349.483
349.483
349.484
349.484
349.484
349.484
349.484
349.484
349.484
349.484
349.484
349.485
349.486
349.488
349.584
349.654
349.711
349.76
349.803
349.841
349.873
349.901
349.925
349.944
399.999
399.987
399.894
399.535
398.62
396.849
394.03
390.153
385.404
380.111
374.544
369.266
364.547
360.556
357.351
354.895
353.092
351.821
350.957
350.389
350.026
349.802
349.666
349.586
349.54
349.514
349.5
349.492
349.488
349.486
349.484
349.484
349.483
349.483
349.483
349.483
349.483
349.483
349.483
349.483
349.483
349.483
349.483
349.483
349.483
349.483
349.483
349.483
349.484
349.484
349.484
349.484
349.484
349.484
349.484
349.484
349.484
349.485
349.486
349.488
349.584
349.654
349.711
349.76
349.803
349.84
349.873
349.901
349.925
349.944
399.999
399.987
399.894
399.535
398.622
396.854
394.039
390.165
385.418
380.125
374.558
369.278
364.557
360.564
357.357
354.899
353.095
351.823
350.958
350.389
350.027
349.802
349.666
349.586
349.54
349.514
349.5
349.492
349.488
349.486
349.484
349.483
349.483
349.483
349.483
349.483
349.483
349.483
349.482
349.483
349.483
349.483
349.483
349.483
349.483
349.483
349.483
349.483
349.483
349.484
349.484
349.484
349.484
349.484
349.484
349.484
349.484
349.485
349.486
349.488
349.584
349.654
349.711
349.76
349.803
349.84
349.873
349.901
349.925
349.944
399.999
399.987
399.894
399.536
398.625
396.86
394.047
390.177
385.432
380.141
374.573
369.292
364.569
360.573
357.364
354.904
353.099
351.825
350.959
350.39
350.027
349.802
349.666
349.586
349.54
349.514
349.5
349.492
349.488
349.485
349.484
349.483
349.483
349.483
349.483
349.483
349.483
349.483
349.482
349.482
349.483
349.483
349.483
349.483
349.483
349.483
349.483
349.483
349.483
349.484
349.484
349.484
349.484
349.484
349.484
349.484
349.484
349.485
349.486
349.488
349.584
349.654
349.711
349.76
349.803
349.84
349.873
349.901
349.925
349.944
399.999
399.987
399.894
399.537
398.628
396.865
394.056
390.19
385.447
380.157
374.589
369.306
364.581
360.583
357.371
354.909
353.102
351.828
350.961
350.391
350.027
349.802
349.666
349.586
349.54
349.514
349.5
349.492
349.488
349.485
349.484
349.483
349.483
349.483
349.483
349.483
349.483
349.483
349.483
349.483
349.483
349.483
349.483
349.483
349.483
349.483
349.483
349.483
349.483
349.484
349.484
349.484
349.484
349.484
349.484
349.484
349.484
349.485
349.486
349.488
349.584
349.654
349.711
349.76
349.803
349.84
349.873
349.901
349.925
349.944
399.999
399.987
399.895
399.538
398.63
396.871
394.065
390.202
385.463
380.174
374.606
369.322
364.594
360.594
357.379
354.915
353.106
351.83
350.963
350.392
350.028
349.803
349.666
349.586
349.54
349.514
349.5
349.492
349.488
349.485
349.484
349.483
349.483
349.483
349.483
349.483
349.483
349.483
349.483
349.483
349.483
349.483
349.483
349.483
349.483
349.483
349.483
349.483
349.483
349.484
349.484
349.484
349.484
349.484
349.484
349.484
349.484
349.485
349.486
349.488
349.584
349.654
349.711
349.76
349.803
349.84
349.873
349.901
349.925
349.944
399.999
399.987
399.895
399.539
398.633
396.876
394.075
390.215
385.479
380.192
374.624
369.338
364.608
360.605
357.388
354.921
353.11
351.833
350.964
350.393
350.029
349.803
349.667
349.586
349.54
349.514
349.5
349.492
349.488
349.485
349.484
349.483
349.483
349.483
349.483
349.483
349.483
349.483
349.483
349.483
349.483
349.483
349.483
349.483
349.483
349.483
349.483
349.483
349.483
349.484
349.484
349.484
349.484
349.484
349.484
349.484
349.484
349.485
349.486
349.488
349.584
349.654
349.711
349.76
349.803
349.84
349.873
349.901
349.925
349.944
399.999
399.987
399.895
399.54
398.635
396.882
394.084
390.229
385.495
380.21
374.642
369.355
364.623
360.617
357.397
354.928
353.115
351.836
350.966
350.394
350.029
349.803
349.667
349.587
349.54
349.514
349.5
349.492
349.488
349.485
349.484
349.483
349.483
349.483
349.483
349.483
349.483
349.483
349.483
349.483
349.483
349.483
349.483
349.483
349.483
349.483
349.483
349.483
349.483
349.484
349.484
349.484
349.484
349.484
349.484
349.484
349.484
349.485
349.486
349.488
349.584
349.654
349.711
349.76
349.803
349.84
349.873
349.901
349.925
349.944
399.999
399.987
399.895
399.541
398.638
396.887
394.092
390.241
385.511
380.227
374.659
369.371
364.636
360.628
357.405
354.934
353.119
351.839
350.968
350.395
350.03
349.804
349.667
349.587
349.54
349.514
349.5
349.492
349.488
349.485
349.484
349.483
349.483
349.483
349.483
349.483
349.483
349.483
349.483
349.483
349.483
349.483
349.483
349.483
349.483
349.483
349.483
349.483
349.483
349.484
349.484
349.484
349.484
349.484
349.484
349.484
349.484
349.485
349.486
349.488
349.584
349.654
349.711
349.76
349.803
349.84
349.873
349.901
349.925
349.944
399.999
399.987
399.895
399.541
398.638
396.887
394.092
390.241
385.51
380.226
374.658
369.37
364.635
360.627
357.404
354.933
353.119
351.839
350.968
350.395
350.03
349.804
349.667
349.587
349.54
349.514
349.5
349.492
349.488
349.485
349.484
349.483
349.483
349.483
349.483
349.483
349.483
349.483
349.483
349.483
349.483
349.483
349.483
349.483
349.483
349.483
349.483
349.483
349.483
349.484
349.484
349.484
349.484
349.484
349.484
349.484
349.484
349.485
349.486
349.488
349.584
349.654
349.711
349.76
349.803
349.84
349.873
349.901
349.925
349.944
399.999
399.987
399.895
399.54
398.635
396.881
394.084
390.228
385.494
380.209
374.64
369.353
364.621
360.615
357.395
354.927
353.114
351.835
350.966
350.394
350.029
349.803
349.667
349.587
349.54
349.514
349.5
349.492
349.488
349.485
349.484
349.483
349.483
349.483
349.483
349.483
349.483
349.483
349.483
349.483
349.483
349.483
349.483
349.483
349.483
349.483
349.483
349.483
349.483
349.484
349.484
349.484
349.484
349.484
349.484
349.484
349.484
349.485
349.486
349.488
349.584
349.654
349.711
349.76
349.803
349.84
349.873
349.901
349.925
349.944
399.999
399.987
399.895
399.539
398.633
396.876
394.074
390.214
385.477
380.19
374.621
369.335
364.605
360.603
357.386
354.919
353.109
351.832
350.964
350.393
350.028
349.803
349.667
349.586
349.54
349.514
349.5
349.492
349.488
349.485
349.484
349.483
349.483
349.483
349.483
349.483
349.483
349.483
349.483
349.483
349.483
349.483
349.483
349.483
349.483
349.483
349.483
349.483
349.483
349.484
349.484
349.484
349.484
349.484
349.484
349.484
349.484
349.485
349.486
349.488
349.584
349.654
349.711
349.76
349.803
349.84
349.873
349.901
349.925
349.944
399.999
399.987
399.895
399.538
398.63
396.87
394.065
390.201
385.461
380.171
374.603
369.318
364.59
360.59
357.376
354.913
353.105
351.829
350.962
350.391
350.028
349.802
349.666
349.586
349.54
349.514
349.5
349.492
349.488
349.485
349.484
349.483
349.483
349.483
349.483
349.483
349.483
349.483
349.483
349.483
349.483
349.483
349.483
349.483
349.483
349.483
349.483
349.483
349.483
349.484
349.484
349.484
349.484
349.484
349.484
349.484
349.484
349.485
349.486
349.488
349.584
349.654
349.711
349.76
349.803
349.84
349.873
349.901
349.925
349.944
399.999
399.987
399.894
399.537
398.628
396.865
394.055
390.188
385.445
380.154
374.585
369.302
364.576
360.579
357.368
354.906
353.1
351.826
350.96
350.39
350.027
349.802
349.666
349.586
349.54
349.514
349.5
349.492
349.488
349.485
349.484
349.483
349.483
349.483
349.483
349.483
349.483
349.483
349.483
349.483
349.483
349.483
349.483
349.483
349.483
349.483
349.483
349.483
349.483
349.484
349.484
349.484
349.484
349.484
349.484
349.484
349.484
349.485
349.486
349.488
349.584
349.654
349.711
349.76
349.803
349.84
349.873
349.901
349.925
349.944
399.999
399.987
399.894
399.536
398.625
396.859
394.046
390.175
385.429
380.136
374.568
369.286
364.563
360.568
357.359
354.901
353.096
351.824
350.958
350.389
350.026
349.802
349.666
349.586
349.54
349.514
349.5
349.492
349.488
349.485
349.484
349.483
349.483
349.483
349.483
349.483
349.483
349.483
349.482
349.482
349.483
349.483
349.483
349.483
349.483
349.483
349.483
349.483
349.483
349.484
349.484
349.484
349.484
349.484
349.484
349.484
349.484
349.485
349.486
349.488
349.584
349.654
349.711
349.76
349.803
349.84
349.873
349.901
349.925
349.944
399.999
399.987
399.894
399.536
398.622
396.854
394.037
390.163
385.414
380.12
374.552
369.271
364.551
360.558
357.352
354.895
353.092
351.821
350.957
350.388
350.026
349.801
349.666
349.586
349.54
349.514
349.5
349.492
349.488
349.486
349.484
349.483
349.483
349.483
349.483
349.483
349.483
349.483
349.482
349.483
349.483
349.483
349.483
349.483
349.483
349.483
349.483
349.483
349.483
349.484
349.484
349.484
349.484
349.484
349.484
349.484
349.484
349.485
349.486
349.488
349.584
349.654
349.711
349.76
349.803
349.84
349.873
349.901
349.925
349.944
399.999
399.987
399.894
399.535
398.62
396.848
394.029
390.151
385.399
380.105
374.537
369.258
364.539
360.549
357.345
354.89
353.089
351.819
350.955
350.388
350.026
349.801
349.666
349.586
349.54
349.514
349.5
349.492
349.488
349.486
349.484
349.484
349.483
349.483
349.483
349.483
349.483
349.483
349.483
349.483
349.483
349.483
349.483
349.483
349.483
349.483
349.483
349.483
349.484
349.484
349.484
349.484
349.484
349.484
349.484
349.484
349.484
349.485
349.486
349.488
349.584
349.654
349.711
349.76
349.803
349.84
349.873
349.901
349.925
349.944
399.999
399.987
399.894
399.534
398.617
396.843
394.02
390.139
385.386
380.09
374.523
369.245
364.529
360.541
357.339
354.886
353.086
351.817
350.954
350.387
350.025
349.801
349.666
349.586
349.54
349.514
349.5
349.492
349.488
349.486
349.484
349.484
349.483
349.483
349.483
349.483
349.483
349.483
349.483
349.483
349.483
349.483
349.483
349.483
349.483
349.483
349.483
349.483
349.484
349.484
349.484
349.484
349.484
349.484
349.484
349.484
349.484
349.485
349.486
349.488
349.584
349.654
349.711
349.76
349.803
349.84
349.873
349.901
349.925
349.944
399.999
399.986
399.893
399.533
398.614
396.838
394.011
390.128
385.373
380.077
374.51
369.234
364.52
360.534
357.334
354.882
353.084
351.816
350.953
350.386
350.025
349.801
349.666
349.586
349.54
349.514
349.5
349.492
349.488
349.486
349.484
349.484
349.483
349.483
349.483
349.483
349.483
349.483
349.483
349.483
349.483
349.483
349.483
349.483
349.483
349.483
349.483
349.484
349.484
349.484
349.484
349.484
349.484
349.484
349.484
349.484
349.484
349.485
349.486
349.488
349.584
349.654
349.711
349.76
349.803
349.841
349.873
349.901
349.925
349.944
399.999
399.986
399.893
399.531
398.611
396.832
394.003
390.117
385.361
380.064
374.499
369.225
364.512
360.529
357.33
354.88
353.082
351.814
350.953
350.386
350.025
349.801
349.666
349.586
349.54
349.514
349.5
349.492
349.488
349.486
349.485
349.484
349.484
349.483
349.483
349.483
349.483
349.483
349.483
349.483
349.483
349.483
349.483
349.483
349.483
349.483
349.483
349.484
349.484
349.484
349.484
349.484
349.484
349.484
349.484
349.484
349.485
349.485
349.486
349.488
349.584
349.654
349.711
349.76
349.803
349.841
349.873
349.901
349.925
349.944
399.999
399.986
399.893
399.53
398.608
396.827
393.995
390.107
385.35
380.054
374.489
369.217
364.506
360.524
357.327
354.877
353.081
351.814
350.952
350.386
350.025
349.801
349.666
349.586
349.54
349.514
349.5
349.492
349.488
349.486
349.485
349.484
349.484
349.483
349.483
349.483
349.483
349.483
349.483
349.483
349.483
349.483
349.483
349.483
349.483
349.483
349.484
349.484
349.484
349.484
349.484
349.484
349.484
349.484
349.484
349.484
349.485
349.485
349.486
349.488
349.584
349.654
349.711
349.76
349.803
349.841
349.873
349.901
349.925
349.944
399.999
399.986
399.892
399.529
398.605
396.822
393.988
390.098
385.341
380.046
374.483
369.212
364.502
360.522
357.325
354.876
353.08
351.813
350.952
350.386
350.025
349.801
349.666
349.586
349.54
349.515
349.5
349.492
349.488
349.486
349.485
349.484
349.484
349.483
349.483
349.483
349.483
349.483
349.483
349.483
349.483
349.483
349.483
349.483
349.483
349.483
349.484
349.484
349.484
349.484
349.484
349.484
349.484
349.484
349.484
349.484
349.485
349.485
349.486
349.488
349.584
349.654
349.711
349.76
349.803
349.841
349.873
349.901
349.925
349.944
399.999
399.986
399.892
399.528
398.603
396.816
393.981
390.091
385.333
380.039
374.478
369.209
364.5
360.52
357.324
354.876
353.08
351.813
350.952
350.386
350.025
349.801
349.666
349.586
349.541
349.515
349.5
349.492
349.488
349.486
349.485
349.484
349.484
349.484
349.483
349.483
349.483
349.483
349.483
349.483
349.483
349.483
349.483
349.483
349.483
349.484
349.484
349.484
349.484
349.484
349.484
349.484
349.484
349.484
349.484
349.485
349.485
349.485
349.486
349.488
349.584
349.654
349.711
349.76
349.803
349.841
349.873
349.901
349.925
349.944
399.999
399.986
399.892
399.527
398.6
396.812
393.976
390.086
385.33
380.038
374.478
369.21
364.502
360.522
357.326
354.877
353.081
351.814
350.952
350.386
350.025
349.801
349.666
349.587
349.541
349.515
349.5
349.493
349.488
349.486
349.485
349.484
349.484
349.484
349.483
349.483
349.483
349.483
349.483
349.483
349.483
349.483
349.483
349.483
349.484
349.484
349.484
349.484
349.484
349.484
349.484
349.484
349.484
349.485
349.485
349.485
349.485
349.486
349.486
349.488
349.584
349.654
349.711
349.76
349.803
349.841
349.873
349.901
349.925
349.944
399.999
399.986
399.891
399.525
398.597
396.808
393.971
390.082
385.328
380.038
374.48
369.213
364.506
360.526
357.329
354.88
353.082
351.815
350.953
350.387
350.025
349.802
349.666
349.587
349.541
349.515
349.5
349.493
349.488
349.486
349.485
349.484
349.484
349.484
349.484
349.483
349.483
349.483
349.483
349.483
349.483
349.483
349.483
349.484
349.484
349.484
349.484
349.484
349.484
349.484
349.484
349.485
349.485
349.485
349.485
349.485
349.485
349.486
349.486
349.488
349.584
349.654
349.711
349.76
349.803
349.841
349.873
349.901
349.925
349.944
399.999
399.986
399.891
399.524
398.595
396.806
393.97
390.085
385.334
380.047
374.491
369.225
364.516
360.534
357.336
354.884
353.086
351.817
350.955
350.387
350.026
349.802
349.667
349.587
349.541
349.515
349.501
349.493
349.488
349.486
349.485
349.484
349.484
349.484
349.484
349.484
349.483
349.483
349.483
349.483
349.483
349.484
349.484
349.484
349.484
349.484
349.484
349.484
349.484
349.485
349.485
349.485
349.485
349.485
349.485
349.485
349.485
349.486
349.486
349.488
349.584
349.654
349.711
349.76
349.803
349.841
349.873
349.901
349.925
349.944
399.999
399.986
399.891
399.523
398.592
396.804
393.97
390.088
385.341
380.057
374.503
369.237
364.527
360.544
357.343
354.89
353.09
351.82
350.956
350.388
350.027
349.802
349.667
349.587
349.541
349.515
349.501
349.493
349.489
349.486
349.485
349.484
349.484
349.484
349.484
349.484
349.484
349.484
349.484
349.484
349.484
349.484
349.484
349.484
349.484
349.484
349.484
349.484
349.485
349.485
349.485
349.485
349.485
349.485
349.485
349.485
349.485
349.486
349.487
349.488
349.584
349.654
349.711
349.76
349.803
349.841
349.873
349.901
349.925
349.944
399.999
399.986
399.89
399.522
398.592
396.807
393.979
390.105
385.366
380.086
374.534
369.265
364.552
360.563
357.357
354.9
353.096
351.824
350.959
350.39
350.028
349.803
349.667
349.588
349.542
349.516
349.501
349.493
349.489
349.486
349.485
349.484
349.484
349.484
349.484
349.484
349.484
349.484
349.484
349.484
349.484
349.484
349.484
349.484
349.484
349.484
349.484
349.484
349.485
349.485
349.485
349.485
349.485
349.485
349.485
349.485
349.485
349.486
349.487
349.488
349.584
349.654
349.711
349.76
349.803
349.841
349.873
349.901
349.925
349.944
399.999
399.986
399.89
399.521
398.591
396.808
393.986
390.118
385.385
380.11
374.559
369.289
364.572
360.579
357.37
354.909
353.103
351.828
350.962
350.392
350.029
349.804
349.668
349.588
349.542
349.516
349.501
349.493
349.489
349.486
349.485
349.485
349.484
349.484
349.484
349.484
349.484
349.484
349.484
349.484
349.484
349.484
349.484
349.484
349.484
349.484
349.484
349.485
349.485
349.485
349.485
349.485
349.485
349.485
349.485
349.485
349.485
349.486
349.487
349.488
349.584
349.654
349.711
349.76
349.803
349.841
349.873
349.901
349.925
349.944
399.999
399.986
399.889
399.521
398.596
396.822
394.013
390.159
385.439
380.171
374.619
369.343
364.617
360.614
357.395
354.926
353.114
351.836
350.966
350.394
350.03
349.804
349.668
349.588
349.542
349.516
349.501
349.493
349.489
349.487
349.485
349.485
349.484
349.484
349.484
349.484
349.484
349.484
349.484
349.484
349.484
349.484
349.484
349.484
349.484
349.484
349.484
349.485
349.485
349.485
349.485
349.485
349.485
349.485
349.485
349.485
349.485
349.486
349.486
349.488
349.584
349.654
349.711
349.76
349.803
349.841
349.873
349.901
349.925
349.944
399.999
399.986
399.889
399.52
398.595
396.824
394.02
390.173
385.458
380.193
374.643
369.365
364.636
360.629
357.407
354.935
353.12
351.839
350.969
350.396
350.031
349.805
349.668
349.588
349.542
349.516
349.501
349.493
349.489
349.487
349.485
349.485
349.484
349.484
349.484
349.484
349.484
349.484
349.484
349.484
349.484
349.484
349.484
349.484
349.484
349.484
349.484
349.485
349.485
349.485
349.485
349.485
349.485
349.485
349.485
349.485
349.485
349.486
349.486
349.488
349.584
349.654
349.711
349.76
349.803
349.841
349.873
349.901
349.925
349.944
399.999
399.986
399.889
399.522
398.599
396.83
394.026
390.178
385.462
380.195
374.641
369.359
364.625
360.616
357.393
354.922
353.109
351.83
350.961
350.391
350.027
349.802
349.666
349.586
349.54
349.515
349.5
349.492
349.488
349.486
349.484
349.484
349.483
349.483
349.483
349.483
349.483
349.483
349.483
349.483
349.483
349.483
349.483
349.483
349.483
349.483
349.484
349.484
349.484
349.484
349.484
349.484
349.484
349.484
349.484
349.484
349.484
349.485
349.485
349.487
349.584
349.654
349.711
349.76
349.803
349.841
349.874
349.902
349.925
349.944
399.999
399.986
399.889
399.515
398.562
396.719
393.795
389.798
384.939
379.569
373.967
368.699
364.028
360.108
356.984
354.608
352.877
351.665
350.847
350.313
349.975
349.767
349.642
349.569
349.527
349.504
349.491
349.484
349.48
349.478
349.477
349.476
349.476
349.476
349.476
349.476
349.476
349.475
349.475
349.475
349.476
349.476
349.476
349.476
349.476
349.476
349.476
349.476
349.476
349.476
349.476
349.476
349.476
349.476
349.476
349.476
349.476
349.477
349.477
349.48
349.579
349.652
349.711
349.761
349.805
349.843
349.876
349.904
349.928
349.946
399.999
399.987
399.892
399.499
398.448
396.357
393.003
388.441
382.995
377.149
371.255
365.955
361.472
357.889
355.169
353.199
351.831
350.917
350.327
349.959
349.736
349.604
349.528
349.486
349.462
349.449
349.443
349.439
349.437
349.436
349.436
349.435
349.435
349.435
349.435
349.435
349.435
349.435
349.435
349.435
349.435
349.435
349.435
349.435
349.435
349.435
349.435
349.435
349.436
349.436
349.436
349.436
349.435
349.435
349.435
349.435
349.436
349.436
349.437
349.439
349.565
349.651
349.718
349.773
349.819
349.858
349.891
349.918
349.94
349.957
399.999
399.985
399.895
399.548
398.618
396.731
393.641
389.347
384.113
378.385
372.545
367.169
362.536
358.77
355.864
353.725
352.217
351.194
350.525
350.101
349.84
349.685
349.594
349.542
349.514
349.498
349.489
349.485
349.483
349.481
349.481
349.48
349.48
349.48
349.48
349.48
349.48
349.48
349.48
349.48
349.48
349.48
349.48
349.48
349.48
349.48
349.48
349.48
349.48
349.48
349.48
349.48
349.48
349.48
349.48
349.48
349.48
349.481
349.481
349.483
349.574
349.65
349.713
349.767
349.813
349.852
349.885
349.913
349.936
349.953
399.999
399.983
399.892
399.563
398.725
397.083
394.43
390.731
386.143
380.97
375.504
370.229
365.446
361.347
358.012
355.423
353.499
352.125
351.179
350.55
350.144
349.89
349.736
349.644
349.59
349.56
349.543
349.533
349.528
349.526
349.524
349.523
349.523
349.523
349.523
349.522
349.522
349.522
349.522
349.522
349.522
349.522
349.522
349.523
349.523
349.523
349.523
349.523
349.523
349.523
349.523
349.523
349.523
349.523
349.523
349.523
349.523
349.524
349.524
349.525
349.592
349.653
349.707
349.755
349.798
349.836
349.869
349.897
349.922
349.941
399.999
399.983
399.892
399.57
398.76
397.185
394.646
391.094
386.652
381.591
376.184
370.907
366.071
361.888
358.455
355.769
353.758
352.312
351.311
350.64
350.206
349.932
349.764
349.663
349.605
349.571
349.552
349.542
349.536
349.533
349.531
349.53
349.53
349.53
349.53
349.529
349.529
349.529
349.529
349.529
349.529
349.529
349.529
349.529
349.53
349.53
349.53
349.53
349.53
349.53
349.53
349.53
349.53
349.53
349.53
349.53
349.53
349.531
349.531
349.532
349.597
349.656
349.708
349.755