/*--------------------------------*- C++ -*----------------------------------*\
  =========                 |
  \\      /  F ield         | OpenFOAM: The Open Source CFD Toolbox
   \\    /   O peration     | Website:  https://openfoam.org
    \\  /    A nd           | Version:  12
     \\/     M anipulation  |
\*---------------------------------------------------------------------------*/
FoamFile
{
    format      ascii;
    class       volScalarField;
    location    "1050/porous";
    object      rho;
}
// * * * * * * * * * * * * * * * * * * * * * * * * * * * * * * * * * * * * * //

dimensions      [1 -3 0 0 0 0 0];

internalField   nonuniform List<scalar> 
140000
(
933.891
933.891
933.891
933.891
933.891
933.891
933.891
933.891
933.892
933.898
934.185
934.41
934.609
934.796
934.974
935.148
935.317
935.483
935.647
935.809
935.968
936.126
936.282
936.437
936.59
936.742
936.893
937.041
937.188
937.334
937.478
937.62
937.76
937.899
938.036
938.171
938.305
938.437
938.568
938.697
938.826
938.954
939.082
939.208
939.333
939.456
939.579
939.699
939.818
939.936
940.052
940.166
940.278
940.389
940.496
940.602
940.704
940.804
940.899
940.965
940.57
940.318
940.123
939.961
939.821
939.698
939.588
939.488
939.396
939.316
933.891
933.891
933.891
933.891
933.891
933.891
933.891
933.891
933.891
933.896
934.116
934.293
934.453
934.603
934.748
934.889
935.027
935.163
935.297
935.43
935.562
935.692
935.822
935.951
936.079
936.206
936.332
936.458
936.583
936.707
936.83
936.953
937.075
937.195
937.315
937.434
937.553
937.67
937.788
937.904
938.021
938.137
938.253
938.368
938.483
938.597
938.709
938.821
938.932
939.042
939.151
939.259
939.365
939.47
939.573
939.674
939.773
939.869
939.963
940.039
939.802
939.646
939.524
939.42
939.328
939.246
939.17
939.101
939.036
938.978
933.891
933.891
933.891
933.891
933.891
933.891
933.891
933.891
933.891
933.895
934.097
934.257
934.399
934.531
934.657
934.779
934.898
935.014
935.128
935.241
935.352
935.462
935.57
935.678
935.785
935.891
935.997
936.101
936.206
936.309
936.412
936.514
936.616
936.717
936.817
936.917
937.017
937.116
937.215
937.313
937.412
937.511
937.61
937.708
937.806
937.904
938.001
938.098
938.194
938.289
938.383
938.477
938.57
938.661
938.751
938.84
938.927
939.012
939.094
939.165
938.976
938.856
938.766
938.691
938.626
938.569
938.518
938.471
938.428
938.389
933.891
933.891
933.891
933.891
933.891
933.891
933.891
933.891
933.891
933.895
934.092
934.248
934.385
934.511
934.631
934.745
934.856
934.964
935.07
935.174
935.275
935.376
935.474
935.572
935.669
935.764
935.859
935.952
936.045
936.137
936.229
936.319
936.409
936.498
936.587
936.674
936.762
936.849
936.935
937.022
937.108
937.194
937.281
937.367
937.453
937.538
937.623
937.707
937.791
937.874
937.957
938.038
938.119
938.198
938.277
938.354
938.429
938.503
938.574
938.635
938.457
938.345
938.261
938.192
938.133
938.081
938.035
937.994
937.956
937.922
933.891
933.891
933.891
933.891
933.891
933.891
933.891
933.891
933.891
933.895
934.091
934.246
934.381
934.506
934.624
934.736
934.845
934.95
935.053
935.153
935.251
935.348
935.443
935.536
935.629
935.72
935.81
935.898
935.986
936.073
936.159
936.245
936.329
936.412
936.495
936.577
936.658
936.739
936.819
936.899
936.979
937.059
937.139
937.219
937.298
937.377
937.455
937.532
937.609
937.685
937.76
937.834
937.908
937.98
938.051
938.12
938.188
938.255
938.318
938.373
938.197
938.086
938.001
937.932
937.872
937.82
937.773
937.731
937.693
937.658
933.891
933.891
933.891
933.891
933.891
933.891
933.891
933.891
933.891
933.895
934.092
934.246
934.381
934.506
934.623
934.736
934.844
934.948
935.05
935.149
935.247
935.342
935.436
935.528
935.618
935.708
935.796
935.883
935.969
936.054
936.138
936.221
936.303
936.384
936.464
936.543
936.621
936.699
936.777
936.854
936.931
937.008
937.085
937.161
937.237
937.313
937.387
937.461
937.535
937.607
937.679
937.749
937.819
937.887
937.954
938.02
938.084
938.146
938.205
938.256
938.081
937.969
937.884
937.813
937.753
937.699
937.651
937.608
937.568
937.532
933.891
933.891
933.891
933.891
933.891
933.891
933.891
933.891
933.891
933.895
934.092
934.246
934.382
934.507
934.624
934.736
934.845
934.949
935.051
935.15
935.247
935.342
935.436
935.527
935.618
935.707
935.794
935.881
935.966
936.05
936.133
936.215
936.296
936.376
936.455
936.533
936.61
936.687
936.763
936.839
936.915
936.991
937.066
937.142
937.216
937.29
937.363
937.436
937.507
937.578
937.648
937.717
937.785
937.851
937.916
937.98
938.042
938.101
938.159
938.207
938.033
937.921
937.835
937.764
937.702
937.648
937.599
937.555
937.514
937.477
933.891
933.891
933.891
933.891
933.891
933.891
933.891
933.891
933.891
933.895
934.092
934.247
934.383
934.508
934.625
934.738
934.846
934.951
935.053
935.153
935.25
935.345
935.438
935.53
935.62
935.709
935.797
935.883
935.968
936.052
936.135
936.217
936.297
936.377
936.455
936.533
936.609
936.685
936.761
936.837
936.912
936.988
937.063
937.137
937.211
937.284
937.357
937.429
937.5
937.57
937.639
937.707
937.774
937.84
937.904
937.966
938.027
938.086
938.142
938.19
938.016
937.903
937.817
937.745
937.683
937.629
937.579
937.535
937.494
937.456
933.891
933.891
933.891
933.891
933.891
933.891
933.891
933.891
933.891
933.895
934.092
934.247
934.383
934.508
934.626
934.739
934.848
934.953
935.055
935.155
935.252
935.348
935.441
935.533
935.623
935.712
935.8
935.886
935.971
936.055
936.138
936.219
936.3
936.379
936.457
936.535
936.611
936.687
936.763
936.838
936.914
936.989
937.064
937.138
937.212
937.285
937.357
937.429
937.499
937.569
937.638
937.706
937.773
937.838
937.902
937.964
938.024
938.082
938.138
938.185
938.011
937.898
937.812
937.74
937.678
937.623
937.573
937.528
937.487
937.45
933.891
933.891
933.891
933.891
933.891
933.891
933.891
933.891
933.891
933.895
934.092
934.247
934.384
934.509
934.627
934.74
934.849
934.955
935.057
935.157
935.254
935.35
935.444
935.536
935.626
935.715
935.803
935.889
935.974
936.058
936.141
936.223
936.303
936.382
936.46
936.537
936.614
936.69
936.765
936.841
936.916
936.991
937.066
937.14
937.214
937.287
937.359
937.431
937.502
937.571
937.64
937.708
937.774
937.84
937.903
937.965
938.025
938.083
938.138
938.185
938.011
937.898
937.811
937.739
937.677
937.622
937.573
937.528
937.486
937.449
933.891
933.891
933.891
933.891
933.891
933.891
933.891
933.891
933.891
933.895
934.093
934.247
934.384
934.509
934.628
934.741
934.85
934.956
935.058
935.158
935.256
935.352
935.446
935.538
935.628
935.718
935.805
935.892
935.977
936.061
936.144
936.225
936.306
936.385
936.463
936.54
936.616
936.692
936.767
936.843
936.918
936.994
937.069
937.143
937.217
937.29
937.362
937.434
937.504
937.574
937.643
937.711
937.777
937.842
937.906
937.967
938.027
938.085
938.14
938.186
938.012
937.899
937.813
937.741
937.679
937.624
937.574
937.529
937.487
937.45
933.891
933.891
933.891
933.891
933.891
933.891
933.891
933.891
933.891
933.895
934.092
934.248
934.384
934.509
934.628
934.741
934.851
934.956
935.059
935.159
935.257
935.353
935.447
935.539
935.63
935.719
935.807
935.894
935.979
936.063
936.146
936.227
936.307
936.386
936.464
936.541
936.617
936.693
936.769
936.845
936.92
936.996
937.071
937.145
937.219
937.292
937.364
937.436
937.506
937.576
937.645
937.713
937.779
937.844
937.908
937.97
938.029
938.087
938.142
938.188
938.014
937.901
937.815
937.743
937.68
937.625
937.576
937.53
937.489
937.451
933.891
933.891
933.891
933.891
933.891
933.891
933.891
933.891
933.891
933.895
934.092
934.247
934.383
934.509
934.628
934.741
934.851
934.957
935.059
935.16
935.258
935.354
935.448
935.54
935.631
935.72
935.808
935.895
935.98
936.064
936.147
936.228
936.308
936.387
936.465
936.542
936.618
936.694
936.77
936.846
936.921
936.997
937.072
937.146
937.22
937.293
937.365
937.437
937.508
937.578
937.647
937.714
937.781
937.846
937.909
937.971
938.031
938.088
938.143
938.189
938.015
937.902
937.816
937.744
937.682
937.626
937.577
937.532
937.49
937.452
933.891
933.891
933.891
933.891
933.891
933.891
933.891
933.891
933.891
933.895
934.092
934.247
934.383
934.509
934.628
934.741
934.851
934.957
935.06
935.16
935.258
935.354
935.448
935.541
935.632
935.721
935.809
935.896
935.981
936.065
936.147
936.229
936.309
936.387
936.465
936.542
936.618
936.694
936.77
936.846
936.921
936.997
937.072
937.147
937.22
937.294
937.366
937.438
937.508
937.578
937.647
937.715
937.782
937.847
937.91
937.972
938.032
938.089
938.144
938.19
938.016
937.903
937.816
937.744
937.682
937.627
937.577
937.532
937.49
937.453
933.891
933.891
933.891
933.891
933.891
933.891
933.891
933.891
933.891
933.895
934.092
934.246
934.383
934.508
934.627
934.741
934.85
934.956
935.059
935.16
935.258
935.354
935.448
935.541
935.632
935.721
935.809
935.895
935.981
936.065
936.147
936.228
936.308
936.386
936.464
936.541
936.617
936.693
936.769
936.845
936.921
936.996
937.071
937.146
937.22
937.293
937.366
937.437
937.508
937.578
937.647
937.715
937.782
937.847
937.91
937.972
938.032
938.089
938.144
938.19
938.016
937.903
937.816
937.744
937.682
937.627
937.577
937.532
937.49
937.453
933.891
933.891
933.891
933.891
933.891
933.891
933.891
933.891
933.891
933.895
934.091
934.246
934.382
934.507
934.626
934.74
934.849
934.955
935.059
935.159
935.257
935.354
935.448
935.54
935.631
935.72
935.808
935.895
935.98
936.064
936.146
936.227
936.306
936.385
936.462
936.539
936.616
936.692
936.768
936.844
936.919
936.995
937.07
937.145
937.219
937.292
937.364
937.436
937.507
937.577
937.646
937.714
937.781
937.846
937.91
937.971
938.031
938.089
938.143
938.189
938.015
937.902
937.816
937.744
937.682
937.626
937.577
937.532
937.49
937.452
933.891
933.891
933.891
933.891
933.891
933.891
933.891
933.891
933.891
933.895
934.091
934.246
934.381
934.506
934.625
934.739
934.848
934.955
935.058
935.158
935.257
935.353
935.447
935.54
935.63
935.72
935.807
935.894
935.979
936.062
936.144
936.225
936.304
936.383
936.46
936.538
936.614
936.69
936.766
936.842
936.917
936.993
937.068
937.143
937.217
937.29
937.362
937.434
937.505
937.575
937.644
937.713
937.779
937.845
937.908
937.97
938.03
938.087
938.142
938.188
938.014
937.901
937.815
937.743
937.68
937.625
937.576
937.531
937.489
937.451
933.891
933.891
933.891
933.891
933.891
933.891
933.891
933.891
933.891
933.895
934.09
934.244
934.38
934.506
934.624
934.738
934.847
934.953
935.057
935.157
935.256
935.352
935.446
935.539
935.629
935.718
935.806
935.892
935.977
936.061
936.142
936.223
936.302
936.38
936.458
936.536
936.612
936.688
936.764
936.839
936.915
936.991
937.066
937.14
937.214
937.288
937.36
937.432
937.503
937.573
937.643
937.711
937.777
937.843
937.907
937.968
938.028
938.086
938.14
938.186
938.012
937.9
937.813
937.741
937.679
937.624
937.575
937.529
937.488
937.45
933.891
933.891
933.891
933.891
933.891
933.891
933.891
933.891
933.891
933.895
934.09
934.244
934.379
934.504
934.623
934.737
934.846
934.952
935.056
935.156
935.255
935.351
935.445
935.538
935.628
935.717
935.805
935.891
935.976
936.059
936.14
936.22
936.299
936.378
936.457
936.534
936.611
936.687
936.762
936.837
936.913
936.988
937.064
937.138
937.212
937.285
937.358
937.43
937.501
937.571
937.641
937.709
937.776
937.841
937.905
937.967
938.027
938.084
938.139
938.185
938.011
937.898
937.812
937.74
937.678
937.623
937.573
937.528
937.486
937.449
933.891
933.891
933.891
933.891
933.891
933.891
933.891
933.891
933.891
933.895
934.09
934.244
934.379
934.504
934.622
934.735
934.845
934.951
935.055
935.155
935.254
935.35
935.444
935.537
935.627
935.716
935.804
935.889
935.974
936.057
936.138
936.218
936.297
936.377
936.456
936.534
936.611
936.686
936.761
936.836
936.912
936.987
937.062
937.136
937.21
937.284
937.356
937.428
937.499
937.57
937.639
937.707
937.774
937.839
937.903
937.965
938.025
938.083
938.137
938.183
938.009
937.897
937.81
937.738
937.676
937.621
937.572
937.527
937.485
937.448
933.891
933.891
933.891
933.891
933.891
933.891
933.891
933.891
933.891
933.895
934.089
934.242
934.377
934.502
934.621
934.734
934.844
934.95
935.053
935.154
935.253
935.349
935.443
935.536
935.626
935.715
935.802
935.888
935.972
936.055
936.136
936.216
936.296
936.376
936.455
936.533
936.611
936.687
936.761
936.836
936.911
936.986
937.061
937.135
937.209
937.282
937.355
937.427
937.498
937.568
937.637
937.706
937.773
937.838
937.902
937.964
938.024
938.082
938.136
938.182
938.008
937.895
937.809
937.737
937.675
937.62
937.571
937.525
937.484
937.446
933.891
933.891
933.891
933.891
933.891
933.891
933.891
933.891
933.891
933.895
934.089
934.242
934.377
934.502
934.62
934.733
934.843
934.949
935.053
935.153
935.252
935.348
935.443
935.535
935.625
935.714
935.801
935.887
935.971
936.054
936.135
936.216
936.296
936.376
936.455
936.534
936.611
936.687
936.762
936.837
936.912
936.986
937.061
937.135
937.209
937.282
937.354
937.426
937.497
937.567
937.637
937.705
937.772
937.837
937.901
937.963
938.023
938.081
938.135
938.181
938.007
937.895
937.808
937.736
937.674
937.619
937.57
937.525
937.483
937.446
933.891
933.891
933.891
933.891
933.891
933.891
933.891
933.891
933.891
933.895
934.089
934.242
934.376
934.501
934.619
934.733
934.842
934.948
935.052
935.153
935.251
935.348
935.442
935.534
935.625
935.714
935.801
935.886
935.971
936.053
936.135
936.216
936.296
936.376
936.456
936.534
936.612
936.688
936.763
936.838
936.912
936.986
937.061
937.135
937.208
937.281
937.354
937.425
937.496
937.567
937.636
937.704
937.771
937.837
937.901
937.963
938.023
938.08
938.135
938.181
938.007
937.894
937.808
937.736
937.674
937.619
937.569
937.524
937.483
937.445
933.891
933.891
933.891
933.891
933.891
933.891
933.891
933.891
933.891
933.895
934.089
934.241
934.375
934.5
934.618
934.731
934.841
934.947
935.051
935.152
935.251
935.347
935.441
935.534
935.625
935.713
935.801
935.886
935.97
936.053
936.135
936.216
936.297
936.377
936.456
936.535
936.612
936.688
936.764
936.838
936.913
936.987
937.061
937.134
937.208
937.281
937.353
937.425
937.496
937.566
937.635
937.703
937.77
937.836
937.9
937.962
938.022
938.08
938.135
938.181
938.007
937.894
937.808
937.736
937.674
937.618
937.569
937.524
937.482
937.445
933.891
933.891
933.891
933.891
933.891
933.891
933.891
933.891
933.891
933.895
934.089
934.241
934.375
934.5
934.618
934.731
934.841
934.947
935.051
935.152
935.25
935.347
935.441
935.534
935.625
935.713
935.801
935.886
935.97
936.053
936.135
936.216
936.297
936.377
936.457
936.535
936.612
936.689
936.764
936.839
936.913
936.987
937.061
937.134
937.207
937.28
937.352
937.424
937.495
937.565
937.634
937.703
937.77
937.835
937.9
937.962
938.022
938.08
938.135
938.181
938.007
937.894
937.807
937.736
937.673
937.618
937.569
937.524
937.482
937.445
933.891
933.891
933.891
933.891
933.891
933.891
933.891
933.891
933.891
933.895
934.088
934.24
934.374
934.498
934.616
934.73
934.84
934.946
935.05
935.151
935.25
935.346
935.441
935.534
935.624
935.713
935.801
935.886
935.971
936.053
936.135
936.217
936.297
936.377
936.457
936.535
936.613
936.689
936.764
936.839
936.913
936.987
937.06
937.134
937.207
937.28
937.352
937.423
937.494
937.564
937.634
937.702
937.769
937.835
937.899
937.962
938.022
938.08
938.136
938.182
938.008
937.895
937.808
937.736
937.674
937.619
937.569
937.524
937.482
937.445
933.891
933.891
933.891
933.891
933.891
933.891
933.891
933.891
933.891
933.895
934.088
934.24
934.374
934.498
934.616
934.73
934.839
934.946
935.049
935.15
935.249
935.346
935.441
935.533
935.624
935.714
935.801
935.887
935.971
936.054
936.136
936.217
936.298
936.378
936.457
936.535
936.613
936.689
936.764
936.839
936.912
936.986
937.06
937.133
937.206
937.279
937.351
937.423
937.494
937.564
937.633
937.701
937.769
937.834
937.899
937.961
938.022
938.08
938.136
938.182
938.008
937.895
937.808
937.736
937.674
937.619
937.569
937.524
937.483
937.445
933.891
933.891
933.891
933.891
933.891
933.891
933.891
933.891
933.891
933.895
934.088
934.24
934.374
934.498
934.616
934.729
934.839
934.945
935.049
935.15
935.249
935.346
935.44
935.533
935.624
935.714
935.801
935.887
935.972
936.054
936.136
936.217
936.298
936.378
936.457
936.535
936.612
936.689
936.764
936.838
936.912
936.986
937.059
937.133
937.206
937.278
937.351
937.422
937.493
937.563
937.633
937.701
937.768
937.834
937.899
937.962
938.023
938.081
938.137
938.183
938.009
937.896
937.809
937.737
937.675
937.62
937.57
937.525
937.484
937.446
933.891
933.891
933.891
933.891
933.891
933.891
933.891
933.891
933.891
933.895
934.088
934.239
934.373
934.497
934.615
934.728
934.838
934.945
935.048
935.15
935.249
935.345
935.44
935.533
935.624
935.714
935.802
935.888
935.972
936.055
936.136
936.217
936.298
936.377
936.456
936.535
936.612
936.688
936.762
936.837
936.911
936.985
937.059
937.132
937.205
937.278
937.35
937.422
937.493
937.563
937.632
937.701
937.768
937.834
937.899
937.962
938.023
938.082
938.138
938.185
938.01
937.897
937.81
937.738
937.676
937.621
937.571
937.526
937.485
937.447
933.891
933.891
933.891
933.891
933.891
933.891
933.891
933.891
933.891
933.895
934.088
934.239
934.373
934.497
934.615
934.728
934.838
934.944
935.048
935.149
935.248
935.345
935.44
935.533
935.624
935.714
935.802
935.888
935.973
936.056
936.137
936.217
936.297
936.377
936.456
936.534
936.611
936.686
936.761
936.835
936.91
936.984
937.058
937.132
937.205
937.278
937.35
937.422
937.493
937.563
937.632
937.701
937.768
937.834
937.899
937.963
938.024
938.083
938.139
938.186
938.011
937.898
937.811
937.739
937.677
937.622
937.573
937.527
937.486
937.448
933.891
933.891
933.891
933.891
933.891
933.891
933.891
933.891
933.891
933.895
934.087
934.239
934.373
934.497
934.614
934.728
934.837
934.944
935.047
935.149
935.248
935.345
935.44
935.533
935.624
935.714
935.802
935.888
935.973
936.056
936.137
936.217
936.297
936.377
936.455
936.533
936.61
936.685
936.76
936.834
936.909
936.984
937.058
937.132
937.205
937.278
937.35
937.422
937.493
937.563
937.633
937.701
937.769
937.835
937.9
937.964
938.025
938.085
938.142
938.189
938.014
937.9
937.814
937.741
937.679
937.624
937.575
937.529
937.488
937.45
933.891
933.891
933.891
933.891
933.891
933.891
933.891
933.891
933.891
933.895
934.087
934.239
934.372
934.496
934.614
934.727
934.837
934.943
935.047
935.148
935.247
935.344
935.439
935.532
935.624
935.714
935.802
935.888
935.973
936.057
936.138
936.218
936.297
936.376
936.455
936.532
936.609
936.684
936.759
936.834
936.91
936.985
937.059
937.133
937.206
937.279
937.351
937.423
937.494
937.564
937.634
937.702
937.77
937.837
937.902
937.966
938.027
938.087
938.143
938.191
938.016
937.903
937.816
937.743
937.681
937.626
937.576
937.531
937.49
937.452
933.891
933.891
933.891
933.891
933.891
933.891
933.891
933.891
933.891
933.895
934.087
934.239
934.372
934.496
934.614
934.727
934.836
934.943
935.046
935.148
935.247
935.343
935.439
935.532
935.623
935.713
935.801
935.888
935.973
936.057
936.138
936.219
936.298
936.376
936.455
936.532
936.608
936.684
936.759
936.835
936.911
936.986
937.06
937.134
937.208
937.28
937.353
937.424
937.495
937.566
937.635
937.704
937.772
937.838
937.904
937.967
938.03
938.09
938.147
938.194
938.019
937.905
937.818
937.746
937.683
937.628
937.579
937.533
937.492
937.454
933.891
933.891
933.891
933.891
933.891
933.891
933.891
933.891
933.891
933.895
934.087
934.239
934.372
934.496
934.613
934.726
934.836
934.942
935.046
935.147
935.246
935.343
935.438
935.531
935.622
935.712
935.801
935.888
935.973
936.056
936.138
936.219
936.298
936.376
936.454
936.531
936.608
936.684
936.76
936.836
936.912
936.987
937.061
937.136
937.209
937.282
937.354
937.426
937.497
937.567
937.637
937.705
937.773
937.84
937.906
937.97
938.032
938.092
938.149
938.198
938.022
937.908
937.821
937.748
937.686
937.631
937.581
937.535
937.494
937.456
933.891
933.891
933.891
933.891
933.891
933.891
933.891
933.891
933.891
933.895
934.087
934.238
934.372
934.495
934.613
934.726
934.835
934.941
935.045
935.146
935.245
935.342
935.437
935.53
935.621
935.711
935.8
935.887
935.972
936.056
936.138
936.218
936.297
936.376
936.454
936.531
936.608
936.684
936.76
936.837
936.912
936.988
937.062
937.137
937.21
937.283
937.355
937.427
937.498
937.568
937.638
937.707
937.775
937.841
937.907
937.971
938.034
938.094
938.152
938.2
938.024
937.91
937.823
937.75
937.688
937.632
937.582
937.537
937.495
937.457
933.891
933.891
933.891
933.891
933.891
933.891
933.891
933.891
933.891
933.895
934.087
934.238
934.371
934.495
934.612
934.725
934.834
934.94
935.044
935.145
935.244
935.34
935.435
935.529
935.62
935.71
935.799
935.885
935.971
936.054
936.136
936.217
936.296
936.375
936.453
936.53
936.607
936.684
936.76
936.837
936.913
936.988
937.063
937.137
937.21
937.283
937.356
937.427
937.498
937.569
937.638
937.707
937.775
937.842
937.908
937.972
938.035
938.096
938.154
938.202
938.026
937.912
937.824
937.752
937.689
937.634
937.584
937.538
937.496
937.458
933.891
933.891
933.891
933.891
933.891
933.891
933.891
933.891
933.891
933.895
934.087
934.238
934.371
934.494
934.612
934.724
934.833
934.939
935.043
935.144
935.242
935.339
935.434
935.527
935.619
935.709
935.797
935.884
935.969
936.053
936.135
936.216
936.295
936.373
936.451
936.529
936.606
936.683
936.76
936.836
936.912
936.988
937.063
937.137
937.21
937.283
937.355
937.427
937.498
937.569
937.638
937.707
937.775
937.842
937.908
937.973
938.036
938.097
938.155
938.204
938.027
937.913
937.825
937.753
937.69
937.634
937.584
937.539
937.497
937.459
933.891
933.891
933.891
933.891
933.891
933.891
933.891
933.891
933.891
933.895
934.087
934.238
934.371
934.494
934.611
934.723
934.832
934.938
935.041
935.142
935.241
935.337
935.432
935.525
935.617
935.707
935.795
935.882
935.967
936.051
936.133
936.214
936.293
936.372
936.45
936.527
936.605
936.682
936.759
936.835
936.911
936.987
937.062
937.136
937.209
937.282
937.354
937.426
937.497
937.568
937.637
937.706
937.775
937.842
937.908
937.972
938.036
938.097
938.155
938.204
938.027
937.913
937.825
937.753
937.69
937.634
937.584
937.539
937.497
937.459
933.891
933.891
933.891
933.891
933.891
933.891
933.891
933.891
933.891
933.895
934.087
934.238
934.37
934.493
934.61
934.722
934.831
934.937
935.04
935.141
935.239
935.336
935.43
935.523
935.615
935.705
935.793
935.88
935.965
936.048
936.13
936.211
936.291
936.369
936.448
936.525
936.603
936.68
936.757
936.834
936.91
936.985
937.06
937.134
937.208
937.281
937.353
937.424
937.496
937.566
937.636
937.705
937.773
937.84
937.906
937.972
938.035
938.096
938.155
938.204
938.027
937.913
937.825
937.752
937.689
937.634
937.583
937.538
937.496
937.458
933.891
933.891
933.891
933.891
933.891
933.891
933.891
933.891
933.891
933.895
934.087
934.237
934.37
934.493
934.609
934.721
934.83
934.935
935.038
935.139
935.237
935.334
935.428
935.521
935.612
935.702
935.79
935.877
935.962
936.046
936.128
936.208
936.288
936.367
936.445
936.523
936.601
936.678
936.755
936.832
936.908
936.983
937.058
937.132
937.205
937.278
937.35
937.422
937.493
937.564
937.633
937.702
937.771
937.838
937.904
937.969
938.033
938.095
938.153
938.204
938.026
937.911
937.824
937.751
937.688
937.632
937.582
937.537
937.495
937.457
933.891
933.891
933.891
933.891
933.891
933.891
933.891
933.891
933.891
933.895
934.086
934.237
934.369
934.492
934.608
934.72
934.829
934.934
935.037
935.137
935.235
935.331
935.426
935.519
935.61
935.699
935.788
935.874
935.959
936.043
936.125
936.205
936.285
936.364
936.442
936.52
936.598
936.676
936.753
936.829
936.905
936.98
937.055
937.129
937.203
937.276
937.348
937.419
937.491
937.561
937.631
937.7
937.768
937.836
937.902
937.968
938.031
938.093
938.152
938.202
938.025
937.91
937.822
937.75
937.687
937.631
937.581
937.536
937.494
937.456
933.891
933.891
933.891
933.891
933.891
933.891
933.891
933.891
933.891
933.895
934.086
934.236
934.369
934.491
934.607
934.719
934.827
934.932
935.035
935.135
935.233
935.329
935.423
935.516
935.607
935.696
935.784
935.871
935.956
936.039
936.121
936.202
936.282
936.361
936.439
936.518
936.596
936.673
936.75
936.827
936.903
936.978
937.053
937.127
937.2
937.273
937.345
937.417
937.488
937.559
937.629
937.698
937.766
937.834
937.901
937.966
938.031
938.093
938.152
938.203
938.025
937.911
937.823
937.75
937.688
937.632
937.582
937.537
937.495
937.457
933.891
933.891
933.891
933.891
933.891
933.891
933.891
933.891
933.891
933.895
934.086
934.236
934.368
934.491
934.606
934.718
934.826
934.931
935.033
935.133
935.231
935.327
935.421
935.513
935.604
935.694
935.782
935.868
935.953
936.037
936.119
936.199
936.279
936.359
936.438
936.516
936.594
936.672
936.749
936.826
936.902
936.977
937.052
937.126
937.2
937.273
937.345
937.417
937.489
937.56
937.63
937.699
937.768
937.836
937.903
937.969
938.034
938.097
938.157
938.208
938.031
937.916
937.828
937.756
937.693
937.638
937.588
937.543
937.502
937.464
933.891
933.891
933.891
933.891
933.891
933.891
933.891
933.891
933.891
933.895
934.085
934.236
934.368
934.49
934.605
934.717
934.824
934.929
935.031
935.131
935.229
935.325
935.419
935.512
935.603
935.692
935.78
935.867
935.952
936.035
936.118
936.199
936.279
936.359
936.439
936.518
936.596
936.674
936.752
936.829
936.905
936.981
937.056
937.131
937.205
937.279
937.352
937.425
937.497
937.568
937.639
937.709
937.779
937.848
937.916
937.983
938.048
938.112
938.174
938.226
938.048
937.934
937.847
937.774
937.712
937.657
937.608
937.563
937.522
937.485
933.891
933.891
933.891
933.891
933.891
933.891
933.891
933.891
933.891
933.895
934.086
934.236
934.368
934.49
934.605
934.717
934.824
934.929
935.031
935.131
935.229
935.326
935.42
935.513
935.605
935.695
935.783
935.87
935.956
936.041
936.124
936.206
936.287
936.368
936.449
936.529
936.608
936.687
936.766
936.844
936.922
936.999
937.076
937.152
937.227
937.302
937.377
937.451
937.524
937.597
937.67
937.742
937.813
937.884
937.954
938.022
938.09
938.156
938.22
938.274
938.096
937.982
937.896
937.824
937.763
937.708
937.66
937.616
937.576
937.54
933.891
933.891
933.891
933.891
933.891
933.891
933.891
933.891
933.891
933.895
934.085
934.236
934.368
934.49
934.607
934.718
934.827
934.932
935.035
935.136
935.235
935.333
935.429
935.523
935.616
935.708
935.798
935.887
935.975
936.062
936.147
936.231
936.315
936.399
936.482
936.564
936.647
936.728
936.81
936.891
936.971
937.051
937.131
937.21
937.289
937.367
937.445
937.522
937.599
937.676
937.752
937.827
937.902
937.976
938.05
938.123
938.195
938.265
938.332
938.391
938.212
938.099
938.013
937.942
937.882
937.829
937.782
937.739
937.701
937.666
933.891
933.891
933.891
933.891
933.891
933.891
933.891
933.891
933.891
933.895
934.086
934.238
934.372
934.497
934.615
934.729
934.84
934.948
935.054
935.159
935.261
935.362
935.462
935.561
935.658
935.754
935.849
935.943
936.036
936.128
936.218
936.308
936.397
936.487
936.575
936.664
936.752
936.84
936.927
937.015
937.101
937.188
937.274
937.36
937.445
937.53
937.614
937.699
937.782
937.866
937.949
938.031
938.113
938.195
938.276
938.356
938.435
938.513
938.588
938.654
938.472
938.358
938.273
938.203
938.143
938.091
938.044
938.002
937.964
937.93
933.891
933.891
933.891
933.891
933.891
933.891
933.891
933.891
933.891
933.895
934.092
934.248
934.388
934.518
934.643
934.764
934.883
934.999
935.114
935.228
935.34
935.451
935.56
935.669
935.777
935.884
935.99
936.095
936.199
936.302
936.404
936.506
936.607
936.708
936.808
936.909
937.009
937.109
937.209
937.308
937.407
937.506
937.604
937.702
937.8
937.897
937.993
938.09
938.185
938.281
938.376
938.47
938.564
938.657
938.75
938.842
938.932
939.022
939.108
939.184
938.99
938.869
938.778
938.702
938.637
938.579
938.527
938.48
938.436
938.397
933.891
933.891
933.891
933.891
933.891
933.891
933.891
933.891
933.891
933.896
934.11
934.285
934.442
934.591
934.734
934.875
935.013
935.15
935.285
935.419
935.551
935.683
935.814
935.944
936.073
936.201
936.328
936.454
936.579
936.702
936.825
936.947
937.068
937.189
937.309
937.428
937.547
937.666
937.784
937.901
938.018
938.134
938.249
938.363
938.477
938.59
938.702
938.813
938.924
939.034
939.143
939.252
939.359
939.466
939.571
939.675
939.778
939.879
939.977
940.058
939.817
939.66
939.536
939.432
939.339
939.256
939.18
939.11
939.045
938.987
933.891
933.891
933.891
933.891
933.891
933.891
933.891
933.891
933.892
933.898
934.18
934.401
934.597
934.783
934.961
935.133
935.304
935.471
935.636
935.799
935.96
936.12
936.277
936.434
936.588
936.741
936.892
937.041
937.188
937.332
937.475
937.616
937.756
937.894
938.031
938.166
938.301
938.434
938.565
938.696
938.825
938.952
939.078
939.203
939.327
939.449
939.57
939.69
939.808
939.925
940.042
940.157
940.271
940.383
940.494
940.604
940.711
940.816
940.916
940.988
940.588
940.333
940.137
939.974
939.833
939.709
939.598
939.498
939.406
939.326
933.891
933.891
933.891
933.891
933.891
933.891
933.891
933.891
933.891
933.896
934.113
934.317
934.509
934.691
934.868
935.04
935.209
935.375
935.539
935.701
935.861
936.019
936.176
936.332
936.485
936.638
936.789
936.938
937.086
937.233
937.377
937.52
937.661
937.801
937.938
938.074
938.209
938.341
938.473
938.603
938.733
938.861
938.989
939.115
939.241
939.365
939.487
939.608
939.728
939.846
939.962
940.077
940.19
940.301
940.409
940.516
940.619
940.72
940.816
940.888
940.563
940.321
940.129
939.968
939.829
939.706
939.595
939.495
939.403
939.322
933.891
933.891
933.891
933.891
933.891
933.891
933.891
933.891
933.891
933.894
934.049
934.203
934.351
934.495
934.636
934.773
934.909
935.043
935.176
935.307
935.438
935.567
935.696
935.824
935.952
936.078
936.204
936.33
936.454
936.578
936.701
936.824
936.945
937.066
937.186
937.305
937.424
937.542
937.659
937.776
937.892
938.008
938.124
938.24
938.354
938.468
938.582
938.694
938.805
938.915
939.025
939.133
939.24
939.345
939.449
939.551
939.651
939.748
939.844
939.925
939.758
939.622
939.508
939.408
939.32
939.24
939.167
939.098
939.035
938.978
933.891
933.891
933.891
933.891
933.891
933.891
933.891
933.891
933.891
933.894
934.033
934.17
934.301
934.427
934.549
934.667
934.783
934.897
935.01
935.121
935.23
935.339
935.447
935.554
935.66
935.765
935.87
935.974
936.077
936.18
936.283
936.384
936.485
936.586
936.686
936.786
936.885
936.984
937.082
937.181
937.279
937.377
937.476
937.574
937.672
937.769
937.866
937.963
938.058
938.154
938.248
938.342
938.435
938.527
938.617
938.707
938.794
938.881
938.964
939.039
938.916