/*--------------------------------*- C++ -*----------------------------------*\
  =========                 |
  \\      /  F ield         | OpenFOAM: The Open Source CFD Toolbox
   \\    /   O peration     | Website:  https://openfoam.org
    \\  /    A nd           | Version:  12
     \\/     M anipulation  |
\*---------------------------------------------------------------------------*/
FoamFile
{
    format      ascii;
    class       volScalarField;
    location    "1050/porous";
    object      T;
}
// * * * * * * * * * * * * * * * * * * * * * * * * * * * * * * * * * * * * * //

dimensions      [0 0 0 1 0 0 0];

internalField   nonuniform List<scalar> 
140000
(
400
400
400
400
400
400
400
400
400
399.992
399.684
399.444
399.229
399.028
398.835
398.648
398.465
398.285
398.108
397.933
397.76
397.589
397.419
397.25
397.084
396.918
396.754
396.592
396.431
396.272
396.114
395.958
395.804
395.652
395.502
395.353
395.206
395.061
394.917
394.773
394.631
394.489
394.349
394.209
394.07
393.933
393.798
393.664
393.532
393.401
393.272
393.145
393.02
392.896
392.776
392.658
392.543
392.432
392.326
392.251
392.693
392.975
393.193
393.373
393.528
393.665
393.788
393.899
394
394.089
400
400
400
400
400
400
400
400
400
399.995
399.76
399.569
399.397
399.235
399.08
398.928
398.779
398.632
398.487
398.343
398.201
398.059
397.919
397.779
397.64
397.502
397.364
397.228
397.092
396.957
396.822
396.688
396.555
396.423
396.292
396.162
396.032
395.903
395.775
395.646
395.518
395.391
395.263
395.136
395.01
394.885
394.76
394.636
394.514
394.392
394.272
394.152
394.035
393.919
393.804
393.692
393.582
393.475
393.37
393.286
393.55
393.723
393.859
393.974
394.076
394.167
394.25
394.328
394.399
394.463
400
400
400
400
400
400
400
400
400
399.996
399.779
399.608
399.455
399.313
399.177
399.046
398.918
398.793
398.669
398.548
398.428
398.309
398.191
398.075
397.959
397.844
397.729
397.615
397.502
397.39
397.278
397.167
397.056
396.946
396.836
396.727
396.618
396.51
396.402
396.294
396.186
396.078
395.97
395.862
395.754
395.647
395.54
395.434
395.328
395.224
395.12
395.017
394.914
394.813
394.714
394.616
394.52
394.425
394.335
394.256
394.466
394.598
394.698
394.78
394.852
394.915
394.971
395.023
395.071
395.114
400
400
400
400
400
400
400
400
400
399.996
399.785
399.617
399.471
399.335
399.206
399.082
398.963
398.846
398.732
398.62
398.51
398.402
398.295
398.189
398.085
397.981
397.879
397.777
397.677
397.577
397.477
397.379
397.281
397.184
397.088
396.992
396.897
396.802
396.708
396.613
396.519
396.424
396.33
396.236
396.142
396.048
395.955
395.863
395.771
395.679
395.589
395.499
395.411
395.323
395.237
395.152
395.069
394.988
394.909
394.842
395.038
395.161
395.254
395.33
395.395
395.452
395.503
395.548
395.59
395.627
400
400
400
400
400
400
400
400
400
399.996
399.786
399.62
399.474
399.34
399.213
399.092
398.975
398.862
398.751
398.643
398.536
398.432
398.329
398.228
398.128
398.03
397.932
397.836
397.74
397.646
397.552
397.46
397.368
397.277
397.187
397.098
397.01
396.922
396.834
396.747
396.659
396.572
396.485
396.398
396.311
396.225
396.14
396.055
395.971
395.887
395.805
395.723
395.643
395.564
395.486
395.409
395.334
395.261
395.191
395.131
395.324
395.447
395.54
395.616
395.682
395.739
395.79
395.837
395.879
395.917
400
400
400
400
400
400
400
400
400
399.996
399.785
399.619
399.474
399.34
399.214
399.093
398.976
398.864
398.754
398.647
398.542
398.438
398.337
398.238
398.139
398.043
397.947
397.853
397.759
397.667
397.576
397.486
397.397
397.309
397.221
397.135
397.05
396.965
396.881
396.796
396.712
396.628
396.544
396.461
396.378
396.295
396.213
396.132
396.052
395.973
395.894
395.817
395.74
395.665
395.592
395.52
395.45
395.381
395.316
395.26
395.452
395.575
395.669
395.746
395.813
395.872
395.924
395.972
396.016
396.055
400
400
400
400
400
400
400
400
400
399.996
399.785
399.619
399.474
399.339
399.213
399.092
398.975
398.863
398.753
398.646
398.541
398.438
398.337
398.238
398.14
398.044
397.949
397.855
397.763
397.671
397.581
397.492
397.404
397.317
397.231
397.146
397.062
396.978
396.895
396.812
396.729
396.647
396.564
396.482
396.401
396.32
396.24
396.161
396.082
396.004
395.928
395.852
395.778
395.705
395.633
395.564
395.496
395.43
395.366
395.313
395.505
395.628
395.723
395.801
395.868
395.928
395.981
396.03
396.074
396.115
400
400
400
400
400
400
400
400
400
399.996
399.785
399.619
399.473
399.338
399.211
399.09
398.973
398.86
398.75
398.643
398.538
398.435
398.334
398.235
398.137
398.041
397.946
397.853
397.76
397.669
397.579
397.49
397.403
397.316
397.231
397.147
397.063
396.98
396.898
396.815
396.733
396.65
396.569
396.487
396.406
396.326
396.247
396.168
396.09
396.014
395.938
395.863
395.79
395.717
395.647
395.578
395.512
395.447
395.385
395.333
395.524
395.648
395.743
395.821
395.889
395.949
396.003
396.052
396.097
396.138
400
400
400
400
400
400
400
400
400
399.996
399.784
399.618
399.472
399.337
399.21
399.089
398.972
398.858
398.748
398.641
398.536
398.432
398.331
398.232
398.134
398.038
397.943
397.849
397.757
397.666
397.576
397.487
397.4
397.313
397.228
397.144
397.061
396.978
396.896
396.814
396.731
396.649
396.567
396.486
396.406
396.326
396.247
396.168
396.091
396.014
395.939
395.864
395.791
395.72
395.65
395.581
395.515
395.451
395.39
395.338
395.53
395.653
395.748
395.827
395.895
395.955
396.009
396.059
396.104
396.145
400
400
400
400
400
400
400
400
400
399.996
399.785
399.618
399.472
399.337
399.209
399.088
398.97
398.857
398.746
398.638
398.533
398.43
398.328
398.229
398.131
398.034
397.939
397.846
397.753
397.662
397.572
397.484
397.396
397.31
397.225
397.141
397.058
396.976
396.893
396.811
396.728
396.646
396.565
396.483
396.403
396.323
396.244
396.166
396.088
396.012
395.936
395.862
395.789
395.718
395.648
395.58
395.514
395.45
395.389
395.338
395.53
395.654
395.749
395.827
395.896
395.956
396.01
396.06
396.105
396.146
400
400
400
400
400
400
400
400
400
399.996
399.784
399.618
399.472
399.337
399.209
399.087
398.97
398.856
398.745
398.637
398.531
398.428
398.326
398.227
398.129
398.032
397.937
397.843
397.751
397.659
397.569
397.481
397.394
397.308
397.223
397.139
397.056
396.973
396.891
396.808
396.726
396.644
396.562
396.481
396.4
396.32
396.241
396.163
396.085
396.009
395.933
395.859
395.786
395.715
395.645
395.577
395.512
395.448
395.388
395.337
395.528
395.652
395.747
395.826
395.894
395.954
396.009
396.058
396.104
396.145
400
400
400
400
400
400
400
400
400
399.996
399.784
399.618
399.472
399.337
399.209
399.087
398.969
398.855
398.744
398.636
398.53
398.426
398.325
398.225
398.127
398.03
397.935
397.841
397.748
397.657
397.567
397.479
397.392
397.306
397.221
397.137
397.054
396.972
396.889
396.806
396.724
396.642
396.56
396.478
396.398
396.318
396.239
396.16
396.083
396.006
395.931
395.857
395.784
395.712
395.643
395.575
395.509
395.446
395.385
395.335
395.526
395.65
395.745
395.824
395.892
395.953
396.007
396.057
396.102
396.144
400
400
400
400
400
400
400
400
400
399.996
399.785
399.618
399.472
399.337
399.209
399.087
398.969
398.855
398.744
398.635
398.529
398.426
398.324
398.224
398.126
398.029
397.933
397.84
397.747
397.656
397.566
397.478
397.391
397.305
397.22
397.137
397.054
396.971
396.888
396.805
396.723
396.64
396.559
396.477
396.396
396.317
396.237
396.159
396.081
396.005
395.929
395.855
395.782
395.711
395.641
395.573
395.507
395.444
395.384
395.333
395.525
395.649
395.744
395.823
395.891
395.951
396.006
396.055
396.101
396.142
400
400
400
400
400
400
400
400
400
399.996
399.784
399.618
399.472
399.337
399.209
399.087
398.969
398.855
398.743
398.635
398.529
398.425
398.323
398.223
398.125
398.028
397.933
397.839
397.746
397.655
397.566
397.477
397.39
397.305
397.22
397.137
397.054
396.971
396.888
396.805
396.723
396.64
396.558
396.477
396.396
396.316
396.237
396.158
396.081
396.004
395.929
395.854
395.781
395.71
395.64
395.572
395.507
395.443
395.383
395.333
395.524
395.648
395.743
395.822
395.89
395.951
396.005
396.055
396.1
396.142
400
400
400
400
400
400
400
400
400
399.996
399.785
399.619
399.473
399.338
399.21
399.088
398.97
398.855
398.744
398.635
398.529
398.425
398.323
398.223
398.125
398.028
397.933
397.839
397.747
397.655
397.566
397.478
397.391
397.306
397.221
397.138
397.055
396.972
396.889
396.806
396.723
396.641
396.559
396.477
396.397
396.317
396.237
396.159
396.081
396.004
395.929
395.854
395.781
395.71
395.64
395.572
395.507
395.443
395.383
395.333
395.524
395.648
395.743
395.822
395.89
395.951
396.005
396.055
396.1
396.142
400
400
400
400
400
400
400
400
400
399.996
399.785
399.62
399.474
399.339
399.211
399.089
398.97
398.856
398.745
398.636
398.53
398.426
398.324
398.224
398.126
398.029
397.933
397.84
397.747
397.656
397.567
397.479
397.393
397.307
397.223
397.139
397.056
396.973
396.89
396.808
396.725
396.642
396.56
396.479
396.398
396.318
396.239
396.16
396.082
396.006
395.93
395.855
395.782
395.71
395.641
395.573
395.507
395.444
395.384
395.334
395.525
395.649
395.744
395.823
395.891
395.951
396.006
396.055
396.101
396.142
400
400
400
400
400
400
400
400
400
399.996
399.785
399.62
399.474
399.34
399.212
399.089
398.971
398.857
398.745
398.637
398.531
398.427
398.325
398.225
398.126
398.03
397.935
397.841
397.749
397.658
397.569
397.481
397.395
397.31
397.225
397.141
397.058
396.975
396.893
396.81
396.727
396.645
396.562
396.481
396.4
396.32
396.241
396.162
396.084
396.007
395.932
395.857
395.784
395.712
395.642
395.574
395.509
395.445
395.385
395.335
395.526
395.65
395.745
395.824
395.892
395.953
396.007
396.056
396.102
396.143
400
400
400
400
400
400
400
400
400
399.996
399.787
399.621
399.475
399.34
399.213
399.091
398.973
398.858
398.747
398.638
398.532
398.428
398.326
398.226
398.128
398.031
397.936
397.842
397.75
397.66
397.571
397.484
397.398
397.313
397.228
397.143
397.06
396.977
396.895
396.812
396.73
396.647
396.565
396.484
396.403
396.322
396.243
396.164
396.086
396.01
395.934
395.859
395.786
395.714
395.644
395.576
395.51
395.447
395.387
395.337
395.528
395.652
395.747
395.826
395.894
395.954
396.008
396.058
396.103
396.145
400
400
400
400
400
400
400
400
400
399.996
399.787
399.622
399.477
399.342
399.214
399.092
398.974
398.859
398.748
398.639
398.533
398.429
398.327
398.227
398.129
398.032
397.937
397.844
397.752
397.662
397.573
397.487
397.401
397.315
397.229
397.145
397.061
396.979
396.897
396.814
396.732
396.649
396.567
396.486
396.405
396.325
396.245
396.167
396.089
396.012
395.936
395.861
395.788
395.716
395.646
395.578
395.512
395.449
395.389
395.338
395.53
395.653
395.748
395.827
395.895
395.956
396.01
396.059
396.105
396.146
400
400
400
400
400
400
400
400
400
399.996
399.787
399.622
399.477
399.342
399.215
399.093
398.975
398.86
398.749
398.64
398.534
398.43
398.328
398.228
398.13
398.033
397.939
397.846
397.754
397.664
397.576
397.489
397.403
397.316
397.23
397.146
397.062
396.979
396.898
396.816
396.733
396.651
396.569
396.488
396.407
396.327
396.247
396.169
396.091
396.014
395.938
395.863
395.79
395.718
395.648
395.58
395.514
395.45
395.39
395.34
395.531
395.655
395.75
395.829
395.897
395.957
396.011
396.061
396.106
396.147
400
400
400
400
400
400
400
400
400
399.996
399.788
399.623
399.479
399.344
399.217
399.094
398.976
398.862
398.75
398.641
398.535
398.431
398.329
398.229
398.131
398.035
397.94
397.847
397.756
397.666
397.578
397.491
397.404
397.317
397.231
397.146
397.062
396.979
396.897
396.816
396.734
396.652
396.57
396.489
396.408
396.328
396.249
396.17
396.092
396.015
395.939
395.865
395.791
395.719
395.649
395.581
395.515
395.452
395.392
395.341
395.532
395.656
395.751
395.83
395.898
395.958
396.013
396.062
396.107
396.149
400
400
400
400
400
400
400
400
400
399.996
399.788
399.623
399.479
399.345
399.218
399.095
398.977
398.863
398.751
398.642
398.536
398.432
398.33
398.23
398.132
398.035
397.941
397.848
397.757
397.667
397.579
397.491
397.404
397.317
397.231
397.145
397.061
396.978
396.896
396.815
396.733
396.652
396.571
396.49
396.409
396.329
396.25
396.171
396.093
396.016
395.94
395.866
395.792
395.72
395.65
395.582
395.516
395.453
395.392
395.342
395.533
395.657
395.752
395.831
395.899
395.959
396.014
396.063
396.108
396.15
400
400
400
400
400
400
400
400
400
399.996
399.788
399.624
399.48
399.346
399.218
399.096
398.978
398.863
398.752
398.643
398.537
398.432
398.33
398.23
398.132
398.036
397.942
397.849
397.758
397.668
397.579
397.491
397.404
397.317
397.23
397.145
397.061
396.977
396.895
396.814
396.733
396.652
396.571
396.49
396.409
396.33
396.25
396.172
396.094
396.017
395.941
395.866
395.793
395.721
395.651
395.582
395.516
395.453
395.393
395.342
395.534
395.657
395.752
395.831
395.899
395.96
396.014
396.064
396.109
396.15
400
400
400
400
400
400
400
400
400
399.996
399.788
399.625
399.48
399.347
399.22
399.097
398.979
398.865
398.753
398.644
398.537
398.433
398.331
398.231
398.133
398.036
397.942
397.849
397.758
397.668
397.579
397.491
397.403
397.316
397.23
397.144
397.06
396.977
396.895
396.813
396.732
396.651
396.571
396.49
396.41
396.33
396.251
396.172
396.095
396.018
395.942
395.867
395.794
395.722
395.651
395.583
395.517
395.453
395.393
395.342
395.534
395.658
395.753
395.832
395.9
395.96
396.014
396.064
396.109
396.151
400
400
400
400
400
400
400
400
400
399.996
399.788
399.625
399.481
399.347
399.22
399.098
398.98
398.865
398.753
398.644
398.538
398.433
398.331
398.231
398.133
398.036
397.942
397.849
397.758
397.668
397.579
397.491
397.403
397.316
397.229
397.144
397.06
396.976
396.894
396.813
396.732
396.651
396.571
396.49
396.41
396.331
396.252
396.173
396.095
396.019
395.943
395.868
395.794
395.722
395.652
395.583
395.517
395.454
395.393
395.343
395.534
395.658
395.753
395.832
395.9
395.96
396.015
396.064
396.11
396.151
400
400
400
400
400
400
400
400
400
399.996
399.789
399.626
399.482
399.348
399.221
399.099
398.981
398.866
398.754
398.645
398.538
398.434
398.332
398.231
398.133
398.036
397.942
397.849
397.758
397.668
397.579
397.49
397.403
397.315
397.229
397.144
397.059
396.976
396.894
396.813
396.732
396.652
396.571
396.491
396.411
396.331
396.252
396.174
396.096
396.019
395.943
395.869
395.795
395.723
395.652
395.583
395.517
395.453
395.392
395.341
395.533
395.657
395.752
395.831
395.899
395.96
396.014
396.064
396.109
396.15
400
400
400
400
400
400
400
400
400
399.996
399.789
399.626
399.482
399.348
399.221
399.099
398.981
398.866
398.755
398.645
398.539
398.434
398.332
398.231
398.133
398.036
397.941
397.848
397.757
397.667
397.578
397.49
397.402
397.315
397.229
397.144
397.059
396.976
396.894
396.813
396.732
396.652
396.571
396.491
396.411
396.332
396.253
396.175
396.097
396.02
395.944
395.869
395.795
395.723
395.653
395.584
395.517
395.453
395.392
395.341
395.533
395.657
395.752
395.831
395.899
395.959
396.014
396.063
396.109
396.15
400
400
400
400
400
400
400
400
400
399.996
399.789
399.626
399.482
399.349
399.222
399.1
398.982
398.867
398.755
398.646
398.539
398.434
398.332
398.231
398.133
398.036
397.941
397.848
397.756
397.667
397.578
397.49
397.402
397.315
397.229
397.144
397.06
396.977
396.895
396.814
396.733
396.652
396.572
396.492
396.412
396.332
396.254
396.175
396.098
396.021
395.945
395.87
395.796
395.723
395.653
395.583
395.517
395.452
395.391
395.34
395.532
395.656
395.751
395.83
395.898
395.959
396.013
396.062
396.108
396.149
400
400
400
400
400
400
400
400
400
399.996
399.79
399.627
399.483
399.349
399.223
399.101
398.982
398.868
398.756
398.646
398.539
398.435
398.332
398.232
398.133
398.036
397.941
397.847
397.756
397.666
397.578
397.49
397.402
397.316
397.229
397.144
397.06
396.978
396.896
396.815
396.734
396.653
396.573
396.492
396.412
396.333
396.254
396.176
396.098
396.021
395.945
395.87
395.796
395.724
395.653
395.583
395.516
395.452
395.39
395.338
395.53
395.655
395.75
395.829
395.897
395.958
396.012
396.061
396.107
396.148
400
400
400
400
400
400
400
400
400
399.996
399.79
399.627
399.483
399.35
399.223
399.101
398.983
398.868
398.756
398.647
398.54
398.435
398.332
398.232
398.133
398.036
397.94
397.847
397.755
397.665
397.577
397.49
397.403
397.316
397.23
397.145
397.061
396.979
396.898
396.817
396.735
396.654
396.573
396.493
396.413
396.333
396.254
396.176
396.098
396.021
395.945
395.87
395.796
395.723
395.652
395.582
395.515
395.45
395.389
395.337
395.529
395.653
395.749
395.828
395.896
395.956
396.01
396.06
396.105
396.146
400
400
400
400
400
400
400
400
400
399.996
399.79
399.627
399.483
399.35
399.223
399.101
398.983
398.868
398.757
398.647
398.54
398.436
398.333
398.232
398.133
398.036
397.94
397.847
397.755
397.665
397.576
397.49
397.403
397.316
397.231
397.146
397.063
396.98
396.899
396.818
396.736
396.654
396.573
396.493
396.412
396.333
396.254
396.176
396.098
396.021
395.945
395.869
395.795
395.722
395.651
395.581
395.514
395.448
395.386
395.334
395.526
395.651
395.746
395.825
395.894
395.954
396.008
396.058
396.103
396.144
400
400
400
400
400
400
400
400
400
399.996
399.79
399.627
399.484
399.35
399.224
399.102
398.984
398.869
398.757
398.648
398.541
398.436
398.333
398.232
398.133
398.036
397.941
397.847
397.755
397.664
397.576
397.489
397.403
397.317
397.231
397.147
397.064
396.982
396.9
396.818
396.736
396.654
396.572
396.492
396.412
396.332
396.253
396.175
396.097
396.02
395.943
395.868
395.794
395.721
395.649
395.579
395.511
395.446
395.384
395.331
395.524
395.648
395.744
395.823
395.891
395.952
396.006
396.056
396.101
396.142
400
400
400
400
400
400
400
400
400
399.996
399.79
399.627
399.484
399.351
399.224
399.102
398.984
398.87
398.758
398.649
398.542
398.437
398.334
398.233
398.134
398.037
397.941
397.847
397.755
397.664
397.575
397.488
397.402
397.317
397.232
397.147
397.064
396.982
396.9
396.817
396.735
396.653
396.571
396.49
396.41
396.33
396.251
396.173
396.095
396.018
395.942
395.867
395.792
395.719
395.647
395.577
395.509
395.443
395.38
395.328
395.521
395.646
395.741
395.821
395.889
395.949
396.004
396.054
396.099
396.14
400
400
400
400
400
400
400
400
400
399.996
399.79
399.627
399.484
399.351
399.225
399.103
398.985
398.87
398.759
398.649
398.542
398.438
398.335
398.234
398.135
398.038
397.942
397.848
397.755
397.665
397.576
397.488
397.402
397.317
397.232
397.148
397.065
396.982
396.899
396.816
396.733
396.651
396.57
396.489
396.409
396.329
396.25
396.171
396.094
396.017
395.94
395.865
395.79
395.717
395.645
395.575
395.507
395.44
395.377
395.324
395.517
395.642
395.738
395.818
395.886
395.947
396.002
396.051
396.097
396.138
400
400
400
400
400
400
400
400
400
399.996
399.79
399.628
399.484
399.351
399.225
399.104
398.986
398.871
398.76
398.65
398.544
398.439
398.336
398.235
398.136
398.039
397.943
397.849
397.756
397.665
397.576
397.489
397.402
397.317
397.233
397.148
397.065
396.982
396.898
396.815
396.732
396.65
396.569
396.488
396.407
396.328
396.249
396.17
396.092
396.015
395.939
395.864
395.789
395.716
395.644
395.573
395.504
395.438
395.375
395.321
395.515
395.64
395.736
395.816
395.884
395.945
396
396.05
396.095
396.137
400
400
400
400
400
400
400
400
400
399.996
399.79
399.628
399.485
399.352
399.226
399.104
398.987
398.872
398.761
398.652
398.545
398.44
398.337
398.237
398.137
398.04
397.944
397.85
397.757
397.667
397.577
397.49
397.404
397.318
397.234
397.149
397.065
396.982
396.898
396.815
396.732
396.65
396.568
396.487
396.407
396.327
396.248
396.17
396.092
396.015
395.938
395.863
395.788
395.715
395.642
395.572
395.503
395.436
395.372
395.319
395.513
395.638
395.734
395.814
395.883
395.944
395.998
396.048
396.094
396.135
400
400
400
400
400
400
400
400
400
399.996
399.79
399.628
399.485
399.352
399.226
399.105
398.988
398.873
398.762
398.653
398.546
398.442
398.339
398.238
398.139
398.042
397.946
397.852
397.759
397.668
397.579
397.491
397.405
397.32
397.235
397.151
397.066
396.983
396.899
396.815
396.733
396.65
396.569
396.488
396.407
396.327
396.248
396.17
396.092
396.015
395.938
395.863
395.788
395.714
395.642
395.571
395.502
395.435
395.371
395.317
395.511
395.637
395.733
395.813
395.882
395.943
395.998
396.048
396.093
396.135
400
400
400
400
400
400
400
400
400
399.996
399.79
399.629
399.486
399.353
399.227
399.106
398.989
398.875
398.763
398.654
398.548
398.443
398.341
398.24
398.141
398.044
397.948
397.854
397.761
397.67
397.581
397.494
397.407
397.322
397.237
397.152
397.068
396.984
396.9
396.817
396.734
396.651
396.57
396.489
396.408
396.328
396.249
396.171
396.093
396.016
395.939
395.864
395.789
395.715
395.643
395.572
395.502
395.435
395.371
395.317
395.511
395.637
395.733
395.813
395.882
395.943
395.998
396.048
396.094
396.135
400
400
400
400
400
400
400
400
400
399.996
399.791
399.629
399.486
399.354
399.228
399.107
398.99
398.876
398.765
398.656
398.55
398.445
398.343
398.242
398.143
398.046
397.95
397.856
397.764
397.673
397.584
397.496
397.41
397.324
397.239
397.154
397.07
396.986
396.902
396.818
396.735
396.653
396.571
396.49
396.41
396.33
396.251
396.173
396.095
396.018
395.941
395.866
395.791
395.717
395.644
395.573
395.503
395.436
395.371
395.316
395.512
395.637
395.734
395.814
395.883
395.944
395.999
396.048
396.094
396.136
400
400
400
400
400
400
400
400
400
399.996
399.791
399.629
399.487
399.354
399.229
399.108
398.991
398.878
398.767
398.658
398.552
398.447
398.345
398.245
398.146
398.049
397.953
397.859
397.767
397.676
397.587
397.499
397.413
397.327
397.242
397.157
397.072
396.988
396.904
396.821
396.738
396.656
396.574
396.493
396.413
396.333
396.254
396.175
396.097
396.02
395.944
395.868
395.793
395.719
395.646
395.575
395.505
395.437
395.373
395.317
395.513
395.639
395.735
395.815
395.884
395.945
396
396.05
396.096
396.137
400
400
400
400
400
400
400
400
400
399.996
399.791
399.629
399.487
399.355
399.23
399.109
398.993
398.879
398.768
398.66
398.554
398.45
398.348
398.247
398.149
398.052
397.956
397.862
397.77
397.679
397.59
397.503
397.416
397.33
397.245
397.16
397.075
396.991
396.907
396.823
396.741
396.658
396.577
396.496
396.415
396.336
396.257
396.178
396.1
396.023
395.947
395.871
395.796
395.722
395.649
395.577
395.507
395.439
395.374
395.319
395.514
395.64
395.736
395.816
395.885
395.946
396.001
396.051
396.097
396.138
400
400
400
400
400
400
400
400
400
399.996
399.791
399.63
399.488
399.356
399.231
399.111
398.994
398.881
398.77
398.662
398.556
398.452
398.35
398.25
398.152
398.055
397.959
397.866
397.774
397.683
397.594
397.506
397.42
397.334
397.248
397.163
397.078
396.993
396.91
396.826
396.743
396.661
396.579
396.498
396.418
396.338
396.259
396.181
396.103
396.026
395.949
395.873
395.798
395.724
395.65
395.578
395.508
395.44
395.374
395.318
395.513
395.639
395.736
395.816
395.884
395.945
396
396.05
396.096
396.137
400
400
400
400
400
400
400
400
400
399.996
399.791
399.63
399.488
399.357
399.232
399.112
398.996
398.883
398.772
398.664
398.559
398.455
398.353
398.253
398.154
398.058
397.962
397.869
397.777
397.686
397.597
397.509
397.422
397.336
397.25
397.165
397.079
396.995
396.911
396.827
396.744
396.662
396.58
396.499
396.418
396.339
396.259
396.18
396.102
396.025
395.948
395.872
395.796
395.721
395.648
395.575
395.504
395.435
395.369
395.312
395.508
395.634
395.73
395.809
395.878
395.939
395.993
396.043
396.088
396.129
400
400
400
400
400
400
400
400
400
399.996
399.792
399.631
399.489
399.357
399.233
399.113
398.997
398.884
398.774
398.666
398.561
398.457
398.355
398.255
398.156
398.06
397.964
397.87
397.778
397.687
397.598
397.51
397.422
397.335
397.249
397.163
397.077
396.992
396.908
396.824
396.74
396.658
396.575
396.493
396.412
396.332
396.252
396.172
396.094
396.015
395.938
395.861
395.784
395.709
395.634
395.56
395.488
395.418
395.35
395.293
395.488
395.614
395.71
395.789
395.857
395.917
395.971
396.021
396.066
396.106
400
400
400
400
400
400
400
400
400
399.996
399.792
399.631
399.489
399.358
399.233
399.113
398.997
398.884
398.774
398.666
398.56
398.456
398.354
398.253
398.154
398.057
397.961
397.866
397.773
397.682
397.591
397.502
397.414
397.326
397.238
397.151
397.064
396.978
396.892
396.807
396.722
396.638
396.554
396.471
396.388
396.306
396.225
396.144
396.063
395.983
395.904
395.825
395.747
395.669
395.592
395.517
395.442
395.37
395.3
395.239
395.436
395.561
395.656
395.735
395.802
395.861
395.915
395.963
396.007
396.047
400
400
400
400
400
400
400
400
400
399.996
399.792
399.631
399.488
399.357
399.232
399.111
398.995
398.881
398.77
398.661
398.554
398.448
398.345
398.242
398.142
398.042
397.944
397.848
397.753
397.659
397.566
397.474
397.383
397.292
397.202
397.112
397.022
396.933
396.844
396.756
396.668
396.581
396.494
396.407
396.321
396.235
396.15
396.065
395.981
395.897
395.814
395.731
395.649
395.567
395.486
395.406
395.327
395.25
395.176
395.111
395.308
395.433
395.527
395.605
395.671
395.729
395.781
395.827
395.87
395.908
400
400
400
400
400
400
400
400
400
399.996
399.791
399.628
399.484
399.35
399.223
399.1
398.981
398.864
398.749
398.637
398.526
398.416
398.308
398.202
398.096
397.992
397.889
397.787
397.687
397.587
397.489
397.391
397.294
397.197
397.1
397.004
396.908
396.812
396.716
396.621
396.526
396.432
396.337
396.244
396.15
396.057
395.965
395.872
395.78
395.689
395.598
395.507
395.417
395.327
395.238
395.15
395.062
394.977
394.894
394.822
395.022
395.147
395.242
395.318
395.384
395.441
395.493
395.539
395.58
395.618
400
400
400
400
400
400
400
400
400
399.996
399.785
399.618
399.467
399.327
399.193
399.062
398.934
398.808
398.684
398.562
398.441
398.321
398.202
398.084
397.968
397.852
397.737
397.623
397.51
397.398
397.287
397.176
397.066
396.956
396.846
396.736
396.627
396.518
396.409
396.3
396.192
396.084
395.976
395.869
395.762
395.655
395.549
395.443
395.337
395.232
395.128
395.024
394.92
394.817
394.715
394.614
394.514
394.415
394.32
394.236
394.45
394.583
394.685
394.768
394.84
394.904
394.961
395.013
395.061
395.104
400
400
400
400
400
400
400
400
400
399.995
399.766
399.578
399.409
399.249
399.094
398.943
398.794
398.646
398.5
398.355
398.212
398.069
397.927
397.786
397.646
397.507
397.369
397.232
397.096
396.961
396.828
396.695
396.563
396.431
396.299
396.169
396.038
395.908
395.779
395.65
395.522
395.394
395.268
395.142
395.016
394.892
394.768
394.645
394.523
394.401
394.281
394.161
394.041
393.923
393.806
393.69
393.576
393.464
393.355
393.264
393.533
393.707
393.845
393.961
394.063
394.155
394.239
394.317
394.389
394.453
400
400
400
400
400
400
400
400
400
399.993
399.691
399.453
399.242
399.042
398.85
398.664
398.48
398.299
398.121
397.944
397.769
397.596
397.424
397.254
397.086
396.919
396.755
396.592
396.432
396.273
396.117
395.962
395.809
395.658
395.507
395.358
395.21
395.064
394.919
394.775
394.633
394.492
394.352
394.214
394.077
393.942
393.808
393.675
393.543
393.412
393.283
393.155
393.028
392.902
392.778
392.656
392.536
392.419
392.307
392.226
392.674
392.958
393.177
393.359
393.515
393.653
393.776
393.888
393.989
394.079
400
400
400
400
400
400
400
400
400
399.995
399.762
399.543
399.337
399.14
398.95
398.764
398.582
398.403
398.225
398.05
397.877
397.705
397.534
397.365
397.198
397.032
396.867
396.704
396.543
396.383
396.224
396.068
395.913
395.76
395.609
395.46
395.312
395.166
395.021
394.877
394.735
394.593
394.452
394.311
394.173
394.035
393.899
393.765
393.632
393.501
393.371
393.244
393.118
392.994
392.873
392.754
392.639
392.526
392.419
392.338
392.702
392.971
393.185
393.365
393.52
393.656
393.779
393.891
393.992
394.082
400
400
400
400
400
400
400
400
400
399.997
399.831
399.666
399.506
399.351
399.2
399.052
398.906
398.761
398.618
398.476
398.335
398.195
398.055
397.916
397.778
397.641
397.504
397.367
397.232
397.097
396.963
396.829
396.696
396.564
396.433
396.303
396.173
396.044
395.916
395.788
395.66
395.532
395.405
395.278
395.152
395.026
394.901
394.777
394.654
394.532
394.412
394.292
394.174
394.057
393.942
393.829
393.717
393.609
393.503
393.413
393.598
393.75
393.877
393.987
394.084
394.173
394.255
394.33
394.4
394.464
400
400
400
400
400
400
400
400
400
399.998
399.848
399.701
399.56
399.425
399.294
399.166
399.041
398.918
398.797
398.677
398.559
398.442
398.325
398.209
398.095
397.98
397.867
397.754
397.642
397.53
397.419
397.308
397.198
397.088
396.979
396.87
396.762
396.654
396.547
396.439
396.332
396.224
396.117
396.009
395.902
395.795
395.688
395.582
395.477
395.372
395.268
395.165
395.063
394.962
394.862
394.763
394.666
394.571
394.479
394.396
394.532
394.643
394.734
394.811
394.878
394.938
394.993
395.043
395.089
395.13
400
400
400
400
400
400
400
400
400
399.998
399.852
399.71
399.574
399.445
399.321
399.201
399.084
398.97
398.858
398.747
398.639
398.532
398.426
398.321
398.218
398.115
398.013
397.912
397.812
397.713
397.614
397.516
397.419
397.322
397.226
397.131
397.036
396.942
396.848
396.754
396.66
396.566
396.472
396.379
396.285
396.192
396.099
396.007
395.915
395.824
395.734
395.644
395.556
395.468
395.381
395.296
395.212
395.13
395.05
394.979
395.104
395.207
395.291
395.362
395.423
395.478
395.526
395.57
395.61
395.647
400
400
400
400
400
400
400
400
400
399.998
399.853
399.712
399.578
399.45
399.328
399.21
399.096
398.985
398.876
398.769
398.664
398.561
398.459
398.359
398.26
398.162
398.065
397.969
397.874
397.78
397.687
397.595
397.504
397.413
397.323
397.234
397.146
397.059
396.971
396.884
396.797
396.71
396.624
396.537
396.451
396.365
396.28
396.196
396.112
396.028
395.946
395.864
395.783
395.704
395.626
395.548
395.473
395.399
395.328
395.264
395.387
395.489
395.573
395.645
395.707
395.762
395.811
395.856
395.897
395.935
400
400
400
400
400
400
400
400
400
399.998
399.852
399.711
399.577
399.45
399.328
399.211
399.097
398.986
398.878
398.772
398.669
398.567
398.466
398.368
398.27
398.174
398.079
397.985
397.892
397.8
397.71
397.62
397.531
397.443
397.356
397.27
397.185
397.1
397.016
396.932
396.848
396.765
396.681
396.598
396.516
396.433
396.352
396.271
396.191
396.111
396.033
395.955
395.879
395.803
395.729
395.657
395.585
395.516
395.45
395.39
395.512
395.614
395.699
395.772
395.835
395.892
395.943
395.989
396.031
396.07
400
400
400
400
400
400
400
400
400
399.998
399.852
399.711
399.577
399.449
399.328
399.21
399.096
398.985
398.877
398.772
398.668
398.566
398.466
398.368
398.271
398.175
398.081
397.988
397.895
397.804
397.715
397.626
397.538
397.451
397.365
397.28
397.196
397.113
397.03
396.948
396.865
396.783
396.701
396.619
396.538
396.457
396.377
396.298
396.22
396.142