/*--------------------------------*- C++ -*----------------------------------*\
  =========                 |
  \\      /  F ield         | OpenFOAM: The Open Source CFD Toolbox
   \\    /   O peration     | Website:  https://openfoam.org
    \\  /    A nd           | Version:  12
     \\/     M anipulation  |
\*---------------------------------------------------------------------------*/
FoamFile
{
    format      ascii;
    class       volScalarField;
    location    "1700/porous";
    object      rho;
}
// * * * * * * * * * * * * * * * * * * * * * * * * * * * * * * * * * * * * * //

dimensions      [1 -3 0 0 0 0 0];

internalField   nonuniform List<scalar> 
140000
(
933.891
933.891
933.891
933.891
933.891
933.891
933.891
933.891
933.892
933.898
934.18
934.401
934.599
934.786
934.965
935.138
935.309
935.475
935.64
935.802
935.962
936.12
936.277
936.432
936.586
936.738
936.889
937.038
937.186
937.332
937.476
937.619
937.761
937.9
938.038
938.175
938.31
938.443
938.576
938.706
938.836
938.965
939.092
939.218
939.343
939.467
939.589
939.709
939.829
939.946
940.063
940.177
940.29
940.401
940.51
940.616
940.72
940.819
940.914
940.98
940.585
940.333
940.138
939.976
939.837
939.714
939.604
939.504
939.413
939.333
933.891
933.891
933.891
933.891
933.891
933.891
933.891
933.891
933.891
933.896
934.111
934.286
934.444
934.594
934.739
934.881
935.019
935.155
935.29
935.423
935.555
935.686
935.817
935.946
936.074
936.202
936.329
936.455
936.58
936.705
936.829
936.952
937.074
937.196
937.317
937.437
937.557
937.676
937.794
937.912
938.029
938.145
938.261
938.377
938.491
938.605
938.718
938.83
938.941
939.051
939.161
939.269
939.375
939.481
939.584
939.686
939.786
939.883
939.977
940.053
939.815
939.66
939.538
939.434
939.342
939.26
939.185
939.115
939.051
938.993
933.891
933.891
933.891
933.891
933.891
933.891
933.891
933.891
933.891
933.895
934.093
934.25
934.391
934.523
934.649
934.771
934.89
935.007
935.121
935.234
935.346
935.456
935.565
935.673
935.781
935.887
935.993
936.098
936.203
936.307
936.41
936.513
936.616
936.718
936.819
936.92
937.021
937.121
937.221
937.321
937.42
937.519
937.618
937.716
937.814
937.912
938.009
938.106
938.202
938.297
938.392
938.486
938.579
938.671
938.761
938.851
938.938
939.024
939.106
939.178
938.988
938.869
938.778
938.704
938.639
938.582
938.531
938.484
938.441
938.403
933.891
933.891
933.891
933.891
933.891
933.891
933.891
933.891
933.891
933.895
934.088
934.241
934.376
934.502
934.622
934.737
934.848
934.957
935.063
935.167
935.269
935.37
935.469
935.567
935.664
935.76
935.855
935.949
936.043
936.135
936.227
936.319
936.409
936.5
936.589
936.678
936.767
936.855
936.942
937.03
937.117
937.203
937.29
937.376
937.461
937.547
937.632
937.716
937.8
937.883
937.966
938.047
938.128
938.208
938.287
938.364
938.441
938.515
938.587
938.648
938.47
938.358
938.274
938.205
938.146
938.094
938.048
938.007
937.969
937.935
933.891
933.891
933.891
933.891
933.891
933.891
933.891
933.891
933.891
933.895
934.087
934.238
934.372
934.496
934.614
934.727
934.836
934.942
935.045
935.146
935.245
935.342
935.437
935.531
935.624
935.715
935.806
935.895
935.984
936.072
936.158
936.244
936.33
936.414
936.498
936.581
936.664
936.746
936.827
936.908
936.989
937.069
937.149
937.229
937.308
937.386
937.464
937.542
937.618
937.694
937.77
937.844
937.918
937.991
938.062
938.132
938.2
938.267
938.331
938.386
938.211
938.099
938.015
937.945
937.886
937.833
937.787
937.745
937.706
937.672
933.891
933.891
933.891
933.891
933.891
933.891
933.891
933.891
933.891
933.895
934.087
934.238
934.372
934.496
934.613
934.726
934.834
934.94
935.042
935.142
935.239
935.335
935.43
935.522
935.613
935.703
935.792
935.88
935.967
936.052
936.137
936.221
936.304
936.386
936.467
936.548
936.628
936.707
936.786
936.864
936.942
937.019
937.096
937.172
937.248
937.323
937.398
937.472
937.545
937.618
937.69
937.76
937.83
937.899
937.966
938.032
938.097
938.159
938.219
938.271
938.096
937.984
937.898
937.828
937.767
937.714
937.666
937.622
937.583
937.547
933.891
933.891
933.891
933.891
933.891
933.891
933.891
933.891
933.891
933.895
934.087
934.238
934.372
934.496
934.614
934.726
934.835
934.94
935.042
935.142
935.24
935.335
935.429
935.522
935.612
935.702
935.79
935.877
935.963
936.048
936.132
936.215
936.297
936.379
936.459
936.539
936.618
936.696
936.774
936.85
936.927
937.003
937.078
937.153
937.228
937.302
937.375
937.447
937.519
937.59
937.66
937.729
937.797
937.864
937.93
937.994
938.056
938.116
938.174
938.223
938.049
937.936
937.85
937.779
937.718
937.664
937.615
937.571
937.53
937.494
933.891
933.891
933.891
933.891
933.891
933.891
933.891
933.891
933.891
933.895
934.087
934.239
934.373
934.497
934.615
934.728
934.836
934.942
935.044
935.144
935.242
935.338
935.432
935.524
935.615
935.704
935.793
935.88
935.965
936.05
936.134
936.217
936.299
936.38
936.46
936.539
936.618
936.695
936.772
936.849
936.925
937
937.075
937.15
937.224
937.297
937.369
937.441
937.512
937.583
937.652
937.721
937.788
937.854
937.918
937.981
938.043
938.102
938.159
938.207
938.032
937.92
937.833
937.762
937.7
937.646
937.596
937.552
937.511
937.474
933.891
933.891
933.891
933.891
933.891
933.891
933.891
933.891
933.891
933.895
934.088
934.239
934.373
934.497
934.615
934.728
934.837
934.943
935.046
935.146
935.244
935.34
935.434
935.527
935.618
935.707
935.796
935.883
935.969
936.053
936.137
936.22
936.302
936.383
936.463
936.542
936.62
936.698
936.775
936.851
936.927
937.002
937.077
937.151
937.225
937.298
937.371
937.442
937.513
937.583
937.652
937.721
937.788
937.853
937.917
937.98
938.041
938.099
938.155
938.203
938.029
937.916
937.829
937.758
937.696
937.641
937.592
937.547
937.506
937.468
933.891
933.891
933.891
933.891
933.891
933.891
933.891
933.891
933.891
933.895
934.087
934.239
934.373
934.498
934.616
934.729
934.839
934.944
935.047
935.148
935.246
935.342
935.437
935.529
935.621
935.71
935.799
935.886
935.972
936.057
936.141
936.224
936.305
936.386
936.466
936.546
936.624
936.702
936.779
936.855
936.931
937.006
937.081
937.155
937.229
937.302
937.374
937.446
937.517
937.587
937.656
937.724
937.791
937.856
937.92
937.982
938.043
938.101
938.157
938.204
938.03
937.917
937.83
937.759
937.697
937.642
937.592
937.547
937.506
937.468
933.891
933.891
933.891
933.891
933.891
933.891
933.891
933.891
933.891
933.895
934.088
934.239
934.374
934.498
934.616
934.73
934.839
934.945
935.048
935.149
935.248
935.344
935.439
935.531
935.623
935.713
935.801
935.889
935.975
936.06
936.144
936.227
936.309
936.39
936.47
936.549
936.627
936.705
936.782
936.858
936.934
937.009
937.084
937.159
937.232
937.305
937.378
937.45
937.52
937.59
937.66
937.728
937.794
937.86
937.924
937.986
938.046
938.104
938.16
938.207
938.032
937.92
937.833
937.761
937.699
937.644
937.595
937.55
937.508
937.471
933.891
933.891
933.891
933.891
933.891
933.891
933.891
933.891
933.891
933.895
934.088
934.24
934.374
934.498
934.617
934.73
934.84
934.946
935.049
935.15
935.249
935.345
935.44
935.533
935.625
935.715
935.803
935.891
935.977
936.062
936.146
936.229
936.311
936.392
936.472
936.552
936.63
936.708
936.785
936.861
936.937
937.012
937.087
937.162
937.236
937.309
937.381
937.453
937.524
937.594
937.663
937.731
937.798
937.863
937.927
937.989
938.05
938.108
938.163
938.21
938.035
937.923
937.836
937.764
937.702
937.647
937.598
937.552
937.511
937.473
933.891
933.891
933.891
933.891
933.891
933.891
933.891
933.891
933.891
933.895
934.088
934.24
934.374
934.498
934.616
934.73
934.84
934.946
935.05
935.151
935.25
935.346
935.441
935.534
935.626
935.716
935.805
935.892
935.979
936.064
936.148
936.231
936.313
936.394
936.474
936.554
936.632
936.71
936.787
936.863
936.939
937.015
937.09
937.164
937.238
937.312
937.384
937.456
937.527
937.597
937.666
937.734
937.801
937.866
937.93
937.992
938.053
938.111
938.166
938.212
938.038
937.925
937.838
937.767
937.704
937.65
937.6
937.555
937.513
937.476
933.891
933.891
933.891
933.891
933.891
933.891
933.891
933.891
933.891
933.895
934.088
934.24
934.374
934.498
934.617
934.73
934.84
934.946
935.05
935.151
935.25
935.347
935.442
935.535
935.627
935.717
935.806
935.894
935.98
936.065
936.149
936.233
936.315
936.396
936.476
936.555
936.634
936.712
936.789
936.865
936.941
937.017
937.092
937.167
937.241
937.314
937.387
937.458
937.53
937.6
937.669
937.737
937.804
937.869
937.933
937.995
938.055
938.113
938.168
938.214
938.04
937.927
937.841
937.769
937.707
937.652
937.602
937.557
937.516
937.478
933.891
933.891
933.891
933.891
933.891
933.891
933.891
933.891
933.891
933.895
934.088
934.24
934.374
934.498
934.616
934.73
934.84
934.946
935.05
935.151
935.25
935.347
935.443
935.536
935.628
935.718
935.807
935.895
935.981
936.066
936.15
936.233
936.316
936.397
936.477
936.556
936.635
936.713
936.79
936.867
936.943
937.018
937.094
937.168
937.242
937.316
937.389
937.46
937.532
937.602
937.671
937.739
937.806
937.871
937.935
937.997
938.057
938.115
938.17
938.216
938.042
937.929
937.842
937.77
937.708
937.653
937.604
937.559
937.517
937.48
933.891
933.891
933.891
933.891
933.891
933.891
933.891
933.891
933.891
933.895
934.088
934.239
934.373
934.498
934.616
934.73
934.84
934.946
935.05
935.151
935.251
935.348
935.443
935.536
935.628
935.719
935.808
935.895
935.982
936.067
936.151
936.234
936.316
936.398
936.478
936.557
936.636
936.714
936.791
936.868
936.944
937.02
937.095
937.17
937.244
937.317
937.39
937.462
937.533
937.603
937.673
937.741
937.807
937.873
937.936
937.998
938.059
938.116
938.171
938.217
938.043
937.93
937.843
937.772
937.709
937.654
937.605
937.56
937.518
937.481
933.891
933.891
933.891
933.891
933.891
933.891
933.891
933.891
933.891
933.895
934.088
934.24
934.374
934.498
934.616
934.729
934.839
934.946
935.05
935.151
935.251
935.348
935.443
935.537
935.629
935.719
935.808
935.896
935.982
936.067
936.151
936.235
936.317
936.398
936.478
936.558
936.637
936.715
936.792
936.869
936.945
937.021
937.096
937.171
937.245
937.318
937.391
937.463
937.534
937.605
937.674
937.742
937.809
937.874
937.938
938
938.059
938.117
938.172
938.218
938.044
937.931
937.844
937.772
937.71
937.655
937.606
937.561
937.519
937.482
933.891
933.891
933.891
933.891
933.891
933.891
933.891
933.891
933.891
933.895
934.088
934.239
934.373
934.498
934.616
934.729
934.839
934.946
935.05
935.151
935.251
935.348
935.443
935.537
935.629
935.719
935.808
935.896
935.982
936.068
936.152
936.235
936.317
936.398
936.479
936.558
936.637
936.715
936.793
936.869
936.946
937.022
937.097
937.172
937.246
937.319
937.392
937.464
937.535
937.606
937.675
937.743
937.81
937.875
937.939
938
938.06
938.118
938.172
938.218
938.044
937.931
937.845
937.773
937.711
937.656
937.606
937.561
937.52
937.482
933.891
933.891
933.891
933.891
933.891
933.891
933.891
933.891
933.891
933.895
934.088
934.239
934.373
934.497
934.615
934.729
934.839
934.945
935.049
935.151
935.251
935.348
935.443
935.537
935.629
935.72
935.809
935.896
935.983
936.068
936.152
936.235
936.317
936.399
936.479
936.559
936.638
936.716
936.793
936.87
936.947
937.022
937.098
937.173
937.247
937.32
937.393
937.465
937.536
937.606
937.676
937.744
937.81
937.876
937.939
938.001
938.061
938.118
938.172
938.218
938.044
937.932
937.845
937.773
937.711
937.656
937.607
937.562
937.52
937.483
933.891
933.891
933.891
933.891
933.891
933.891
933.891
933.891
933.891
933.895
934.088
934.239
934.373
934.497
934.615
934.728
934.838
934.945
935.049
935.151
935.25
935.348
935.443
935.537
935.629
935.72
935.809
935.896
935.983
936.068
936.152
936.235
936.318
936.399
936.48
936.56
936.639
936.717
936.794
936.871
936.947
937.023
937.099
937.173
937.248
937.321
937.394
937.466
937.537
937.607
937.676
937.744
937.811
937.876
937.94
938.002
938.061
938.119
938.173
938.219
938.045
937.932
937.846
937.774
937.712
937.657
937.607
937.562
937.521
937.483
933.891
933.891
933.891
933.891
933.891
933.891
933.891
933.891
933.891
933.895
934.087
934.239
934.373
934.497
934.615
934.728
934.838
934.945
935.049
935.151
935.25
935.348
935.443
935.537
935.629
935.72
935.809
935.897
935.983
936.068
936.153
936.236
936.318
936.4
936.48
936.56
936.639
936.718
936.795
936.872
936.948
937.024
937.099
937.174
937.248
937.322
937.395
937.467
937.538
937.608
937.677
937.745
937.812
937.877
937.941
938.002
938.062
938.119
938.173
938.219
938.045
937.932
937.846
937.774
937.712
937.657
937.608
937.563
937.521
937.484
933.891
933.891
933.891
933.891
933.891
933.891
933.891
933.891
933.891
933.895
934.087
934.239
934.373
934.497
934.615
934.728
934.838
934.945
935.049
935.151
935.25
935.348
935.444
935.537
935.63
935.72
935.809
935.897
935.983
936.069
936.153
936.236
936.319
936.4
936.481
936.561
936.64
936.718
936.796
936.873
936.949
937.025
937.1
937.175
937.249
937.322
937.395
937.467
937.538
937.609
937.678
937.746
937.812
937.878
937.941
938.003
938.062
938.119
938.173
938.219
938.045
937.933
937.846
937.774
937.712
937.657
937.608
937.563
937.521
937.484
933.891
933.891
933.891
933.891
933.891
933.891
933.891
933.891
933.891
933.895
934.087
934.239
934.372
934.497
934.615
934.728
934.838
934.945
935.049
935.151
935.25
935.348
935.444
935.538
935.63
935.72
935.81
935.897
935.984
936.069
936.153
936.237
936.319
936.401
936.482
936.562
936.641
936.719
936.797
936.873
936.95
937.025
937.101
937.175
937.25
937.323
937.396
937.468
937.539
937.609
937.678
937.746
937.813
937.878
937.941
938.003
938.063
938.12
938.174
938.219
938.046
937.933
937.846
937.775
937.713
937.658
937.608
937.563
937.522
937.484
933.891
933.891
933.891
933.891
933.891
933.891
933.891
933.891
933.891
933.895
934.087
934.239
934.372
934.496
934.614
934.728
934.838
934.944
935.049
935.151
935.25
935.348
935.444
935.538
935.63
935.721
935.81
935.898
935.984
936.069
936.154
936.237
936.32
936.401
936.482
936.562
936.641
936.719
936.797
936.874
936.95
937.026
937.101
937.176
937.25
937.323
937.396
937.468
937.539
937.609
937.678
937.746
937.813
937.878
937.941
938.003
938.062
938.12
938.174
938.219
938.045
937.933
937.847
937.775
937.713
937.658
937.608
937.563
937.522
937.484
933.891
933.891
933.891
933.891
933.891
933.891
933.891
933.891
933.891
933.895
934.087
934.239
934.372
934.496
934.614
934.728
934.838
934.944
935.049
935.151
935.25
935.348
935.444
935.538
935.63
935.721
935.81
935.898
935.984
936.07
936.154
936.237
936.32
936.402
936.482
936.562
936.641
936.72
936.797
936.874
936.95
937.026
937.101
937.176
937.25
937.323
937.396
937.468
937.539
937.609
937.678
937.746
937.813
937.878
937.941
938.003
938.062
938.119
938.174
938.219
938.045
937.933
937.847
937.775
937.713
937.658
937.608
937.563
937.522
937.484
933.891
933.891
933.891
933.891
933.891
933.891
933.891
933.891
933.891
933.895
934.087
934.239
934.372
934.496
934.614
934.728
934.838
934.944
935.049
935.151
935.25
935.348
935.444
935.538
935.63
935.721
935.81
935.898
935.985
936.07
936.154
936.238
936.32
936.402
936.482
936.562
936.641
936.72
936.797
936.874
936.95
937.026
937.101
937.176
937.25
937.323
937.396
937.468
937.539
937.609
937.678
937.746
937.813
937.878
937.941
938.003
938.062
938.119
938.173
938.219
938.045
937.933
937.846
937.775
937.713
937.658
937.608
937.563
937.522
937.484
933.891
933.891
933.891
933.891
933.891
933.891
933.891
933.891
933.891
933.895
934.087
934.239
934.372
934.496
934.614
934.728
934.837
934.944
935.049
935.151
935.25
935.348
935.444
935.538
935.63
935.721
935.81
935.898
935.985
936.07
936.154
936.238
936.32
936.402
936.482
936.562
936.641
936.72
936.797
936.874
936.95
937.026
937.101
937.175
937.249
937.323
937.395
937.467
937.538
937.609
937.678
937.746
937.812
937.878
937.941
938.002
938.062
938.119
938.173
938.219
938.045
937.933
937.846
937.774
937.712
937.657
937.608
937.563
937.521
937.484
933.891
933.891
933.891
933.891
933.891
933.891
933.891
933.891
933.891
933.895
934.087
934.239
934.372
934.497
934.614
934.728
934.838
934.944
935.049
935.151
935.25
935.348
935.444
935.538
935.63
935.721
935.81
935.898
935.985
936.07
936.154
936.238
936.32
936.401
936.482
936.562
936.641
936.719
936.797
936.874
936.95
937.025
937.1
937.175
937.249
937.322
937.395
937.467
937.538
937.608
937.677
937.745
937.812
937.877
937.941
938.002
938.062
938.119
938.173
938.218
938.045
937.932
937.846
937.774
937.712
937.657
937.608
937.563
937.521
937.484
933.891
933.891
933.891
933.891
933.891
933.891
933.891
933.891
933.891
933.895
934.088
934.239
934.373
934.497
934.614
934.728
934.838
934.944
935.049
935.15
935.25
935.348
935.444
935.538
935.63
935.721
935.81
935.898
935.985
936.07
936.154
936.237
936.32
936.401
936.482
936.562
936.641
936.719
936.796
936.873
936.949
937.025
937.1
937.174
937.248
937.321
937.394
937.466
937.537
937.607
937.676
937.744
937.811
937.876
937.94
938.002
938.061
938.118
938.173
938.218
938.044
937.932
937.846
937.774
937.712
937.657
937.607
937.562
937.521
937.483
933.891
933.891
933.891
933.891
933.891
933.891
933.891
933.891
933.891
933.895
934.087
934.239
934.372
934.497
934.615
934.728
934.838
934.944
935.049
935.15
935.25
935.348
935.443
935.537
935.63
935.72
935.81
935.898
935.984
936.069
936.154
936.237
936.319
936.4
936.481
936.561
936.64
936.718
936.795
936.872
936.948
937.024
937.099
937.173
937.247
937.32
937.393
937.465
937.536
937.606
937.675
937.743
937.81
937.876
937.939
938.001
938.061
938.118
938.172
938.218
938.044
937.931
937.845
937.773
937.711
937.656
937.607
937.562
937.52
937.483
933.891
933.891
933.891
933.891
933.891
933.891
933.891
933.891
933.891
933.895
934.088
934.239
934.373
934.497
934.615
934.728
934.838
934.944
935.048
935.15
935.25
935.347
935.443
935.537
935.629
935.72
935.809
935.897
935.984
936.069
936.153
936.236
936.318
936.4
936.48
936.56
936.639
936.717
936.794
936.871
936.947
937.023
937.098
937.172
937.246
937.319
937.392
937.464
937.535
937.605
937.674
937.743
937.809
937.875
937.939
938
938.06
938.118
938.172
938.218
938.044
937.931
937.845
937.773
937.711
937.656
937.606
937.561
937.52
937.482
933.891
933.891
933.891
933.891
933.891
933.891
933.891
933.891
933.891
933.895
934.088
934.239
934.373
934.497
934.615
934.728
934.837
934.944
935.048
935.15
935.249
935.347
935.443
935.536
935.629
935.719
935.809
935.897
935.983
936.068
936.152
936.235
936.317
936.398
936.479
936.559
936.638
936.716
936.793
936.87
936.946
937.021
937.096
937.171
937.245
937.318
937.391
937.463
937.534
937.604
937.673
937.742
937.809
937.874
937.938
938
938.06
938.117
938.172
938.217
938.044
937.931
937.844
937.773
937.71
937.656
937.606
937.561
937.519
937.482
933.891
933.891
933.891
933.891
933.891
933.891
933.891
933.891
933.891
933.895
934.088
934.239
934.373
934.497
934.615
934.728
934.837
934.944
935.048
935.15
935.249
935.346
935.442
935.536
935.628
935.719
935.808
935.896
935.982
936.067
936.151
936.234
936.316
936.397
936.478
936.557
936.636
936.714
936.792
936.869
936.945
937.02
937.095
937.17
937.244
937.317
937.389
937.461
937.533
937.603
937.672
937.74
937.808
937.873
937.937
937.999
938.059
938.117
938.172
938.217
938.043
937.931
937.844
937.772
937.71
937.655
937.606
937.561
937.519
937.482
933.891
933.891
933.891
933.891
933.891
933.891
933.891
933.891
933.891
933.895
934.088
934.239
934.373
934.497
934.614
934.728
934.837
934.944
935.047
935.149
935.248
935.346
935.441
935.535
935.627
935.718
935.807
935.895
935.981
936.066
936.15
936.233
936.315
936.396
936.476
936.556
936.635
936.713
936.79
936.867
936.944
937.019
937.094
937.169
937.242
937.316
937.388
937.46
937.531
937.602
937.671
937.739
937.807
937.872
937.937
937.999
938.059
938.116
938.171
938.217
938.043
937.93
937.844
937.772
937.71
937.655
937.605
937.56
937.519
937.481
933.891
933.891
933.891
933.891
933.891
933.891
933.891
933.891
933.891
933.895
934.088
934.239
934.373
934.497
934.614
934.727
934.837
934.943
935.047
935.148
935.248
935.345
935.44
935.534
935.626
935.717
935.806
935.893
935.98
936.065
936.148
936.231
936.313
936.394
936.475
936.554
936.633
936.711
936.789
936.866
936.942
937.018
937.093
937.167
937.241
937.314
937.387
937.459
937.53
937.6
937.67
937.738
937.805
937.871
937.936
937.998
938.058
938.116
938.171
938.217
938.043
937.93
937.843
937.771
937.709
937.654
937.604
937.559
937.518
937.48
933.891
933.891
933.891
933.891
933.891
933.891
933.891
933.891
933.891
933.895
934.088
934.239
934.373
934.496
934.614
934.727
934.836
934.942
935.046
935.147
935.247
935.344
935.439
935.533
935.625
935.715
935.804
935.892
935.978
936.063
936.146
936.229
936.311
936.392
936.473
936.552
936.631
936.709
936.787
936.864
936.94
937.016
937.091
937.165
937.239
937.312
937.385
937.457
937.528
937.598
937.668
937.736
937.804
937.87
937.934
937.997
938.057
938.115
938.17
938.216
938.042
937.929
937.842
937.77
937.708
937.653
937.604
937.558
937.517
937.479
933.891
933.891
933.891
933.891
933.891
933.891
933.891
933.891
933.891
933.895
934.088
934.239
934.372
934.496
934.614
934.726
934.835
934.942
935.045
935.146
935.245
935.342
935.438
935.531
935.623
935.713
935.802
935.89
935.976
936.061
936.144
936.227
936.309
936.39
936.47
936.55
936.629
936.707
936.785
936.862
936.938
937.014
937.089
937.163
937.237
937.31
937.383
937.455
937.526
937.596
937.666
937.734
937.802
937.868
937.933
937.995
938.056
938.114
938.169
938.216
938.041
937.928
937.841
937.769
937.707
937.652
937.602
937.557
937.516
937.478
933.891
933.891
933.891
933.891
933.891
933.891
933.891
933.891
933.891
933.895
934.087
934.239
934.372
934.496
934.613
934.726
934.835
934.941
935.044
935.145
935.244
935.341
935.436
935.529
935.621
935.711
935.8
935.887
935.973
936.058
936.142
936.224
936.306
936.387
936.468
936.547
936.626
936.705
936.782
936.859
936.936
937.011
937.086
937.161
937.234
937.307
937.38
937.452
937.523
937.593
937.663
937.731
937.799
937.865
937.93
937.993
938.054
938.112
938.167
938.214
938.039
937.926
937.839
937.767
937.705
937.65
937.6
937.555
937.514
937.476
933.891
933.891
933.891
933.891
933.891
933.891
933.891
933.891
933.891
933.895
934.087
934.239
934.372
934.495
934.612
934.725
934.834
934.939
935.043
935.144
935.242
935.339
935.434
935.527
935.619
935.709
935.798
935.885
935.971
936.056
936.139
936.222
936.304
936.385
936.465
936.545
936.624
936.702
936.779
936.856
936.933
937.008
937.083
937.157
937.231
937.304
937.377
937.449
937.52
937.59
937.66
937.728
937.796
937.863
937.928
937.991
938.052
938.11
938.166
938.212
938.037
937.924
937.837
937.765
937.703
937.648
937.598
937.553
937.511
937.474
933.891
933.891
933.891
933.891
933.891
933.891
933.891
933.891
933.891
933.895
934.087
934.238
934.371
934.495
934.612
934.724
934.832
934.938
935.041
935.142
935.24
935.337
935.432
935.525
935.616
935.706
935.795
935.882
935.968
936.052
936.136
936.219
936.3
936.381
936.462
936.541
936.62
936.698
936.776
936.853
936.929
937.005
937.08
937.154
937.228
937.301
937.373
937.445
937.516
937.586
937.656
937.725
937.792
937.859
937.924
937.988
938.049
938.107
938.163
938.21
938.035
937.921
937.835
937.763
937.7
937.645
937.596
937.55
937.509
937.471
933.891
933.891
933.891
933.891
933.891
933.891
933.891
933.891
933.891
933.895
934.087
934.238
934.371
934.494
934.611
934.723
934.831
934.937
935.039
935.14
935.238
935.335
935.429
935.522
935.614
935.703
935.792
935.879
935.965
936.049
936.133
936.215
936.297
936.378
936.458
936.538
936.617
936.695
936.772
936.849
936.925
937.001
937.076
937.15
937.224
937.297
937.369
937.441
937.512
937.582
937.652
937.721
937.789
937.855
937.921
937.985
938.046
938.105
938.161
938.207
938.032
937.919
937.832
937.76
937.698
937.643
937.593
937.548
937.507
937.469
933.891
933.891
933.891
933.891
933.891
933.891
933.891
933.891
933.891
933.895
934.087
934.238
934.37
934.493
934.61
934.721
934.83
934.935
935.037
935.138
935.236
935.332
935.426
935.519
935.61
935.7
935.788
935.875
935.961
936.046
936.129
936.212
936.293
936.374
936.455
936.534
936.613
936.691
936.769
936.845
936.921
936.997
937.072
937.146
937.22
937.293
937.365
937.437
937.508
937.579
937.648
937.717
937.785
937.852
937.918
937.982
938.044
938.103
938.159
938.207
938.032
937.918
937.832
937.76
937.698
937.643
937.593
937.548
937.507
937.469
933.891
933.891
933.891
933.891
933.891
933.891
933.891
933.891
933.891
933.895
934.087
934.237
934.37
934.492
934.609
934.72
934.828
934.933
935.036
935.136
935.234
935.33
935.424
935.516
935.608
935.697
935.785
935.872
935.958
936.043
936.126
936.209
936.29
936.371
936.452
936.531
936.61
936.688
936.766
936.843
936.919
936.995
937.07
937.144
937.218
937.291
937.364
937.436
937.507
937.578
937.648
937.717
937.786
937.853
937.919
937.984
938.046
938.106
938.163
938.211
938.036
937.923
937.836
937.764
937.702
937.647
937.598
937.553
937.512
937.475
933.891
933.891
933.891
933.891
933.891
933.891
933.891
933.891
933.891
933.895
934.086
934.237
934.369
934.492
934.608
934.719
934.827
934.931
935.034
935.134
935.231
935.327
935.422
935.514
935.605
935.695
935.783
935.87
935.956
936.041
936.125
936.208
936.29
936.371
936.452
936.532
936.611
936.689
936.767
936.845
936.921
936.997
937.073
937.148
937.222
937.296
937.369
937.442
937.514
937.585
937.656
937.726
937.795
937.864
937.931
937.996
938.06
938.121
938.179
938.228
938.052
937.939
937.853
937.782
937.72
937.666
937.617
937.572
937.532
937.495
933.891
933.891
933.891
933.891
933.891
933.891
933.891
933.891
933.891
933.895
934.086
934.237
934.369
934.491
934.607
934.719
934.826
934.931
935.033
935.134
935.232
935.328
935.422
935.515
935.607
935.697
935.786
935.874
935.96
936.046
936.13
936.214
936.297
936.379
936.46
936.541
936.622
936.701
936.78
936.859
936.937
937.014
937.091
937.167
937.243
937.318
937.392
937.467
937.54
937.613
937.685
937.757
937.828
937.898
937.967
938.035
938.101
938.164
938.224
938.275
938.099
937.987
937.901
937.83
937.769
937.715
937.667
937.624
937.584
937.548
933.891
933.891
933.891
933.891
933.891
933.891
933.891
933.891
933.891
933.895
934.086
934.236
934.369
934.492
934.608
934.72
934.829
934.934
935.037
935.138
935.237
935.335
935.431
935.525
935.618
935.71
935.801
935.89
935.978
936.066
936.153
936.238
936.324
936.408
936.492
936.576
936.658
936.741
936.823
936.904
936.985
937.065
937.145
937.224
937.303
937.381
937.459
937.536
937.613
937.69
937.766
937.841
937.916
937.99
938.063
938.134
938.204
938.272
938.336
938.39
938.214
938.102
938.017
937.947
937.888
937.835
937.788
937.746
937.708
937.673
933.891
933.891
933.891
933.891
933.891
933.891
933.891
933.891
933.891
933.895
934.087
934.239
934.373
934.498
934.616
934.731
934.841
934.95
935.056
935.16
935.263
935.364
935.464
935.562
935.66
935.756
935.851
935.945
936.039
936.131
936.223
936.314
936.405
936.495
936.584
936.674
936.762
936.851
936.938
937.026
937.113
937.2
937.286
937.372
937.457
937.542
937.627
937.711
937.795
937.878
937.961
938.044
938.126
938.207
938.287
938.366
938.444
938.518
938.591
938.652
938.473
938.361
938.276
938.207
938.148
938.096
938.05
938.008
937.971
937.936
933.891
933.891
933.891
933.891
933.891
933.891
933.891
933.891
933.891
933.895
934.092
934.248
934.388
934.519
934.644
934.765
934.884
935.001
935.115
935.229
935.341
935.451
935.561
935.67
935.778
935.885
935.991
936.096
936.2
936.304
936.408
936.51
936.613
936.715
936.816
936.917
937.018
937.119
937.219
937.318
937.417
937.516
937.615
937.713
937.81
937.908
938.005
938.101
938.197
938.292
938.387
938.482
938.576
938.669
938.761
938.852
938.94
939.027
939.11
939.181
938.991
938.871
938.78
938.705
938.641
938.584
938.532
938.485
938.442
938.403
933.891
933.891
933.891
933.891
933.891
933.891
933.891
933.891
933.891
933.896
934.11
934.285
934.442
934.591
934.735
934.876
935.014
935.151
935.286
935.419
935.552
935.683
935.814
935.944
936.073
936.201
936.328
936.454
936.58
936.704
936.828
936.951
937.073
937.195
937.316
937.436
937.556
937.675
937.793
937.91
938.027
938.143
938.259
938.374
938.487
938.601
938.713
938.825
938.936
939.046
939.155
939.263
939.371
939.477
939.582
939.685
939.787
939.885
939.979
940.055
939.817
939.661
939.539
939.435
939.343
939.261
939.185
939.116
939.051
938.994
933.891
933.891
933.891
933.891
933.891
933.891
933.891
933.891
933.892
933.898
934.18
934.4
934.597
934.783
934.961
935.134
935.304
935.471
935.636
935.799
935.96
936.119
936.277
936.433
936.587
936.74
936.891
937.041
937.188
937.334
937.478
937.62
937.761
937.901
938.039
938.175
938.31
938.443
938.575
938.706
938.835
938.963
939.089
939.214
939.338
939.46
939.582
939.702
939.82
939.938
940.054
940.169
940.283
940.396
940.506
940.614
940.72
940.82
940.915
940.98
940.585
940.333
940.138
939.976
939.837
939.714
939.604
939.504
939.413
939.333
933.891
933.891
933.891
933.891
933.891
933.891
933.891
933.891
933.891
933.896
934.109
934.31
934.5
934.682
934.859
935.031
935.201
935.367
935.531
935.694
935.854
936.013
936.171
936.326
936.481
936.634
936.785
936.935
937.083
937.23
937.376
937.519
937.661
937.802
937.94
938.078
938.213
938.348
938.48
938.612
938.742
938.871
938.999
939.125
939.251
939.375
939.497
939.618
939.738
939.856
939.973
940.088
940.202
940.314
940.423
940.53
940.634
940.735
940.831
940.903
940.577
940.336
940.144
939.983
939.844
939.721
939.611
939.511
939.419
939.339
933.891
933.891
933.891
933.891
933.891
933.891
933.891
933.891
933.891
933.894
934.046
934.197
934.344
934.488
934.628
934.766
934.901
935.036
935.169
935.301
935.431
935.562
935.691
935.819
935.947
936.074
936.2
936.326
936.451
936.576
936.699
936.822
936.945
937.066
937.187
937.308
937.427
937.546
937.665
937.783
937.9
938.016
938.132
938.248
938.363
938.477
938.59
938.702
938.814
938.924
939.034
939.143
939.25
939.356
939.46
939.563
939.664
939.762
939.857
939.938
939.772
939.635
939.521
939.422
939.334
939.254
939.181
939.113
939.05
938.993
933.891
933.891
933.891
933.891
933.891
933.891
933.891
933.891
933.891
933.894
934.03
934.164
934.294
934.419
934.541
934.66
934.776
934.89
935.003
935.114
935.224
935.333
935.441
935.549
935.655
935.761
935.866
935.971
936.074
936.178
936.281
936.383
936.485
936.587
936.688
936.788
936.889
936.988
937.088
937.187
937.286
937.385
937.483
937.582
937.679
937.777
937.874
937.97
938.066
938.162
938.257
938.351
938.444
938.536
938.627
938.717
938.805
938.892
938.976
939.051
938.928
938.828
938.746
938.676
938.615
938.561
938.512
938.466
938.425
938.387
933.891
933.891
933.891