/*--------------------------------*- C++ -*----------------------------------*\
  =========                 |
  \\      /  F ield         | OpenFOAM: The Open Source CFD Toolbox
   \\    /   O peration     | Website:  https://openfoam.org
    \\  /    A nd           | Version:  12
     \\/     M anipulation  |
\*---------------------------------------------------------------------------*/
FoamFile
{
    format      ascii;
    class       volScalarField;
    location    "1700/porous";
    object      T;
}
// * * * * * * * * * * * * * * * * * * * * * * * * * * * * * * * * * * * * * //

dimensions      [0 0 0 1 0 0 0];

internalField   nonuniform List<scalar> 
140000
(
400
400
400
400
400
400
400
400
400
399.993
399.691
399.453
399.24
399.039
398.846
398.658
398.474
398.294
398.116
397.941
397.767
397.595
397.425
397.256
397.089
396.923
396.758
396.595
396.434
396.274
396.116
395.959
395.804
395.651
395.499
395.349
395.201
395.053
394.908
394.763
394.62
394.478
394.337
394.198
394.059
393.922
393.787
393.653
393.52
393.389
393.26
393.132
393.006
392.882
392.761
392.642
392.526
392.415
392.309
392.235
392.677
392.959
393.176
393.356
393.511
393.648
393.77
393.881
393.982
394.07
400
400
400
400
400
400
400
400
400
399.995
399.765
399.577
399.406
399.245
399.089
398.937
398.787
398.64
398.494
398.35
398.207
398.066
397.925
397.784
397.645
397.507
397.369
397.231
397.095
396.959
396.824
396.69
396.556
396.423
396.29
396.159
396.028
395.897
395.767
395.638
395.51
395.382
395.254
395.127
395.001
394.875
394.75
394.627
394.504
394.382
394.261
394.142
394.023
393.907
393.791
393.679
393.567
393.46
393.355
393.271
393.535
393.707
393.843
393.959
394.06
394.151
394.234
394.311
394.383
394.446
400
400
400
400
400
400
400
400
400
399.996
399.784
399.616
399.464
399.322
399.186
399.055
398.926
398.801
398.677
398.555
398.434
398.315
398.197
398.08
397.963
397.848
397.733
397.619
397.505
397.392
397.28
397.168
397.056
396.945
396.834
396.724
396.614
396.504
396.395
396.286
396.178
396.069
395.961
395.853
395.745
395.638
395.531
395.425
395.319
395.214
395.11
395.007
394.904
394.803
394.703
394.604
394.507
394.412
394.321
394.242
394.452
394.584
394.684
394.766
394.837
394.9
394.957
395.009
395.056
395.098
400
400
400
400
400
400
400
400
400
399.996
399.79
399.625
399.48
399.344
399.215
399.091
398.971
398.854
398.74
398.628
398.517
398.408
398.301
398.195
398.09
397.986
397.883
397.781
397.679
397.579
397.479
397.379
397.281
397.183
397.085
396.988
396.892
396.795
396.7
396.604
396.509
396.415
396.32
396.226
396.132
396.039
395.946
395.853
395.761
395.67
395.579
395.489
395.4
395.312
395.226
395.14
395.056
394.975
394.896
394.828
395.024
395.148
395.24
395.316
395.381
395.438
395.488
395.534
395.575
395.613
400
400
400
400
400
400
400
400
400
399.996
399.791
399.628
399.484
399.35
399.223
399.102
398.984
398.87
398.759
398.65
398.544
398.439
398.336
398.234
398.133
398.034
397.936
397.839
397.743
397.648
397.554
397.46
397.367
397.275
397.184
397.093
397.003
396.914
396.825
396.737
396.649
396.561
396.474
396.387
396.301
396.215
396.129
396.044
395.96
395.877
395.794
395.712
395.631
395.552
395.473
395.396
395.321
395.247
395.177
395.117
395.31
395.432
395.525
395.602
395.667
395.724
395.776
395.822
395.864
395.902
400
400
400
400
400
400
400
400
400
399.996
399.79
399.628
399.484
399.351
399.224
399.103
398.986
398.873
398.763
398.655
398.549
398.446
398.344
398.243
398.145
398.047
397.951
397.856
397.762
397.669
397.577
397.486
397.396
397.306
397.218
397.13
397.043
396.956
396.87
396.785
396.7
396.616
396.532
396.449
396.366
396.284
396.202
396.121
396.04
395.961
395.882
395.804
395.728
395.652
395.578
395.506
395.435
395.366
395.3
395.244
395.436
395.559
395.653
395.731
395.797
395.856
395.908
395.956
395.999
396.039
400
400
400
400
400
400
400
400
400
399.996
399.79
399.628
399.484
399.351
399.224
399.103
398.986
398.872
398.762
398.654
398.549
398.446
398.344
398.244
398.146
398.049
397.953
397.859
397.765
397.673
397.582
397.492
397.402
397.314
397.226
397.14
397.054
396.969
396.884
396.8
396.717
396.634
396.551
396.469
396.388
396.307
396.227
396.148
396.069
395.991
395.914
395.839
395.764
395.69
395.619
395.548
395.48
395.413
395.35
395.296
395.488
395.611
395.706
395.784
395.851
395.911
395.964
396.012
396.057
396.097
400
400
400
400
400
400
400
400
400
399.996
399.79
399.627
399.483
399.35
399.223
399.101
398.984
398.871
398.76
398.652
398.547
398.443
398.341
398.241
398.143
398.046
397.951
397.856
397.763
397.671
397.58
397.49
397.401
397.313
397.226
397.139
397.054
396.969
396.885
396.802
396.719
396.637
396.555
396.473
396.393
396.312
396.233
396.154
396.076
395.999
395.923
395.848
395.774
395.702
395.631
395.562
395.494
395.429
395.367
395.314
395.506
395.63
395.724
395.803
395.871
395.93
395.984
396.033
396.078
396.119
400
400
400
400
400
400
400
400
400
399.996
399.79
399.627
399.483
399.349
399.222
399.101
398.983
398.869
398.758
398.65
398.544
398.441
398.339
398.239
398.14
398.043
397.947
397.853
397.76
397.668
397.577
397.487
397.398
397.31
397.223
397.136
397.051
396.966
396.882
396.799
396.716
396.634
396.553
396.471
396.391
396.311
396.232
396.153
396.075
395.999
395.923
395.848
395.775
395.703
395.632
395.564
395.497
395.432
395.371
395.318
395.51
395.634
395.729
395.807
395.875
395.935
395.99
396.039
396.084
396.125
400
400
400
400
400
400
400
400
400
399.996
399.79
399.627
399.483
399.349
399.222
399.1
398.982
398.868
398.757
398.648
398.542
398.438
398.336
398.236
398.137
398.04
397.944
397.849
397.756
397.664
397.573
397.483
397.394
397.306
397.219
397.132
397.047
396.962
396.879
396.795
396.713
396.63
396.549
396.468
396.387
396.307
396.228
396.149
396.072
395.995
395.919
395.845
395.771
395.7
395.629
395.561
395.494
395.43
395.369
395.317
395.509
395.633
395.728
395.807
395.875
395.935
395.989
396.038
396.084
396.125
400
400
400
400
400
400
400
400
400
399.996
399.789
399.626
399.482
399.348
399.221
399.099
398.981
398.867
398.755
398.647
398.54
398.436
398.334
398.233
398.135
398.037
397.941
397.847
397.753
397.661
397.57
397.48
397.39
397.302
397.215
397.129
397.043
396.959
396.875
396.792
396.709
396.627
396.545
396.464
396.383
396.303
396.224
396.145
396.068
395.991
395.915
395.841
395.767
395.696
395.625
395.557
395.49
395.427
395.366
395.314
395.506
395.63
395.725
395.804
395.872
395.932
395.986
396.036
396.081
396.122
400
400
400
400
400
400
400
400
400
399.996
399.789
399.626
399.482
399.348
399.221
399.099
398.981
398.866
398.755
398.646
398.539
398.435
398.332
398.232
398.133
398.035
397.939
397.844
397.751
397.658
397.567
397.477
397.388
397.299
397.212
397.126
397.04
396.956
396.872
396.789
396.706
396.623
396.541
396.46
396.379
396.299
396.22
396.141
396.064
395.987
395.911
395.836
395.763
395.691
395.621
395.553
395.487
395.423
395.362
395.311
395.503
395.626
395.722
395.8
395.869
395.929
395.983
396.033
396.078
396.119
400
400
400
400
400
400
400
400
400
399.996
399.789
399.626
399.482
399.348
399.221
399.099
398.981
398.866
398.754
398.645
398.538
398.434
398.331
398.23
398.131
398.033
397.937
397.842
397.749
397.656
397.565
397.475
397.385
397.297
397.21
397.124
397.038
396.953
396.869
396.786
396.703
396.621
396.539
396.457
396.376
396.296
396.217
396.138
396.06
395.984
395.908
395.833
395.76
395.688
395.618
395.55
395.484
395.42
395.359
395.308
395.5
395.624
395.719
395.798
395.866
395.926
395.98
396.03
396.075
396.116
400
400
400
400
400
400
400
400
400
399.996
399.789
399.626
399.482
399.348
399.221
399.099
398.98
398.866
398.754
398.644
398.538
398.433
398.33
398.229
398.13
398.032
397.936
397.841
397.747
397.655
397.563
397.473
397.384
397.296
397.208
397.122
397.036
396.952
396.868
396.784
396.701
396.618
396.536
396.455
396.374
396.294
396.214
396.135
396.058
395.981
395.905
395.83
395.757
395.685
395.615
395.547
395.481
395.417
395.357
395.306
395.497
395.621
395.716
395.795
395.863
395.924
395.978
396.027
396.073
396.114
400
400
400
400
400
400
400
400
400
399.996
399.789
399.626
399.482
399.349
399.221
399.099
398.981
398.866
398.754
398.644
398.537
398.432
398.33
398.229
398.129
398.031
397.935
397.84
397.746
397.654
397.562
397.472
397.383
397.294
397.207
397.121
397.035
396.95
396.866
396.783
396.699
396.617
396.534
396.453
396.372
396.292
396.212
396.133
396.055
395.979
395.903
395.828
395.755
395.683
395.613
395.545
395.479
395.415
395.355
395.304
395.496
395.62
395.715
395.794
395.862
395.922
395.976
396.026
396.071
396.112
400
400
400
400
400
400
400
400
400
399.996
399.789
399.627
399.483
399.349
399.222
399.099
398.981
398.866
398.754
398.644
398.537
398.432
398.329
398.228
398.129
398.031
397.934
397.839
397.746
397.653
397.562
397.471
397.382
397.294
397.206
397.12
397.034
396.949
396.865
396.781
396.698
396.615
396.533
396.451
396.37
396.29
396.21
396.132
396.054
395.977
395.901
395.826
395.753
395.681
395.611
395.543
395.477
395.414
395.354
395.303
395.494
395.618
395.713
395.792
395.86
395.921
395.975
396.024
396.07
396.111
400
400
400
400
400
400
400
400
400
399.996
399.789
399.626
399.482
399.349
399.222
399.099
398.981
398.866
398.754
398.644
398.537
398.432
398.329
398.228
398.128
398.03
397.934
397.839
397.745
397.653
397.561
397.471
397.382
397.293
397.206
397.119
397.033
396.948
396.864
396.78
396.697
396.614
396.532
396.45
396.369
396.289
396.209
396.13
396.052
395.975
395.899
395.825
395.751
395.68
395.61
395.542
395.476
395.413
395.353
395.302
395.493
395.617
395.712
395.791
395.859
395.92
395.974
396.023
396.069
396.11
400
400
400
400
400
400
400
400
400
399.996
399.79
399.627
399.483
399.349
399.222
399.1
398.981
398.866
398.754
398.644
398.537
398.432
398.329
398.228
398.128
398.03
397.934
397.839
397.745
397.652
397.561
397.471
397.381
397.293
397.205
397.118
397.033
396.948
396.863
396.779
396.696
396.613
396.531
396.449
396.368
396.288
396.208
396.129
396.051
395.974
395.898
395.824
395.75
395.679
395.609
395.541
395.475
395.412
395.352
395.302
395.493
395.617
395.712
395.791
395.859
395.919
395.973
396.023
396.068
396.109
400
400
400
400
400
400
400
400
400
399.996
399.79
399.627
399.483
399.35
399.223
399.1
398.982
398.867
398.754
398.645
398.537
398.432
398.329
398.227
398.128
398.03
397.933
397.838
397.745
397.652
397.561
397.47
397.381
397.292
397.205
397.118
397.032
396.947
396.862
396.779
396.695
396.612
396.53
396.448
396.367
396.287
396.207
396.128
396.05
395.973
395.897
395.823
395.75
395.678
395.608
395.54
395.474
395.412
395.352
395.301
395.492
395.616
395.711
395.79
395.858
395.919
395.973
396.022
396.068
396.109
400
400
400
400
400
400
400
400
400
399.996
399.79
399.627
399.483
399.35
399.223
399.101
398.982
398.867
398.755
398.645
398.537
398.432
398.329
398.227
398.128
398.03
397.933
397.838
397.744
397.652
397.56
397.47
397.381
397.292
397.204
397.117
397.031
396.946
396.862
396.778
396.694
396.611
396.529
396.447
396.366
396.286
396.206
396.127
396.049
395.972
395.897
395.822
395.749
395.677
395.607
395.54
395.474
395.411
395.351
395.301
395.492
395.616
395.711
395.79
395.858
395.918
395.972
396.022
396.067
396.108
400
400
400
400
400
400
400
400
400
399.996
399.79
399.627
399.484
399.35
399.223
399.101
398.982
398.867
398.755
398.645
398.537
398.432
398.329
398.227
398.127
398.029
397.933
397.838
397.744
397.651
397.56
397.47
397.38
397.291
397.203
397.116
397.03
396.945
396.861
396.777
396.693
396.611
396.528
396.447
396.365
396.285
396.205
396.127
396.049
395.972
395.896
395.821
395.748
395.676
395.607
395.539
395.473
395.411
395.351
395.301
395.492
395.616
395.711
395.789
395.857
395.918
395.972
396.021
396.067
396.108
400
400
400
400
400
400
400
400
400
399.996
399.79
399.627
399.483
399.35
399.223
399.101
398.983
398.867
398.755
398.645
398.538
398.432
398.329
398.227
398.127
398.029
397.932
397.837
397.744
397.651
397.56
397.469
397.379
397.291
397.203
397.116
397.03
396.944
396.86
396.776
396.693
396.61
396.527
396.446
396.365
396.284
396.205
396.126
396.048
395.971
395.895
395.821
395.747
395.676
395.606
395.539
395.473
395.41
395.351
395.3
395.492
395.615
395.71
395.789
395.857
395.917
395.972
396.021
396.067
396.108
400
400
400
400
400
400
400
400
400
399.996
399.79
399.627
399.484
399.35
399.223
399.101
398.983
398.867
398.755
398.645
398.537
398.432
398.328
398.227
398.127
398.029
397.932
397.837
397.743
397.651
397.559
397.468
397.379
397.29
397.202
397.115
397.029
396.944
396.859
396.775
396.692
396.609
396.527
396.445
396.364
396.284
396.204
396.125
396.047
395.971
395.895
395.82
395.747
395.675
395.606
395.538
395.473
395.41
395.35
395.3
395.491
395.615
395.71
395.789
395.857
395.917
395.971
396.021
396.066
396.107
400
400
400
400
400
400
400
400
400
399.996
399.79
399.627
399.484
399.35
399.223
399.101
398.983
398.868
398.755
398.645
398.538
398.432
398.328
398.227
398.127
398.029
397.932
397.837
397.743
397.65
397.559
397.468
397.378
397.29
397.202
397.115
397.028
396.943
396.858
396.775
396.691
396.609
396.526
396.445
396.364
396.284
396.204
396.125
396.047
395.97
395.894
395.82
395.747
395.675
395.606
395.538
395.473
395.41
395.35
395.3
395.491
395.615
395.71
395.789
395.857
395.917
395.971
396.021
396.066
396.107
400
400
400
400
400
400
400
400
400
399.996
399.79
399.627
399.484
399.35
399.223
399.101
398.983
398.868
398.755
398.645
398.538
398.432
398.328
398.227
398.127
398.028
397.932
397.836
397.743
397.65
397.558
397.468
397.378
397.289
397.201
397.114
397.028
396.943
396.858
396.774
396.691
396.608
396.526
396.445
396.364
396.283
396.204
396.125
396.047
395.97
395.894
395.82
395.747
395.675
395.606
395.538
395.473
395.41
395.35
395.3
395.491
395.615
395.71
395.789
395.857
395.917
395.971
396.021
396.066
396.107
400
400
400
400
400
400
400
400
400
399.996
399.79
399.627
399.484
399.35
399.223
399.101
398.983
398.868
398.755
398.645
398.538
398.432
398.328
398.227
398.127
398.028
397.932
397.836
397.742
397.65
397.558
397.468
397.378
397.289
397.201
397.114
397.028
396.943
396.858
396.774
396.691
396.608
396.526
396.445
396.364
396.284
396.204
396.125
396.047
395.971
395.895
395.82
395.747
395.676
395.606
395.538
395.473
395.41
395.351
395.301
395.492
395.615
395.71
395.789
395.857
395.917
395.971
396.021
396.066
396.107
400
400
400
400
400
400
400
400
400
399.996
399.79
399.627
399.484
399.35
399.223
399.101
398.983
398.868
398.755
398.645
398.538
398.432
398.328
398.227
398.127
398.028
397.931
397.836
397.742
397.65
397.558
397.467
397.378
397.289
397.201
397.114
397.028
396.943
396.858
396.774
396.691
396.609
396.527
396.445
396.364
396.284
396.205
396.126
396.048
395.971
395.895
395.821
395.747
395.676
395.606
395.539
395.473
395.411
395.351
395.301
395.492
395.615
395.71
395.789
395.857
395.917
395.972
396.021
396.067
396.108
400
400
400
400
400
400
400
400
400
399.996
399.79
399.627
399.484
399.35
399.223
399.101
398.983
398.868
398.755
398.645
398.538
398.432
398.328
398.227
398.127
398.028
397.932
397.836
397.742
397.65
397.558
397.468
397.378
397.289
397.201
397.115
397.028
396.943
396.859
396.775
396.692
396.609
396.527
396.446
396.365
396.285
396.205
396.127
396.049
395.972
395.896
395.821
395.748
395.676
395.607
395.539
395.474
395.411
395.351
395.301
395.492
395.616
395.711
395.789
395.857
395.918
395.972
396.021
396.067
396.108
400
400
400
400
400
400
400
400
400
399.996
399.79
399.627
399.484
399.35
399.223
399.101
398.983
398.868
398.755
398.645
398.538
398.432
398.329
398.227
398.127
398.028
397.932
397.836
397.742
397.65
397.558
397.468
397.378
397.29
397.202
397.115
397.029
396.944
396.859
396.776
396.693
396.61
396.528
396.447
396.366
396.286
396.206
396.127
396.05
395.973
395.897
395.822
395.749
395.677
395.607
395.54
395.474
395.411
395.352
395.301
395.492
395.616
395.711
395.79
395.858
395.918
395.972
396.022
396.067
396.108
400
400
400
400
400
400
400
400
400
399.996
399.79
399.627
399.484
399.35
399.223
399.101
398.983
398.868
398.755
398.645
398.538
398.432
398.329
398.227
398.127
398.029
397.932
397.837
397.743
397.65
397.559
397.469
397.379
397.291
397.203
397.116
397.03
396.945
396.86
396.777
396.694
396.611
396.529
396.448
396.367
396.287
396.207
396.129
396.051
395.974
395.898
395.823
395.75
395.678
395.608
395.54
395.475
395.412
395.352
395.302
395.493
395.617
395.712
395.79
395.858
395.919
395.973
396.022
396.068
396.109
400
400
400
400
400
400
400
400
400
399.996
399.79
399.627
399.483
399.35
399.223
399.101
398.983
398.868
398.756
398.646
398.538
398.433
398.329
398.227
398.128
398.029
397.932
397.837
397.743
397.651
397.559
397.469
397.38
397.291
397.204
397.117
397.031
396.946
396.862
396.778
396.695
396.612
396.53
396.449
396.368
396.288
396.208
396.13
396.052
395.975
395.899
395.824
395.751
395.679
395.609
395.541
395.475
395.412
395.352
395.302
395.493
395.617
395.712
395.791
395.859
395.919
395.973
396.023
396.068
396.109
400
400
400
400
400
400
400
400
400
399.996
399.79
399.627
399.483
399.35
399.223
399.101
398.983
398.868
398.756
398.646
398.539
398.433
398.33
398.228
398.128
398.03
397.933
397.838
397.744
397.652
397.56
397.47
397.381
397.293
397.205
397.118
397.032
396.947
396.863
396.779
396.696
396.613
396.531
396.45
396.369
396.289
396.21
396.131
396.053
395.976
395.9
395.825
395.752
395.68
395.609
395.541
395.476
395.413
395.353
395.302
395.494
395.617
395.712
395.791
395.859
395.92
395.974
396.023
396.069
396.11
400
400
400
400
400
400
400
400
400
399.996
399.79
399.627
399.483
399.35
399.223
399.101
398.983
398.868
398.756
398.646
398.539
398.434
398.33
398.229
398.129
398.031
397.934
397.839
397.745
397.653
397.561
397.471
397.382
397.294
397.206
397.12
397.034
396.949
396.864
396.78
396.697
396.615
396.533
396.451
396.371
396.29
396.211
396.132
396.054
395.977
395.901
395.826
395.753
395.681
395.61
395.542
395.476
395.413
395.353
395.303
395.494
395.618
395.713
395.792
395.86
395.92
395.974
396.024
396.069
396.11
400
400
400
400
400
400
400
400
400
399.996
399.789
399.627
399.483
399.35
399.223
399.102
398.984
398.869
398.757
398.647
398.54
398.434
398.331
398.23
398.13
398.032
397.935
397.84
397.746
397.654
397.563
397.473
397.384
397.295
397.208
397.121
397.035
396.95
396.866
396.782
396.698
396.616
396.534
396.453
396.372
396.292
396.212
396.134
396.056
395.979
395.903
395.828
395.754
395.682
395.611
395.543
395.477
395.413
395.353
395.302
395.494
395.618
395.713
395.792
395.86
395.92
395.975
396.024
396.07
396.111
400
400
400
400
400
400
400
400
400
399.996
399.79
399.627
399.484
399.35
399.224
399.102
398.984
398.869
398.757
398.648
398.541
398.435
398.332
398.231
398.131
398.033
397.936
397.841
397.748
397.656
397.564
397.475
397.386
397.297
397.21
397.123
397.037
396.952
396.867
396.783
396.7
396.618
396.536
396.454
396.374
396.293
396.214
396.135
396.057
395.98
395.904
395.829
395.755
395.683
395.612
395.544
395.477
395.414
395.354
395.303
395.495
395.619
395.714
395.793
395.861
395.921
395.975
396.025
396.07
396.112
400
400
400
400
400
400
400
400
400
399.996
399.79
399.627
399.483
399.35
399.224
399.102
398.985
398.87
398.758
398.649
398.542
398.437
398.333
398.232
398.133
398.035
397.938
397.843
397.75
397.657
397.567
397.477
397.388
397.299
397.212
397.125
397.039
396.954
396.869
396.785
396.702
396.619
396.538
396.456
396.375
396.295
396.216
396.137
396.059
395.982
395.906
395.831
395.757
395.684
395.613
395.545
395.479
395.415
395.354
395.304
395.495
395.619
395.715
395.794
395.862
395.922
395.977
396.026
396.071
396.113
400
400
400
400
400
400
400
400
400
399.996
399.789
399.627
399.484
399.351
399.224
399.103
398.985
398.871
398.759
398.65
398.543
398.438
398.335
398.234
398.134
398.036
397.94
397.845
397.752
397.66
397.569
397.479
397.39
397.302
397.214
397.128
397.042
396.956
396.872
396.788
396.704
396.622
396.54
396.459
396.378
396.298
396.218
396.14
396.062
395.985
395.909
395.833
395.759
395.686
395.615
395.546
395.48
395.416
395.356
395.304
395.496
395.621
395.716
395.795
395.863
395.924
395.978
396.027
396.073
396.114
400
400
400
400
400
400
400
400
400
399.996
399.79
399.627
399.484
399.351
399.225
399.104
398.986
398.872
398.76
398.651
398.544
398.44
398.337
398.236
398.136
398.039
397.942
397.848
397.754
397.662
397.572
397.482
397.393
397.305
397.217
397.13
397.044
396.959
396.874
396.791
396.707
396.625
396.543
396.461
396.381
396.301
396.221
396.143
396.065
395.988
395.911
395.836
395.762
395.689
395.618
395.549
395.482
395.418
395.357
395.306
395.498
395.623
395.718
395.797
395.865
395.926
395.98
396.03
396.075
396.116
400
400
400
400
400
400
400
400
400
399.996
399.79
399.627
399.484
399.352
399.226
399.104
398.987
398.873
398.762
398.653
398.546
398.442
398.339
398.238
398.139
398.041
397.945
397.85
397.757
397.665
397.575
397.485
397.396
397.308
397.22
397.133
397.047
396.962
396.878
396.794
396.71
396.628
396.546
396.465
396.384
396.304
396.225
396.146
396.068
395.991
395.915
395.84
395.765
395.692
395.621
395.551
395.485
395.421
395.359
395.308
395.5
395.625
395.72
395.799
395.868
395.928
395.982
396.032
396.077
396.119
400
400
400
400
400
400
400
400
400
399.996
399.79
399.628
399.485
399.352
399.226
399.106
398.989
398.875
398.763
398.655
398.548
398.444
398.341
398.241
398.142
398.044
397.948
397.854
397.761
397.669
397.578
397.488
397.399
397.311
397.224
397.137
397.051
396.966
396.881
396.798
396.714
396.632
396.55
396.469
396.388
396.308
396.229
396.15
396.073
395.995
395.919
395.844
395.769
395.696
395.625
395.555
395.488
395.423
395.362
395.311
395.503
395.628
395.723
395.802
395.87
395.931
395.985
396.035
396.08
396.121
400
400
400
400
400
400
400
400
400
399.996
399.79
399.628
399.485
399.353
399.227
399.107
398.99
398.876
398.765
398.657
398.551
398.446
398.344
398.244
398.145
398.047
397.951
397.857
397.764
397.672
397.582
397.492
397.403
397.315
397.228
397.141
397.055
396.97
396.885
396.802
396.718
396.636
396.554
396.473
396.392
396.313
396.233
396.155
396.077
396
395.924
395.848
395.774
395.7
395.628
395.558
395.491
395.426
395.365
395.314
395.506
395.63
395.726
395.805
395.873
395.933
395.988
396.037
396.083
396.124
400
400
400
400
400
400
400
400
400
399.996
399.79
399.628
399.486
399.354
399.228
399.108
398.992
398.878
398.767
398.659
398.553
398.449
398.347
398.247
398.148
398.051
397.955
397.861
397.768
397.676
397.586
397.496
397.407
397.319
397.232
397.145
397.059
396.974
396.889
396.806
396.723
396.64
396.558
396.477
396.397
396.317
396.237
396.159
396.081
396.004
395.927
395.852
395.777
395.703
395.631
395.561
395.493
395.428
395.366
395.314
395.507
395.631
395.726
395.805
395.873
395.934
395.988
396.037
396.083
396.124
400
400
400
400
400
400
400
400
400
399.996
399.791
399.629
399.486
399.355
399.229
399.109
398.993
398.88
398.769
398.661
398.556
398.452
398.35
398.25
398.151
398.054
397.958
397.864
397.771
397.679
397.589
397.499
397.41
397.322
397.235
397.148
397.062
396.977
396.892
396.808
396.725
396.642
396.561
396.479
396.398
396.318
396.239
396.16
396.082
396.004
395.928
395.852
395.777
395.703
395.63
395.559
395.49
395.424
395.362
395.31
395.502
395.626
395.722
395.8
395.868
395.928
395.982
396.032
396.077
396.117
400
400
400
400
400
400
400
400
400
399.996
399.791
399.629
399.487
399.355
399.231
399.111
398.995
398.882
398.771
398.664
398.558
398.454
398.352
398.252
398.153
398.056
397.961
397.866
397.773
397.681
397.59
397.5
397.411
397.322
397.235
397.148
397.061
396.976
396.891
396.806
396.723
396.64
396.557
396.475
396.394
396.313
396.233
396.154
396.075
395.997
395.919
395.842
395.766
395.691
395.617
395.545
395.475
395.409
395.345
395.291
395.484
395.608
395.703
395.781
395.849
395.908
395.962
396.011
396.055
396.096
400
400
400
400
400
400
400
400
400
399.996
399.791
399.63
399.487
399.356
399.231
399.111
398.995
398.882
398.772
398.664
398.558
398.454
398.352
398.251
398.152
398.054
397.958
397.863
397.769
397.676
397.584
397.493
397.403
397.314
397.225
397.137
397.05
396.963
396.877
396.791
396.706
396.622
396.538
396.454
396.372
396.289
396.208
396.127
396.046
395.966
395.887
395.808
395.73
395.653
395.577
395.503
395.431
395.361
395.295
395.239
395.432
395.556
395.65
395.728
395.795
395.854
395.906
395.954
395.998
396.037
400
400
400
400
400
400
400
400
400
399.996
399.791
399.63
399.487
399.355
399.23
399.109
398.993
398.879
398.768
398.659
398.552
398.446
398.343
398.24
398.14
398.04
397.942
397.845
397.749
397.654
397.56
397.467
397.374
397.282
397.191
397.1
397.009
396.92
396.831
396.742
396.654
396.566
396.479
396.392
396.306
396.22
396.135
396.05
395.966
395.882
395.799
395.716
395.634
395.553
395.473
395.394
395.317
395.243
395.172
395.112
395.306
395.429
395.523
395.599
395.665
395.722
395.774
395.82
395.862
395.9
400
400
400
400
400
400
400
400
400
399.996
399.79
399.627
399.483
399.349
399.221
399.098
398.979
398.862
398.747
398.635
398.524
398.415
398.307
398.2
398.095
397.991
397.887
397.785
397.684
397.583
397.484
397.384
397.286
397.188
397.09
396.993
396.896
396.8
396.704
396.609
396.513
396.419
396.324
396.231
396.137
396.044
395.951
395.858
395.766
395.675
395.584
395.493
395.403
395.314
395.225
395.138
395.053
394.971
394.891
394.823
395.021
395.145
395.238
395.314
395.379
395.436
395.487
395.532
395.574
395.611
400
400
400
400
400
400
400
400
400
399.996
399.785
399.617
399.467
399.326
399.191
399.061
398.933
398.807
398.683
398.561
398.44
398.32
398.201
398.084
397.967
397.851
397.736
397.621
397.508
397.395
397.283
397.171
397.059
396.948
396.837
396.727
396.617
396.507
396.398
396.289
396.18
396.072
395.964
395.857
395.75
395.643
395.536
395.43
395.325
395.22
395.115
395.011
394.908
394.805
394.703
394.603
394.505
394.409
394.318
394.238
394.449
394.582
394.682
394.765
394.836
394.899
394.955
395.008
395.055
395.098
400
400
400
400
400
400
400
400
400
399.995
399.765
399.578
399.409
399.248
399.094
398.942
398.793
398.645
398.499
398.355
398.211
398.069
397.927
397.786
397.646
397.507
397.369
397.232
397.095
396.96
396.825
396.69
396.557
396.424
396.292
396.16
396.029
395.899
395.769
395.64
395.511
395.384
395.257
395.13
395.005
394.88
394.756
394.633
394.51
394.389
394.268
394.148
394.029
393.911
393.794
393.679
393.567
393.458
393.353
393.269
393.533
393.706
393.842
393.958
394.059
394.151
394.234
394.311
394.382
394.446
400
400
400
400
400
400
400
400
400
399.993
399.691
399.454
399.242
399.042
398.85
398.663
398.479
398.299
398.12
397.944
397.769
397.596
397.425
397.255
397.087
396.92
396.756
396.593
396.431
396.272
396.114
395.958
395.803
395.65
395.499
395.349
395.201
395.054
394.908
394.764
394.621
394.48
394.34
394.202
394.065
393.929
393.794
393.661
393.529
393.399
393.269
393.141
393.014
392.888
392.765
392.644
392.526
392.414
392.308
392.234
392.676
392.958
393.176
393.356
393.511
393.648
393.77
393.881
393.982
394.07
400
400
400
400
400
400
400
400
400
399.995
399.767
399.551
399.346
399.15
398.96
398.774
398.591
398.411
398.233
398.058
397.884
397.711
397.54
397.371
397.203
397.036
396.871
396.708
396.546
396.385
396.226
396.069
395.913
395.759
395.607
395.456
395.307
395.159
395.013
394.868
394.724
394.582
394.44
394.3
394.162
394.024
393.888
393.754
393.621
393.489
393.359
393.231
393.105
392.98
392.858
392.738
392.622
392.509
392.402
392.321
392.686
392.955
393.169
393.348
393.503
393.639
393.762
393.873
393.974
394.064
400
400
400
400
400
400
400
400
400
399.997
399.835
399.672
399.514
399.36
399.209
399.061
398.914
398.769
398.626
398.483
398.342
398.201
398.061
397.922
397.783
397.645
397.508
397.371
397.235
397.1
396.965
396.831
396.697
396.564
396.432
396.3
396.169
396.039
395.909
395.78
395.652
395.523
395.396
395.269
395.142
395.017
394.892
394.768
394.645
394.523
394.401
394.281
394.162
394.045
393.929
393.816
393.704
393.595
393.489
393.398
393.583
393.735
393.861
393.971
394.069
394.157
394.239
394.314
394.384
394.447
400
400
400
400
400
400
400
400
400
399.998
399.851
399.707
399.568
399.433
399.302
399.175
399.049
398.926
398.805
398.685
398.566
398.448
398.331
398.215
398.099
397.985
397.871
397.758
397.645
397.532
397.421
397.309
397.198
397.088
396.978
396.868
396.758
396.649
396.541
396.432
396.324
396.216
396.108
396.001
395.893
395.786
395.68
395.574
395.468
395.363
395.259
395.156
395.053
394.951
394.851
394.752
394.654
394.558
394.466
394.382
394.518
394.629
394.72
394.797
394.864
394.924
394.978
395.028
395.074
395.115
400
400
400
400
400
400
400
400
400
399.998
399.855
399.716
399.582
399.454
399.33
399.21
399.092
398.978
398.865
398.755
398.646
398.538
398.432
398.327
398.223
398.119
398.017
397.916
397.815
397.715
397.616
397.517
397.419
397.321
397.224
397.128
397.032
396.936
396.841
396.746
396.652
396.557
396.463
396.369
396.276
396.183
396.09
395.998
395.906
395.815
395.724
395.634
395.545
395.457
395.37
395.285
395.2
395.118
395.037
394.965
395.09
395.193
395.277
395.348
395.409
395.464
395.512
395.556
395.596
395.632
400
400
400
400
400
400
400
400
400
399.998
399.856
399.718
399.586
399.459
399.337
399.219
399.105
398.993
398.884
398.777
398.671
398.567
398.465
398.364
398.265
398.166
398.069
397.973
397.877
397.783
397.689
397.596
397.504
397.412
397.321
397.231
397.141
397.052
396.963
396.875
396.788
396.7
396.614
396.527
396.441
396.355
396.27
396.185
396.101
396.018
395.935
395.853
395.772
395.692
395.614
395.536
395.46
395.386
395.314
395.25
395.372
395.474
395.559
395.63
395.692
395.747
395.797
395.841
395.882
395.919
400
400
400
400
400
400
400
400
400
399.998
399.856
399.718
399.586
399.459
399.338
399.221
399.107
398.995
398.887
398.781
398.676
398.574
398.473
398.374
398.276
398.179
398.083
397.989
397.895
397.803
397.711
397.621
397.531
397.442
397.353
397.266
397.179
397.093
397.007
396.922
396.838
396.754
396.67
396.587
396.504
396.422
396.341
396.26
396.179
396.1
396.021
395.943
395.866
395.79
395.716
395.643
395.571
395.502
395.434
395.374
395.496
395.599
395.684
395.757
395.82
395.876
395.927
395.973
396.015
396.054
400
400
400
400
400
400
400
400
400
399.998
399.856
399.717
399.585
399.459
399.338
399.22
399.106
398.995
398.886
398.78
398.676
398.574
398.473
398.374
398.277
398.18
398.085
397.991
397.899
397.807
397.716
397.626
397.537
397.449
397.362
397.275
397.19
397.105
397.02
396.937
396.853
396.771
396.689
396.607
396.526
396.445
396.365
396.286
396.207
396.129
396.052
395.976