/*--------------------------------*- C++ -*----------------------------------*\
  =========                 |
  \\      /  F ield         | OpenFOAM: The Open Source CFD Toolbox
   \\    /   O peration     | Website:  https://openfoam.org
    \\  /    A nd           | Version:  12
     \\/     M anipulation  |
\*---------------------------------------------------------------------------*/
FoamFile
{
    format      ascii;
    class       volScalarField;
    location    "750/air";
    object      alphat;
}
// * * * * * * * * * * * * * * * * * * * * * * * * * * * * * * * * * * * * * //

dimensions      [1 -1 -1 0 0 0 0];

internalField   nonuniform List<scalar> 
243000
(
0.000182634
0.000189253
0.000188641
0.000184786
0.000178833
0.00017152
0.000163518
0.000155396
0.000147547
0.000140329
0.000133909
0.000128566
0.000124563
0.000122201
0.000121309
0.000121257
0.000121388
0.000121409
0.000121243
0.000120875
0.000120317
0.000119615
0.000119085
0.000118551
0.000116421
0.00011081
9.80932e-05
9.92111e-05
0.000118924
0.00012525
0.000675136
0.000704207
0.00070403
0.000688713
0.000665061
0.000636998
0.00060697
0.000576906
0.000548072
0.000521416
0.000497494
0.000477093
0.00046065
0.000448148
0.000438115
0.000428698
0.000419255
0.000410622
0.000403241
0.000397291
0.000392659
0.000389224
0.000387371
0.000387354
0.000385544
0.000376939
0.000353681
0.000353521
0.000436055
0.000490081
0.000868795
0.000946192
0.000989953
0.00100831
0.00101146
0.0010043
0.000990073
0.000971323
0.000949868
0.000927247
0.000904613
0.000883532
0.000864845
0.000848393
0.00083133
0.000810439
0.000785312
0.000758637
0.000732169
0.000706813
0.000682731
0.000659852
0.00063854
0.000618617
0.000596717
0.000566952
0.000522011
0.000490699
0.000560961
0.000635774
0.000902752
0.000991781
0.00104399
0.00106762
0.00107458
0.00106999
0.00105771
0.00104038
0.00101989
0.000997885
0.000975566
0.000954564
0.000935593
0.000918374
0.000899782
0.0008764
0.000847965
0.000817605
0.000787458
0.000758709
0.000731644
0.000706153
0.000682232
0.000659238
0.000634953
0.000604785
0.000562345
0.00052425
0.000565385
0.000666137
0.000916796
0.00101314
0.00107591
0.00110499
0.00111629
0.00111498
0.0011054
0.00109029
0.00107159
0.00105105
0.00102988
0.00100975
0.000991272
0.000974129
0.000954935
0.000930201
0.000899803
0.00086707
0.000834411
0.000803219
0.000773904
0.000746358
0.000720347
0.00069487
0.000668241
0.000637197
0.000596207
0.000553325
0.000565059
0.000684161
0.000915772
0.00101798
0.00109043
0.00112743
0.00114331
0.00114576
0.00113929
0.00112686
0.00111043
0.00109183
0.0010723
0.00105353
0.00103601
0.00101942
0.00100016
0.000974751
0.000943264
0.00090905
0.000874705
0.000841789
0.000810821
0.000781707
0.000754087
0.000726716
0.000698072
0.000666077
0.000625924
0.000579854
0.000567179
0.000692011
0.000905708
0.00101237
0.00109158
0.00113833
0.00115947
0.00116611
0.00116301
0.00115354
0.00113967
0.00112331
0.00110572
0.00108861
0.00107236
0.00105665
0.00103765
0.00101201
0.000980061
0.000944992
0.000909578
0.000875483
0.000843329
0.000813057
0.000784228
0.000755446
0.000725188
0.000692348
0.000652687
0.000605514
0.000577135
0.000689502
0.00089022
0.000999763
0.00108469
0.00113902
0.00116712
0.00117836
0.00117891
0.00117259
0.00116147
0.00114753
0.00113207
0.00111682
0.00110206
0.00108743
0.00106893
0.0010434
0.0010114
0.000975971
0.000939951
0.000905108
0.000872138
0.000841043
0.00081133
0.00078152
0.000750033
0.000716531
0.000677181
0.000629876
0.00059224
0.00067717
0.000874004
0.000982003
0.00107196
0.00113288
0.00116719
0.00118404
0.00118859
0.00118555
0.00117731
0.00116592
0.00115272
0.00113946
0.00112634
0.00111293
0.00109508
0.00106993
0.00103819
0.00100279
0.000966536
0.000931284
0.000897801
0.000866153
0.000835827
0.000805291
0.00077293
0.000738969
0.000699862
0.000652987
0.000608325
0.000662704
0.000855269
0.000963513
0.00105458
0.00112133
0.00116223
0.00118382
0.00119316
0.00119355
0.00118829
0.00117952
0.00116867
0.00115749
0.0011461
0.00113398
0.00111691
0.00109236
0.00106112
0.00102607
0.000989877
0.000954497
0.000920754
0.000888789
0.000858074
0.000827057
0.000794128
0.00075991
0.000721059
0.000674786
0.000626598
0.000649751
0.000833043
0.000944218
0.00103443
0.00110564
0.00115291
0.00117958
0.00119306
0.00119741
0.00119522
0.00118915
0.00118069
0.00117165
0.00116202
0.00115123
0.00113504
0.00111126
0.00108072
0.00104626
0.00101041
0.000975137
0.000941358
0.000909273
0.000878359
0.000847058
0.000813827
0.00077953
0.000741043
0.000695315
0.000644895
0.000640679
0.000806277
0.000923309
0.00101503
0.00108693
0.00113977
0.00117199
0.00118973
0.00119773
0.00119875
0.00119541
0.00118938
0.00118248
0.00117463
0.00116518
0.00114996
0.0011271
0.00109743
0.00106373
0.00102848
0.000993522
0.000959893
0.000927863
0.000896912
0.000865496
0.000832187
0.000797969
0.000759834
0.000714671
0.000663107
0.000636914
0.000770889
0.000899807
0.000995293
0.00106784
0.0011235
0.00116152
0.00118354
0.00119521
0.0011994
0.00119883
0.00119522
0.00119045
0.00118434
0.00117623
0.00116206
0.00114023
0.00111158
0.00107881
0.00104433
0.00100991
0.000976601
0.000944781
0.00091394
0.000882554
0.000849357
0.000815355
0.000777574
0.00073309
0.000681289
0.000641229
0.000728383
0.000872341
0.000974463
0.00104902
0.00110506
0.00114847
0.00117491
0.00119024
0.00119762
0.0011998
0.00119857
0.0011959
0.00119149
0.00118472
0.00117164
0.00115094
0.00112344
0.00109175
0.00105819
0.00102449
0.000991676
0.000960211
0.000929625
0.000898406
0.000865474
0.000831804
0.000794419
0.000750609
0.000698884
0.000652159
0.000685923
0.000837732
0.000951832
0.00103006
0.00108745
0.0011332
0.00116422
0.0011832
0.00119372
0.00119865
0.00119977
0.00119912
0.00119639
0.00119091
0.00117897
0.00115949
0.00113326
0.00110279
0.00107028
0.00103744
0.00100529
0.000974339
0.000944148
0.000913219
0.000880677
0.000847408
0.000810529
0.000767355
0.000715895
0.000663705
0.000661566
0.000792381
0.000926381
0.00101058
0.00107013
0.0011163
0.0011518
0.00117439
0.00118799
0.00119561
0.00119906
0.00120037
0.00119925
0.00119504
0.00118427
0.00116609
0.00114125
0.00111211
0.00108079
0.00104893
0.00101759
0.000987318
0.000957671
0.000927157
0.000895098
0.000862347
0.00082601
0.000783452
0.000732409
0.000676928
0.000669533
0.00074387
0.000894979
0.000990186
0.00105292
0.00109994
0.00113801
0.00116409
0.00118067
0.00119091
0.00119664
0.00119985
0.00120028
0.00119732
0.00118776
0.00117095
0.00114758
0.00111991
0.0010899
0.00105914
0.00102874
0.000999274
0.00097033
0.000940382
0.000908885
0.000876715
0.000840977
0.000799036
0.000748514
0.000691412
0.00069504
0.000706193
0.000857262
0.000968011
0.00103565
0.00108396
0.00112314
0.00115254
0.00117198
0.00118474
0.00119267
0.00119772
0.00119965
0.00119793
0.00118961
0.00117425
0.00115247
0.00112637
0.00109778
0.00106825
0.0010389
0.00101038
0.000982292
0.00095306
0.000922181
0.00089065
0.000855559
0.000814236
0.000764233
0.000706165
0.000723493
0.000693362
0.000816143
0.000942453
0.0010182
0.00106839
0.00110789
0.00113997
0.00116211
0.00117728
0.0011873
0.00119412
0.0011975
0.00119702
0.00118999
0.00117616
0.00115608
0.00113167
0.00110462
0.00107643
0.00104827
0.00102082
0.000993724
0.000965369
0.000935142
0.000904315
0.000869902
0.00082919
0.000779672
0.000720763
0.000754099
0.000708605
0.000777542
0.000913921
0.00100021
0.00105316
0.00109323
0.00112656
0.0011512
0.00116865
0.00118067
0.00118917
0.00119394
0.00119475
0.00118906
0.00117685
0.00115858
0.00113599
0.00111062
0.00108389
0.00105703
0.00103077
0.00100478
0.000977473
0.000947923
0.000917845
0.000884153
0.000844047
0.000794961
0.000735714
0.000785232
0.0007359
0.000750867
0.000883789
0.000981514
0.00103826
0.00107904
0.00111246
0.00113931
0.00115889
0.00117282
0.00118295
0.00118909
0.00119119
0.00118694
0.00117647
0.00116015
0.00113949
0.00111594
0.00109082
0.00106537
0.00104039
0.00101562
0.000989502
0.000960669
0.000931374
0.000898429
0.00085893
0.000810188
0.000750787
0.000815745
0.000764199
0.000740896
0.000854081
0.000962406
0.00102375
0.00106525
0.00109842
0.00112643
0.00114794
0.00116371
0.00117542
0.00118293
0.00118636
0.00118367
0.00117507
0.0011608
0.00114227
0.0011207
0.00109734
0.00107342
0.00104981
0.00102633
0.00100152
0.00097347
0.000945003
0.000912842
0.00087392
0.000825424
0.000765871
0.000845251
0.000792409
0.000746377
0.000827949
0.000943532
0.00100971
0.00105179
0.00108494
0.00111261
0.00113569
0.00115312
0.00116633
0.00117523
0.00118006
0.00117907
0.00117251
0.00116045
0.00114428
0.00112486
0.00110343
0.00108116
0.00105898
0.00103683
0.00101338
0.000986332
0.000958805
0.000927526
0.000889126
0.000840713
0.000780888
0.000873783
0.000820989
0.000764346
0.000808751
0.000926018
0.000996204
0.00103858
0.00107214
0.00109887
0.00112202
0.00114063
0.00115514
0.00116541
0.00117171
0.00117255
0.00116822
0.0011586
0.00114486
0.00112793
0.00110855
0.00108807
0.00106744
0.00104666
0.00102459
0.000999156
0.000972877
0.000942593
0.000904716
0.000856172
0.000795795
0.000902236
0.000848956
0.000785038
0.000797825
0.000911318
0.000983581
0.00102624
0.00106023
0.00108645
0.00110846
0.00112632
0.00114141
0.00115283
0.00116057
0.00116323
0.00116123
0.00115424
0.00114327
0.00112879
0.00111178
0.00109329
0.00107434
0.00105499
0.00103443
0.00101217
0.000987809
0.00095876
0.000921527
0.000872587
0.000811069
0.00093133
0.000875284
0.000805993
0.000794979
0.000901772
0.000973213
0.00101595
0.00105025
0.00107639
0.00109782
0.00111548
0.00113041
0.00114224
0.00115077
0.00115522
0.00115561
0.00115172
0.00114405
0.00113295
0.00111904
0.00110315
0.00108613
0.00106837
0.00104961
0.0010293
0.00100639
0.000978275
0.000941254
0.000891553
0.000827854
0.000962642
0.00090385
0.000829743
0.000801739
0.000900775
0.000967955
0.00101072
0.00104575
0.00107288
0.00109482
0.00111323
0.00112896
0.00114196
0.0011522
0.00115901
0.00116211
0.00116143
0.00115711
0.00114927
0.00113834
0.00112496
0.00110989
0.00109355
0.00107592
0.00105652
0.00103419
0.00100608
0.000968408
0.000917009
0.00085003
0.00100648
0.000945998
0.000870384
0.000838436
0.000924079
0.000985908
0.00102877
0.00106494
0.00109444
0.00111808
0.00113843
0.00115611
0.00117149
0.00118431
0.00119395
0.00119979
0.00120187
0.0012002
0.00119467
0.00118566
0.0011738
0.0011598
0.001144
0.00112634
0.00110646
0.00108327
0.00105417
0.00101488
0.000960764
0.000889175
0.0011119
0.00106278
0.00100474
0.000987119
0.00104845
0.00110183
0.00114194
0.00117654
0.0012068
0.00123116
0.00125252
0.00127089
0.00128813
0.00130281
0.00131355
0.00132003
0.0013225
0.00132096
0.00131531
0.00130601
0.00129384
0.00127955
0.00126334
0.00124442
0.00122283
0.00119813
0.00116852
0.00113068
0.00107941
0.0010111
0.00148572
0.00147173
0.00146083
0.0014645
0.00148833
0.00151368
0.00152824
0.00154054
0.00155128
0.00156137
0.00157059
0.0015774
0.00158872
0.00159854
0.00160371
0.00160623
0.00160637
0.00160436
0.0015998
0.00159386
0.00158722
0.00158081
0.0015742
0.0015628
0.00154919
0.00153548
0.00152047
0.00150362
0.00148002
0.00144709
0.000217598
0.000232432
0.000234608
0.000232198
0.00022643
0.000218445
0.000209199
0.00019947
0.000189787
0.000180609
0.000172145
0.000164681
0.000158302
0.000153202
0.000148972
0.000144709
0.000139774
0.000134149
0.000127974
0.000121301
0.00011409
0.00010635
9.91745e-05
9.47856e-05
9.22682e-05
9.05213e-05
9.69396e-05
0.000113102
0.000133601
0.000143114
0.000889099
0.00106028
0.00108364
0.00106023
0.00100843
0.000944387
0.000878783
0.000817283
0.000760896
0.000709585
0.000661647
0.000616886
0.00057315
0.000527541
0.000475331
0.000420104
0.000370197
0.00033357
0.000308451
0.000292565
0.000282696
0.000275625
0.000275157
0.00027929
0.000293635
0.000291713
0.000334575
0.000491308
0.0006826
0.000827209
0.00146497
0.00181486
0.00193668
0.00194994
0.00189138
0.00179519
0.00168713
0.00158069
0.00147957
0.00138511
0.00129528
0.0012092
0.00112363
0.00103334
0.000929391
0.000819028
0.00071831
0.000642062
0.000589022
0.000554797
0.000533204
0.000519899
0.000515399
0.000516665
0.000526287
0.000506539
0.000516607
0.000674158
0.000931483
0.00120216
0.0018574
0.00240248
0.00260828
0.00267384
0.00263539
0.00253197
0.00240464
0.00227129
0.00213989
0.0020137
0.00189258
0.00177107
0.00164846
0.00151703
0.00136943
0.0012129
0.00106908
0.000958349
0.000879607
0.000827057
0.000792864
0.00076961
0.000756767
0.000749356
0.000741218
0.000690412
0.000647152
0.00073552
0.00103925
0.00146557
0.00213951
0.00276754
0.00312066
0.00323607
0.00323066
0.00313799
0.00300716
0.00286108
0.0027119
0.00256601
0.00241858
0.00227052
0.00211854
0.00195425
0.00177
0.00157595
0.00139837
0.00125901
0.00115846
0.0010902
0.00104461
0.0010125
0.00099076
0.000973404
0.00094772
0.000863673
0.000763039
0.000784515
0.00108097
0.00164237
0.00230391
0.00296994
0.00342434
0.00366261
0.00369519
0.00362769
0.00350381
0.00335612
0.00319847
0.00303914
0.00287605
0.00270897
0.00253401
0.00234376
0.00212936
0.00190589
0.0017027
0.00154
0.00142112
0.00133933
0.00128408
0.00124458
0.00121508
0.00118896
0.00114872
0.00103454
0.000883232
0.000833097
0.00107408
0.00174282
0.00239203
0.00309538
0.00360716
0.00392012
0.00404929
0.00401574
0.00390875
0.00376789
0.00360866
0.00344315
0.00327035
0.00309105
0.00289936
0.00268956
0.00245126
0.00220553
0.00198332
0.00180197
0.00166768
0.00157404
0.00151054
0.00146501
0.00142934
0.00139665
0.00134479
0.00120464
0.00101083
0.000894888
0.00105283
0.00178606
0.00238983
0.00314635
0.00371994
0.00408826
0.00427623
0.00431439
0.00423523
0.00410703
0.00395229
0.0037859
0.00360653
0.00342302
0.00321999
0.00299611
0.00274003
0.00247828
0.00224193
0.00204686
0.00189924
0.00179518
0.00172432
0.00167397
0.00163375
0.00159717
0.00153575
0.00137351
0.00114467
0.000970672
0.00105829
0.00176377
0.00228718
0.00312292
0.00376744
0.00419412
0.00443231
0.00452196
0.00449132
0.00438298
0.00423847
0.00407459
0.00389679
0.00370969
0.0035008
0.00326775
0.00299965
0.00272736
0.00248093
0.00227598
0.00211706
0.00200379
0.00192618
0.00187206
0.00182876
0.00179056
0.00172122
0.00154027
0.00128243
0.00105647
0.0010771
0.0016924
0.00211707
0.00301852
0.00375363
0.00424699
0.00453797
0.00466727
0.00468448
0.00460499
0.00447455
0.00431691
0.00414349
0.00395445
0.00374671
0.00350811
0.00323367
0.00295556
0.00270243
0.00249043
0.00232235
0.00220086
0.00211708
0.00206007
0.00201483
0.00197699
0.00190097
0.00170419
0.00142217
0.00115383
0.00110522
0.00160383
0.00190888
0.00284569
0.0036816
0.00424957
0.0045986
0.00477061
0.0048187
0.00477765
0.00466637
0.00451951
0.00435194
0.00416795
0.00396011
0.00372127
0.00344529
0.00316528
0.00290821
0.00269089
0.00251639
0.00238731
0.00229807
0.00223872
0.00219252
0.00215673
0.00207505
0.00186484
0.00156241
0.0012593
0.00114072
0.00152188
0.00168851
0.00263136
0.0035393
0.00420492
0.00461677
0.00483694
0.00491877
0.00490435
0.00482043
0.00468763
0.00452794
0.00435071
0.00414691
0.00390923
0.00363727
0.0033584
0.00309964
0.00287857
0.00269954
0.00256394
0.00246996
0.00240876
0.0023625
0.00233018
0.00224371
0.00202206
0.00170216
0.00137137
0.00118371
0.00145793
0.00148112
0.00239869
0.00335133
0.0041112
0.00459768
0.00487075
0.00498895
0.00500325
0.00494229
0.00482575
0.00467618
0.00450653
0.00430976
0.00407791
0.00381096
0.00353627
0.00327757
0.00305407
0.00287203
0.00273151
0.00263351
0.00257095
0.0025256
0.00249776
0.00240737
0.00217599
0.00184059
0.00148727
0.00124704
0.00142249
0.00130943
0.00216516
0.00313671
0.00396997
0.0045438
0.0048749
0.00503266
0.0050742
0.00503643
0.00494051
0.00480062
0.0046398
0.0044518
0.00422893
0.00397048
0.00370251
0.00344451
0.00321978
0.00303496
0.00289104
0.00278949
0.00272599
0.00268269
0.0026599
0.00256651
0.00232704
0.00197661
0.00160129
0.00131723
0.00142144
0.00118303
0.00194185
0.00291042
0.00379713
0.00445071
0.004852
0.0050522
0.00512188
0.00510701
0.0050317
0.00490552
0.00475454
0.00457643
0.00436474
0.0041165
0.00385567
0.0036016
0.00337697
0.00319007
0.00304307
0.00293851
0.00287448
0.00283468
0.00281686
0.00272154
0.00247586
0.00211112
0.00171619
0.00139525
0.00143265
0.0011099
0.00173686
0.00268424
0.00360616
0.00432778
0.0048046
0.00505061
0.00515029
0.00515775
0.00510245
0.004996
0.00485354
0.00468655
0.00448739
0.00425036
0.00399756
0.00374937
0.00352612
0.00333762
0.00318781
0.00308078
0.00301665
0.00298207
0.0029684
0.00287253
0.00262293
0.00224625
0.00183357
0.00148516
0.00145625
0.00109152
0.00156095
0.00246729
0.0034083
0.00418534
0.00472929
0.00503163
0.00516231
0.00519229
0.00515602
0.00506855
0.00494103
0.00478454
0.00459821
0.00437293
0.00412856
0.00388776
0.00366611
0.00347582
0.00332456
0.00321607
0.00315204
0.00312323
0.0031133
0.00301886
0.00276812
0.00238277
0.00195433
0.00158437
0.00149222
0.00113329
0.00143659
0.00226726
0.00321246
0.00403258
0.00463564
0.00499841
0.00516002
0.00521387
0.00519646
0.00512724
0.00501745
0.00487173
0.00469763
0.00448423
0.00425016
0.00401367
0.00379465
0.00360481
0.00345226
0.00334334
0.00327943
0.00325605
0.00324929
0.00315869
0.00291027
0.00251985
0.0020781
0.00168712
0.00153451
0.00122828
0.00137413
0.00209298
0.00302619
0.00387767
0.00453092
0.00494959
0.00514755
0.00522317
0.00522617
0.00517358
0.00508015
0.00494694
0.00478444
0.00458221
0.00435745
0.00412732
0.00391137
0.00372236
0.00356859
0.00345974
0.00339633
0.00337665
0.00337203
0.00328824
0.00304628
0.00265508
0.00220329
0.00179298
0.00159468
0.00136133
0.00136601
0.00195371
0.00285636
0.0037276
0.00442118
0.00488611
0.00512566
0.005222
0.00524528
0.00520538
0.00512853
0.0050055
0.00485435
0.00466273
0.00444693
0.00422322
0.0040108
0.0038231
0.00366889
0.0035593
0.00349736
0.00347803
0.00347381
0.00340082
0.00317018
0.00278386
0.00232711
0.00190115
0.0016698
0.00152003
0.0014277
0.0018612
0.00270924
0.00358832
0.00431145
0.00481424
0.00509232
0.0052065
0.00524871
0.00522726
0.00515676
0.00503791
0.00489795
0.00471517
0.00450736
0.00429018
0.00408184
0.00389648
0.00374169
0.00363176
0.00356997
0.00354863
0.00354281
0.00348471
0.00327181
0.00289831
0.00244623
0.00200832
0.00175226
0.00169691
0.00153583
0.00181566
0.00259019
0.00346442
0.00420487
0.00473612
0.00504866
0.00517203
0.00521446
0.00520813
0.00514586
0.00503042
0.00489357
0.00471968
0.00451842
0.0043081
0.00410491
0.00391993
0.00376799
0.00365838
0.00359423
0.00357061
0.00356391
0.00352233
0.00333622
0.00298673
0.00254911
0.00210762
0.00183666
0.00187884
0.00166151
0.0018056
0.00250213
0.00335776
0.00410054
0.0046243
0.00491659
0.00507585
0.00513401
0.00512878
0.0050658
0.00495215
0.00480954
0.00464335
0.00444864
0.00424531
0.0040446
0.00386567
0.0037177
0.00360929
0.00354499
0.00352199
0.00351897
0.00349388
0.00334566
0.00303501
0.00262538
0.00219152
0.00191836
0.00204641
0.00178635
0.00182019
0.00244435
0.0032656
0.00394118
0.00440814
0.0047268
0.00490169
0.00495857
0.00494023
0.0048705
0.00475709
0.00461004
0.00444393
0.00426163
0.00406383
0.00387364
0.00370481
0.00356609
0.00346499
0.00340629
0.00338904
0.00339561
0.00338755
0.00328663
0.00303075
0.0026652
0.00225361
0.00199502
0.00217979
0.00189332
0.00187156
0.00238806
0.00309987
0.00368734
0.00414094
0.00443013
0.00457965
0.00461862
0.00459312
0.0045213
0.00441258
0.00427525
0.00411332
0.00395009
0.00377593
0.00360952
0.00346185
0.00334133
0.00325431
0.00320513
0.00319408
0.00320862
0.0032173
0.00316369
0.00297227
0.00266317
0.00229714
0.00206404
0.00226872
0.00197903
0.00190815
0.00234725
0.00290193
0.00339514
0.00375497
0.00398334
0.00408875
0.00411559
0.0040949
0.00404121
0.00396008
0.00385534
0.00372779
0.00359941
0.0034712
0.00334593
0.00323099
0.00313545
0.00306484
0.00302349
0.003012
0.00302391
0.0030394
0.00301688
0.00288323
0.00262857
0.00231294
0.00211978
0.00233204
0.00205015
0.00193309
0.00222537
0.00264454
0.00301169
0.00328039
0.00346522
0.00356207
0.00360736
0.00361791
0.00360292
0.00356654
0.00351156
0.00344083
0.00336425
0.00328767
0.00321214
0.00313492
0.00306626
0.00301086
0.002973
0.00295304
0.00294824
0.00294812
0.00292553
0.0028217
0.00260226
0.00232382
0.00213908
0.00244388
0.00219524
0.00203002
0.00216339
0.00247055
0.0027487
0.00296801
0.00313812
0.00324562
0.00331485
0.00335637
0.00337539
0.00337634
0.00336211
0.00333587
0.00330136
0.00326075
0.00321492
0.00316383
0.00311525
0.00307276
0.00304033
0.00301792
0.00300274
0.00298823
0.00295621
0.00286087
0.00267058
0.00241533
0.00219017
0.0026776
0.00251556
0.00240264
0.00245596
0.00264987
0.00283822
0.002992
0.00311641
0.0032019
0.00326037
0.00329977
0.00332214
0.00332806
0.0033202
0.00329847
0.00327048
0.00323564
0.00320259
0.00316902
0.00313806
0.00311231
0.0030942
0.0030829
0.00307405
0.00306139
0.00303281
0.00296722
0.00284554
0.00266584
0.00248401
0.00298802
0.00291565
0.00287345
0.00289702
0.0029692
0.00304258
0.00310468
0.00315761
0.0031957
0.0032197
0.00323527
0.0032414
0.00324395
0.00323722
0.0032151
0.00318882
0.00316166
0.00313825
0.00311976
0.00310885
0.00310547
0.00310889
0.00311693
0.00312574
0.00313278
0.00313226
0.00311626
0.00307943
0.00300423
0.00292821
0.000243363
0.000263369
0.000265835
0.000263712
0.000257943
0.000249608
0.000239701
0.000229053
0.000218223
0.00020768
0.000197602
0.000188258
0.000179591
0.000171749
0.000164089
0.00015554
0.000145831
0.000135772
0.000126238
0.000117153
0.000107231
9.55965e-05
0.000391013
0.000374914
8.00085e-05
9.02072e-05
0.000106561
0.000125337
0.000146175
0.000158666
0.00108615
0.00136977
0.00146185
0.00144816
0.00137996
0.00128799
0.00119213
0.0011009
0.00101606
0.000937347
0.000861975
0.000789686
0.000714998
0.000634809
0.000546112
0.00046794
0.000416017
0.000396157
0.000397364
0.000407314
0.000408494
0.000389724
0.000399096
0.000459431
0.000361542
0.000289623
0.00040283
0.000617502
0.000875194
0.00102706
0.00179964
0.00234949
0.00261036
0.00267616
0.00261529
0.00248652
0.00233294
0.00217523
0.00202057
0.00187098
0.00172355
0.00157814
0.00142521
0.00125903
0.00107804
0.000917508
0.0008089
0.000760746
0.000752314
0.000761817
0.000761077
0.000728588
0.000712998
0.000764873
0.000647035
0.000512589
0.000617971
0.000910308
0.00128934
0.00159531
0.00230621
0.00311734
0.00350123
0.00364961
0.00362599
0.00349499
0.00331855
0.00312341
0.00292265
0.00272103
0.00251766
0.00231169
0.0020907
0.00184769
0.00158753
0.00135969
0.00120354
0.00112761
0.00110519
0.00110813
0.00110241
0.0010635
0.00103523
0.00105609
0.000911943
0.000722997
0.000758251
0.00104336
0.00153975
0.00205904
0.00271503
0.00363657
0.00419501
0.0044098
0.00443299
0.00431782
0.00413798
0.00392418
0.00369466
0.00345717
0.00321406
0.0029577
0.00267637
0.00237306
0.00204855
0.00176922
0.00157684
0.00147728
0.00144202
0.00143892
0.00143069
0.00139013
0.00135318
0.00134178
0.00117354
0.000933528
0.000873527
0.00112145
0.00170315
0.00241412
0.00299339
0.00395391
0.00463981
0.00499857
0.00507193
0.00498883
0.00481626
0.00459681
0.0043502
0.00408909
0.00381376
0.0035173
0.00319291
0.00283956
0.00246407
0.00214671
0.00192783
0.00180853
0.00176134
0.00175286
0.0017444
0.00170641
0.00166409
0.0016259
0.00143543
0.00115261
0.00100165
0.0011699
0.0018173
0.00269333
0.00319588
0.00418503
0.00492352
0.00538191
0.00557206
0.00553275
0.00537686
0.00516162
0.00490612
0.00462925
0.0043284
0.00400602
0.00364757
0.0032548
0.00284112
0.00249715
0.00225945
0.00212349
0.00206516
0.00205132
0.00204391
0.00201118
0.00196723
0.00190853
0.00169774
0.00137956
0.00114783
0.00123112
0.00185851
0.00290259
0.00333671
0.00434996
0.00514159
0.00565453
0.00591995
0.00596497
0.00584022
0.00563455
0.00537758
0.0050904
0.00477377
0.00443198
0.00404998
0.00362594
0.00318668
0.00282573
0.00257498
0.00242502
0.00235576
0.00233629
0.00233029
0.00230441
0.00226324
0.00218837
0.00195915
0.00161205
0.00131191
0.00131678
0.00187175
0.00305627
0.00338867
0.00444249
0.005292
0.00586624
0.00618017
0.00628991
0.00621807
0.0060284
0.0057772
0.00548441
0.0051602
0.00480216
0.00440743
0.00396091
0.00350724
0.00313716
0.00287721
0.00271607
0.00263547
0.00260973
0.00260509
0.00258709
0.00255398
0.00246417
0.0022181
0.00184703
0.00149332
0.00140789
0.00188292
0.0031059
0.00336325
0.00445306
0.00537727
0.00602032
0.00638672
0.00653417
0.00651895
0.0063554
0.00611474
0.00582146
0.00549383
0.00512939
0.00472411
0.00426673
0.00380854
0.00343555
0.00316916
0.00299856
0.00290613
0.00287333
0.00286942
0.00286022
0.00283665
0.00273336
0.00247222
0.00208138
0.00168491
0.00152045
0.00189792
0.00309703
0.00326242
0.00439244
0.0053939
0.00611592
0.00654335
0.00673237
0.00674463
0.00662317
0.00639796
0.00611079
0.00578292
0.00541953
0.00500476
0.00454984
0.00409548
0.00372424
0.00345329
0.00327398
0.00316925
0.00312845
0.00312431
0.00312459
0.0031087
0.00299309
0.00271904
0.00231219
0.00188108
0.00164619
0.00192269
0.00305692
0.00309454
0.0042652
0.00534638
0.00615288
0.00665294
0.00688861
0.00693177
0.00683452
0.00663549
0.00635934
0.00603527
0.00567509
0.00526282
0.00481486
0.0043719
0.00400572
0.00373131
0.00354348
0.00342599
0.00337621
0.00337063
0.00338081
0.00336799
0.00324068
0.00295604
0.00253662
0.00207737
0.00177646
0.00196289
0.00300255
0.00287725
0.00407913
0.00524432
0.00613736
0.00671687
0.00700647
0.0070843
0.00701308
0.00683591
0.00657175
0.00625706
0.0059036
0.00550213
0.00506703
0.00464072
0.00428162
0.00400422
0.00380734
0.00367735
0.00361714
0.00360896
0.00362645
0.00361213
0.00347362
0.00318088
0.00275241
0.0022699
0.00190848
0.00202313
0.00294693
0.00263462
0.00384812
0.00509407
0.00607983
0.00673408
0.00708832
0.0072054
0.00715879
0.00700359
0.00675603
0.00645483
0.00611161
0.00572681
0.00531017
0.00490362
0.00455255
0.00427222
0.00406567
0.00392321
0.00385117
0.00383934
0.00385921
0.00383852
0.00368946
0.00339129
0.00295752
0.00245747
0.00204884
0.00209717
0.00290322
0.00239354
0.00359026
0.00490531
0.00598478
0.00671734
0.00713567
0.00729738
0.00727727
0.00714279
0.0069218
0.00663287
0.00630487
0.0059405
0.00554675
0.00516077
0.00481787
0.00453452
0.00431781
0.00416226
0.00407752
0.00406067
0.00407618
0.00404392
0.00388545
0.00358475
0.00314977
0.00263842
0.00219612
0.0021678
0.00288144
0.00218297
0.00332606
0.00469035
0.00585858
0.00667287
0.00715223
0.00736126
0.00737206
0.00726002
0.00706246
0.0067943
0.0064868
0.00614474
0.00577793
0.00541068
0.00507542
0.00478884
0.00456153
0.00439171
0.00429456
0.00426917
0.00427265
0.00422384
0.00405798
0.00375819
0.00332643
0.00281019
0.00234797
0.00225023
0.00288049
0.00202408
0.00307681
0.00446307
0.00570912
0.00660414
0.0071446
0.00740138
0.00744566
0.00735896
0.00718508
0.00694183
0.00665646
0.00633752
0.00599794
0.00564908
0.00532063
0.00503049
0.004792
0.00460658
0.00449687
0.00445709
0.00444125
0.00437313
0.00420195
0.00390746
0.00348397
0.00296969
0.00250237
0.00235719
0.00289595
0.00193582
0.00286014
0.00423774
0.00554529
0.00651557
0.0071172
0.0074172
0.00749805
0.0074414
0.00728701
0.0070733
0.00681282
0.00651314
0.00620046
0.00586837
0.00554533
0.00525095
0.00500032
0.00479936
0.00467317
0.0046121
0.00457139
0.00448368
0.0043104
0.0040269
0.00361778
0.00311453
0.00265389
0.00247526
0.00293858
0.00190321
0.00269189
0.00402869
0.00537622
0.00641184
0.00707136
0.0074146
0.00752422
0.00749358
0.0073707
0.00719846
0.00694548
0.00666109
0.00637369
0.00605554
0.00573576
0.00543601
0.00517191
0.00495413
0.00480675
0.00471794
0.00464945
0.00454498
0.00437471
0.00410936
0.0037227
0.00323917
0.00279474
0.00258983
0.00302412
0.00199884
0.00259754
0.00384803
0.00521028
0.00629701
0.00700738
0.00739079
0.00752718
0.00752071
0.00744251
0.00727509
0.00704117
0.00676908
0.00649489
0.00619022
0.00587075
0.00556445
0.0052838
0.0050473
0.00487451
0.00475602
0.00466034
0.00454602
0.00438582
0.00414707
0.00379245
0.00333739
0.0029169
0.00270038
0.00313835
0.00212963
0.00254288
0.00370086
0.00505365
0.00617348
0.00692337
0.00734177
0.00749719
0.00749576
0.00743649
0.00728506
0.00707243
0.0068111
0.00653696
0.00624348
0.00592166
0.00560772
0.00530614
0.00505156
0.00485479
0.00471034
0.00459452
0.00447906
0.0043371
0.00413373
0.0038211
0.00340376
0.0030146
0.00280252
0.00325121
0.00230057
0.0025208
0.00359038
0.00490898
0.00604026
0.00680839
0.00717737
0.00732984
0.00738205
0.00733698
0.00719575
0.00699835
0.00675085
0.00647114
0.00617824
0.00585814
0.0055314
0.00521889
0.00495172
0.00473873
0.00457745
0.00445336
0.00434552
0.00422911
0.00406814
0.00380623
0.00343394
0.00308186
0.00289178
0.00333762
0.00246109
0.00257599
0.00351646
0.00476983
0.00584791
0.00650196
0.00685585
0.00707524
0.00714493
0.00709732
0.00696321
0.00677937
0.0065484
0.00627238
0.00597075
0.00565949
0.0053333
0.00502637
0.00475923
0.0045436
0.00437946
0.00425772
0.00416354
0.00407572
0.00395916
0.00375258
0.00342786
0.00311506
0.00296122
0.0033804
0.0025818
0.00261394
0.00338466
0.00453504
0.00543387
0.00603738
0.00645386
0.0066656
0.00673192
0.00668102
0.00656163
0.00639849
0.00619189
0.00593885
0.00564187
0.00534802
0.00505312
0.00477078
0.00452127
0.00431873
0.00416381
0.0040512
0.00397146
0.00390804
0.00382957
0.0036757
0.00339461
0.0031162
0.00299714
0.00337599
0.0026651
0.00263916
0.00327511
0.00414519
0.00493237
0.00551765
0.00588593
0.006086
0.00614108
0.00610547
0.00601794
0.00589278
0.0057278
0.00551804
0.00526042
0.00500294
0.00475964
0.00452144
0.0043033
0.0041249
0.00398682
0.00388609
0.00381731
0.00376894
0.00371523
0.00360192
0.00335628
0.00309929
0.00299338
0.00332379
0.00273128
0.00266501
0.00308631
0.00377996
0.0043945
0.00487244
0.00520789
0.00539617
0.00547026
0.0054762
0.00544082
0.00537056
0.00526236
0.00511238
0.00491823
0.0047133
0.00452475
0.00433026
0.00414632
0.00399479
0.0038764
0.00378962
0.00373085
0.00369161
0.00365131
0.0035634
0.00334919
0.00309694
0.00295706
0.00319315
0.00283444
0.00271006
0.00286674
0.00337082
0.00386865
0.00427331
0.00457755
0.00478388
0.00489661
0.0049534
0.00497252
0.00495645
0.00490296
0.00480911
0.00467549
0.00451757
0.00436001
0.0041974
0.00405378
0.0039339
0.00383972
0.00377137
0.00372592
0.00369576
0.00366374
0.00359282
0.00341213
0.00316459
0.00296153
0.00303453
0.00306763
0.00291271
0.00291849
0.00322683
0.00360839
0.0039447
0.00421547
0.00442145
0.00455362
0.00463701
0.00468558
0.00469969
0.0046776
0.00461331
0.00450633
0.00437173
0.0042304
0.00409334
0.00397229
0.0038741
0.00380125
0.00375429
0.00373116
0.00372413
0.00371676
0.00367696
0.00354985
0.00334575