/*--------------------------------*- C++ -*----------------------------------*\
  =========                 |
  \\      /  F ield         | OpenFOAM: The Open Source CFD Toolbox
   \\    /   O peration     | Website:  https://openfoam.org
    \\  /    A nd           | Version:  12
     \\/     M anipulation  |
\*---------------------------------------------------------------------------*/
FoamFile
{
    format      ascii;
    class       volScalarField;
    location    "750/air";
    object      epsilon;
}
// * * * * * * * * * * * * * * * * * * * * * * * * * * * * * * * * * * * * * //

dimensions      [0 2 -3 0 0 0 0];

internalField   nonuniform List<scalar> 
243000
(
4.61793
5.95621
6.82611
7.39241
7.67865
7.71243
7.54771
7.24947
6.8726
6.47045
6.07364
5.72719
5.46805
5.33528
5.30609
5.29689
5.22337
5.05404
4.79076
4.45084
4.05757
3.63723
3.23615
2.84186
2.36255
1.76175
1.02609
1.06171
1.51923
1.49842
2.86384
3.77359
4.36244
4.70165
4.84791
4.84602
4.73209
4.54418
4.31184
4.06071
3.80789
3.57564
3.37566
3.20902
3.04504
2.84993
2.62048
2.38191
2.149
1.92893
1.72331
1.533
1.36406
1.2161
1.05633
0.855291
0.613288
0.585213
0.939869
1.1196
3.14393
4.05252
4.62813
4.87589
4.90857
4.79518
4.58633
4.32439
4.0391
3.75328
3.48183
3.24154
3.03781
2.86513
2.69254
2.49149
2.26492
2.04096
1.83446
1.65046
1.48758
1.3431
1.21715
1.10579
0.989063
0.839885
0.651467
0.566204
0.897121
1.265
3.53394
4.67211
5.43121
5.78991
5.8867
5.79888
5.59141
5.31296
4.99876
4.67681
4.36565
4.08624
3.84418
3.63236
3.41198
3.14871
2.8494
2.5529
2.28046
2.03983
1.8295
1.64508
1.48342
1.33722
1.1916
1.02214
0.814917
0.674706
0.919807
1.4589
3.71268
4.99081
5.94841
6.42194
6.60028
6.56159
6.38193
6.11418
5.79731
5.4638
5.13502
4.83544
4.57076
4.3335
4.07723
3.76353
3.4032
3.04353
2.71195
2.4192
2.16422
1.94152
1.74534
1.56507
1.38892
1.19759
0.973224
0.786114
0.906481
1.58303
3.71766
5.07516
6.20152
6.82376
7.09305
7.12044
6.98695
6.74979
6.45006
6.12394
5.79496
5.49074
5.2167
4.96534
4.68319
4.3295
3.91956
3.5064
3.12321
2.78385
2.48818
2.22996
2.00155
1.78955
1.58334
1.36953
1.12853
0.900936
0.897027
1.64351
3.61321
5.00413
6.23184
7.02942
7.40043
7.50735
7.43271
7.24048
6.97266
6.66838
6.35293
6.05667
5.78421
5.52834
5.22885
4.84441
4.39565
3.93826
3.51115
3.13102
2.79898
2.50858
2.2507
2.00974
1.77515
1.53932
1.2819
1.02217
0.916859
1.64069
3.44009
4.83317
6.12503
7.04971
7.55099
7.74783
7.74215
7.60505
7.38004
7.10845
6.8172
6.53887
6.27723
6.02461
5.71522
5.30858
4.83042
4.33786
3.8742
3.45918
3.0952
2.77613
2.4917
2.22466
1.96403
1.70737
1.43388
1.14941
0.974691
1.56483
3.26453
4.59337
5.92335
6.94409
7.55789
7.8628
7.93513
7.86029
7.68594
7.45513
7.19633
6.94372
6.70023
6.45739
6.1441
5.72325
5.22404
4.70496
4.21183
3.76757
3.37608
3.03183
2.72386
2.43359
2.14961
1.87377
1.58477
1.28094
1.04911
1.4642
3.06907
4.33999
5.65184
6.74302
7.46767
7.8626
8.02822
8.02095
7.90286
7.71873
7.49855
7.27767
7.0581
6.82977
6.51807
6.09022
5.57735
5.03992
4.52397
4.05594
3.64126
3.27541
2.94689
2.63607
2.33158
2.03845
1.73496
1.41495
1.13767
1.36972
2.84833
4.08983
5.33914
6.47389
7.29605
7.78269
8.02936
8.0999
8.04208
7.90885
7.7317
7.54709
7.35532
7.14517
6.83988
6.41142
5.89181
5.34286
4.81104
4.32437
3.89081
3.50678
3.16058
2.83179
2.50963
2.20121
1.88456
1.54943
1.23772
1.29755
2.599
3.83308
5.04756
6.15985
7.05703
7.63841
7.96515
8.10805
8.11389
8.03423
7.90305
7.75762
7.5963
7.40697
7.11227
6.68885
6.16884
5.61464
5.07337
4.57323
4.12483
3.72598
3.36487
3.0206
2.68354
2.36183
2.03278
1.68383
1.34283
1.2557
2.30225
3.56053
4.76277
5.84027
6.76694
7.44066
7.84452
8.05846
8.12793
8.10298
8.01921
7.91451
7.78518
7.61866
7.33802
6.92456
6.41
5.85635
5.31112
4.80298
4.34366
3.93324
3.55998
3.20264
2.85331
2.52024
2.17961
1.8188
1.45568
1.25324
1.96381
3.26238
4.47631
5.53879
6.44675
7.19799
7.67769
7.96034
8.09245
8.12275
8.08622
8.02264
7.92604
7.78351
7.51991
7.12079
6.61691
6.0693
5.52509
5.01365
4.54767
4.12892
3.74632
3.37828
3.01909
2.67645
2.32541
1.95375
1.57119
1.29915
1.6376
2.92206
4.18166
5.2477
6.14174
6.92024
7.47354
7.82186
8.01454
8.09942
8.10972
8.08665
8.02282
7.9048
7.66074
7.27976
6.79138
6.25478
5.71631
5.20581
4.73734
4.31373
3.92461
3.54816
3.18126
2.83055
2.47069
2.08873
1.68918
1.36308
1.42953
2.51153
3.87068
4.96123
5.85344
6.62021
7.24045
7.65044
7.90042
8.03809
8.09486
8.11083
8.07909
7.98589
7.7634
7.40393
6.9353
6.41437
5.88608
5.3805
4.91316
4.48829
4.09558
3.71314
3.34035
2.98338
2.61573
2.224
1.80916
1.43836
1.40804
2.09181
3.52069
4.67469
5.57722
6.33095
6.987
7.45282
7.75585
7.94353
8.04527
8.09915
8.09846
8.03013
7.83085
7.49588
7.05081
6.54981
6.0358
5.53896
5.07627
4.65326
4.26011
3.87432
3.49733
3.13544
2.76117
2.3602
1.93143
1.52742
1.53923
1.76758
3.12332
4.38155
5.31022
6.05838
6.71942
7.23482
7.58637
7.82041
7.9647
8.05486
8.08435
8.04082
7.86615
7.55841
7.14059
6.66337
6.16745
5.68286
5.22814
4.81016
4.41964
4.03323
3.65334
3.2878
2.90792
2.49821
2.05613
1.62335
1.72767
1.61335
2.71667
4.06457
5.05051
5.80138
6.44796
7.00211
7.39668
7.67314
7.85679
7.98116
8.03953
8.02105
7.87238
7.59436
7.20726
6.75748
6.28327
5.81437
5.37083
4.96089
4.57587
4.19171
3.80988
3.44189
3.05723
2.63908
2.18377
1.72427
1.95248
1.64947
2.34964
3.72741
4.79573
5.5576
6.19423
6.75931
7.19046
7.50506
7.72476
7.881
7.96666
7.97384
7.85261
7.60683
7.25355
6.83481
6.38595
5.93605
5.50666
5.10748
4.7306
4.35167
3.96866
3.5993
3.21059
2.78411
2.31523
1.83112
2.20508
1.81883
2.08978
3.38884
4.54204
5.32619
5.95516
6.50954
6.9701
7.31792
7.57084
7.75664
7.8683
7.90138
7.80946
7.59852
7.28243
6.89794
6.47808
6.0506
5.63812
5.25202
4.88558
4.51472
4.13139
3.76145
3.3693
2.93456
2.4513
1.94392
2.47582
2.02984
1.96418
3.06999
4.29337
5.10704
5.72869
6.26366
6.73628
7.11181
7.39472
7.60801
7.74503
7.80433
7.74391
7.57065
7.29428
6.94836
6.56134
6.15989
5.76711
5.39608
5.04198
4.68161
4.29925
3.92966
3.53471
3.09155
2.59272
2.06215
2.75885
2.26333
1.96272
2.79764
4.05699
4.90058
5.51318
6.03403
6.49099
6.88585
7.19355
7.43153
7.59336
7.6793
7.65291
7.52058
7.28718
6.98502
6.63468
6.26289
5.89256
5.53871
5.19838
4.85012
4.47233
4.10502
3.70877
3.25639
2.74
2.18512
3.05234
2.51986
2.06569
2.59617
3.84446
4.70686
5.30707
5.82146
6.25182
6.63929
6.96127
7.21846
7.40323
7.5161
7.52566
7.43758
7.25194
6.99528
6.68875
6.35018
6.00584
5.67194
5.34712
5.01287
4.64948
4.28918
3.89337
3.43148
2.89442
2.31224
3.36548
2.78491
2.21689
2.47355
3.66945
4.52995
5.11916
5.62812
6.04061
6.40082
6.70281
6.96336
7.16516
7.30279
7.34705
7.30447
7.17019
6.96575
6.70351
6.40521
6.09181
5.78171
5.47512
5.16218
4.8356
4.49139
4.09863
3.62732
3.06468
2.44805
3.70242
3.05228
2.38802
2.42765
3.55452
4.38677
4.96505
5.46883
5.87235
6.21726
6.51107
6.76532
6.97151
7.12213
7.19979
7.20281
7.12749
6.9844
6.78216
6.53555
6.26184
5.97793
5.69049
5.39655
5.08823
4.75203
4.35605
3.86689
3.26947
2.60376
4.09114
3.36179
2.59924
2.4785
3.52993
4.31323
4.88659
5.39678
5.81314
6.16515
6.47121
6.74014
6.96839
7.15164
7.27474
7.32971
7.31448
7.23171
7.08505
6.88479
6.64583
6.38354
6.10679
5.81628
5.50579
5.15942
4.74053
4.21334
3.55874
2.81953
4.68068
3.85804
3.00093
2.82165
3.78525
4.54949
5.14662
5.69409
6.16571
6.56305
6.91892
7.2387
7.52579
7.77089
7.95879
8.07358
8.11398
8.07893
7.96716
7.78808
7.55711
7.2908
6.99725
6.67752
6.32775
5.93281
5.45719
4.85312
4.09562
3.22977
6.3411
5.51109
4.65757
4.55651
5.47492
6.32249
7.01787
7.66152
8.25389
8.75497
9.21123
9.61826
10.0124
10.3558
10.6121
10.7685
10.8281
10.789
10.6501
10.425
10.1359
9.80357
9.4351
9.01464
8.54997
8.03664
7.4451
6.72837
5.82998
4.77333
15.3014
14.8629
14.5599
14.7424
15.5002
16.2884
16.7507
17.1478
17.5035
17.8445
18.1582
18.3994
18.8029
19.1513
19.3374
19.4281
19.4322
19.3564
19.189
18.9737
18.7361
18.5091
18.2772
17.8685
17.4045
16.9453
16.4493
15.8982
15.1438
14.1453
7.79325
11.0359
13.1312
14.6666
15.5807
15.9215
15.7895
15.3123
14.6011
13.7654
12.8696
11.9965
11.1772
10.4615
9.77135
8.94593
7.91905
6.76647
5.58806
4.45856
3.42628
2.52853
1.84827
1.44389
1.17634
0.98636
1.10435
1.53457
2.1197
2.18288
5.33389
6.56645
7.63047
8.45261
8.96661
9.18928
9.15087
8.9014
8.50095
8.00835
7.46728
6.91724
6.37688
5.8717
5.36313
4.7846
4.15398
3.54906
2.98716
2.48011
2.02354
1.61658
1.2558
0.986021
0.809575
0.729999
0.787755
0.805374
1.10571
1.55009
4.60533
5.66372
6.54058
7.22733
7.68082
7.91005
7.93487
7.78167
7.49201
7.1104
6.67056
6.21106
5.74966
5.306
4.84534
4.31227
3.73853
3.19714
2.71568
2.2984
1.93515
1.60801
1.30817
1.06643
0.888119
0.769524
0.728473
0.725804
1.0584
1.62113
4.15527
5.18561
6.01904
6.68029
7.13944
7.40135
7.48232
7.40267
7.19078
6.8828
6.50346
6.10582
5.69874
5.30264
4.86618
4.34582
3.77933
3.24218
2.76946
2.3689
2.02914
1.72927
1.44859
1.21289
1.02975
0.882134
0.769532
0.730194
1.06143
1.69551
3.79092
4.78015
5.62455
6.29332
6.78047
7.08528
7.22022
7.20585
7.05978
6.80941
6.49275
6.14388
5.78125
5.42115
5.00514
4.4906
3.92171
3.37774
2.89901
2.49688
2.16213
1.87153
1.60003
1.36814
1.18139
1.01541
0.854325
0.770445
1.03394
1.73683
3.45075
4.39623
5.25809
5.95065
6.47287
6.82379
7.01134
7.05568
6.96998
6.77764
6.51048
6.20743
5.88787
5.56115
5.16178
4.65104
4.07913
3.5273
3.04055
2.63327
2.2978
2.01076
1.74631
1.51959
1.33188
1.15567
0.964982
0.833765
0.992467
1.74832
3.12149
4.03148
4.90207
5.61948
6.17971
6.57586
6.814
6.91132
6.88219
6.74277
6.52413
6.26491
5.98656
5.69073
5.30594
4.79931
4.22635
3.6692
3.17617
2.76428
2.4266
2.14143
1.88417
1.66439
1.47846
1.29759
1.09067
0.919805
0.983904
1.72746
2.81168
3.69874
4.56407
5.29806
5.89054
6.32947
6.61476
6.76054
6.78304
6.69352
6.52555
6.30436
6.06584
5.79841
5.42713
4.92608
4.35504
3.79638
3.30008
2.88551
2.54619
2.26291
2.01362
1.80212
1.62044
1.43898
1.22462
1.0205
1.021
1.6608
2.57096
3.41502
4.25791
4.99456
5.60693
6.08218
6.4105
6.60087
6.6688
6.62742
6.5016
6.32382
6.12192
5.88026
5.52207
5.02877
4.46304
3.90672
3.41068
2.99577
2.65657
2.37607
2.13564
1.93359
1.7582
1.57918
1.36304
1.13529
1.07483
1.5618
2.36416
3.20324
3.99461
4.71312
5.33337
5.83589
6.20182
6.43248
6.54073
6.54355
6.45889
6.32573
6.15404
5.93562
5.59063
5.10764
4.55049
4.00022
3.50788
3.09529
2.75835
2.48222
2.2515
2.06001
1.89248
1.7182
1.50379
1.26066
1.13811
1.4606
2.17149
3.04443
3.78475
4.46368
5.07495
5.59405
5.99049
6.25706
6.40196
6.44328
6.39895
6.30201
6.16475
5.96544
5.63422
5.16416
4.61867
4.07779
3.59246
3.18486
2.85239
2.58268
2.36239
2.18255
2.02434
1.85655
1.64587
1.39338
1.21363
1.39429
1.97919
2.91304
3.63629
4.25325
4.83896
5.36007
5.77934
6.07673
6.2547
6.3298
6.32269
6.26058
6.15208
5.97407
5.65515
5.20049
4.66955
4.14115
3.66565
3.26557
2.93977
2.67854
2.46952
2.30252
2.1551
1.99513
1.78926
1.53181
1.3055
1.36884
1.78448
2.78963
3.52302
4.0916
4.62793
5.13749
5.57109
5.89408
6.10133
6.20664
6.23227
6.20292
6.11976
5.96035
5.6578
5.21969
4.70604
4.19279
3.72931
3.33871
3.02182
2.77091
2.57422
2.42138
2.28632
2.13534
1.93476
1.67517
1.41095
1.38779
1.59987
2.6564
3.42709
3.96989
4.44591
4.93125
5.36865
5.71136
5.94413
6.0767
6.13062
6.13088
6.07165
5.9295
5.64282
5.22217
4.72921
4.23338
3.78455
3.4057
3.10005
2.8612
2.67819
2.54096
2.42
2.27918
2.08398
1.8232
1.5318
1.4331
1.4431
2.49371
3.3334
3.8716
4.30117
4.74497
5.17547
5.53104
5.78532
5.94247
6.0216
6.04744
6.01126
5.88579
5.61601
5.21556
4.74245
4.26558
3.83309
3.46868
3.17659
2.95147
2.78374
2.6637
2.55882
2.42951
2.23968
1.9771
1.66592
1.49513
1.35777
2.28083
3.22605
3.78445
4.18312
4.58036
4.99574
5.35636
5.6276
5.80674
5.90898
5.95725
5.94338
5.83461
5.5829
5.20422
4.751
4.29418
3.87944
3.53119
3.25447
3.0445
2.89417
2.79298
2.70638
2.59027
2.40587
2.13996
1.81345
1.56733
1.36628
2.02374
3.08917
3.69912
4.08243
4.44302
4.83162
5.19141
5.47484
5.67337
5.79745
5.8667
5.87444
5.78321
5.55083
5.19541
4.76177
4.32711
3.93163
3.59901
3.33816
3.14462
3.01384
2.9335
2.86771
2.7668
2.58799
2.3163
1.97277
1.66252
1.49748
1.83446
2.91434
3.60694
3.99233
4.32774
4.68482
5.04054
5.33265
5.54834
5.69387
5.78445
5.81327
5.7414
5.53002
5.19739
4.79028
4.37616
3.99762
3.68032
3.43469
3.25872
3.14964
3.0924
3.05016
2.96677
2.79335
2.51186
2.14469
1.77449
1.69277
1.75187
2.71153
3.49995
3.90818
4.22995
4.56137
4.90784
5.20833
5.44058
5.60848
5.72254
5.77361
5.72358
5.53594
5.22867
4.84753
4.45382
4.09141
3.78805
3.55613
3.39846
3.31224
3.28094
3.26506
3.20142
3.03231
2.73475
2.33429
1.9029
1.9384
1.79152
2.50991
3.37436
3.82692
4.14774
4.46698
4.80212
5.11209
5.36288
5.55884
5.69901
5.77722
5.75206
5.59191
5.31381
4.95807
4.5842
4.23632
3.94309
3.72415
3.58397
3.52073
3.51847
3.53038
3.48808
3.32035
2.9969
2.54901
2.05314
2.22866
1.97012
2.37121
3.23556
3.74783
4.08185
4.40144
4.73138
5.0579
5.33034
5.55915
5.74341
5.85818
5.86351
5.73806
5.4937
5.16475
4.8095
4.47293
4.18764
3.97583
3.8523
3.81175
3.83852
3.87737
3.85488
3.68141
3.31576
2.79751
2.22273
2.57141
2.219
2.30934
3.09731
3.67486
4.03672
4.37049
4.7098
5.0605
5.3912
5.67445
5.91032
6.07494
6.12726
6.04741
5.84671
5.54766
5.20951
4.88253
4.60049
4.39463
4.27799
4.25543
4.30514
4.36367
4.35037
4.15447
3.71794
3.09326
2.41546
2.98897
2.5319
2.32945
2.98074
3.61946
4.02299
4.41129
4.82072
5.22878
5.62407
5.9857
6.30163
6.54617
6.67668
6.66674
6.53158
6.27479
5.96029
5.64782
5.36488
5.14612
5.01921
4.99533
5.04557
5.09878
5.06252
4.80628
4.24778
3.45722
2.63591
3.52522
2.9145
2.45876
2.91488
3.60509
4.11396
4.6218
5.15363
5.67812
6.19403
6.68676
7.14045
7.5269
7.797
7.92222
7.90754
7.74312
7.48622
7.18386
6.8759
6.61041
6.42598
6.3414
6.3239
6.30081
6.16107
5.76008
4.98652
3.93345
2.89614
4.29535
3.43923
2.70119
2.96546
3.76315
4.45478
5.16594
5.93604
6.699
7.4646
8.22185
8.94796
9.61358
10.1647
10.5819
10.8059
10.8346
10.7004
10.4211
10.044
9.64399
9.27568
8.96626
8.70228
8.41636
7.99091
7.26265
6.09791
4.62151
3.24359
5.54589
4.31304
3.22851
3.36375
4.37979
5.41535
6.52247
7.77428
9.02175
10.2922
11.5722
12.8355
14.0601
15.1684
16.1702
16.8918
17.2949
17.41
17.1773
16.6315
15.9009
15.0794
14.2136
13.3221
12.37
11.2613
9.84017
7.95472
5.77002
3.81086
7.97837
6.21857
4.68091
4.8367
6.36101
8.15794
10.1058
12.3157
14.5464
16.8015
19.0722
21.2984
23.4658
25.5333
27.5604
29.1538
30.2092
30.727
30.5193
29.5838
28.1396
26.3698
24.3521
22.1593
19.8269
17.3296
14.5843
11.45
8.1021
5.14748
13.6455
11.3445
9.52715
10.0501
12.7332
16.1038
19.6521
23.4419
27.2499
30.9516
34.6179
38.1639
41.5674
44.7994
47.8798
50.2942
51.8325
52.3922
51.6917
49.8222
47.1271
43.9254
40.3475
36.477
32.3655
28.0295
23.5107
18.7087
13.7416
9.25508
25.8307
24.3891
23.7011
25.4016
29.798
35.0244
40.1652
45.2526
50.2294
54.8314
59.232
63.3604
66.9071
69.8201
71.7574
72.4848
71.9065
69.714
66.556
62.7683
58.675
54.5977
50.7276
47.0517
43.5034
39.8889
35.7898
31.2222
26.1043
21.2713
36.4575
37.754
40.7452
44.7444
49.394
53.8137
57.951
61.9847
65.8154
69.0715
71.7571
73.8238
74.8915
74.7264
72.4522
68.9324
65.0392
60.6854
56.2387
52.0533
48.3745
45.2752
42.8085
40.9448
39.6987
38.9598
38.4656
37.7238
36.7203
36.0921
10.8924
16.0399
19.0899
21.4714
23.019
23.7395
23.7371
23.1705
22.1805
20.9118
19.4455
17.8992
16.294
14.7083
13.0212
11.0687
8.95577
6.98491
5.34399
4.00619
2.83895
1.83077
1.29656
0.267342
0.230671
1.02164
1.46469
2.0474
2.73446
2.96995
6.73495
8.45629
9.69962
10.7038
11.3916
11.769
11.8425
11.6478
11.2362
10.6644
9.97883
9.21893
8.41374
7.5815
6.67184
5.69733
4.76224
3.97858
3.33193
2.74562
2.15096
1.54319
0.951465
0.576841
0.475577
0.623757
0.799096
0.963459
1.41792
2.44175
5.94688
7.33515
8.32619
9.05544
9.53744
9.80347
9.86779
9.74271
9.45266
9.03058
8.50774
7.91644
7.28186
6.61734
5.87254
5.05568
4.29228
3.67104
3.15666
2.68216
2.19209
1.66999
1.12087
0.759235
0.5793
0.58445
0.673496
0.829875
1.34985
2.47081
5.50764
6.8045
7.74303
8.41249
8.85266
9.10468
9.18939
9.11767
8.9014
8.56245
8.12314
7.61548
7.06658
6.48817
5.80873
5.04128
4.31455
3.71652
3.21956
2.77165
2.32213
1.83383
1.31531
0.939167
0.713732
0.63484
0.652156
0.791117
1.33941
2.50003
5.12235
6.34489
7.28868
7.9626
8.42004
8.70028
8.82508
8.80938
8.65688
8.3825
8.00186
7.56183
7.08624
6.55774
5.91226
5.16559
4.44686
3.8413
3.3344
2.88868
2.45834
1.99565
1.50581
1.11988
0.861618
0.723197
0.676911
0.763523
1.28818
2.50085
4.71997
5.87983
6.83747
7.54227
8.04165
8.37107
8.54886
8.59181
8.50195
8.28573
7.96508
7.5847
7.15714
6.67081
6.04757
5.31266
4.59469
3.97717
3.4575
3.00859
2.59
2.14968
1.68827
1.29871
1.01645
0.834826
0.735277
0.768055
1.21197
2.44115
4.29445
5.40142
6.36866
7.1128
7.66561
8.0534
8.2913
8.39393
8.36705
8.20881
7.94867
7.61473
7.23381
6.78154
6.17519
5.45061
4.73397
4.10676
3.57637
3.12467
2.71531
2.29687
1.86342
1.47511
1.17509
0.961192
0.819563
0.806458
1.14527
2.33905
3.85721
4.92187
5.89472
6.67416
7.28105
7.72974
8.02976
8.19236
8.22607
8.12663
7.92082
7.63494
7.29663
6.8736
6.28285
5.57077
4.85866
4.22592
3.68823
3.23531
2.8348
2.43825
2.03137
1.649
1.33584
1.09781
0.925012
0.867949
1.11309
2.21593
3.41845
4.46213
5.43786
6.23974
6.89249
7.3985
7.75893
7.98025
8.0701
8.02876
7.87299
7.6407
7.33785
6.94207
6.36847
5.67265
4.96883
4.3347
3.79323
3.34083
2.94968
2.57445
2.19261
1.82032
1.49922
1.24239
1.04572
0.949668
1.12149
2.07995
3.03353
4.04167
5.01237
5.82435
6.50996
7.0642
7.48017
7.75669
7.89867
7.91218
7.80721
7.62249
7.3588
6.98743
6.43432
5.75892
5.06671
4.43478
3.8926
3.44244
3.06139
2.70694
2.3496
1.98985
1.66511
1.39397
1.17783
1.04583
1.1466
1.95153
2.6944
3.68699
4.63406
5.44395
6.1441
6.73392
7.19723
7.52399
7.71474
7.77725
7.72334
7.58223
7.36314
7.01272
6.48457
5.83338
5.15538
4.52836
3.98812
3.54193
3.17178
2.8377
2.50472
2.15921
1.83433
1.55234
1.31924
1.15315
1.18736
1.84289
2.39306
3.38678
4.31867
5.109
5.80415
6.41483
6.91523
7.28572
7.52108
7.62784
7.62281
7.52627
7.34502
7.0246
6.5246
5.90043
5.23838
4.61831
4.08207
3.64169
3.283
2.97008
2.66085
2.33095
2.00852
1.71777
1.4695
1.27184
1.24346
1.75928
2.12153
3.12957
4.05401
4.82152
5.49841
6.11389
6.63987
7.04642
7.32153
7.46925
7.50888
7.45778
7.31274
7.02832
6.56019
5.96485
5.31982
4.7082
4.17766
3.74485
3.39797
3.10776
2.82194
2.50871
2.19076
1.89234
1.62815
1.40344
1.31335
1.70304
1.88035
2.90269
3.83132
4.58067
5.23353
5.83774
6.37719
6.81119
7.12065
7.30629
7.38718
7.38162
7.27468
7.03053
6.59768
6.03213
5.40483
4.803
4.27944
3.85571
3.52136
3.2556
2.99333
2.69769
2.38577
2.07986
1.79823
1.54721
1.39767
1.67979
1.6769
2.6933
3.64025
4.37914
5.00388
5.59167
6.13332
6.58589
6.92395
7.14472
7.26555
7.30408
7.23948
7.03868
6.64457
6.10939
5.50052
4.90975
4.39442
3.98064
3.66087
3.42134
3.18261
2.90521
2.60019
2.28605
1.98417
1.70481
1.50465
1.69311
1.52782
2.48741
3.46922
4.20873
4.81052
5.37729
5.91417
6.37728
6.73854
6.99196
7.1527
7.23513
7.21813
7.06187
6.71055
6.20673
5.61754
5.03926
4.53356
4.12943
3.83061
3.61687
3.40044
3.14151
2.84335
2.51931
2.19244
1.87936
1.62908
1.72944
1.45059
2.28158
3.30741
4.06194
4.6482
5.19261
5.72188
6.19287
6.57363
6.85836
7.06026
7.19046
7.22551
7.1175
6.81025
6.33969
5.77253
5.20863
4.71391
4.32009
4.04933
3.85962
3.66299
3.42103
3.12861
2.79149
2.43226
2.07577
1.76832
1.79028
1.46504
2.10263
3.14855
3.93252
4.51232
5.04087
5.56174
6.03956
6.44001
6.75917
7.00737
7.18623
7.28231
7.22574
6.96604
6.53304
5.99225
5.44574
4.96236
4.58554
4.34513
4.17631
3.99456
3.76528
3.47519
3.11927
2.71653
2.30082
1.92922
1.87351
1.59397
1.98221
2.99427
3.81587
4.39973
4.92068
5.4344
5.9255
6.35253
6.71053
7.00314
7.25517
7.41899
7.41878
7.21429
6.82744
6.32054
5.79639
5.32993
4.9849
4.76621
4.60922
4.43271
4.20724
3.9115
3.52653
3.06309
2.56456
2.11812
1.97422
1.8013
1.96456
2.8569
3.71009
4.30929
4.8334
5.35025
5.85708
6.31505
6.72878
7.10817
7.43874
7.68109
7.75296
7.61561
7.29122
6.83156
6.34079
5.91109
5.59963
5.39004
5.22578
5.03825
4.79956
4.48122
4.04855
3.4972
2.88172
2.33557
2.09476
2.08891
2.05142
2.75548
3.61742
4.24282
4.78391
5.31705
5.85418
6.40083
6.90521
7.37624
7.8049
8.14905
8.321
8.27522
8.04309
7.6567
7.23158
6.86295
6.56997
6.3453
6.14278
5.91401
5.62958
5.25484
4.74006
4.05661
3.275
2.58553
2.24118
2.44064
2.24609
2.70575
3.54606
4.20713
4.78593
5.41079
6.05999
6.70128
7.31409
7.9101
8.47733
8.96491
9.28304
9.38631
9.29722
9.0481
8.74361
8.4332
8.1336
7.85022
7.56454
7.23773
6.84449
6.34959
5.68974
4.8029
3.7814
2.87913
2.41835
2.88396
2.51815
2.71584
3.51366
4.24689
4.97328
5.74649
6.55015
7.3453
8.12243
8.90846
9.68345
10.3898
10.9387
11.3048
11.4632
11.4447
11.2965
11.0409
10.6998
10.3024
9.84949
9.3189
8.69922
7.96596
7.04756
5.8428
4.46498
3.24226
2.63957
3.48049
2.91377
2.86296
3.62466
4.52975
5.45999
6.47228
7.53227
8.5909
9.65504
10.7551
11.859
12.92
13.8556
14.6793
15.2231
15.5133
15.5816
15.4096
14.9867
14.3734
13.6017
12.6816
11.6276
10.4442
9.07398
7.36925
5.4545
3.74672
2.94542
4.39659
3.54894
3.27511
4.08465
5.26103
6.54544
7.94981
9.46335
10.9744
12.5175
14.1322
15.774
17.3998
18.9421
20.4608
21.6081
22.3717
22.7498
22.6825
22.0892
21.0826
19.7444
18.1325
16.3169
14.353
12.2182
9.74975
7.02684
4.5761
3.47487
6.08588
4.82812
4.35156
5.34425
7.02691
8.94548
11.0388
13.3243
15.5996
17.9193
20.3425
22.8056
25.2705
27.6898
30.2027
32.1672
33.5098
34.2066
34.135
33.1405
31.4471
29.2237
26.577
23.6315
20.5112
17.2466
13.665
9.77719
6.22748
4.6118
9.71376
7.9531
7.32646
8.7474
11.349
14.3925
17.6362
21.0965
24.5418
27.9697
31.4983
35.0354
38.548
41.9813
45.5402
48.1422
49.6997
49.9065
48.7093
46.4924
43.6387
40.4149
36.9106
33.1538
29.1508
24.8619
20.1254
14.9106
10.0079
7.47632
18.0312
15.9846
15.4762
17.6341
21.6244
26.27
31.0071
35.8068
40.5484
45.0926
49.653
54.1066
58.3852
62.3107
65.8481
67.2168
66.5517
64.4409
61.3964
57.7648
53.9247
50.1363
46.4516
42.7746
38.9371
34.7146
29.8123
24.1206
18.444
14.9206
32.249
31.883
32.8234
36.0046
41.1906
46.952
52.5026
57.8153
62.9857
67.7446
72.3304
76.5683
80.1313
82.3207
82.2422
79.3322
75.2443
70.331
65.2839
60.4504
56.1594
52.5468
49.6175
47.217
45.0675
42.8007
39.9196
36.1864
32.1739
29.6573
40.5016
42.5762
46.5407
51.5692
56.9484
62.3018
67.2593
71.8073
76.1152
79.8471
82.9828
85.1826
85.8551
84.0146
79.588
72.9446
66.1813
59.5411
53.5848
48.5661
44.7104
41.961
40.2376
39.4253
39.3467
39.7645
40.2014
40.2101
40.0513
40.7232
14.4068
21.025
24.854
27.6463
29.6504
30.7084
30.863
30.2672
29.0609
27.4059
25.381
23.1342
20.6674
18.0944
15.2561
12.1027
9.20939
7.28686
6.34921
5.61143
4.38619
2.84138
0.301696
0.265508
0.23538
1.25398
1.81173
2.53039
3.2213
3.73481
8.52898
10.5955
11.996
13.0023
13.7493
14.195
14.3221
14.1479
13.71
13.0542
12.223
11.254
10.1849
9.0138
7.7093
6.37965
5.35726
4.78289
4.38141
3.86499
3.10776
2.21671
0.972851
0.344513
0.422275
0.647884
0.859306
1.16664
1.80242
3.38668
7.65168
9.21896
10.2941
11.0165
11.4669
11.7018
11.7456
11.6008
11.2804
10.8017
10.186
9.46192
8.65733
7.76496
6.74178
5.71314
4.947
4.50413
4.10706
3.59235
2.91544
2.12743
1.079
0.446677
0.453213
0.54913
0.696291
0.994289
1.7357
3.47511
7.19423
8.6476
9.67441
10.3411
10.7228
10.9047
10.9343
10.8178
10.5612
10.1678
9.64753
9.03069
8.33829
7.57104
6.65107
5.70994
4.99139
4.51998
4.07494
3.53833
2.87192
2.11385
1.1898
0.589345
0.527193
0.556396
0.651776
0.948711
1.73653
3.50757
6.78181
8.17203
9.22404
9.90551
10.3005
10.4971
10.5508
10.476
10.2748
9.94254
9.4806
8.93795
8.34113
7.62987
6.75631
5.85047
5.13294
4.615
4.1141
3.54738
2.88481
2.14797
1.32181
0.779479
0.638539
0.601239
0.659177
0.910174
1.71239
3.47242
6.33293
7.67972
8.76675
9.48943
9.93618
10.1846
10.2873
10.2675
10.1233
9.84356
9.44179
8.96515
8.41454
7.74597
6.8983
6.0133
5.29179
4.73349
4.1996
3.61282
2.9553
2.22007
1.47128
0.99311
0.784223
0.680226
0.692205
0.893156
1.66994
3.36138
5.83483
7.14569
8.26137
9.0416
9.55865
9.87904
10.0477
10.0909
10.0087
9.78548
9.44425
9.01069
8.50383
7.86326
7.03386
6.17069
5.45044
4.86288
4.30473
3.71514
3.06868
2.34196
1.65658
1.21057
0.950632
0.790777
0.750977
0.905637
1.61136
3.21028
5.30631
6.58071
7.71345
8.55615
9.15391
9.55513
9.79889
9.90921
9.89278
9.72768
9.4446
9.05047
8.58237
7.96339
7.1533
6.31964
5.60774
5.00121
4.42677
3.8418
3.21719
2.51133
1.85886
1.42471
1.12678
0.92321
0.836906
0.944648
1.55479
3.04108
4.76665
6.00783
7.15142
8.04976
8.72588
9.2102
9.53172
9.71158
9.75941
9.65545
9.42531
9.07514
8.6411
8.0435
7.26041
6.46567
5.76757
5.14897
4.56385
3.98703
3.38918
2.70412
2.07458
1.63612
1.30868
1.06882
0.942527
1.00451
1.52103
2.874
4.25265
5.45056
6.60447
7.54466
8.28805
8.84961
9.24714
9.49593
9.60468
9.56259
9.37912
9.08342
8.68234
8.10863
7.36512
6.61684
5.93502
5.30837
4.71627
4.149
3.58102
2.9206
2.30233
1.84889
1.49544
1.2241
1.05938
1.07798
1.50978
2.7225
3.79898
4.94287
6.09187
7.06022
7.85582
8.48328
8.95081
9.26472
9.43128
9.44817
9.31668
9.07255
8.71061
8.16794
7.47724
6.78108
6.11538
5.48217
4.88621
4.32897
3.79154
3.15723
2.5431
2.06822
1.68875
1.38949
1.18496
1.16043
1.5168
2.59115
3.39243
4.49508
5.62781
6.61448
7.44341
8.12258
8.6502
9.02353
9.24514
9.31577
9.24029
9.04412
8.73202
8.2332
7.60755
6.96615
6.31431
5.67451
5.07725
4.5317
4.02418
3.41373
2.79998
2.29886
1.89144
1.56446
1.32242
1.25054
1.53667
2.48112
3.02524
4.09906
5.22069
6.21421
7.06292
7.77843
8.35436
8.7796
9.05229
9.1731
9.15594
9.0108
8.75599
8.31822
7.76808
7.17988
6.53857
5.892
5.29505
4.76867
4.28678
3.6943
3.07772
2.54768
2.11138
1.75276
1.47319
1.35634
1.5704
2.39345
2.69443
3.74939
4.86477
5.86136
6.72529
7.46041
8.07261
8.5414
8.86064
9.03037
9.07159
8.98526
8.79554
8.43827
7.97085
7.43094
6.79718
6.14514
5.54926
5.05305
4.59049
4.00952
3.38431
2.82591
2.35875
1.96106
1.63944
1.47657
1.62134
2.33024
2.40234
3.44106
4.5572
5.55375
6.42121
7.17654
7.81393
8.3182
8.67995
8.8988
9.00006
8.98787
8.87297
8.60987
8.2291
7.73079
7.10329
6.44963
5.85887
5.40067
4.95087
4.37242
3.73554
3.1474
2.6437
2.19928
1.8263
1.60884
1.69279
2.29492
2.15661
3.16889
4.29214
5.29037
6.15684
6.9251
7.58572
8.1205
8.52229
8.79183
8.9605
9.0297
9.00825
8.8506
8.558
8.09657
7.47715
6.82822
6.25828
5.8378
5.38909
4.80514
4.15168
3.53055
2.98244
2.48205
2.04261
1.75678
1.78225
2.28993
1.97111
2.93118
4.06349
5.06743
5.93218
6.70564
7.39176
7.95836
8.4022
8.72809
8.96396
9.13622
9.23008
9.18394
8.97939
8.55565
7.95113
7.31658
6.80244
6.40247
5.93843
5.33918
4.66101
4.00033
3.39793
2.82596
2.2997
1.92925
1.88476
2.30809
1.86089
2.73375
3.86771
4.88131
5.74684
6.52589
7.23206
7.83556
8.32733
8.71059
9.05645
9.33909
9.56893
9.64671
9.52813
9.15188
8.5764
7.98064
7.54066
7.1455
6.64968
6.02071
5.30423
4.59215
3.92119
3.2556
2.61347
2.13637
2.00645
2.34834
1.83386
2.58896
3.70488
4.72992
5.60092
6.38958
7.11629
7.75995
8.30587
8.80772
9.27021
9.68278
10.0696
10.2887
10.2648
9.95486
9.43534
8.93982
8.55552
8.13686
7.59719
6.91868
6.14171
5.35772
4.59542
3.80475
3.00515
2.38577
2.16227
2.41838
1.91524
2.51376
3.57845
4.61323
5.49649
6.3027
7.058
7.74972
8.43131
9.05833
9.6617
10.2334
10.8038
11.1866
11.2889
11.075
10.6726
10.3083
9.96091
9.50001
8.89654
8.13879
7.26623
6.37556
5.48271
4.52141
3.50469
2.69017
2.35027
2.52417
2.11543
2.50821
3.49415
4.53434
5.43951
6.27582
7.10456
7.95557
8.76785
9.54083
10.3208
11.094
11.8858
12.4705
12.7601
12.6986
12.5091
12.2815
11.9345
11.424
10.7282
9.846
8.82268
7.76768
6.67399
5.4755
4.16252
3.07312
2.57466
2.66767
2.4134
2.6025
3.4614
4.50244
5.45746
6.41977
7.42849
8.43591
9.41537
10.381
11.3956
12.4317
13.5025
14.3558
14.9383
15.1487
15.2014
15.0824
14.7657
14.2022
13.372
12.2939
11.0329
9.702
8.30239
6.77075
5.05698
3.58143
2.86687
2.86214
2.84704
2.82903
3.53691
4.60644
5.72412
6.88527
8.10394
9.33235
10.5546
11.7989
13.1321
14.5213
15.9612
17.1926
18.2514
18.7835
19.0762
19.1272
18.88
18.2607
17.2345
15.839
14.1773
12.3967
10.5533
8.5616
6.31427
4.3109
3.29179
3.16062
3.47609
3.25265
3.88565
5.05889
6.3947
7.83724
9.3506
10.924
12.5093
14.1533
15.9424
17.8164
19.7597
21.5168
23.1737
24.0892
24.689
24.9746
24.6788
23.775
22.3709
20.5466
18.4035
16.0822
13.667
11.0774
8.14008
5.44597
3.98029
3.66593
4.53603
4.08923
4.66553
6.06764
7.78766
9.65873
11.6382
13.7284
15.8559
18.0651
20.4755
22.9998
25.5974
28.0314
30.4403
31.7221
32.6399
32.672
31.9494
30.5805
28.7132
26.433
23.8127
20.9467
17.9099
14.64
10.8896
7.32844
5.21987
4.63067
6.59882
5.89145
6.48144
8.28052
10.6089
13.1736
15.8657
18.6839
21.5757
24.5356
27.7414
31.0748
34.4492
37.6464
40.814
42.1581
42.459
41.6506
40.1554
38.1128
35.7252
33.0623
30.1365
26.936
23.4508
19.608
15.0936
10.5973
7.64911
6.64455
11.0473
10.0534
10.731
13.135
16.3744
19.9351
23.5799
27.2954
31.1017
34.9024
38.9665
43.1296
47.2212
50.9835
54.3761
54.1328
52.8547
50.511
47.8198
44.9162
42.0254
39.1942
36.3508
33.3374
29.984
26.1009
21.3056
16.2096
12.4906
10.9804
19.9655
19.1624
20.0968
23.2043
27.4611
32.0744
36.63
41.0967
45.6271
50.0335
54.6686
59.293
63.5739
66.9845
68.5801
64.9792
61.0018
56.4803
52.3213
48.5589
45.3537
42.7054
40.4676
38.362
36.0786
33.2515
29.3487
24.8087
21.1162
19.5628
32.3418
33.3172
35.7294
39.5435
44.3904
49.4487
54.2399
58.7789
63.3053
67.6258
72.0389
76.1664
79.3826
80.2259
77.8552
69.9696
62.7302
55.9853
50.5315
46.1801
42.954
40.7762
39.4849
38.8084
38.3974
37.8048
36.3686
34.2004
32.2916
32.1452
38.0147
40.77
45.149
50.4272
55.901
61.0521
65.6582
69.9353
74.0716
77.8196
81.214
83.7197
84.4275
81.2739
74.7433
63.5602
54.3957
46.6229
40.7283
36.3645
33.4541
31.8081
31.2599
31.6471
32.7638
34.2081
35.4314
36.2275
37.1569
39.094
18.5954
26.2757
30.623
33.8039
36.0085
37.3195
37.6123
36.9943
35.5846
33.5479
30.9393
27.9353
24.5034
20.8101
16.6551
12.4364
9.78619
10.2297
12.0765
11.9128
9.85252
6.9407
3.37106
1.16944
0.23767
1.43334
2.07616
2.91488
3.57625
4.63282
10.6778
12.8995
14.3652
15.4223
16.1433
16.6262
16.796
16.6326
16.1645
15.422
14.4467
13.2613
11.9128
10.3583
8.61826
7.08536
6.45081
6.92953
7.32696
7.03477
6.1068
4.81159
2.90403
0.992724
0.565478
0.754475
0.980572
1.37031
2.23904
4.03922
9.7156
11.2417
12.2926
13.0066
13.4205
13.6331
13.6642
13.5011
13.151
12.6176
11.9168
11.064
10.0923
8.95425
7.65631
6.5543
6.12112
6.31899
6.2807
5.86569
5.14724
4.19422
2.73403
1.0201
0.6242
0.666269
0.811347
1.19058
2.25549
4.11468
9.28798
10.6402
11.621
12.2646
12.5984
12.7317
12.7224
12.5701
12.2781
11.8355
11.2461
10.5286
9.70644
8.74344
7.60281
6.62111
6.17371