/*--------------------------------*- C++ -*----------------------------------*\
  =========                 |
  \\      /  F ield         | OpenFOAM: The Open Source CFD Toolbox
   \\    /   O peration     | Website:  https://openfoam.org
    \\  /    A nd           | Version:  12
     \\/     M anipulation  |
\*---------------------------------------------------------------------------*/
FoamFile
{
    format      ascii;
    class       volScalarField;
    location    "750/air";
    object      k;
}
// * * * * * * * * * * * * * * * * * * * * * * * * * * * * * * * * * * * * * //

dimensions      [0 2 -2 0 0 0 0];

internalField   nonuniform List<scalar> 
243000
(
0.0897285
0.103758
0.110912
0.114249
0.114561
0.11245
0.108624
0.103784
0.0984693
0.0931813
0.0881915
0.0839143
0.0807071
0.078961
0.078457
0.0783744
0.0778739
0.0766115
0.0745422
0.0717441
0.0683468
0.064525
0.0607308
0.0567927
0.0513354
0.0432799
0.0311829
0.0316042
0.0414552
0.0423155
0.135865
0.1593
0.171278
0.175893
0.175537
0.171779
0.165714
0.158329
0.150335
0.142307
0.134614
0.127747
0.12197
0.117301
0.112985
0.108131
0.102543
0.0967548
0.0910743
0.085647
0.080481
0.075575
0.0711189
0.0671548
0.0624544
0.055604
0.0456351
0.0443459
0.0623617
0.0722779
0.161479
0.191345
0.209188
0.21673
0.217828
0.214558
0.208363
0.200417
0.191556
0.182453
0.173583
0.165531
0.158549
0.152513
0.146364
0.139024
0.130488
0.12175
0.113397
0.105681
0.0986064
0.0921119
0.0862585
0.0809282
0.0751835
0.067567
0.0571277
0.0515988
0.0690573
0.0874767
0.174497
0.210331
0.232707
0.243015
0.245875
0.243542
0.237794
0.229911
0.220819
0.211286
0.201853
0.193183
0.185512
0.178672
0.171417
0.16253
0.152092
0.141366
0.131125
0.121729
0.113207
0.105463
0.0984359
0.0918746
0.085127
0.0769745
0.0663076
0.0582143
0.0702458
0.0961478
0.180208
0.219689
0.247221
0.26037
0.265353
0.264454
0.259714
0.252487
0.243759
0.23438
0.224933
0.216142
0.208222
0.200997
0.193047
0.183068
0.171226
0.158958
0.147199
0.136404
0.126638
0.117791
0.109718
0.102049
0.0942844
0.0855156
0.0746019
0.0645666
0.0697959
0.101495
0.180175
0.222031
0.254103
0.271098
0.278386
0.279263
0.275881
0.2697
0.261736
0.252906
0.243825
0.235265
0.227417
0.2201
0.211741
0.201002
0.188146
0.174703
0.161738
0.149798
0.13899
0.129195
0.120219
0.111597
0.10289
0.0934933
0.0823024
0.070776
0.0696628
0.103979
0.176598
0.21983
0.254831
0.276466
0.286351
0.289283
0.287494
0.282621
0.275696
0.26769
0.259244
0.251176
0.243636
0.23645
0.227895
0.216648
0.203097
0.188776
0.174877
0.162015
0.150344
0.139752
0.130007
0.120581
0.111041
0.101052
0.0895639
0.0770473
0.0711574
0.103626
0.170826
0.214654
0.251813
0.276931
0.290195
0.295417
0.295415
0.292031
0.286336
0.279348
0.271734
0.264347
0.257302
0.250407
0.241826
0.230282
0.216284
0.201346
0.18674
0.173153
0.160779
0.149526
0.139136
0.129037
0.118783
0.108265
0.0964782
0.0833293
0.0743535
0.100299
0.164849
0.207357
0.246145
0.274088
0.290323
0.298312
0.300299
0.298529
0.294198
0.288363
0.281725
0.275158
0.268745
0.26227
0.253787
0.24213
0.227885
0.212556
0.197443
0.183303
0.17037
0.158578
0.147655
0.136999
0.126151
0.115178
0.103106
0.0895638
0.0781949
0.0960096
0.158075
0.199647
0.238452
0.268689
0.28796
0.298272
0.302633
0.30258
0.299709
0.295126
0.289566
0.28392
0.278241
0.272268
0.263992
0.252378
0.238053
0.222533
0.207086
0.192547
0.179184
0.166967
0.155613
0.1445
0.133171
0.121821
0.109498
0.0956852
0.0826762
0.0920093
0.150249
0.191842
0.22954
0.261401
0.283473
0.296213
0.302636
0.304557
0.303218
0.299957
0.295544
0.290893
0.286008
0.280597
0.27262
0.261182
0.246923
0.231368
0.215761
0.200956
0.187285
0.174744
0.163051
0.15157
0.139866
0.128213
0.115687
0.101636
0.0874824
0.0889986
0.14114
0.183627
0.221065
0.252793
0.277181
0.292497
0.300996
0.304746
0.305019
0.303122
0.299901
0.296286
0.292231
0.287421
0.27982
0.268669
0.254609
0.239153
0.223539
0.208598
0.194726
0.181956
0.170007
0.158237
0.146253
0.134368
0.121661
0.107413
0.0924153
0.0873774
0.129784
0.174668
0.212623
0.24398
0.26946
0.287382
0.297924
0.30349
0.305365
0.304852
0.30284
0.300276
0.297066
0.292882
0.285719
0.274952
0.261208
0.245973
0.230474
0.215531
0.201557
0.188647
0.17652
0.164534
0.152356
0.140303
0.127438
0.11306
0.0975259
0.0877375
0.116449
0.164559
0.203939
0.235491
0.260823
0.281053
0.293656
0.301006
0.30447
0.305349
0.304531
0.303015
0.300649
0.297104
0.290432
0.28013
0.266805
0.251905
0.236627
0.221793
0.207823
0.194856
0.182629
0.170497
0.158199
0.146036
0.133047
0.118567
0.10262
0.0900808
0.103275
0.152486
0.194778
0.227129
0.252546
0.273727
0.288396
0.297489
0.302507
0.304764
0.305128
0.304634
0.303103
0.300195
0.294058
0.284293
0.271481
0.257016
0.24206
0.227428
0.213565
0.200629
0.188379
0.176166
0.163812
0.151583
0.138522
0.123951
0.107689
0.0930912
0.0950055
0.137363
0.184822
0.218729
0.244577
0.265711
0.282337
0.293111
0.299622
0.303225
0.304761
0.305252
0.304531
0.302258
0.29669
0.287525
0.275309
0.261374
0.246833
0.232491
0.218819
0.206008
0.193813
0.181586
0.169227
0.156986
0.143883
0.129233
0.112726
0.0966179
0.0950873
0.121478
0.173152
0.210139
0.236805
0.257937
0.27568
0.288025
0.295951
0.300844
0.303521
0.304969
0.305031
0.303387
0.298418
0.28991
0.278364
0.265046
0.251005
0.237036
0.223638
0.211027
0.19897
0.186804
0.174486
0.162271
0.14916
0.134447
0.117745
0.100637
0.101345
0.108953
0.15954
0.201097
0.229157
0.250489
0.26857
0.282366
0.29162
0.29773
0.301499
0.303868
0.304689
0.303669
0.299327
0.291529
0.280729
0.268105
0.254645
0.241126
0.228078
0.215745
0.203907
0.191877
0.179635
0.167482
0.154393
0.13963
0.122754
0.10485
0.109568
0.103411
0.145118
0.191051
0.221579
0.24335
0.261306
0.276266
0.286736
0.293985
0.298778
0.302022
0.303574
0.303186
0.299497
0.292462
0.28248
0.270628
0.257826
0.244834
0.23221
0.220228
0.208684
0.196869
0.184727
0.17267
0.159627
0.144823
0.127777
0.109184
0.118924
0.105959
0.131782
0.180116
0.213971
0.236476
0.254416
0.26983
0.281381
0.289681
0.29543
0.299503
0.301751
0.302008
0.299007
0.292791
0.283694
0.272692
0.260629
0.248239
0.236109
0.224544
0.21336
0.201844
0.189821
0.177889
0.164915
0.150074
0.13285
0.113685
0.128956
0.113386
0.122261
0.168838
0.206248
0.229854
0.247836
0.263134
0.275602
0.284852
0.291502
0.296356
0.299276
0.300189
0.297922
0.292586
0.284452
0.274372
0.263131
0.251423
0.239851
0.22876
0.217993
0.206851
0.194971
0.183186
0.170299
0.155427
0.137999
0.118332
0.139259
0.122061
0.117929
0.157953
0.198527
0.223495
0.241523
0.256489
0.269405
0.279485
0.286973
0.29257
0.296156
0.297738
0.296263
0.291878
0.284766
0.275709
0.265382
0.254441
0.243495
0.232924
0.222619
0.211915
0.200212
0.188601
0.175822
0.160915
0.143251
0.123097
0.149624
0.131255
0.118471
0.148479
0.19105
0.217422
0.235437
0.2502
0.262828
0.273539
0.281755
0.28804
0.29229
0.294562
0.293948
0.290597
0.284585
0.27668
0.267357
0.257271
0.247015
0.237012
0.2272
0.216968
0.205558
0.194166
0.18154
0.166578
0.14862
0.127951
0.160003
0.140955
0.123085
0.141427
0.184217
0.21165
0.229542
0.244303
0.256348
0.266978
0.275666
0.282518
0.287403
0.290386
0.290689
0.288461
0.283672
0.276955
0.268811
0.25966
0.250176
0.240804
0.231519
0.221796
0.210937
0.199923
0.187505
0.172489
0.154147
0.13287
0.170709
0.150688
0.129277
0.137193
0.178526
0.206315
0.2241
0.238878
0.250556
0.260553
0.268797
0.27583
0.281217
0.284874
0.286077
0.285013
0.281538
0.276178
0.269211
0.261164
0.252566
0.24391
0.235207
0.226148
0.216508
0.206142
0.194024
0.17898
0.160128
0.138022
0.181911
0.160182
0.135983
0.135742
0.174788
0.20196
0.219597
0.234369
0.245901
0.255558
0.263648
0.270564
0.276108
0.280132
0.282212
0.282329
0.280383
0.276634
0.271275
0.264659
0.25721
0.249364
0.241295
0.232907
0.223957
0.214019
0.202045
0.18676
0.167178
0.143808
0.194402
0.170825
0.143936
0.137833
0.174101
0.199726
0.217299
0.232325
0.244264
0.25414
0.262576
0.269885
0.27601
0.28088
0.284134
0.285595
0.285221
0.283079
0.279245
0.273959
0.267576
0.260478
0.252884
0.244797
0.236019
0.226056
0.213743
0.197734
0.176886
0.151637
0.212607
0.187206
0.158392
0.150393
0.182704
0.207039
0.225004
0.240832
0.25409
0.264991
0.274567
0.28303
0.290515
0.296828
0.301625
0.30454
0.30557
0.304701
0.301891
0.297353
0.291441
0.284548
0.276854
0.26836
0.258925
0.248085
0.234738
0.217239
0.194227
0.165981
0.260022
0.237056
0.211901
0.207428
0.234203
0.258085
0.276862
0.293661
0.308727
0.321173
0.332296
0.34205
0.351353
0.359364
0.365285
0.368875
0.370242
0.369363
0.366194
0.361023
0.354321
0.346536
0.337803
0.327715
0.316382
0.303636
0.288634
0.269947
0.245569
0.215108
0.466557
0.457675
0.451263
0.454527
0.469771
0.485675
0.494903
0.502761
0.509727
0.516345
0.522405
0.526996
0.534644
0.541242
0.544746
0.546451
0.546531
0.545128
0.541999
0.537954
0.533463
0.529152
0.524725
0.516969
0.507991
0.499024
0.489264
0.478343
0.463209
0.442695
0.127252
0.156519
0.171553
0.180394
0.183628
0.182342
0.177714
0.170903
0.162796
0.154207
0.145577
0.137478
0.13011
0.123835
0.118023
0.111308
0.102932
0.0932201
0.0827492
0.0719685
0.0611918
0.0507587
0.04188
0.0362065
0.0322532
0.0292421
0.0319324
0.0406191
0.0519489
0.0546554
0.212815
0.257826
0.281033
0.292645
0.294041
0.288126
0.277406
0.26389
0.248862
0.233285
0.217549
0.202199
0.187154
0.172323
0.156361
0.13886
0.121451
0.106542
0.0939702
0.0833698
0.0740081
0.0653025
0.0574761
0.0513225
0.0477249
0.0452154
0.0499084
0.0612497
0.0846281
0.110586
0.253798
0.313206
0.34778
0.366949
0.372697
0.368567
0.357937
0.343155
0.325805
0.307138
0.287714
0.268275
0.248846
0.229285
0.207838
0.184088
0.160513
0.140312
0.123827
0.110528
0.0994003
0.0894502
0.08031
0.0726089
0.0669297
0.0612073
0.0598976
0.0681386
0.0967015
0.136203
0.271412
0.344771
0.387134
0.413091
0.424135
0.423403
0.41496
0.401203
0.383864
0.364359
0.343401
0.321916
0.300078
0.277728
0.252829
0.224888
0.196885
0.172624
0.15281
0.137005
0.124121
0.112865
0.102413
0.0932633
0.085541
0.0765244
0.0690619
0.0714415
0.1022
0.153697
0.278109
0.355162
0.409305
0.44107
0.457624
0.461187
0.455845
0.444264
0.42818
0.409104
0.387878
0.365628
0.342638
0.318722
0.291509
0.260571
0.229367
0.201946
0.179418
0.161489
0.147064
0.134678
0.123163
0.112895
0.103607
0.0918358
0.079142
0.0759269
0.102822
0.164563
0.275209
0.352749
0.414453
0.456267
0.478178
0.486631
0.484879
0.476129
0.462042
0.444186
0.423553
0.401433
0.378173
0.353519
0.324694
0.291617
0.258118
0.228231
0.203509
0.183813
0.168089
0.154772
0.142498
0.131493
0.121111
0.107225
0.0905707
0.0814838
0.10041
0.169991
0.266482
0.344742
0.410662
0.458632
0.489088
0.502598
0.504878
0.499306
0.487677
0.471573
0.45213
0.43079
0.407893
0.383085
0.353197
0.318654
0.283548
0.251788
0.225314
0.204163
0.187347
0.17329
0.160539
0.149141
0.138056
0.122592
0.103049
0.0888562
0.099163
0.170996
0.252414
0.332764
0.402321
0.454727
0.490643
0.51109
0.517798
0.515574
0.506682
0.492679
0.474854
0.454756
0.432692
0.408132
0.377654
0.342203
0.306011
0.272955
0.245089
0.22276
0.205037
0.190417
0.177433
0.165945
0.154445
0.137834
0.116208
0.0975567
0.101452
0.166473
0.235864
0.318354
0.390965
0.447139
0.487312
0.512868
0.524915
0.526289
0.520271
0.508589
0.492684
0.474147
0.453244
0.429226
0.398571
0.362695
0.325861
0.29197
0.263057
0.2398
0.221352
0.20634
0.193327
0.181998
0.170305
0.152887
0.129763
0.107419
0.105114
0.158046
0.217374
0.302852
0.377861
0.43702
0.480869
0.51036
0.527255
0.532527
0.529406
0.520174
0.506369
0.489616
0.470118
0.446816
0.416376
0.380498
0.343399
0.309039
0.27941
0.255453
0.236463
0.221234
0.208353
0.197387
0.185677
0.167728
0.143518
0.118355
0.109666
0.148778
0.197635
0.286459
0.364059
0.425341
0.472151
0.505148
0.52555
0.534963
0.534865
0.528151
0.516539
0.501714
0.483745
0.461339
0.431444
0.395922
0.358879
0.324326
0.294329
0.269874
0.250528
0.235245
0.222631
0.212205
0.20063
0.182364
0.157355
0.130024
0.115057
0.141663
0.177316
0.269276
0.349695
0.412896
0.461885
0.497865
0.521517
0.534117
0.537332
0.533129
0.523734
0.510907
0.494509
0.473185
0.444111
0.409238
0.372525
0.338034
0.307938
0.2832
0.263676
0.248501
0.236277
0.226549
0.215249
0.196839
0.171227
0.142288
0.121739
0.137473
0.157701
0.251448
0.334765
0.400263
0.450698
0.489083
0.515652
0.531298
0.537346
0.535639
0.528425
0.517578
0.502798
0.482722
0.454687
0.420697
0.384552
0.350344
0.320365
0.295563
0.276038
0.261118
0.249414
0.240527
0.229642
0.211233
0.185131
0.154947
0.129991
0.136979
0.14049
0.232999
0.319273
0.387286
0.439064
0.479324
0.508384
0.526684
0.535399
0.536252
0.531031
0.52212
0.509001
0.490295
0.463476
0.430556
0.39518
0.361451
0.331752
0.307106
0.287748
0.273221
0.262183
0.254261
0.243939
0.225668
0.199101
0.167715
0.139239
0.13924
0.126995
0.213685
0.303171
0.373908
0.42728
0.469025
0.500111
0.520725
0.531884
0.535161
0.531997
0.52493
0.513499
0.496257
0.470785
0.439083
0.404645
0.371566
0.342294
0.317975
0.298956
0.284954
0.27475
0.267896
0.258298
0.240316
0.213309
0.180807
0.149559
0.142829
0.119573
0.193205
0.286305
0.360136
0.415402
0.458494
0.491251
0.513847
0.527181
0.532713
0.531834
0.5264
0.516691
0.500978
0.476953
0.44659
0.413224
0.380945
0.352227
0.328367
0.309836
0.296479
0.287323
0.2816
0.272906
0.255393
0.22804
0.194435
0.161088
0.14755
0.119238
0.172572
0.268501
0.346035
0.403459
0.447925
0.482176
0.506446
0.521715
0.529316
0.530594
0.52706
0.519022
0.504875
0.482376
0.453452
0.421245
0.389912
0.36185
0.338539
0.320608
0.308
0.30006
0.295559
0.287985
0.271149
0.24358
0.208839
0.173549
0.153825
0.127609
0.157837
0.249927
0.331634
0.391543
0.4376
0.473186
0.49891
0.51596
0.525498
0.52886
0.527371
0.520985
0.508443
0.487543
0.460152
0.429281
0.398924
0.371578
0.348852
0.331581
0.319807
0.313201
0.310019
0.303801
0.287883
0.260218
0.224243
0.186712
0.161287
0.141422
0.151231
0.231621
0.316986
0.379802
0.427647
0.464557
0.491695
0.510358
0.521851
0.527237
0.52779
0.52318
0.512306
0.493091
0.467309
0.437897
0.408581
0.381985
0.35983
0.343214
0.332356
0.327082
0.325311
0.320697
0.305943
0.278278
0.240907
0.200805
0.170405
0.159497
0.15272
0.215383
0.302333
0.368424
0.418255
0.456722
0.485303
0.505554
0.519048
0.526491
0.529195
0.526408
0.517296
0.49989
0.475892
0.447962
0.419743
0.393908
0.372239
0.356245
0.346339
0.342255
0.341935
0.339128
0.325756
0.298149
0.259165
0.21607
0.181237
0.180803
0.164338
0.204532
0.288307
0.357672
0.409694
0.449975
0.480121
0.502104
0.517627
0.527594
0.532694
0.531772
0.524594
0.509192
0.487133
0.460795
0.433711
0.408619
0.387391
0.371811
0.362787
0.35973
0.360697
0.359757
0.347879
0.3203
0.279468
0.232637
0.193245
0.205236
0.181022
0.199595
0.275828
0.347974
0.402323
0.444705
0.476931
0.500541
0.518826
0.532026
0.539771
0.54109
0.535983
0.522955
0.503129
0.478547
0.452648
0.428196
0.407462
0.392344
0.383624
0.381292
0.383156
0.383697
0.373149
0.345369
0.302042
0.250575
0.206299
0.232835
0.201357
0.199938
0.265986
0.339972
0.396606
0.441454
0.476121
0.503979
0.525763
0.542202
0.552954
0.557257
0.554633
0.544587
0.527632
0.505205
0.480591
0.457335
0.437079
0.421731
0.412705
0.410323
0.41221
0.413064
0.40306
0.374413
0.327583
0.270099
0.220281
0.263837
0.223917
0.206754
0.260061
0.334614
0.393233
0.441162
0.482609
0.516036
0.542204
0.562389
0.577094
0.585606
0.586766
0.580734
0.5682
0.549079
0.527104
0.504953
0.48464
0.468353
0.457776
0.453536
0.453348
0.452135
0.440645
0.409521
0.357534
0.292123
0.235472
0.300484
0.250459
0.219797
0.259299
0.33318
0.395783
0.451986
0.501385
0.541735
0.574402
0.601251
0.622374
0.637359
0.645142
0.645707
0.639469
0.62607
0.608316
0.587902
0.566995
0.54825
0.53353
0.523584
0.516992
0.509224
0.49227
0.455277
0.395119
0.319599
0.253386
0.348204
0.286697
0.242626
0.274128
0.347874
0.418776
0.483618
0.544068
0.593984
0.636639
0.673473
0.704696
0.730176
0.748379
0.759867
0.763195
0.758397
0.747053
0.729167
0.70676
0.683174
0.660716
0.640184
0.62099
0.599993
0.570557
0.521798
0.448207
0.358223
0.278265
0.423225
0.350281
0.294333
0.32014
0.400344
0.484193
0.562704
0.638706
0.703974
0.761522
0.812667
0.857107
0.895191
0.926646
0.953038
0.969269
0.975381
0.97232
0.957278
0.932068
0.900722
0.866373
0.829717
0.790821
0.748088
0.696888
0.628252
0.534868
0.425351
0.324877
0.566294
0.48942
0.430648
0.455392
0.547756
0.650115
0.746558
0.83867
0.919798
0.990841
1.05456
1.11049
1.15919
1.20094
1.23673
1.26097
1.27223
1.27005
1.25143
1.21909
1.17749
1.13073
1.07967
1.02399
0.962278
0.890851
0.802963
0.692366
0.564555
0.440912
0.814717
0.767375
0.73882
0.772142
0.868467
0.974701
1.07192
1.1614
1.24044
1.30793
1.3677
1.41943
1.45998
1.48971
1.50532
1.50651
1.49246
1.46199
1.42096
1.37315
1.32214
1.27162
1.22347
1.17663
1.12911
1.07626
1.00857
0.922759
0.816893
0.711615
1.02153
1.0268
1.05861
1.11343
1.18424
1.25136
1.31184
1.36833
1.41854
1.45872
1.49046
1.51326
1.5248
1.52157
1.49313
1.45045
1.40287
1.35006
1.29579
1.24444
1.19898
1.16057
1.12996
1.10666
1.09095
1.0807
1.07116
1.05463
1.02778
1.00588
0.159106
0.200872
0.220189
0.232614
0.238231
0.238013
0.23325
0.22529
0.215164
0.203823
0.191731
0.179559
0.167339
0.155488
0.143011
0.128387
0.111836
0.0953077
0.0803889
0.0670547
0.0540082
0.0409527
0.0325131
0.0321353
0.0283204
0.029632
0.0385461
0.0494482
0.0617839
0.0671521
0.264244
0.332575
0.368061
0.384931
0.387753
0.380843
0.3676
0.350381
0.330645
0.309426
0.287062
0.264126
0.240138
0.214841
0.186977
0.159934
0.137821
0.122861
0.112554
0.103416
0.0916646
0.0758631
0.058667
0.0513431
0.0419694
0.0416328
0.0551338
0.0751104
0.108646
0.15513
0.319614
0.405616
0.45564
0.481271
0.488423
0.482953
0.469419
0.450457
0.427689
0.402308
0.374836
0.346035
0.31544
0.282699
0.246495
0.210989
0.182469
0.163558
0.150752
0.139793
0.12631
0.107867
0.0872271
0.0747095
0.0601987
0.0536852
0.0628577
0.0846573
0.128625
0.194214
0.348178
0.449999
0.508858
0.541689
0.554065
0.551786
0.540276
0.522178
0.499156
0.472432
0.442682
0.410775
0.376372
0.339117
0.297494
0.256474
0.223149
0.200362
0.184538
0.171397
0.156462
0.136553
0.114008
0.097461
0.0791938
0.0665028
0.0686022
0.0884976
0.139895
0.221636
0.364281
0.469264
0.540381
0.579282
0.597455
0.599538
0.591224
0.575321
0.553465
0.526896
0.496432
0.463007
0.426436
0.386374
0.340931
0.29613
0.259298
0.23315
0.21452
0.199394
0.183391
0.162855
0.139504
0.119935
0.098639
0.080681
0.0752263
0.0901817
0.144252
0.23982
0.36701
0.470901
0.550334
0.600225
0.624525
0.632134
0.627781
0.614948
0.595168
0.56972
0.539528
0.505681
0.468101
0.426275
0.378154
0.330788
0.291421
0.262485
0.241421
0.224593
0.207847
0.187258
0.163832
0.142168
0.118429
0.0963074
0.0840546
0.0924384
0.144482
0.250134
0.361613
0.464253
0.547066
0.604744
0.639092
0.652945
0.653248
0.644091
0.627026
0.603368
0.574192
0.540742
0.502995
0.460149
0.410301
0.361346
0.32022
0.289014
0.265869
0.247603
0.230355
0.210133
0.187156
0.164156
0.13843
0.113026
0.0950721
0.0973095
0.141989
0.254087
0.349982
0.451687
0.537769
0.60041
0.641948
0.664196
0.669995
0.664827
0.650919
0.62954
0.601956
0.569525
0.532311
0.488955
0.438286
0.388571
0.3463
0.313292
0.288363
0.268878
0.251311
0.231743
0.209597
0.18585
0.158507
0.130535
0.108047
0.104471
0.140526
0.253663
0.331785
0.434461
0.52391
0.591258
0.638135
0.667227
0.679564
0.678714
0.668252
0.64951
0.623957
0.593063
0.55687
0.513568
0.462897
0.413121
0.370162
0.33579
0.30931
0.288774
0.271042
0.252303
0.231316
0.207197
0.178638
0.148601
0.122598
0.11307
0.141497
0.24761
0.31112
0.413776
0.506909
0.578628
0.630419
0.664498
0.683193
0.687059
0.680159
0.664305
0.641121
0.612201
0.577354
0.534745
0.484826
0.435563
0.392273
0.356859
0.329029
0.30758
0.289794
0.272018
0.252363
0.228153
0.198726
0.167055
0.138219
0.123429
0.143699
0.239411
0.288555
0.392304
0.488003
0.563755
0.619873
0.658525
0.681632
0.690784
0.687587
0.674793
0.654235
0.627613
0.59443
0.55318
0.504681
0.456381
0.413023
0.376791
0.347791
0.32555
0.307793
0.291085
0.272781
0.248702
0.218723
0.185773
0.154556
0.134899
0.147285
0.231068
0.26465
0.370313
0.468888
0.547697
0.607457
0.650126
0.677337
0.690495
0.691387
0.681742
0.663999
0.639865
0.608794
0.569517
0.523002
0.47599
0.432746
0.395856
0.365838
0.342927
0.325252
0.309756
0.292663
0.268888
0.238624
0.204657
0.171412
0.147206
0.152421
0.223689
0.240118
0.347937
0.449789
0.531287
0.594014
0.640073
0.670964
0.687876
0.692367
0.6858
0.671024
0.649638
0.621095
0.584362
0.540268
0.494754
0.451743
0.414294
0.383436
0.359949
0.342398
0.32817
0.312152
0.288818
0.258512
0.223732
0.188599
0.160337
0.159153
0.218018
0.216213
0.325287
0.430799
0.515307
0.58021
0.629061
0.66314
0.683285
0.691119
0.68771
0.675998
0.65759
0.631974
0.598271
0.556903
0.513003
0.47031
0.432401
0.400846
0.376875
0.359514
0.346515
0.331451
0.308682
0.278549
0.24312
0.206226
0.174532
0.167182
0.214914
0.194585
0.302503
0.411916
0.49978
0.566559
0.617673
0.654457
0.677422
0.68824
0.688342
0.679581
0.664375
0.642068
0.611771
0.573305
0.531079
0.488787
0.450529
0.418392
0.394032
0.376991
0.365102
0.350841
0.328755
0.298977
0.263026
0.224452
0.189733
0.176355
0.215075
0.177447
0.279699
0.393072
0.484654
0.553589
0.606374
0.645442
0.670922
0.684516
0.68781
0.682423
0.670682
0.652012
0.625375
0.58989
0.549387
0.507608
0.469136
0.43653
0.411881
0.395422
0.384368
0.370676
0.349395
0.320121
0.283746
0.243485
0.206019
0.187165
0.217337
0.16664
0.257589
0.374259
0.469908
0.541287
0.59551
0.636561
0.664438
0.680671
0.687092
0.685298
0.67726
0.662467
0.639633
0.60717
0.56847
0.527375
0.488856
0.455897
0.431105
0.415439
0.404866
0.391504
0.371043
0.342401
0.305664
0.263612
0.223536
0.199705
0.221783
0.163975
0.23842
0.355731
0.455582
0.529657
0.585573
0.628238
0.658429
0.677463
0.686888
0.689135
0.684943
0.674171
0.655225
0.625843
0.589109
0.548957
0.510614
0.477456
0.452801
0.437814
0.427336
0.414021
0.394279
0.36634
0.32925
0.28527
0.242346
0.213756
0.228727
0.170056
0.224702
0.338196
0.4418
0.518762
0.57664
0.620861
0.653298
0.675179
0.688312
0.694975
0.694847
0.688105
0.67308
0.646936
0.612467
0.573638
0.535771
0.50276
0.47885
0.463834
0.452829
0.439157
0.419895
0.392612
0.355104
0.308885
0.26251
0.229101
0.238411
0.18566
0.219927
0.322851
0.428797
0.508726
0.568868
0.615014
0.649617
0.674375
0.692545
0.703829
0.708364
0.705762
0.694526
0.672
0.640313
0.603381
0.566416
0.534454
0.511144
0.49532
0.482812
0.468295
0.449066
0.422144
0.383997
0.334968
0.284247
0.245667
0.250255
0.206595
0.22252
0.310979
0.416959
0.499763
0.562502
0.611034
0.648129
0.67773
0.701225
0.717404
0.727132
0.729145
0.721795
0.70347
0.675415
0.641274
0.606208
0.576178
0.552618
0.534927
0.519827
0.50366
0.483651
0.456375
0.417025
0.364275
0.30803
0.263361
0.263485
0.232382
0.23216
0.303602
0.406863
0.492215
0.557901
0.609419
0.651912
0.688105
0.716774
0.73827
0.753757
0.761325
0.758493
0.745256
0.722262
0.692379
0.661122
0.632425
0.607564
0.586623
0.567994
0.54885
0.52661
0.497635
0.455951
0.398063
0.334628
0.282374
0.277233
0.261226
0.248924
0.301074
0.399231
0.486622
0.555772
0.613706
0.665811
0.708663
0.742834
0.770632
0.792818
0.807154
0.810589
0.804024
0.788301
0.764661
0.737531
0.709497
0.68243
0.65741
0.633783
0.609622
0.582808
0.549818
0.503786
0.438591
0.365535
0.303282
0.291549
0.293912
0.269821
0.303341
0.395435
0.484485
0.561029
0.631838
0.692919
0.743846
0.785701
0.821891
0.852302
0.875193
0.887681
0.890626
0.883115
0.866616
0.843934
0.817031
0.787473
0.757201
0.726527
0.694563
0.659763
0.619101
0.565659
0.490092
0.404043
0.328021
0.307855
0.335647
0.299528
0.319344
0.401427
0.497406
0.587203
0.668672
0.742091
0.802924
0.855159
0.902203
0.943293
0.976836
1.00047
1.01535
1.01767
1.01005
0.992769
0.967101
0.934352
0.89736
0.857316
0.814228
0.767481
0.714767
0.649616
0.560459
0.457303
0.362311
0.331899
0.399752
0.351278
0.357342
0.438642
0.542664
0.645063
0.741159
0.829132
0.903467
0.968993
1.02922
1.08281
1.1284
1.16434
1.19283
1.20519
1.20528
1.19132
1.16452
1.12623
1.08064
1.02994
0.974494
0.914046
0.84699
0.767514
0.662689
0.539169
0.420156
0.374958
0.514435
0.454718
0.447509
0.530089
0.647173
0.766356
0.87835
0.982369
1.07219
1.15142
1.2244
1.28936
1.34526
1.39051
1.42809
1.4434
1.44079
1.4166
1.37532
1.32359
1.26681
1.20815
1.14755
1.08316
1.01133
0.925123
0.811535
0.672963
0.533115
0.465736
0.728872
0.668333
0.657161
0.73689
0.863074
0.994992
1.11781
1.23051
1.32912
1.41458
1.4923
1.56026
1.61709
1.65914
1.68579
1.67763
1.64212
1.58946
1.52831
1.46392
1.401
1.34246
1.28814
1.23493
1.17713
1.1057
1.00714
0.879777
0.744128
0.662644
1.02653
1.00327
1.01376
1.08757
1.20419
1.32621
1.43779
1.53808
1.62621
1.70055
1.76602
1.81985
1.85738
1.86711
1.84542
1.78407
1.70912
1.62671
1.5463
1.47256
1.4103
1.36037
1.32255
1.29409
1.26884
1.23713
1.18673
1.11292
1.02946
0.979081
1.18803
1.20562
1.25794
1.33812
1.43029
1.52213
1.60594
1.68054
1.74576
1.79824
1.83933
1.86362
1.86522
1.82904
1.75805
1.65649
1.55325
1.45307
1.36384
1.28959
1.23412
1.19688
1.17689
1.17181
1.17922
1.19172
1.19897
1.19498
1.18533
1.1897
0.191716
0.240598
0.262548
0.275324
0.282045
0.282586
0.277877
0.269229
0.257643
0.24411
0.229012
0.213081
0.196122
0.178575
0.159014
0.136344
0.113982
0.0979914
0.0900389
0.0837561
0.0720012
0.0548065
0.035572
0.0303836
0.028673
0.0339972
0.0445094
0.0570463
0.0689386
0.0780708
0.31718
0.398628
0.43911
0.459814
0.463832
0.456226
0.440994
0.420794
0.397168
0.371151
0.342864
0.312774
0.279942
0.243895
0.205039
0.172402
0.154446
0.151957
0.154056
0.150335
0.132344
0.101205
0.0576204
0.0420512
0.0387337
0.0456226
0.0645577
0.0916754
0.133048
0.184777
0.389022
0.489154
0.547062
0.577816
0.585548
0.578265
0.561733
0.538895
0.511302
0.479982
0.44516
0.407387
0.365696
0.319353
0.269231
0.228112
0.206418
0.202465
0.202542
0.195729
0.173485
0.13567
0.0838534
0.0594574
0.0529144
0.0564779
0.0740777
0.106701
0.162646
0.240475
0.429259
0.546477
0.616208
0.654928
0.667224
0.662095
0.64666
0.623908
0.595339
0.561848
0.523723
0.481536
0.434454
0.381689
0.324303
0.277688
0.252244
0.244676
0.241099
0.231008
0.206177
0.165015
0.111212
0.0813383
0.069175
0.0670457
0.0808663
0.115247
0.182913
0.279382
0.454393
0.578649
0.66098
0.706163
0.723844
0.722233
0.709295
0.688057
0.660003
0.625935
0.586196
0.541353
0.490784
0.433585
0.371202
0.321062
0.292498
0.28113
0.273862
0.261153
0.234978
0.192365
0.13945
0.106953
0.0881975
0.0789856
0.0877611
0.120439
0.195667
0.307012
0.466484
0.591529
0.684518
0.737843
0.76169
0.765139
0.755788
0.737123
0.710598
0.676992
0.636711
0.590429
0.537717
0.47722
0.411477
0.359305
0.328406
0.313614
0.303237
0.288365
0.261794
0.218696
0.167781
0.134488
0.109952
0.0934524
0.0960101
0.124965
0.203794
0.325274
0.465624
0.589397
0.68743
0.752605
0.784468
0.794531
0.789624
0.774371
0.750161
0.717789
0.677812
0.631043
0.577176
0.514158
0.446568
0.393635
0.361125
0.343369
0.330257
0.313828
0.287574
0.245115
0.196876
0.162353
0.133228
0.11076
0.10681
0.130704
0.208567
0.336168
0.458437
0.580313
0.681183
0.751546
0.79542
0.812876
0.813199
0.801986
0.780705
0.75019
0.711226
0.66473
0.610413
0.545807
0.477773
0.425177
0.391621
0.371316
0.35575
0.338202
0.312769
0.271825
0.225769
0.189746
0.157048
0.130015
0.120056
0.13854
0.211583
0.341413
0.445381
0.565482
0.668956
0.744489
0.794315
0.822007
0.82845
0.821632
0.803735
0.775588
0.738245
0.692724
0.638458
0.573398
0.506317
0.45494
0.420719
0.398116
0.380319
0.361908
0.337773
0.298393
0.25392
0.216369
0.180909
0.150203
0.135083
0.148041
0.214486
0.342845
0.427865
0.546027
0.652259
0.732764
0.788466
0.82223
0.836663
0.834678
0.820492
0.795128
0.759945
0.71596
0.662386
0.598124
0.533367
0.48381
0.449101
0.424313
0.404422
0.385253
0.362504
0.324829
0.28118
0.242166
0.204521
0.170783
0.150902
0.158671
0.217816
0.342023
0.408394
0.524002
0.632448
0.717691
0.778939
0.818406
0.839379
0.842407
0.832075
0.809835
0.777295
0.735264
0.6833
0.621169
0.559909
0.512527
0.477333
0.450346
0.428455
0.408562
0.386924
0.350815
0.307576
0.26718
0.227734
0.19155
0.167054
0.170096
0.221684
0.339344
0.386806
0.500758
0.610856
0.70046
0.766818
0.811556
0.837367
0.845836
0.8395
0.820672
0.791067
0.751646
0.702305
0.643675
0.586811
0.541698
0.505877
0.476615
0.452771
0.432242
0.411231
0.376206
0.333236
0.291452
0.250443
0.212157
0.183564
0.181972
0.226344
0.336065
0.363175
0.476588
0.588875
0.682079
0.753089
0.802584
0.832965
0.845822
0.843752
0.828451
0.802224
0.766148
0.720521
0.666703
0.614822
0.571815
0.535135
0.503518
0.477756
0.456859
0.43578
0.40123
0.358376
0.315228
0.272903
0.232642
0.200637
0.194355
0.231869
0.333039
0.338105
0.451824
0.566985
0.663719
0.738565
0.792307
0.826915
0.843913
0.845736
0.834147
0.811783
0.779835
0.739047
0.691164
0.644513
0.603265
0.56547
0.531523
0.503895
0.482801
0.460991
0.426417
0.383354
0.339059
0.295523
0.25322
0.218206
0.20779
0.238464
0.330986
0.312727
0.426951
0.545593
0.645869
0.723879
0.781405
0.819885
0.840789
0.846428
0.83874
0.820783
0.793775
0.758906
0.71778
0.676311
0.636393
0.597308
0.561167
0.531875
0.510473
0.487345
0.452232
0.408886
0.363572
0.318661
0.274284
0.236367
0.222027
0.246377
0.330797
0.288703
0.402533
0.524959
0.628908
0.709824
0.770446
0.812466
0.837097
0.846632
0.843243
0.830296
0.809028
0.781003
0.747075
0.710532
0.671587
0.631211
0.593141
0.562738
0.540554
0.51537
0.479417
0.435711
0.389486
0.342999
0.296439
0.255414
0.236952
0.255759
0.33208
0.268184
0.379396
0.505318
0.61302
0.696702
0.759902
0.805193
0.833448
0.846996
0.8488
0.84147
0.82669
0.806097
0.779464
0.747559
0.709406
0.667972
0.628408
0.597915
0.573896
0.54591
0.508846
0.464667
0.417598
0.369393
0.320227
0.275721
0.252831
0.266706
0.334957
0.253555
0.358796
0.487038
0.598348
0.684733
0.750387
0.798592
0.830458
0.848559
0.856616
0.855487
0.847846
0.835203
0.81546
0.788005
0.750722
0.708763
0.66851
0.638146
0.611416
0.580147
0.54162
0.496758
0.448838
0.398792
0.346414
0.297838
0.269929
0.279577
0.339709
0.246122
0.34225
0.470645
0.585062
0.67408
0.742206
0.793202
0.828748
0.852878
0.867561
0.873709
0.873706
0.869339
0.856046
0.832911
0.7969
0.755251
0.716089
0.684711
0.654097
0.619525
0.579155
0.533261
0.484347
0.432279
0.375942
0.322377
0.288417
0.294242
0.347054
0.246302
0.331317
0.45675
0.573355
0.664906
0.735665
0.789626
0.82897
0.861111
0.883061
0.897237
0.905782
0.909971
0.902731
0.883923
0.850022
0.810148
0.772443
0.739015
0.704109
0.666058
0.623371
0.575934
0.525661
0.471174