/*--------------------------------*- C++ -*----------------------------------*\
  =========                 |
  \\      /  F ield         | OpenFOAM: The Open Source CFD Toolbox
   \\    /   O peration     | Website:  https://openfoam.org
    \\  /    A nd           | Version:  12
     \\/     M anipulation  |
\*---------------------------------------------------------------------------*/
FoamFile
{
    format      ascii;
    class       volScalarField;
    location    "750/air";
    object      nut;
}
// * * * * * * * * * * * * * * * * * * * * * * * * * * * * * * * * * * * * * //

dimensions      [0 2 -1 0 0 0 0];

internalField   nonuniform List<scalar> 
243000
(
0.000156912
0.000162674
0.00016219
0.000158914
0.000153826
0.00014756
0.000140695
0.00013372
0.000126977
0.000120772
0.000115252
0.000110655
0.00010721
0.000105174
0.000104407
0.000104368
0.00010449
0.000104518
0.000104386
0.000104081
0.000103613
0.000103021
0.000102573
0.000102147
0.000100391
9.56907e-05
8.52884e-05
8.46694e-05
0.000101807
0.000107549
0.000580104
0.000605228
0.000605226
0.00059223
0.000572041
0.000548022
0.000522282
0.000496488
0.000471735
0.000448842
0.000428292
0.000410761
0.000396631
0.0003859
0.000377304
0.000369241
0.000361141
0.000353723
0.000347375
0.000342255
0.000338271
0.000335318
0.000333718
0.000333754
0.000332331
0.000325342
0.000305615
0.000302437
0.000372401
0.000419943
0.000746452
0.000813116
0.000850964
0.000867018
0.000869987
0.000864029
0.000851955
0.000835961
0.000817613
0.000798243
0.000778845
0.000760767
0.000744744
0.000730657
0.000716062
0.000698171
0.000676597
0.000653654
0.000630863
0.000609017
0.000588263
0.000568547
0.000550177
0.000533051
0.000514356
0.000489206
0.000450862
0.000423203
0.000478421
0.000544423
0.000775458
0.000852187
0.000897357
0.000917984
0.00092427
0.000920548
0.000910173
0.000895416
0.000877915
0.000859085
0.00083997
0.000821971
0.000805715
0.000790978
0.000775078
0.000755053
0.000730639
0.000704526
0.000678565
0.000653791
0.000630462
0.000608489
0.000587874
0.000568106
0.000547324
0.000521706
0.000485575
0.000452052
0.000482821
0.000570289
0.000787233
0.000870334
0.000924725
0.000950074
0.000960129
0.000959255
0.000951219
0.000938386
0.00092244
0.000904876
0.000886763
0.000869528
0.000853702
0.000839037
0.000822625
0.000801443
0.000775345
0.000747191
0.000719067
0.000692187
0.000666915
0.000643168
0.000620755
0.000598856
0.000576029
0.000549572
0.000514671
0.000477279
0.000483664
0.000585651
0.000785889
0.000874216
0.000937054
0.000969333
0.000983341
0.000985739
0.00098039
0.000969873
0.000955888
0.000940007
0.000923309
0.000907249
0.00089226
0.000878081
0.000861611
0.000839857
0.000812823
0.000783395
0.000753821
0.000725454
0.000698757
0.000673657
0.000649859
0.000626334
0.000601753
0.000574422
0.000540199
0.000500404
0.0004869
0.00059205
0.000776822
0.000869135
0.000937842
0.000978601
0.000997201
0.00100323
0.00100081
0.00099285
0.000981078
0.000967131
0.000952108
0.000937488
0.000923597
0.000910176
0.000893936
0.000871988
0.000844554
0.000814392
0.000783897
0.000754515
0.000726795
0.000700696
0.000675859
0.000651121
0.000625133
0.000597036
0.000563189
0.000522678
0.000497027
0.000589055
0.000763448
0.000858004
0.00093173
0.000979073
0.00100373
0.00101375
0.00101449
0.00100925
0.000999854
0.000988
0.000974818
0.000961809
0.000949205
0.000936713
0.000920908
0.000899053
0.00087158
0.000841107
0.000810091
0.000780066
0.000751642
0.000724834
0.000699236
0.000673613
0.000646553
0.000617859
0.000584235
0.000543703
0.000510479
0.000578582
0.000749196
0.000842456
0.000920574
0.000973663
0.00100371
0.00101861
0.00102281
0.00102041
0.0010135
0.00100385
0.000992619
0.00098133
0.000970137
0.000958698
0.000943457
0.000921928
0.000894682
0.000864237
0.000833019
0.000802642
0.000773777
0.000746491
0.000720366
0.000694118
0.000666291
0.000637181
0.000603732
0.000563612
0.000524538
0.000566593
0.000732762
0.000826566
0.000905428
0.000963578
0.00099936
0.00101836
0.00102673
0.0010273
0.00102296
0.00101558
0.00100637
0.000996877
0.000987178
0.000976854
0.000962286
0.000941269
0.000914452
0.000884315
0.000853151
0.000822664
0.000793575
0.000766016
0.000739555
0.000712892
0.000684565
0.000655215
0.000621959
0.00058236
0.000540738
0.000556255
0.000713308
0.000809892
0.000888156
0.00094993
0.000991237
0.00101466
0.0010266
0.00103062
0.00102893
0.00102387
0.00101674
0.00100909
0.00100091
0.000991737
0.000977931
0.000957578
0.000931361
0.000901726
0.000870865
0.000840467
0.000811347
0.000783684
0.000757051
0.000730142
0.000701546
0.000672114
0.000639154
0.00060002
0.000556496
0.000549395
0.000689822
0.000791717
0.00087137
0.000933691
0.00097982
0.00100805
0.00102369
0.00103086
0.00103197
0.00102928
0.00102425
0.00101844
0.0010118
0.00100378
0.000990809
0.000971243
0.000945774
0.000916798
0.000886449
0.000856327
0.000827335
0.000799719
0.000773053
0.000746044
0.000717372
0.000687996
0.000655327
0.000616676
0.000572413
0.00054721
0.000658465
0.000771181
0.000854285
0.000917315
0.000965694
0.000998962
0.00101832
0.00102868
0.00103253
0.00103223
0.00102929
0.00102532
0.00102019
0.00101333
0.00100125
0.000982572
0.000957981
0.000929804
0.000900118
0.000870468
0.000841748
0.000814312
0.00078774
0.000760757
0.000732172
0.000702972
0.0006706
0.000632518
0.000588054
0.000552812
0.000621459
0.000747049
0.000836224
0.00090111
0.000949719
0.000987658
0.00101085
0.00102438
0.00103098
0.00103307
0.00103219
0.00103004
0.00102637
0.00102067
0.00100953
0.000991823
0.000968223
0.000940973
0.000912078
0.000883044
0.000854753
0.000827622
0.000801267
0.000774426
0.000746064
0.000717142
0.000685102
0.000647587
0.000603227
0.000562146
0.000586177
0.000716164
0.000816532
0.000884747
0.000934613
0.000974441
0.0010016
0.0010183
0.00102762
0.00103209
0.00103324
0.00103284
0.00103061
0.00102603
0.00101587
0.000999208
0.000976702
0.000950498
0.000922512
0.000894213
0.000866497
0.000839807
0.000813791
0.0007872
0.000759167
0.000730586
0.000698971
0.000661997
0.000617891
0.000572187
0.000568261
0.00067615
0.000794261
0.000867891
0.000919735
0.000959821
0.000990863
0.00101069
0.00102268
0.00102948
0.00103265
0.00103394
0.0010331
0.00102961
0.00102046
0.00100492
0.000983599
0.000958549
0.000931585
0.000904132
0.000877106
0.000851
0.000825452
0.000799218
0.000771598
0.000743453
0.000712304
0.000675858
0.000632141
0.000584105
0.000577928
0.000634911
0.000766429
0.000850168
0.000904914
0.000945807
0.000978951
0.0010018
0.00101637
0.00102544
0.00103058
0.00103351
0.00103402
0.0010316
0.00102349
0.00100913
0.000989077
0.000965283
0.000939445
0.000912944
0.000886724
0.000861312
0.000836369
0.000810621
0.000783481
0.000755835
0.000725197
0.000689281
0.000646027
0.000596755
0.000600537
0.000604425
0.000733438
0.000830663
0.000890009
0.000932101
0.000966106
0.000991835
0.00100889
0.00102014
0.00102717
0.0010317
0.0010335
0.00103215
0.00102511
0.00101199
0.000993303
0.000970863
0.00094625
0.0009208
0.000895491
0.00087089
0.000846683
0.000821552
0.000794939
0.000767842
0.000737759
0.000702375
0.000659577
0.00060949
0.000625392
0.000596548
0.000697672
0.000808212
0.000874908
0.000918701
0.000953054
0.000980997
0.00100039
0.00101372
0.00102257
0.00102862
0.00103167
0.0010314
0.00102547
0.00101366
0.000996431
0.000975444
0.000952158
0.000927862
0.000903571
0.000879892
0.000856538
0.000832162
0.000806109
0.000779617
0.000750116
0.00071526
0.000672887
0.000622239
0.000651921
0.0006126
0.000665204
0.000783324
0.000859204
0.000905584
0.000940467
0.000969439
0.000991003
0.0010063
0.00101687
0.00102438
0.00102864
0.00102947
0.00102469
0.00101427
0.000998603
0.000979178
0.000957333
0.000934297
0.000911126
0.000888466
0.000866071
0.000842594
0.000817122
0.000791269
0.000762392
0.000728063
0.000686069
0.000635236
0.000678738
0.000636165
0.000643754
0.000757066
0.000842891
0.000892754
0.000928281
0.000957296
0.000980772
0.000997913
0.00101014
0.00101905
0.00102449
0.00102643
0.00102289
0.00101396
0.000999964
0.000982205
0.000961925
0.00094027
0.000918314
0.000896759
0.00087541
0.00085296
0.000828102
0.000802922
0.000774689
0.000740888
0.000699197
0.000648291
0.000704969
0.000660597
0.000637234
0.000731414
0.000826199
0.000880255
0.000916438
0.00094526
0.000969693
0.000988503
0.00100231
0.00101258
0.0010192
0.0010223
0.00102009
0.00101277
0.00100054
0.000984609
0.000966034
0.000945897
0.000925261
0.000904881
0.000884639
0.000863315
0.000839133
0.000814661
0.000787106
0.000753804
0.00071233
0.000661327
0.00073033
0.000685053
0.000643591
0.000709224
0.000809714
0.000868163
0.000904879
0.000933703
0.000957803
0.000977968
0.000993213
0.00100477
0.0010126
0.00101689
0.00101615
0.00101058
0.00100025
0.000986351
0.000969626
0.000951148
0.000931933
0.000912796
0.0008937
0.000873541
0.000850311
0.000826562
0.000799752
0.000766904
0.000725512
0.000674299
0.000754855
0.000709625
0.000660062
0.000693385
0.000794448
0.000856541
0.000893537
0.000922716
0.000946007
0.000966211
0.000982471
0.000995157
0.00100416
0.00100972
0.00101054
0.0010069
0.000998666
0.000986862
0.00097228
0.000955579
0.000937906
0.000920104
0.000902188
0.000883208
0.000861276
0.000838672
0.000812726
0.000780337
0.000738842
0.000687169
0.000779303
0.000733821
0.000678489
0.000684839
0.000781713
0.000845693
0.000882936
0.000912498
0.000935346
0.000954551
0.000970141
0.000983345
0.000993343
0.00100014
0.00100253
0.00100088
0.000994916
0.000985491
0.000973029
0.000958377
0.00094242
0.000926071
0.000909387
0.000891649
0.000872451
0.000851516
0.00082664
0.000794815
0.000752994
0.000700356
0.000804405
0.000756563
0.000696907
0.000683102
0.000773547
0.00083681
0.000874123
0.000903955
0.000926723
0.000945415
0.000960815
0.000973851
0.000984179
0.000991647
0.000995576
0.00099598
0.00099268
0.000986105
0.000976552
0.000964573
0.000950861
0.000936176
0.000920853
0.000904673
0.000887169
0.000867493
0.000843428
0.000811797
0.000769348
0.000714842
0.000831383
0.00078122
0.000717352
0.000689858
0.000772821
0.000832353
0.000869667
0.000900117
0.000923744
0.000942854
0.000958884
0.000972592
0.000983919
0.000992836
0.000998786
0.00100151
0.00100097
0.000997276
0.000990538
0.000981121
0.000969588
0.000956584
0.000942483
0.000927277
0.000910575
0.000891405
0.000867358
0.000835176
0.000791288
0.000733967
0.000869134
0.000817553
0.000752404
0.00072143
0.000793678
0.00084798
0.000885321
0.00091674
0.000942397
0.000962943
0.000980616
0.000995969
0.00100932
0.00102043
0.0010288
0.00103387
0.00103569
0.00103427
0.00102953
0.00102178
0.00101155
0.000999488
0.000985864
0.000970652
0.000953547
0.000933644
0.000908745
0.000875179
0.000828977
0.000767695
0.000959619
0.000917716
0.00086766
0.000849859
0.000901672
0.000948159
0.00098302
0.00101302
0.00103928
0.00106039
0.00107888
0.00109478
0.00110966
0.00112235
0.00113163
0.00113722
0.00113936
0.00113806
0.00113321
0.00112522
0.00111474
0.00110244
0.00108849
0.00107223
0.00105366
0.00103247
0.00100709
0.000974739
0.000930944
0.000872436
0.00128033
0.00126839
0.00125876
0.00126122
0.00128138
0.00130333
0.00131598
0.00132666
0.00133596
0.00134467
0.00135265
0.00135848
0.00136819
0.00137666
0.00138112
0.00138329
0.00138341
0.0013817
0.0013778
0.00137271
0.00136701
0.0013615
0.00135581
0.00134612
0.00133442
0.00132262
0.00130973
0.00129531
0.00127515
0.00124692
0.000187005
0.000199787
0.000201712
0.000199689
0.000194775
0.000187944
0.00018002
0.000171672
0.000163359
0.000155476
0.000148205
0.000141792
0.000136311
0.000131928
0.000128298
0.000124643
0.000120411
0.000115585
0.000110283
0.000104552
9.83573e-05
9.17056e-05
8.54064e-05
8.17114e-05
7.95893e-05
7.80234e-05
8.30996e-05
9.6765e-05
0.000114583
0.000123162
0.000764192
0.000911098
0.000931547
0.000911869
0.000867822
0.000813065
0.000756855
0.000704092
0.000655681
0.000611607
0.000570418
0.000531949
0.00049435
0.000455162
0.00041028
0.000362702
0.000319582
0.000287855
0.000266051
0.000252225
0.000243607
0.000237413
0.000236753
0.000240421
0.000253207
0.000252054
0.000284576
0.000419231
0.000582951
0.000710041
0.0012588
0.00155884
0.00166431
0.00167678
0.0016276
0.00154559
0.00145316
0.00136191
0.00127514
0.00119403
0.00111687
0.00104289
0.00096931
0.00089172
0.000802355
0.000707274
0.000620247
0.000554201
0.000508153
0.000478364
0.000459519
0.000447835
0.000443727
0.000444929
0.000453951
0.000438153
0.000443249
0.000575717
0.000795171
0.00102991
0.00159552
0.00206302
0.00224098
0.00229899
0.00226771
0.00217992
0.00207119
0.00195696
0.00184425
0.00173594
0.00163193
0.00152751
0.00142211
0.00130915
0.00118225
0.00104738
0.000923107
0.000827191
0.000758843
0.000713129
0.000683313
0.000662982
0.000651645
0.000645421
0.000639528
0.000597459
0.000557818
0.00062908
0.000885626
0.00125393
0.00183624
0.00237495
0.0026807
0.00278213
0.00277972
0.00270172
0.00259016
0.00246513
0.00233725
0.00221207
0.00208547
0.0019583
0.00182765
0.00168646
0.00152802
0.00136079
0.00120734
0.00108664
0.000999369
0.000940008
0.000900278
0.000872242
0.000853241
0.000838425
0.000817773
0.000747522
0.000659832
0.000673429
0.000920285
0.00140329
0.0019754
0.00254738
0.00294012
0.00314859
0.00317924
0.00312332
0.00301792
0.0028917
0.0027566
0.00261996
0.00247997
0.00233645
0.00218607
0.00202257
0.00183819
0.00164557
0.00146998
0.00132907
0.0012259
0.00115478
0.00110664
0.00107218
0.00104649
0.00102404
0.00099117
0.000895364
0.000765065
0.000716707
0.000914291
0.00148755
0.00204747
0.00265318
0.00309622
0.0033688
0.00348376
0.00345726
0.00336677
0.0032465
0.00311014
0.00296826
0.00281999
0.00266599
0.00250125
0.00232095
0.00211599
0.00190415
0.0017121
0.00155504
0.00143852
0.00135711
0.00130178
0.00126207
0.00123106
0.00120277
0.00116023
0.00104238
0.000876264
0.000772543
0.000899475
0.00152338
0.0020394
0.00269439
0.0031918
0.00351258
0.00367807
0.00371425
0.00364795
0.0035387
0.00340635
0.00326374
0.0031099
0.00295228
0.00277785
0.00258545
0.00236515
0.00213948
0.00193519
0.00176626
0.00163819
0.00154773
0.00148599
0.00144207
0.00140712
0.00137527
0.00132482
0.00118822
0.00099246
0.000839356
0.000907281
0.0015018
0.00194746
0.00267098
0.00323089
0.00360272
0.00381182
0.00389219
0.00386838
0.00377651
0.00365304
0.00351263
0.00336016
0.00319955
0.00302008
0.0028198
0.00258912
0.00235431
0.0021413
0.00196384
0.001826
0.00172755
0.00165992
0.00161269
0.00157506
0.00154173
0.00148467
0.00133216
0.00111182
0.000914737
0.00092517
0.00143941
0.0017988
0.002577
0.00321686
0.00364701
0.00390207
0.00401688
0.00403426
0.00396778
0.00385651
0.00372157
0.00357289
0.00341069
0.00323219
0.00302715
0.00279096
0.00255109
0.00233229
0.00214874
0.002003
0.00189742
0.00182441
0.00177462
0.00173528
0.0017022
0.00163957
0.0014736
0.00123274
0.00100005
0.000951051
0.00136392
0.00161888
0.00242583
0.00315173
0.00364774
0.00395341
0.00410538
0.00414962
0.00411643
0.00402177
0.00389629
0.00375266
0.00359481
0.00341633
0.003211
0.00297343
0.00273189
0.0025097
0.00232157
0.00217028
0.00205814
0.00198036
0.00192847
0.00188826
0.0018569
0.00178957
0.00161219
0.00135397
0.00109199
0.000981714
0.0012954
0.00142971
0.00224022
0.00302665
0.00360746
0.00396787
0.00416194
0.00423546
0.00422518
0.00415453
0.00404127
0.00390447
0.00375242
0.00357741
0.00337314
0.00313893
0.00289835
0.00267472
0.00248337
0.00232818
0.00221039
0.00212848
0.00207492
0.00203457
0.00200615
0.00193489
0.00174782
0.00147473
0.00118953
0.0010217
0.00124258
0.00125429
0.00203982
0.0028629
0.00352404
0.00395027
0.00419042
0.00429552
0.00431025
0.00425917
0.00416036
0.0040324
0.00388686
0.00371788
0.00351856
0.00328867
0.00305166
0.00282811
0.00263468
0.00247688
0.00235485
0.0022694
0.0022146
0.0021749
0.00215034
0.00207591
0.00188062
0.00159432
0.00128988
0.00107785
0.00121681
0.00111032
0.00183931
0.00267696
0.00340037
0.00390246
0.00419319
0.00433273
0.00437123
0.0043402
0.00425904
0.00413979
0.00400184
0.00384036
0.00364871
0.0034261
0.00319485
0.00297196
0.0027775
0.00261731
0.00249236
0.0024038
0.00234813
0.00230998
0.00228984
0.00221303
0.00201096
0.00171197
0.00138852
0.0011391
0.00121757
0.00100583
0.00164796
0.00248159
0.00324998
0.00382016
0.00417255
0.00434936
0.00441218
0.00440097
0.00433755
0.00423008
0.00410085
0.00394781
0.00376574
0.0035519
0.00332686
0.00310733
0.00291298
0.00275101
0.00262341
0.00253219
0.00247601
0.00244056
0.00242487
0.00234662
0.00213938
0.00182842
0.00148814
0.00120841
0.001228
0.000947725
0.00147295
0.0022868
0.00308441
0.0037126
0.00413058
0.0043476
0.00443649
0.00444466
0.00439841
0.00430806
0.00418628
0.0040427
0.0038714
0.0036672
0.00344909
0.00323465
0.0030415
0.00287818
0.00274815
0.00265476
0.00259845
0.00256719
0.00255529
0.00247674
0.00226629
0.00194532
0.00158996
0.00128784
0.00125015
0.000936543
0.00132444
0.00210035
0.0029133
0.00358859
0.0040642
0.00433073
0.00444655
0.00447444
0.00444459
0.00437049
0.00426156
0.00412712
0.00396682
0.00377273
0.00356193
0.00335385
0.00316212
0.00299728
0.00286601
0.0027713
0.00271504
0.00268867
0.00268006
0.00260284
0.00239156
0.0020633
0.00169461
0.00137407
0.00128095
0.000978689
0.00122223
0.00192897
0.00274424
0.003456
0.00398233
0.00430143
0.00444436
0.00449295
0.00447942
0.00442096
0.00432726
0.00420215
0.00405237
0.00386849
0.00366657
0.0034623
0.00327288
0.00310843
0.00297605
0.00288093
0.0028247
0.00280303
0.00279719
0.00272332
0.00251414
0.00218168
0.00180171
0.00146293
0.00131938
0.00106336
0.00117495
0.00178068
0.00258381
0.00332187
0.00389116
0.00425818
0.00443346
0.00450084
0.00450495
0.00446077
0.00438103
0.00426675
0.00412698
0.00395281
0.0037589
0.00356014
0.0033734
0.00320968
0.00307625
0.00298123
0.00292529
0.00290692
0.00290297
0.00283492
0.00263136
0.00229841
0.00190996
0.00155466
0.00137337
0.00118115
0.00117169
0.00166344
0.00243794
0.00319218
0.00379589
0.00420274
0.00441404
0.00449966
0.00452126
0.00448786
0.00442257
0.00431687
0.00418694
0.0040219
0.00383578
0.00364261
0.00345896
0.00329643
0.00316264
0.00306699
0.00301219
0.00299439
0.00299073
0.0029319
0.00273805
0.00240949
0.00201708
0.00164839
0.00143985
0.0013201
0.00123374
0.0015878
0.00231208
0.00307207
0.00370087
0.00414023
0.00438487
0.00448601
0.00452398
0.00450645
0.00444661
0.00434441
0.00422406
0.00406669
0.00388752
0.00370006
0.00352
0.0033596
0.00322531
0.00312938
0.00307486
0.00305543
0.00305045
0.00300417
0.00282545
0.00250808
0.00211995
0.00174113
0.00151207
0.00147427
0.00132908
0.00155258
0.00221072
0.00296548
0.00360881
0.00407245
0.00434661
0.00445584
0.00449366
0.00448937
0.00443661
0.00433751
0.00421967
0.00407007
0.00389664
0.0037152
0.0035397
0.00337974
0.00324797
0.00315249
0.0030961
0.00307478
0.00306908
0.00303646
0.00288059
0.00258401
0.00220838
0.00182684
0.00158575
0.00163237
0.00144121
0.00154448
0.00213618
0.00287399
0.00351895
0.00397602
0.00423219
0.00437187
0.00442356
0.00442028
0.00436684
0.0042694
0.00414662
0.00400372
0.00383607
0.00366082
0.0034876
0.00333296
0.00320481
0.00311052
0.00305412
0.0030334
0.00303089
0.00301169
0.00288812
0.00262503
0.00227366
0.00189916
0.00165678
0.00177716
0.0015483
0.00156471
0.00208821
0.00279522
0.00338285
0.00378991
0.00406743
0.00422083
0.00427163
0.00425697
0.00419768
0.00410051
0.00397415
0.00383134
0.00367455
0.00350426
0.00334019
0.00319439
0.00307434
0.00298648
0.00293501
0.00291931
0.00292497
0.00291999
0.00283638
0.00262039
0.00230717
0.00195255
0.00172306
0.00189185
0.00164155
0.00160964
0.00204056
0.00265491
0.00316469
0.00355913
0.00381143
0.00394281
0.00397803
0.00395716
0.00389602
0.00380299
0.00368517
0.00354609
0.00340582
0.00325594
0.00311245
0.00298495
0.00288067
0.00280507
0.00276194
0.00275171
0.00276425
0.00277291
0.00272931
0.00256861
0.00230419
0.00198916
0.00178148
0.00196761
0.00171516
0.00164102
0.0020106
0.00248675
0.0029146
0.00322728
0.0034268
0.00351966
0.00354423
0.00352748
0.00348202
0.00341279
0.00332312
0.00321367
0.0031034
0.00299308
0.002885
0.00278574
0.00270305
0.0026417
0.00260549
0.00259506
0.00260519
0.00261919
0.00260168
0.00249026
0.00227287
0.00200158
0.00182868
0.00202056
0.00177576
0.00166568
0.0019071
0.00226768
0.00258642
0.00281989
0.00298116
0.00306619
0.00310642
0.0031165
0.00310432
0.00307354
0.00302665
0.00296604
0.00290025
0.00283434
0.00276911
0.00270236
0.00264291
0.00259481
0.0025618
0.00254429
0.00254005
0.00254035
0.0025222
0.00243571
0.00224869
0.00200974
0.00184538
0.00211513
0.00190029
0.00175196
0.00185713
0.00212069
0.00236208
0.00255247
0.00270043
0.00279423
0.00285475
0.00289125
0.00290818
0.00290939
0.00289743
0.002875
0.00284533
0.00281042
0.00277087
0.0027267
0.00268467
0.00264783
0.00261966
0.00260019
0.00258711
0.00257491
0.00254822
0.00246813
0.00230606
0.00208745
0.00189046
0.0023127
0.00217301
0.00207277
0.0021124
0.00227804
0.00244126
0.00257462
0.00268262
0.00275701
0.00280791
0.00284229
0.00286188
0.00286723
0.00286066
0.00284205
0.00281798
0.00278792
0.00275938
0.00273037
0.00270359
0.00268128
0.00266554
0.00265573
0.00264816
0.00263749
0.00261353
0.00255799
0.00245445
0.0023007
0.00214259
0.00257609
0.00251334
0.00247537
0.0024936
0.00255534
0.00261889
0.00267265
0.00271855
0.00275169
0.0027726
0.00278624
0.00279171
0.00279404
0.00278839
0.00276939
0.00274679
0.00272334
0.0027031
0.00268707
0.00267756
0.00267456
0.00267745
0.00268433
0.002692
0.0026982
0.00269795
0.00268461
0.00265354
0.00258905
0.00252303
0.000209165
0.000226402
0.000228577
0.000226806
0.000221897
0.000214769
0.00020628
0.000197147
0.00018785
0.000178796
0.000170141
0.000162115
0.000154671
0.000147935
0.000141361
0.000134026
0.00012569
0.000117041
0.000108835
0.000101011
9.24706e-05
8.24469e-05
7.33781e-05
0.000347649
0.00031293
7.73516e-05
9.12968e-05
0.000107483
0.000125638
0.000136651
0.00093308
0.00117718
0.00125698
0.00124587
0.00118787
0.00110916
0.00102695
0.000948595
0.000875679
0.000808015
0.000743215
0.000681058
0.000616842
0.000547926
0.000471601
0.000404065
0.000358972
0.000341462
0.000342191
0.000350572
0.000351572
0.000335648
0.000325564
0.000411292
0.00033334
0.000250091
0.000342357
0.000526999
0.000749232
0.000887016
0.00154598
0.00201866
0.00224409
0.00230203
0.00225114
0.00214127
0.00200976
0.00187443
0.00174159
0.00161304
0.00148632
0.0013613
0.0012298
0.00108695
0.000931181
0.00079247
0.000698127
0.000655838
0.000647953
0.000655735
0.000655031
0.000627054
0.000610931
0.000661635
0.000563006
0.000443817
0.000527989
0.000777245
0.00110307
0.00137393
0.00198098
0.00267837
0.00300971
0.0031392
0.00312097
0.00300967
0.00285882
0.00269151
0.00251917
0.00234597
0.00217121
0.00199413
0.00180413
0.00159522
0.00137126
0.00117433
0.00103872
0.000972162
0.000951963
0.000953914
0.000948796
0.000915142
0.00088938
0.000910253
0.000790842
0.000626987
0.000649483
0.000890974
0.00131502
0.00176839
0.00233155
0.00312359
0.00360574
0.00379287
0.00381538
0.00371829
0.00356474
0.00338157
0.00318465
0.00298071
0.00277186
0.00255148
0.00230958
0.00204882
0.00176938
0.00152787
0.00136078
0.0012736
0.00124211
0.0012387
0.00123127
0.00119607
0.00116317
0.00115601
0.00101631
0.000810082
0.000752404
0.000958644
0.00145382
0.00206978
0.00256837
0.00339419
0.00398657
0.004299
0.00436513
0.00429615
0.00414907
0.00396127
0.00374976
0.00352561
0.00328912
0.00303429
0.00275538
0.00245157
0.00212813
0.00185366
0.00166352
0.00155912
0.00151716
0.00150894
0.00150117
0.00146808
0.00143086
0.00140067
0.00124187
0.000999921
0.000864798
0.00100128
0.00155016
0.00230671
0.00274046
0.00359123
0.00422936
0.00462749
0.00479538
0.00476449
0.00463208
0.00444807
0.00422904
0.00399142
0.00373303
0.00345596
0.00314777
0.00281003
0.00245356
0.00215597
0.00194945
0.00183054
0.00177883
0.00176584
0.00175881
0.00173019
0.00169176
0.00164412
0.00146768
0.00119615
0.000992583
0.00105675
0.00158432
0.0024841
0.00285799
0.00373068
0.00441541
0.00486119
0.00509388
0.00513653
0.00503134
0.00485568
0.00463557
0.00438912
0.00411719
0.00382351
0.00349504
0.00313037
0.0027517
0.00243932
0.00222143
0.00209035
0.0020291
0.00201112
0.00200514
0.00198233
0.00194636
0.00188516
0.00169273
0.00139691
0.00113585
0.00113171
0.00159672
0.00261338
0.00289819
0.00380716
0.00454285
0.00504231
0.0053173
0.0054156
0.00535675
0.00519517
0.00498017
0.00472896
0.00445054
0.00414296
0.00380348
0.00341939
0.00302814
0.00270776
0.00248184
0.00234109
0.00226998
0.00224648
0.00224152
0.00222538
0.0021963
0.00212258
0.00191568
0.00159966
0.00129358
0.00121161
0.00160673
0.00265292
0.00287178
0.00381252
0.00461381
0.00517361
0.00549443
0.00562558
0.00561588
0.00547714
0.00527121
0.00501974
0.00473835
0.0044252
0.0040768
0.00368314
0.00328785
0.00296485
0.00273333
0.00258442
0.00250306
0.00247338
0.0024689
0.00246014
0.00243949
0.00235437
0.00213455
0.0018018
0.0014598
0.00131104
0.00162083
0.00264336
0.00278124
0.00375679
0.00462516
0.00525424
0.00562846
0.00579587
0.00581002
0.00570793
0.00551538
0.00526935
0.00498775
0.00467552
0.00431898
0.00392725
0.00353504
0.00321349
0.00297804
0.00282164
0.00272968
0.00269301
0.00268817
0.0026873
0.00267369
0.00257814
0.00234721
0.00200088
0.00162965
0.00142029
0.00164428
0.00260749
0.00263411
0.00364414
0.00458174
0.00528429
0.00572183
0.00592997
0.00597097
0.00588968
0.00572012
0.0054838
0.0052055
0.00489597
0.00454141
0.00415561
0.00377308
0.00345585
0.00321745
0.00305375
0.0029508
0.00290631
0.00290008
0.00290745
0.00289707
0.00279158
0.00255151
0.00219448
0.00179953
0.00153342
0.0016815
0.00255974
0.00244592
0.00348143
0.00449134
0.00526885
0.00577563
0.00603092
0.00610212
0.00604358
0.00589269
0.00566709
0.00539689
0.00509302
0.00474764
0.00437274
0.00400446
0.00369336
0.00345245
0.00328099
0.00316734
0.00311379
0.00310516
0.00311884
0.00310762
0.00299253
0.00274542
0.00238068
0.00196619
0.0016486
0.00173578
0.0025119
0.00223751
0.00328075
0.00435957
0.0052173
0.00578919
0.00610075
0.00620617
0.00616912
0.0060371
0.00582581
0.00556742
0.00527232
0.00494114
0.00458195
0.00423068
0.00392656
0.00368323
0.00350351
0.00337916
0.00331538
0.00330343
0.00331936
0.00330313
0.00317888
0.00292696
0.0025577
0.00212856
0.00177191
0.00179977
0.00247467
0.00203214
0.00305786
0.00419495
0.00513347
0.00577332
0.00614071
0.00628506
0.00627113
0.00615698
0.00596852
0.0057208
0.00543882
0.00512503
0.00478553
0.00445192
0.00415493
0.00390911
0.00372073
0.00358516
0.00351037
0.00349398
0.00350651
0.00348079
0.0033482
0.00309395
0.00272366
0.00228513
0.00190043
0.00186031
0.00245889
0.00185483
0.00283059
0.00400825
0.0050229
0.00573358
0.00615405
0.00633962
0.00635259
0.00625813
0.00608948
0.00585976
0.00559538
0.00530064
0.0049843
0.00466689
0.0043766
0.00412813
0.00393072
0.00378294
0.00369739
0.00367364
0.00367625
0.00363661
0.00349734
0.0032437
0.00287621
0.00243366
0.00203258
0.0019353
0.00245814
0.0017229
0.00261735
0.00381153
0.00489254
0.00567299
0.00614659
0.00637359
0.00641592
0.00634324
0.00619516
0.00598661
0.00574111
0.00546642
0.00517341
0.00487192
0.00458765
0.00433626
0.00412935
0.00396822
0.00387182
0.00383595
0.00382226
0.00376599
0.00362187
0.00337257
0.00301227
0.00257136
0.0021665
0.00202982
0.00247275
0.00165176
0.00243311
0.00361723
0.00475013
0.00559542
0.00612209
0.00638675
0.00646034
0.00641398
0.00628233
0.00609952
0.00587558
0.00561712
0.00534738
0.00506043
0.004781
0.00452615
0.00430895
0.00413449
0.00402409
0.00397025
0.00393541
0.00386205
0.00371579
0.00347563
0.00312782
0.00269612
0.00229737
0.00213155
0.00251317
0.00163284
0.00229248
0.00343785
0.00460363
0.00550495
0.00608172
0.0063838
0.00648246
0.00645853
0.00635413
0.0062071
0.00598926
0.0057439
0.00549596
0.00522122
0.00494481
0.00468558
0.00445701
0.00426817
0.00413985
0.00406251
0.00400391
0.00391573
0.00377161
0.00354671
0.00321815
0.00280333
0.00241836
0.0022302
0.0025912
0.00172224
0.00221583
0.00328361
0.00446028
0.00540512
0.00602577
0.00636267
0.00648449
0.00648139
0.00641509
0.00627219
0.00607094
0.00583628
0.00559953
0.00533675
0.00506089
0.0047963
0.00455376
0.00434906
0.00419923
0.00409659
0.00401465
0.00391744
0.00378148
0.00357905
0.00327792
0.00288755
0.00252338
0.00232565
0.00269076
0.00183892
0.00217234
0.00315868
0.00432544
0.00529804
0.00595261
0.00631978
0.00645802
0.00645832
0.00640886
0.00627965
0.0060968
0.00587169
0.00563501
0.00538213
0.00510459
0.00483379
0.00457354
0.00435357
0.00418339
0.00405863
0.0039591
0.00386042
0.00373965
0.00356719
0.00330204
0.002944
0.00260746
0.00241433
0.00278791
0.00199133
0.00215969
0.00306595
0.00420139
0.00518282
0.00585316
0.00617752
0.00631173
0.00635908
0.00632189
0.00620142
0.00603179
0.00581884
0.00557771
0.00532548
0.00504985
0.0047684
0.00449899
0.00426843
0.00408455
0.0039453
0.00383837
0.00374582
0.00364653
0.00351009
0.00328842
0.00296922
0.00266511
0.00249247
0.00286031
0.00212954
0.00221459
0.00300389
0.00408256
0.00501827
0.00558977
0.00589875
0.00609107
0.00615335
0.0061142
0.00599976
0.00584197
0.00564347
0.00540602
0.00514655
0.00487888
0.00459809
0.00433372
0.00410337
0.00391728
0.00377551
0.00367037
0.00358921
0.0035141
0.00341541
0.00324113
0.00296307
0.00269327
0.00255322
0.00289824
0.00223376
0.00224873
0.00289261
0.00388263
0.00466368
0.00518826
0.00555133
0.00573696
0.00579656
0.00575444
0.00565271
0.00551292
0.00533566
0.00511836
0.00486325
0.00461077
0.00435703
0.00411384
0.00389878
0.00372397
0.00359008
0.00349264
0.00342366
0.00336921
0.00330287
0.00317362
0.00293342
0.00269366
0.00258461
0.00289592
0.00230618
0.0022752
0.00280242
0.0035506
0.00423246
0.00474111
0.00506188
0.00523735
0.00528702
0.00525796
0.00518373
0.00507685
0.00493563
0.00475581
0.0045347
0.00431356
0.00410425
0.00389907
0.00371103
0.00355699
0.00343757
0.00335028
0.00329062
0.00324892
0.00320352
0.00310848
0.00289959
0.0026785
0.00258173
0.00285309
0.0023632
0.0023002
0.00264098
0.00324024
0.00377173
0.00418643
0.00447862
0.00464351
0.00470926
0.00471588
0.00468657
0.00462705
0.00453477
0.00440642
0.00423988
0.00406385
0.00390161
0.00373416
0.00357552
0.00344461
0.00334216
0.00326688
0.00321584
0.00318191
0.00314781
0.00307405
0.00289236
0.00267595
0.00255124
0.0027437
0.00245198
0.00233986
0.00246009
0.00289109
0.00332143
0.00367255
0.00393707
0.004117
0.00421578
0.00426599
0.0042835
0.00427054
0.00422527
0.00414508
0.00403049
0.00389484
0.00375914
0.00361892
0.00349491
0.00339129
0.00330976
0.00325046
0.00321097
0.00318489
0.00315777
0.00309818
0.00294518