/*--------------------------------*- C++ -*----------------------------------*\
  =========                 |
  \\      /  F ield         | OpenFOAM: The Open Source CFD Toolbox
   \\    /   O peration     | Website:  https://openfoam.org
    \\  /    A nd           | Version:  12
     \\/     M anipulation  |
\*---------------------------------------------------------------------------*/
FoamFile
{
    format      ascii;
    class       volScalarField;
    location    "750/air";
    object      p_rgh;
}
// * * * * * * * * * * * * * * * * * * * * * * * * * * * * * * * * * * * * * //

dimensions      [1 -1 -2 0 0 0 0];

internalField   nonuniform List<scalar> 
243000
(
28.4767
28.6845
28.8803
29.0158
29.1283
29.2258
29.3107
29.3869
29.457
29.5197
29.5724
29.6128
29.6149
29.5792
29.4617
29.2534
28.9738
28.6937
28.4583
28.2944
28.1944
28.1484
28.1499
28.1936
28.3131
28.507
28.7743
28.9343
29.0399
29.0579
28.4696
28.6722
28.8788
29.0396
29.1699
29.2692
29.3536
29.4278
29.4946
29.5532
29.6019
29.6381
29.6364
29.5979
29.4799
29.2747
28.9996
28.7223
28.4863
28.3189
28.2136
28.1618
28.1565
28.1988
28.3177
28.5091
28.7652
28.8934
28.9926
29.0247
28.4113
28.6033
28.8149
28.9895
29.1332
29.2445
29.339
29.421
29.4937
29.5625
29.615
29.6528
29.6531
29.6156
29.4987
29.2962
29.0243
28.7495
28.5127
28.342
28.2318
28.1747
28.1634
28.2031
28.3184
28.4977
28.7322
28.8965
28.9879
29.0136
28.3343
28.5077
28.7161
28.8965
29.0547
29.1815
29.2918
29.3882
29.4726
29.5493
29.6076
29.65
29.655
29.6198
29.5037
29.3039
29.0333
28.7591
28.5233
28.3534
28.2434
28.1853
28.1703
28.2082
28.3202
28.4919
28.7062
28.9014
28.9906
29.0272
28.2656
28.4112
28.6059
28.7865
28.9569
29.0985
29.2249
29.3363
29.4338
29.5204
29.5864
29.6347
29.6454
29.6124
29.4966
29.2995
29.029
28.7562
28.5221
28.3545
28.2477
28.193
28.1763
28.2136
28.3232
28.4921
28.6944
28.9006
29.004
29.0535
28.2185
28.3271
28.4987
28.6754
28.8541
29.0089
29.1504
29.2765
29.3871
29.4843
29.5585
29.6133
29.6293
29.5984
29.4827
29.2881
29.0202
28.7496
28.5181
28.353
28.2489
28.1985
28.1821
28.2198
28.3276
28.4936
28.6893
28.8935
29.0258
29.0834
28.1968
28.2645
28.4059
28.5708
28.7522
28.9169
29.071
29.2102
29.3331
29.4407
29.5232
29.5844
29.6051
29.576
29.4597
29.2675
29.0053
28.7377
28.5099
28.3483
28.2469
28.1994
28.1869
28.2265
28.3332
28.4965
28.6904
28.8903
29.0509
29.1122
28.203
28.2278
28.3379
28.4812
28.658
28.8275
28.9907
29.1405
29.2742
29.3913
29.4813
29.5482
29.5729
29.5451
29.4277
29.2377
28.9815
28.7203
28.4971
28.3401
28.2421
28.1981
28.191
28.2332
28.3395
28.5008
28.6937
28.8927
29.073
29.1371
28.2364
28.2169
28.2955
28.4133
28.5768
28.7454
28.9134
29.0707
29.2129
29.338
29.4343
29.5059
29.5335
29.5061
29.3871
29.1992
28.9492
28.6975
28.4797
28.3282
28.2347
28.1955
28.1942
28.2396
28.3465
28.5063
28.6982
28.8966
29.0895
29.1628
28.289
28.2376
28.2772
28.3666
28.5124
28.6737
28.8421
29.0032
29.1513
29.2824
29.3835
29.4584
29.4879
29.4596
29.3386
29.1527
28.9089
28.6669
28.4578
28.3124
28.2247
28.1912
28.1964
28.2455
28.3538
28.5128
28.704
28.9018
29.103
29.1888
28.3551
28.2762
28.2837
28.3399
28.4646
28.6148
28.7794
28.9403
29.0914
29.2262
29.3302
29.407
29.437
29.4066
29.2831
29.0991
28.8614
28.6292
28.4302
28.293
28.212
28.1837
28.1974
28.2509
28.3613
28.5202
28.7108
28.9089
29.1148
29.218
28.4308
28.3271
28.3201
28.3324
28.4341
28.5673
28.7265
28.884
29.0349
29.1711
29.2758
29.3529
29.3819
29.3481
29.2217
29.0394
28.8077
28.5849
28.3962
28.2682
28.1949
28.1725
28.1972
28.2554
28.3687
28.5283
28.7185
28.9178
29.1252
29.2495
28.507
28.3913
28.3692
28.3555
28.4199
28.5326
28.6818
28.835
28.9831
29.1184
29.2218
29.2973
29.3238
29.2852
29.1556
28.9747
28.7487
28.535
28.3564
28.2379
28.1729
28.1573
28.1939
28.2589
28.376
28.5367
28.727
28.9279
29.1357
29.2818
28.5724
28.468
28.4284
28.394
28.4199
28.5114
28.6462
28.7934
28.9366
29.0692
29.1692
29.2415
29.2638
29.2192
29.0861
28.9063
28.6855
28.48
28.3111
28.2025
28.1454
28.1377
28.1872
28.2613
28.3826
28.5453
28.7361
28.9389
29.1486
29.31
28.6247
28.5529
28.4959
28.4428
28.4452
28.5023
28.6202
28.7588
28.8964
29.0239
29.119
29.1865
29.2031
29.1514
29.0145
28.8353
28.6189
28.4208
28.2607
28.1615
28.1122
28.1135
28.1768
28.2623
28.3885
28.5537
28.7454
28.95
29.1616
29.3318
28.6537
28.6335
28.5699
28.4973
28.4794
28.5027
28.6038
28.7314
28.8631
28.9834
29.0725
29.1335
29.1429
29.0834
28.9423
28.7629
28.55
28.358
28.2055
28.1147
28.0726
28.084
28.1617
28.2611
28.3931
28.5615
28.7548
28.9609
29.1741
29.3491
28.6467
28.6963
28.6456
28.5565
28.5197
28.5217
28.5961
28.7113
28.8356
28.9484
29.0304
29.0836
29.084
29.0165
28.8707
28.6903
28.4793
28.2919
28.1459
28.0619
28.0262
28.048
28.1402
28.2552
28.396
28.5683
28.7639
28.9717
29.1864
29.3647
28.6315
28.7311
28.7127
28.6179
28.5617
28.5465
28.595
28.6982
28.8142
28.9198
28.9936
29.0381
29.0278
28.9522
28.8011
28.6185
28.4073
28.2228
28.0816
28.0029
27.9726
28.0042
28.11
28.2429
28.3967
28.5737
28.7723
28.9818
29.1984
29.3786
28.6104
28.733
28.7689
28.6749
28.6033
28.5741
28.6057
28.692
28.7989
28.8983
28.963
28.998
28.9759
28.8919
28.7348
28.548
28.3351
28.1511
28.0125
27.9372
27.911
27.9511
28.0691
28.2219
28.3917
28.5768
28.7793
28.991
29.2095
29.3913
28.5794
28.7153
28.8043
28.7225
28.6411
28.6028
28.6248
28.6913
28.7901
28.8832
28.9389
28.964
28.9298
28.8369
28.6728
28.4797
28.2635
28.0773
27.9385
27.8645
27.8403
27.8868
28.0166
28.1891
28.3774
28.5768
28.7841
28.9989
29.2195
29.4044
28.5427
28.6898
28.8106
28.7583
28.6721
28.6305
28.6458
28.7019
28.7883
28.8746
28.9214
28.9363
28.8906
28.7882
28.6156
28.4151
28.193
28.0016
27.8588
27.7833
27.7594
27.8093
27.9501
28.1397
28.3501
28.5674
28.7857
29.0048
29.2277
29.4164
28.4978
28.6575
28.7927
28.782
28.6959
28.6565
28.6697
28.7241
28.8011
28.8745
28.9134
28.9167
28.8597
28.747
28.5649
28.3551
28.1246
27.9244
27.7728
27.6929
27.6669
27.7172
27.8673
28.069
28.3051
28.5443
28.7793
29.0077
29.2335
29.4263
28.4437
28.6142
28.76
28.7912
28.7135
28.6807
28.6972
28.7532
28.8263
28.8921
28.919
28.9097
28.8411
28.7173
28.5243
28.3027
28.0616
27.8479
27.6825
27.5937
27.563
27.6105
27.7667
27.9799
28.2367
28.5021
28.7588
29.0044
29.2361
29.4329
28.3764
28.5587
28.7161
28.7786
28.7233
28.7031
28.7299
28.7904
28.8633
28.923
28.9386
28.9191
28.8432
28.7045
28.499
28.2631
28.0068
27.7737
27.5901
27.4875
27.4494
27.4897
27.6469
27.8691
28.1392
28.4315
28.7155
28.9838
29.2305
29.435
28.2995
28.497
28.6652
28.7474
28.7259
28.7254
28.7697
28.8393
28.9143
28.9697
28.9764
28.9482
28.8626
28.7127
28.4926
28.2405
27.9666
27.7119
27.5069
27.3848
27.3353
27.3632
27.5141
27.7404
28.0206
28.3287
28.6442
28.9419
29.2104
29.4314
28.1958
28.4165
28.5994
28.699
28.7222
28.7533
28.8211
28.9031
28.9827
29.0355
29.0358
29.0002
28.9052
28.7429
28.5081
28.2377
27.9465
27.6677
27.436
27.2872
27.2198
27.2286
27.3641
27.5855
27.8696
28.191
28.5257
28.8534
29.1485
29.3964
28.0962
28.3424
28.5413
28.6508
28.7308
28.7966
28.8926
28.9878
29.0731
29.1252
29.1218
29.0801
28.9766
28.8026
28.5533
28.2661
27.9518
27.6504
27.3938
27.2161
27.1267
27.1146
27.2261
27.4343
27.7155
28.0455
28.3981
28.753
29.0772
29.3574
27.8565
28.172
28.4262
28.5827
28.7245
28.849
28.9775
29.0874
29.1769
29.229
29.2227
29.1735
29.0593
28.8716
28.6051
28.298
27.9548
27.628
27.3372
27.1196
26.9909
26.9502
27.0265
27.2051
27.4694
27.7958
28.1573
28.5331
28.8839
29.208
27.8699
28.2168
28.4761
28.6723
28.8788
29.0381
29.1742
29.2778
29.3593
29.4094
29.4034
29.3482
29.2236
29.0247
28.7465
28.4308
28.0801
27.7455
27.4473
27.2221
27.0876
27.0344
27.089
27.2492
27.508
27.8296
28.1896
28.5646
28.9129
29.2478
26.783
27.2779
27.6774
28.0422
28.3995
28.6478
28.8448
28.9964
29.1063
29.1637
29.1494
29.0829
28.9421
28.7234
28.4149
28.0626
27.6686
27.281
26.9208
26.6205
26.4109
26.2892
26.2895
26.3855
26.5777
26.8422
27.1657
27.5204
27.8726
28.2217
27.8318
27.8929
28.0093
28.093
28.2023
28.3272
28.4677
28.6159
28.7602
28.8945
29.0052
29.0926
29.13
29.1124
28.9983
28.7981
28.5437
28.3183
28.1534
28.0625
28.0231
28.0215
28.0155
28.0418
28.1451
28.3394
28.5734
28.7741
28.8749
28.8112
27.8161
27.8751
27.9962
28.0916
28.221
28.3605
28.5105
28.6604
28.8021
28.932
29.0374
29.1192
29.1512
29.1297
29.0147
28.8174
28.5672
28.3445
28.1783
28.0834
28.0384
28.0322
28.0226
28.0472
28.1489
28.3329
28.5543
28.7314
28.8341
28.7934
27.794
27.8463
27.9633
28.0668
28.2028
28.3475
28.5019
28.6555
28.7999
28.9321
29.0408
29.1246
29.1548
29.1314
29.0136
28.8151
28.5635
28.341
28.1749
28.081
28.0374
28.0322
28.0253
28.053
28.153
28.326
28.5439
28.714
28.8273
28.7877
27.7666
27.8111
27.9199
28.0301
28.1725
28.3235
28.4837
28.6421
28.7905
28.9257
29.0364
29.1218
29.1521
29.1266
29.0066
28.8093
28.5576
28.3361
28.171
28.0786
28.0363
28.032
28.0279
28.0605
28.1594
28.3222
28.5275
28.7061
28.8317
28.7999
27.7407
27.7772
27.874
27.9872
28.1342
28.2906
28.4564
28.6197
28.7723
28.9109
29.0241
29.11
29.139
29.1116
28.9888
28.7925
28.5444
28.3247
28.1619
28.0722
28.0323
28.0292
28.0295
28.0684
28.167
28.3235
28.5171
28.7076
28.8362
28.8273
27.7176
27.749
27.8311
27.9434
28.0929
28.2535
28.4239
28.5918
28.7484
28.8902
29.0055
29.0903
29.1183
29.0891
28.9628
28.7676
28.5234
28.3087
28.1492
28.063
28.0255
28.0243
28.0306
28.0768
28.1758
28.3268
28.5154
28.7081
28.8431
28.8622
27.7034
27.7292
27.7961
27.9031
28.0527
28.2157
28.3894
28.561
28.7209
28.8655
28.9811
29.0649
29.0917
29.0604
28.93
28.7359
28.4959
28.2878
28.1333
28.051
28.0162
28.018
28.0314
28.0854
28.1855
28.3318
28.517
28.7086
28.8556
28.8983
27.7129
27.72
27.7727
27.8708
28.0167
28.1799
28.3553
28.5293
28.6917
28.8384
28.9529
29.0355
29.0605
29.0263
28.8917
28.6987
28.4631
28.262
28.1134
28.036
28.0047
28.0107
28.0323
28.0942
28.1955
28.3382
28.5206
28.7117
28.87
28.933
27.7438
27.7238
27.7611
27.849
27.9875
28.1483
28.3236
28.4986
28.6624
28.8101
28.9227
29.0034
29.026
28.988
28.849
28.657
28.4259
28.2322
28.0902
28.0183
27.9912
28.0026
28.0334
28.1031
28.2059
28.3459
28.5258
28.7167
28.8832
28.9668
27.7946
27.7487
27.762
27.8383
27.9671
28.1227
28.2959
28.4704
28.6342
28.7819
28.8917
28.9698
28.9891
28.9463
28.8029
28.6119
28.3853
28.1989
28.0639
27.9981
27.9759
27.9936
28.0344
28.112
28.2164
28.3548
28.5325
28.7232
28.8961
28.9982
27.861
27.7943
27.7878
27.8378
27.9567
28.1044
28.2734
28.4458
28.6084
28.7553
28.8611
28.9356
28.9508
28.9024
28.7544
28.5645
28.342
28.1629
28.0351
27.9756
27.9589
27.9837
28.0356
28.1208
28.2272
28.3648
28.5407
28.7314
28.9094
29.0245
27.9425
27.8599
27.8342
27.8591
27.9557
28.0942
28.2571
28.4257
28.5858
28.7308
28.8319
28.9019
28.9118
28.8573
28.7047
28.5157
28.2971
28.1248
28.0039
27.9507
27.9402
27.9728
28.0366
28.1295
28.2382
28.3758
28.5502
28.7412
28.9231
29.0479
28.0325
27.9403
27.9004
27.9006
27.9716
28.0921
28.2475
28.4109
28.5672
28.7092
28.8051
28.8698
28.873
28.812
28.6549
28.4664
28.2512
28.0851
27.9708
27.9237
27.9199
27.9616
28.0376
28.1378
28.2494
28.3878
28.5611
28.7524
28.9377
29.0718
28.1274
28.0322
27.9811
27.9593
28.007
28.1039
28.2445
28.4017
28.5532
28.6913
28.7817
28.8401
28.8352
28.7675
28.606
28.4177
28.2052
28.0443
27.9358
27.8943
27.898
27.9497
28.0382
28.1456
28.2606
28.4005
28.5731
28.7647
28.9534
29.0958
28.2197
28.1335
28.0732
28.0326
28.0549
28.129
28.2518
28.3982
28.5441
28.6774
28.7626
28.8134
28.7996
28.7251
28.5591
28.3705
28.16
28.0032
27.8991
27.8627
27.8743
27.937
28.0384
28.1527
28.2719
28.4139
28.5861
28.7778
28.9699
29.1194
28.2922
28.2392
28.1711
28.1156
28.114
28.1662
28.2717
28.4025
28.5404
28.6682
28.7483
28.7906
28.7673
28.6858
28.5153
28.3259
28.1157
27.962
27.8611
27.8289
27.8482
27.9227
28.0377
28.1587
28.2829
28.4276
28.6001
28.7917
28.9868
29.1424
28.3359
28.3378
28.2704
28.2025
28.1826
28.2117
28.3027
28.419
28.5435
28.6639
28.7391
28.7725
28.7395
28.6508
28.4758
28.2847
28.0725
27.9214
27.822
27.7929
27.8193
27.9056
28.034
28.1634
28.2933
28.4416
28.6148
28.8062
29.0039
29.1643
28.3428
28.4164
28.3673
28.2906
28.2561
28.2653
28.3408
28.4466
28.5587
28.6664
28.7347
28.7598
28.7174
28.6215
28.4415
28.2473
28.0338
27.882
27.782
27.7549
27.7873
27.8862
28.0282
28.1663
28.3029
28.4555
28.6299
28.8213
29.0203
29.185
28.3397
28.4595
28.4534
28.375
28.3307
28.3247
28.3843
28.4823
28.5861
28.6824
28.7374
28.7537
28.7021
28.5988
28.4136
28.215
28.0001
27.8444
27.7414
27.7143
27.7528
27.8662
28.0203
28.1673
28.311
28.4689
28.6453
28.8369
29.036
29.205
28.328
28.4651
28.5247
28.453
28.4034
28.388
28.4339
28.5234
28.6198
28.7059
28.7493
28.7554
28.695
28.5838
28.3928
28.1902
27.9703
27.809
27.7008
27.6732
27.7181
27.843
28.0062
28.1641
28.3169
28.4811
28.6606
28.8529
29.0513
29.2244
28.3116
28.4595
28.5704
28.5211
28.4725
28.4531
28.4897
28.5706
28.6606
28.7374
28.7689
28.7647
28.6985
28.5796
28.3802
28.1723
27.9452
27.7769
27.6634
27.6357
27.6831
27.8098
27.9803
28.1523
28.3196
28.4912
28.6752
28.869
29.0664
29.243
28.2902
28.4482
28.5933
28.5781
28.5369
28.5191
28.5513
28.6246
28.7094
28.7776
28.7975
28.784
28.71
28.585
28.3779
28.1619
27.9267
27.7514
27.6323
27.6015
27.6429
27.7649
27.9397
28.1293
28.3162
28.4979
28.6881
28.8849
29.0812
29.26
28.2641
28.4324
28.589
28.6245
28.5976
28.5874
28.6202
28.6876
28.767
28.8275
28.8373
28.8152
28.7341
28.601
28.3864
28.1608
27.9183
27.7379
27.606
27.5636
27.5911
27.7085
27.8848
28.0922
28.2994
28.4998
28.6979
28.9001
29.0963
29.2761
28.2349
28.4155
28.5793
28.6603
28.6573
28.6613
28.6986
28.7617
28.8353
28.8886
28.8908
28.8619
28.7749
28.6341
28.4118
28.1771
27.9213
27.7286
27.5766
27.5154
27.5306
27.6415
27.8188
28.0417
28.267
28.4896
28.7027
28.9135
29.112
29.2923
28.2078
28.4021
28.5702
28.6912
28.7235
28.7446
28.7887
28.8512
28.921
28.967
28.9621
28.9264
28.8334
28.6849
28.454
28.2078
27.9359
27.7193
27.5466
27.4653
27.4686
27.5704
27.7441
27.9713
28.2195
28.4664
28.7019
28.9245
29.13
29.3107
28.183
28.393
28.5682
28.7354
28.8001
28.8413
28.8967
28.9626
29.0301
29.0695
29.0574
29.0138
28.9124
28.7548
28.5125
28.2532
27.9653
27.7222
27.5307
27.4278
27.4168
27.5041
27.6676
27.892
28.1495
28.422
28.6871
28.9321
29.15
29.3307
28.189
28.4214
28.6209
28.8106
28.8985
28.96
29.0292
29.0987
29.1641
29.1974
29.1787
29.1265
29.0164
28.848
28.5942
28.321
28.0195
27.76
27.5451
27.4221
27.3988
27.4694
27.6153
27.8315
28.0933
28.3803
28.6708
28.9417
29.18
29.3678
28.187
28.4585
28.6951
28.9011
29.0143
29.0969
29.1785
29.2533
29.3197
29.3508
29.3278
29.2687
29.1539
28.9798
28.7194
28.4387
28.1298
27.852
27.6118
27.463
27.4227
27.4795
27.6154
27.8162
28.0692
28.3596
28.6598
28.9477
29.2049
29.4024
28.3859
28.6811
28.9382
29.1503
29.2644
29.3603
29.4544
29.5371
29.6052
29.6362
29.6125
29.5518
29.4316
29.2552
28.9938
28.7136
28.3972
28.1083
27.8502
27.6851
27.6316
27.6782
27.8008
27.9874
28.2259
28.5068
28.8075
29.1091
29.3822
29.6012
29.0228
29.2697
29.4929
29.6804
29.8022
29.9076
30.0032
30.0816
30.139
30.1585
30.1261
30.0573
29.9315
29.7553
29.5011
29.2372
28.9423
28.6826
28.4494
28.3009
28.2592
28.3152
28.4434
28.629
28.8607
29.131
29.4173
29.7009
29.9532
30.1686
27.9475
27.8963
27.9596
27.9654
28.0023
28.0646
28.1618
28.2827
28.4124
28.5459
28.6611
28.7663
28.8165
28.8187
28.7077
28.507
28.2688
28.092
27.9874
27.9567
27.9618
27.9792
27.9681
27.9646
28.0342
28.1663
28.3389
28.5099
28.6213
28.6178
27.921
27.8653
27.9389
27.9572
28.0101
28.0914
28.2
28.3249
28.4552
28.5862
28.6976
28.7982
28.8437
28.8432
28.7319
28.5358
28.2997
28.1219
28.0101
27.9709
27.9714
27.9906
27.9807
27.9675
28.0336
28.1663
28.3245
28.4723
28.5825
28.6037
27.8968
27.841
27.9157
27.9411
28.0017
28.0883
28.2028
28.3354
28.4706
28.605
28.7162
28.8136
28.855
28.8516
28.7367
28.5413
28.3027
28.1244
28.0115
27.9743
27.9736
27.9936
27.9865
27.9716
28.0344
28.169
28.3256
28.4652
28.5721
28.5998
27.8675
27.8124
27.8816
27.9133
27.9839
28.0768
28.1966
28.3332
28.4718
28.6111
28.7241
28.8235
28.8617
28.8576
28.7394
28.5449
28.304
28.1253
28.0106
27.9732
27.9713
27.9924
27.9916
27.9784
28.0386
28.1714
28.3259
28.4638
28.5738
28.6047
27.8384
27.7856
27.8454
27.8815
27.9597
28.0583
28.1832
28.3237
28.4651
28.6064
28.7201
28.8208
28.8589
28.8539
28.732
28.5395
28.2986
28.1208
28.0059
27.9687
27.9653
27.9872
27.9944
27.9865
28.045
28.1755
28.3292
28.4661
28.5781
28.6157
27.8071
27.7618
27.8103
27.8494
27.9326
28.0361
28.1654
28.3095
28.4536
28.597
28.7112
28.8134
28.8492
28.8432
28.7172
28.5272
28.2886
28.1126
27.9983
27.9611
27.9569
27.9797
27.9958
27.9952
28.0534
28.1815
28.3342
28.4713
28.5835
28.6307
27.7749
27.7431
27.7796
27.8205
27.9055
28.0129
28.1457
28.2928
28.4392
28.5843
28.6987
28.8014
28.8342
28.8268
28.6964
28.5091
28.2742
28.1015
27.9885
27.9513
27.9466
27.971
27.9969
28.0038
28.0632
28.1893
28.3401
28.4792
28.5898
28.6494
27.7478
27.7308
27.7552
27.7956
27.8809
27.9908
28.1259
28.2752
28.4231
28.5695
28.6836
28.7855
28.815
28.8057
28.6706
28.4866
28.2555
28.0878
27.9759
27.9398
27.9352
27.962
27.9975
28.0122
28.0742
28.1985
28.3474
28.4886
28.5978
28.6703
27.7423
27.726
27.7394
27.7765
27.8604
27.9712
28.1076
28.2581
28.4068
28.5538
28.667
28.7669
28.7926
28.781
28.6409
28.4607
28.2333
28.0712
27.9612
27.9267
27.9232
27.9536
27.9982
28.0205
28.0862
28.2091
28.3562
28.4988
28.6092
28.6921
27.7524
27.7321
27.7315
27.7648
27.8454
27.9556
28.0917
28.2425
28.3912
28.5382
28.6497
28.7468
28.768
28.7535
28.6083
28.4323
28.2087
28.0524
27.9446
27.9123
27.9109
27.9474
27.999
28.0287
28.0992
28.2212
28.3666
28.5102
28.6232
28.7128
27.771
27.7487
27.7337
27.76
27.8365
27.9446
28.0793
28.2293
28.3772
28.5235
28.6328
28.7263
28.7421
28.724
28.5739
28.4025
28.1823
28.0318
27.9264
27.8965
27.8987
27.9438
27.9998
28.037
28.113
28.2348
28.3786
28.5229
28.6386
28.7318
27.7963
27.7746
27.7509
27.7628
27.8338
27.939
28.0711
28.2193
28.3655
28.5104
28.6167
28.706
28.7157
28.6934
28.5386
28.3721
28.155
28.01
27.9068
27.8794
27.8869
27.9417
28.0002
28.0454
28.1276
28.2498
28.3922
28.5372
28.655
28.7501
27.8288
27.8089
27.7817
27.7831
27.8407
27.9387
28.0674
28.213
28.3568
28.4996
28.6024
28.6867
28.6898
28.6626
28.5034
28.3421
28.1274
27.9874
27.8858
27.8607
27.8749
27.9392
28.0004
28.0542
28.1429
28.2662
28.4073
28.5531
28.6717
28.7685
27.8674
27.8502
27.8225
27.8165
27.8588
27.9497
28.0695
28.2108
28.3514
28.4915
28.5904
28.6692
28.6646
28.6328
28.4694
28.3132
28.1003
27.9646
27.8638
27.8406
27.8621
27.9355
28.0002
28.0632
28.1588
28.2839
28.424
28.5704
28.6887
28.7881
27.9081
27.8976
27.8718
27.8608
27.8902
27.9712
28.0822
28.2148
28.3496
28.4867
28.5812
28.6545
28.641
28.605
28.4374
28.2863
28.0744
27.942
27.8407
27.8191
27.8484
27.9297
27.9992
28.0723
28.1752
28.303
28.4425
28.5892
28.7067
28.8095
27.9469
27.9497
27.9277
27.9125
27.9314
28.0017
28.1043
28.2282
28.3542
28.4854
28.5752
28.6429
28.6203
28.5801
28.4084
28.2622
28.0501
27.9199
27.8168
27.7968
27.8331
27.9202
27.9973
28.0813
28.192
28.3233
28.463
28.6093
28.7271
28.8328
27.9791
28.005
27.9878
27.97
27.9799
28.0388
28.1349
28.2504
28.3679
28.4912
28.5727
28.635
28.6035
28.5593
28.3834
28.2417
28.0285
27.8987
27.7921
27.7737
27.8147
27.9063
27.9939
28.0898
28.2089
28.3446
28.4855
28.6309
28.7501
28.8574
28.0023
28.0576
28.0498
28.0306
28.033
28.0815
28.172
28.2817
28.3907
28.5066
28.5761
28.6319
28.5916
28.5434
28.3634
28.2255
28.0107
27.8788
27.7673
27.7503
27.7923
27.8878
27.9885
28.0973
28.2256
28.3668
28.5094
28.6541
28.7749
28.8834
28.0213
28.1034
28.1104
28.0913
28.0892
28.1291
28.2131
28.3181
28.4212
28.5295
28.5884
28.6343
28.5854
28.5335
28.3494
28.2152
27.9963
27.8606
27.7439
27.7257
27.7651
27.8647
27.9805
28.1034
28.2416
28.3896
28.5347
28.6793
28.8012
28.9101
28.0372
28.1368
28.1681
28.1503
28.1466
28.1809
28.2583
28.3588
28.4568
28.5578
28.6065
28.6431
28.5877
28.5339
28.3425
28.2114
27.9862
27.8452
27.7222
27.698
27.7337
27.8376
27.9687
28.1076
28.2563
28.4124
28.5613
28.7068
28.8284
28.9369
28.0501
28.1532
28.2147
28.2046
28.2031
28.2356
28.3085
28.4045
28.4984
28.593
28.6316
28.6591
28.5971
28.5405
28.3447
28.2152
27.9802
27.8349
27.7022
27.6682
27.6996
27.8062
27.9534
28.1094
28.2691
28.4345
28.5889
28.7363
28.8567
28.9642
28.0605
28.1676
28.2482
28.2524
28.2576
28.2934
28.3646
28.4568
28.5477
28.6369
28.6656
28.6843
28.6172
28.5583
28.3582
28.2302
27.984
27.8298
27.6845
27.6382
27.6656
27.7744
27.9331
28.107
28.279
28.4552
28.617
28.7677
28.8867
28.9923
28.0665
28.1836
28.2729
28.296
28.3106
28.3554
28.4275
28.5174
28.6061
28.6912
28.7119
28.722
28.6514
28.591
28.3872
28.2592
28.0014
27.8285
27.6723
27.6134
27.6339
27.7404
27.9064
28.0972
28.2855
28.4737
28.6448
28.8009
28.9182
29.0213
28.0693
28.1966
28.2879
28.3334
28.3653
28.4226
28.4983
28.5895
28.6774
28.7584
28.7727
28.7749
28.7018
28.6393
28.4305
28.3006
28.031
27.8465
27.6684
27.5992
27.6091
27.7087
27.8777
28.08
28.2868
28.4893
28.6717
28.8353
28.9512
29.0513
28.072
28.2109
28.3062
28.3715
28.4246
28.4961
28.5806
28.6763
28.7651
28.8419
28.8505
28.8464
28.77
28.7041
28.4899
28.3586
28.0771
27.8825
27.6875
27.5981
27.5973
27.6909
27.8558
28.0635
28.2836
28.4989
28.6962
28.8712
28.9875
29.0843
28.0879
28.232
28.339
28.4201
28.4921
28.5805
28.6783
28.7793
28.8691
28.9422
28.9458
28.9364
28.8575
28.7874
28.5688
28.4363
28.1481
27.9423
27.7262
27.615
27.5994
27.6853
27.8433
28.0516
28.2813
28.5068
28.7164
28.9036
29.0255
29.12
28.1285
28.2823
28.3929
28.4853
28.5746
28.6805
28.7907
28.8972
28.9875
29.0575
29.0573
29.0433
28.9628
28.8895
28.6697
28.5421
28.2427
28.0229
27.7854
27.6523
27.6188
27.6954
27.8489
28.0554
28.2871
28.519
28.7388
28.9365
29.0692
29.1651
28.1701
28.3375
28.458
28.5643
28.6718
28.7951
28.9167
29.0283
29.1193
29.1875
29.1854
29.1684
29.0875
29.0157
28.7954
28.6714
28.364
28.1412
27.8941
27.7453
27.6956
27.7559
27.889
28.0861
28.3119
28.5424
28.7663
28.969
29.1135
29.212
28.2489
28.4196
28.5497
28.674
28.7965
28.9326
29.063
29.1771
29.2671
29.3327
29.3296
29.3116
29.2321
29.1624
28.9474
28.8433
28.5488
28.3324
28.0802
27.9183
27.8492
27.8924
28.0025
28.1783
28.3909
28.6149
28.832
29.0314
29.1817
29.2831
28.3926
28.5695
28.719
28.8518
28.9839
29.1257
29.2549
29.3645
29.4499
29.5089
29.5045
29.4862
29.3999
29.3325
29.1286
29.0551
28.7751
28.5728
28.3244
28.157
28.0682
28.0902
28.1773
28.3281
28.5225
28.7364
28.9495
29.1497
29.3142
29.4455
28.1562
27.9199
27.9388
27.8427
27.7869
27.778
27.8198
27.9051
28.0159
28.1483
28.2687
28.3906
28.4436
28.4631
28.3342
28.1181
27.8941
27.7854
27.7599
27.7957
27.8525
27.9438
28.0001
28.0116
28.0516
28.1557
28.2711
28.3697
28.4201
28.4565
28.0979
27.8321
27.8756
27.7952
27.768
27.7774
27.8373
27.9344
28.0504
28.1839
28.303
28.4219
28.4717
28.4892
28.3609
28.1466
27.9194
27.8036
27.7683
27.8013
27.8579
27.9493
28.005
28.0133
28.0519
28.1549
28.258
28.3444
28.4086
28.4625
28.0383
27.7723
27.8263
27.7552
27.7487
27.7715
27.84
27.9478
28.0706
28.209
28.3265
28.4419
28.4862
28.4993
28.3645
28.1483
27.9172
27.8013
27.767
27.8036
27.8609
27.9515
28.005
28.0095
28.0503
28.1524
28.259
28.3443
28.4082
28.4546
27.9661
27.7166
27.7718
27.7118
27.7238
27.7604
27.8369
27.9526
28.0833
28.2273
28.3464
28.459
28.4984
28.5084
28.3674
28.1478
27.9122
27.7949
27.7579
27.7974
27.8595
27.9476
27.9997
28.005
28.0505
28.15
28.2559
28.3454
28.4104
28.4484
27.8919
27.6737
27.7213
27.6727
27.6983
27.7459
27.8302
27.9507
28.0855
28.2345
28.355
28.4693
28.5031
28.5104
28.3608
28.1399
27.9009
27.7823
27.7436
27.7858
27.8527
27.9378
27.9894
28.0002
28.0513
28.1501
28.2549
28.347
28.4133
28.4512
27.819
27.6379
27.6749
27.6373
27.6736
27.7299
27.8215
27.9465
28.084
28.2354
28.3563
28.4722
28.5023
28.5062
28.3477
28.1254
27.8835
27.7652
27.7261
27.771
27.8421
27.923
27.9759
27.9968
28.0527
28.1509
28.2561
28.3498
28.4172
28.4578
27.7507
27.6094
27.6352
27.6077
27.6518
27.7143
27.8122
27.9414
28.0812
28.2343
28.3552
28.4715
28.4983
28.4977
28.3295
28.1059
27.8615
27.7449
27.7062
27.7537
27.8287
27.9067
27.961
27.9936
28.0547
28.1528
28.2588
28.3539
28.4219
28.4667
27.6882
27.5872
27.6018
27.5841
27.6326
27.7004
27.8035
27.9362
28.078
28.2327
28.3532
28.4698
28.4919
28.4863
28.3077
28.0827
27.8362
27.7223
27.6842
27.7349
27.8143
27.8901
27.9454
27.9899
28.0577
28.1562
28.2625
28.3595
28.4275
28.4784
27.6335
27.5712
27.5751
27.5666
27.617
27.6891
27.7962
27.9319
28.0753
28.2313
28.3512
28.4677
28.484
28.4728
28.2825
28.057
27.8084
27.698
27.6606
27.715
27.7988
27.8729
27.9301
27.9877
28.0618
28.1608
28.2672
28.3672
28.4344
28.493
27.5935
27.5641
27.556
27.5556
27.6056
27.681
27.7911
27.929
28.0736
28.2306
28.3498
28.4658
28.4757
28.4582
28.2554
28.0298
27.7789
27.6723
27.6356
27.6942
27.7816
27.8562
27.918
27.9876
28.0671
28.1671
28.2731
28.3764
28.4429
28.51
27.5808
27.5679
27.5464
27.5494
27.5986
27.6766
27.7885
27.9282
28.0735
28.2323
28.3494
28.4648
28.4677
28.4432
28.2288
28.0023
27.7486
27.6455
27.6093
27.6728
27.763
27.8403
27.9091
27.9889
28.0737
28.1751
28.2809
28.3859
28.4526
28.5283
27.5858
27.5778
27.5485
27.5482
27.5963
27.676
27.7899
27.9326
28.0789
28.2388
28.3527
28.4659
28.461
28.4288
28.2032
27.975
27.718
27.6179
27.5817
27.6513
27.7429
27.8249
27.9037
27.9915
28.0817
28.1848
28.2907
28.3966
28.4631
28.5468
27.5991
27.5956
27.5602
27.5583
27.6022
27.685
27.8005
27.9448
28.0909
28.2512
28.3613
28.4718
28.4564
28.4157
28.1787
27.9487
27.6877
27.5897
27.5532
27.6291
27.7211
27.8104
27.9003
27.9953
28.0912
28.1964
28.3022
28.4086
28.4744
28.565
27.6185
27.6209
27.5829
27.5782
27.6193
27.7047
27.8207
27.9654
28.1103
28.2704
28.3761
28.481
28.4553
28.4046
28.1561
27.9242
27.6583
27.5612
27.5243
27.6047
27.6972
27.7965
27.8973
28.0006
28.1029
28.2104
28.3154
28.4212
28.4872
28.5839
27.6408
27.6537
27.6166
27.6099
27.6479
27.7346
27.8505
27.9948
28.1377
28.2972
28.3963
28.4933
28.4573
28.3964
28.1362
27.9022
27.6302
27.5328
27.4955
27.5776
27.6711
27.7822
27.895
28.0077
28.1171
28.2269
28.3306
28.4354
28.5021
28.6035
27.6682
27.6933
27.6585
27.6517
27.6853
27.7743
27.8897
28.033
28.1734
28.3289
28.4202
28.5089
28.4622
28.3946
28.1197
27.8835
27.604
27.505
27.4682
27.5472
27.6428
27.7677
27.8939
28.0162
28.1328
28.2456
28.3481
28.4516
28.5184
28.6221
27.6975
27.7362
27.7065
27.7005
27.7313
27.8197
27.9362
28.0778
28.2146
28.3648
28.448
28.5283
28.471
28.3968
28.1073
27.8691
27.5804
27.4792
27.4402
27.5138
27.6129
27.7527
27.893
28.0253
28.1496
28.2667
28.3682
28.4704
28.5365
28.6404
27.7263
27.7794
27.7582
27.7545
27.7846
27.8712
27.9877
28.1271
28.2604
28.4051
28.4801
28.5518
28.4842
28.4026
28.0995
27.8599
27.5606
27.4583
27.4101
27.4773
27.5817
27.7361
27.8913
28.0345
28.1677
28.29
28.3914
28.4921
28.5562
28.6589
27.7552
27.821
27.8108
27.8121
27.8439
27.9287
28.0434
28.1807
28.3109
28.4506
28.5167
28.5796
28.5022
28.4127
28.0997
27.8562
27.5471
27.4433
27.3782
27.4404
27.55
27.7179
27.8878
28.0432
28.1868
28.3148
28.4183
28.5168
28.5767
28.6782
27.7823
27.8586
27.8641
27.8724
27.9073
27.9914
28.1038
28.239
28.3664
28.5015
28.5583
28.6123
28.5255
28.4292
28.1047
27.8615
27.5412
27.4298
27.3464
27.406
27.5187
27.6986
27.882
28.0516
28.2062
28.3413
28.449
28.544
28.6004
28.701
27.8073
27.8909
27.9169
27.9341
27.9741
28.0591
28.1699
28.302
28.4273
28.558
28.6058
28.6506
28.5551
28.4541
28.1183
27.8798
27.5404
27.4156
27.32
27.3766
27.4904
27.679
27.8754
28.0589
28.2248
28.3692
28.4828
28.5744
28.6291
28.728
27.8308
27.9217
27.9648
27.9949
28.0446
28.1321
28.242
28.371
28.4936
28.6207
28.6601
28.6961
28.5924
28.4893
28.1437
27.9109
27.5436
27.4088
27.3048
27.3556
27.4702
27.6623
27.8683
28.0639
28.2422
28.3976
28.5191
28.6089
28.6619
28.7596
27.8514
27.9509
28.0072
28.0542
28.1175
28.2096
28.3204
28.4478
28.568
28.6907
28.7218
28.75
28.6388
28.5366
28.1808
27.952
27.565
27.424
27.3023
27.3428
27.4538
27.6465
27.859
28.0671
28.2566
28.4248
28.5574
28.649
28.6997
28.7956
27.8706
27.98
28.0482
28.1142
28.1917
28.2916
28.4064
28.5344
28.6538
28.7722
28.7952
28.8154
28.6978
28.5984
28.2323
28.0107
27.6094
27.4542
27.3102
27.3397
27.4405
27.6299
27.8473
28.0679
28.2684
28.4489
28.5941
28.6931
28.7433
28.835
27.8991
28.018
28.0943
28.1781
28.2695
28.3804
28.5028
28.6333
28.7526
28.8675
28.8843
28.8972
28.7745
28.6787
28.3024
28.096
27.6694
27.497
27.3294
27.3463
27.4415
27.6235
27.8397
28.0688
28.2787
28.471
28.6283
28.7359
28.7916
28.8787
27.9372
28.0646
28.1508
28.2493
28.356
28.4802
28.6118
28.7453
28.8647
28.9766
28.989
28.9962
28.8694
28.7776
28.3927
28.2011
27.744
27.5637
27.3748
27.3781
27.4586
27.6338
27.8456
28.0749
28.2911
28.4929
28.661
28.7781
28.8436
28.9277
27.9869
28.1223
28.2216
28.3334
28.4551
28.5923
28.7331
28.8694
28.9885
29.0976
29.1072
29.1104
28.9807
28.8933
28.5053
28.3271
27.8502
27.6693
27.4577
27.4429
27.5015
27.6604
27.8639
28.0903
28.3093
28.5177
28.6943
28.8222
28.9013
28.9849
28.0456
28.191
28.3084
28.4329
28.5681
28.7171
28.8654
29.0032
29.1214
29.2274
29.2351
29.2359
29.1047
29.0265
28.6383
28.4814
27.9868
27.8097
27.5774
27.5423
27.5793
27.7116
27.8979
28.117
28.3346
28.546
28.7279
28.8684
28.9659
29.0534
28.1229
28.2791
28.4081
28.5447
28.6927
28.8503
29.0026
29.1405
29.2556
29.3568
29.364
29.3646
29.2328
29.1654
28.7762
28.6582
28.1586
27.9894
27.7402
27.6849
27.6993
27.8027
27.9618
28.1627
28.3741
28.5833
28.7683
28.921
29.0411
29.1442
28.2177
28.3842
28.5339
28.6832
28.8355
28.9936
29.1426
29.2766
29.3845
29.4769
29.4834
29.4857
29.35
29.2909
28.9116
28.8613
28.3672
28.2075
27.9473
27.8732
27.8622
27.9399
28.0691
28.2459
28.4417
28.6416
28.8265
28.9891
29.1301
29.26
28.5467
28.1006
28.0879
27.9113
27.7792
27.6946
27.6711
27.7095
27.7835
27.902
28.0152
28.1577
28.2233
28.2941
28.1685
27.9675
27.7793
27.7346
27.7242
27.7817
27.8587
27.9673
28.1043
28.1993
28.225
28.2469
28.274
28.268
28.2732
28.27
28.4476
27.9613
27.998
27.8374
27.7384
27.6795
27.6778
27.7305
27.8135
27.9364
28.0509
28.1931
28.2572
28.3281
28.2042
28.0016
27.8062
27.7516
27.7283
27.7844
27.8626
27.9733
28.1109
28.2013
28.223
28.2461
28.2679
28.2611
28.2805
28.2861
28.3401
27.8727
27.9271
27.777
27.7042
27.6663
27.6795
27.7463
27.838
27.9643
28.0787
28.2187
28.2774
28.3455
28.2152
28.0162
27.8197
27.7618
27.7318
27.7876
27.8669
27.9786
28.1119
28.192
28.2133
28.2419
28.2676
28.2612
28.285
28.2919
28.2118
27.7902
27.8495
27.7141
27.6673
27.6498
27.6766
27.7551
27.8556
27.9893
28.1034
28.2423
28.2962
28.3642
28.2268
28.0304
27.827
27.7618
27.7301
27.7882
27.8683
27.98
28.1036
28.1802