/*--------------------------------*- C++ -*----------------------------------*\
  =========                 |
  \\      /  F ield         | OpenFOAM: The Open Source CFD Toolbox
   \\    /   O peration     | Website:  https://openfoam.org
    \\  /    A nd           | Version:  12
     \\/     M anipulation  |
\*---------------------------------------------------------------------------*/
FoamFile
{
    format      ascii;
    class       volScalarField;
    location    "2000/porous";
    object      T;
}
// * * * * * * * * * * * * * * * * * * * * * * * * * * * * * * * * * * * * * //

dimensions      [0 0 0 1 0 0 0];

internalField   nonuniform List<scalar> 
140000
(
400
400
400
400
400
400
400
400
400
399.993
399.692
399.454
399.242
399.041
398.848
398.66
398.477
398.296
398.119
397.943
397.769
397.598
397.427
397.258
397.091
396.925
396.761
396.598
396.437
396.277
396.119
395.963
395.808
395.654
395.503
395.353
395.204
395.057
394.911
394.767
394.624
394.482
394.341
394.201
394.063
393.926
393.791
393.657
393.524
393.394
393.264
393.137
393.011
392.887
392.767
392.648
392.532
392.42
392.314
392.241
392.682
392.963
393.18
393.36
393.514
393.651
393.773
393.884
393.985
394.073
400
400
400
400
400
400
400
400
400
399.995
399.766
399.578
399.408
399.247
399.091
398.938
398.789
398.642
398.496
398.352
398.21
398.068
397.927
397.787
397.647
397.509
397.371
397.234
397.097
396.962
396.827
396.692
396.558
396.425
396.293
396.161
396.03
395.9
395.77
395.641
395.512
395.384
395.257
395.13
395.004
394.878
394.753
394.63
394.507
394.386
394.265
394.145
394.027
393.911
393.796
393.683
393.572
393.464
393.36
393.275
393.539
393.711
393.847
393.962
394.063
394.154
394.237
394.314
394.385
394.449
400
400
400
400
400
400
400
400
400
399.996
399.785
399.617
399.465
399.324
399.188
399.056
398.928
398.802
398.679
398.557
398.436
398.317
398.199
398.082
397.965
397.85
397.735
397.621
397.507
397.394
397.282
397.17
397.058
396.947
396.836
396.726
396.616
396.506
396.397
396.288
396.179
396.071
395.963
395.855
395.747
395.64
395.533
395.427
395.322
395.217
395.113
395.009
394.907
394.806
394.706
394.607
394.51
394.415
394.324
394.245
394.455
394.587
394.686
394.769
394.84
394.902
394.959
395.011
395.058
395.1
400
400
400
400
400
400
400
400
400
399.996
399.79
399.626
399.481
399.346
399.217
399.093
398.973
398.856
398.742
398.629
398.519
398.41
398.303
398.197
398.092
397.988
397.885
397.782
397.681
397.58
397.48
397.381
397.282
397.184
397.087
396.989
396.893
396.797
396.701
396.606
396.511
396.416
396.321
396.227
396.133
396.04
395.947
395.854
395.763
395.671
395.581
395.491
395.402
395.314
395.228
395.143
395.058
394.977
394.898
394.83
395.026
395.149
395.242
395.318
395.383
395.439
395.49
395.535
395.576
395.614
400
400
400
400
400
400
400
400
400
399.996
399.791
399.629
399.485
399.352
399.225
399.104
398.986
398.872
398.761
398.652
398.545
398.441
398.337
398.235
398.135
398.036
397.938
397.841
397.745
397.649
397.555
397.462
397.369
397.277
397.185
397.095
397.004
396.915
396.826
396.737
396.649
396.562
396.475
396.388
396.301
396.215
396.13
396.045
395.961
395.878
395.795
395.714
395.633
395.553
395.475
395.398
395.322
395.249
395.178
395.118
395.311
395.433
395.526
395.603
395.668
395.725
395.776
395.822
395.864
395.902
400
400
400
400
400
400
400
400
400
399.996
399.791
399.629
399.486
399.352
399.226
399.105
398.988
398.875
398.764
398.657
398.551
398.447
398.345
398.245
398.146
398.049
397.953
397.857
397.763
397.67
397.578
397.487
397.397
397.307
397.219
397.131
397.043
396.957
396.871
396.785
396.701
396.616
396.532
396.449
396.366
396.284
396.202
396.121
396.041
395.961
395.883
395.805
395.729
395.653
395.579
395.507
395.435
395.367
395.301
395.244
395.436
395.56
395.654
395.731
395.797
395.856
395.908
395.956
396
396.039
400
400
400
400
400
400
400
400
400
399.996
399.791
399.629
399.486
399.352
399.226
399.105
398.988
398.874
398.764
398.656
398.551
398.447
398.346
398.246
398.147
398.05
397.955
397.86
397.767
397.674
397.583
397.493
397.403
397.315
397.227
397.14
397.054
396.969
396.884
396.8
396.717
396.634
396.551
396.469
396.388
396.307
396.227
396.148
396.069
395.991
395.915
395.839
395.764
395.691
395.619
395.549
395.48
395.413
395.349
395.296
395.487
395.611
395.705
395.783
395.851
395.91
395.963
396.012
396.056
396.096
400
400
400
400
400
400
400
400
400
399.996
399.791
399.629
399.485
399.352
399.225
399.103
398.986
398.873
398.762
398.654
398.548
398.445
398.343
398.243
398.145
398.048
397.952
397.858
397.764
397.672
397.581
397.491
397.402
397.314
397.226
397.14
397.054
396.969
396.885
396.802
396.719
396.636
396.554
396.473
396.392
396.312
396.233
396.154
396.076
395.999
395.923
395.848
395.774
395.702
395.631
395.562
395.494
395.428
395.366
395.313
395.505
395.629
395.724
395.802
395.87
395.93
395.983
396.032
396.077
396.118
400
400
400
400
400
400
400
400
400
399.996
399.791
399.628
399.485
399.351
399.224
399.102
398.985
398.871
398.76
398.652
398.546
398.442
398.34
398.24
398.142
398.044
397.949
397.854
397.761
397.669
397.578
397.488
397.398
397.31
397.223
397.137
397.051
396.966
396.882
396.799
396.716
396.634
396.552
396.471
396.39
396.31
396.231
396.153
396.075
395.998
395.923
395.848
395.774
395.702
395.632
395.563
395.496
395.431
395.369
395.317
395.509
395.633
395.728
395.806
395.874
395.934
395.988
396.037
396.083
396.123
400
400
400
400
400
400
400
400
400
399.996
399.791
399.628
399.484
399.351
399.223
399.102
398.984
398.87
398.758
398.65
398.544
398.44
398.338
398.237
398.138
398.041
397.945
397.851
397.757
397.665
397.574
397.484
397.394
397.306
397.219
397.132
397.047
396.962
396.878
396.795
396.712
396.63
396.548
396.467
396.386
396.306
396.227
396.149
396.071
395.994
395.919
395.844
395.771
395.699
395.629
395.56
395.493
395.429
395.367
395.315
395.507
395.631
395.726
395.805
395.873
395.933
395.987
396.036
396.082
396.123
400
400
400
400
400
400
400
400
400
399.996
399.79
399.628
399.484
399.35
399.223
399.101
398.983
398.869
398.757
398.649
398.542
398.438
398.336
398.235
398.136
398.039
397.942
397.848
397.754
397.662
397.57
397.48
397.391
397.303
397.215
397.129
397.043
396.958
396.874
396.791
396.708
396.626
396.544
396.463
396.382
396.302
396.223
396.144
396.067
395.99
395.914
395.84
395.766
395.694
395.624
395.556
395.489
395.425
395.364
395.312
395.504
395.628
395.723
395.801
395.87
395.93
395.984
396.033
396.079
396.12
400
400
400
400
400
400
400
400
400
399.996
399.79
399.627
399.484
399.35
399.223
399.101
398.982
398.868
398.756
398.647
398.541
398.436
398.334
398.233
398.134
398.036
397.94
397.845
397.751
397.659
397.568
397.477
397.388
397.299
397.212
397.125
397.04
396.955
396.871
396.787
396.704
396.622
396.54
396.459
396.378
396.298
396.219
396.14
396.062
395.986
395.91
395.835
395.762
395.69
395.62
395.551
395.485
395.421
395.359
395.308
395.5
395.624
395.719
395.798
395.866
395.926
395.981
396.03
396.075
396.116
400
400
400
400
400
400
400
400
400
399.996
399.79
399.628
399.484
399.35
399.223
399.1
398.982
398.867
398.756
398.647
398.54
398.435
398.333
398.232
398.132
398.035
397.938
397.843
397.75
397.657
397.565
397.475
397.385
397.297
397.209
397.123
397.037
396.952
396.868
396.785
396.702
396.619
396.537
396.456
396.375
396.295
396.215
396.137
396.059
395.982
395.906
395.832
395.758
395.686
395.616
395.548
395.481
395.417
395.356
395.305
395.497
395.621
395.716
395.795
395.863
395.923
395.977
396.027
396.072
396.113
400
400
400
400
400
400
400
400
400
399.996
399.79
399.627
399.484
399.35
399.223
399.1
398.982
398.867
398.755
398.646
398.539
398.434
398.331
398.23
398.131
398.033
397.937
397.842
397.748
397.655
397.564
397.473
397.384
397.295
397.207
397.121
397.035
396.95
396.866
396.782
396.699
396.617
396.534
396.453
396.372
396.292
396.212
396.134
396.056
395.979
395.903
395.828
395.755
395.683
395.613
395.544
395.478
395.414
395.353
395.302
395.494
395.618
395.713
395.792
395.86
395.92
395.975
396.024
396.07
396.111
400
400
400
400
400
400
400
400
400
399.996
399.79
399.627
399.484
399.35
399.223
399.1
398.982
398.867
398.755
398.646
398.539
398.434
398.331
398.23
398.13
398.032
397.936
397.841
397.747
397.654
397.562
397.472
397.382
397.294
397.206
397.119
397.033
396.948
396.864
396.78
396.697
396.614
396.532
396.451
396.37
396.289
396.21
396.131
396.053
395.976
395.9
395.826
395.752
395.68
395.61
395.542
395.475
395.411
395.351
395.3
395.492
395.616
395.711
395.79
395.858
395.918
395.972
396.022
396.067
396.108
400
400
400
400
400
400
400
400
400
399.996
399.79
399.628
399.484
399.35
399.223
399.101
398.982
398.867
398.755
398.646
398.538
398.433
398.33
398.229
398.129
398.031
397.935
397.84
397.746
397.653
397.561
397.471
397.381
397.292
397.205
397.118
397.032
396.947
396.863
396.779
396.695
396.613
396.53
396.449
396.368
396.287
396.208
396.129
396.051
395.974
395.898
395.823
395.75
395.678
395.608
395.54
395.473
395.41
395.349
395.298
395.49
395.614
395.709
395.788
395.856
395.916
395.971
396.02
396.066
396.107
400
400
400
400
400
400
400
400
400
399.996
399.79
399.627
399.484
399.35
399.223
399.101
398.982
398.867
398.755
398.646
398.538
398.433
398.33
398.228
398.129
398.031
397.934
397.839
397.745
397.652
397.561
397.47
397.38
397.292
397.204
397.117
397.031
396.946
396.861
396.777
396.694
396.611
396.529
396.447
396.366
396.286
396.206
396.127
396.049
395.972
395.896
395.822
395.748
395.676
395.606
395.538
395.472
395.408
395.348
395.297
395.488
395.612
395.707
395.786
395.855
395.915
395.969
396.019
396.064
396.105
400
400
400
400
400
400
400
400
400
399.996
399.79
399.628
399.484
399.35
399.223
399.101
398.983
398.867
398.755
398.645
398.538
398.433
398.329
398.228
398.128
398.03
397.934
397.838
397.744
397.652
397.56
397.469
397.38
397.291
397.203
397.116
397.03
396.945
396.86
396.776
396.693
396.61
396.527
396.446
396.364
396.284
396.204
396.126
396.048
395.971
395.895
395.82
395.747
395.675
395.605
395.536
395.47
395.407
395.346
395.296
395.487
395.611
395.706
395.785
395.854
395.914
395.968
396.018
396.063
396.104
400
400
400
400
400
400
400
400
400
399.996
399.79
399.628
399.484
399.351
399.223
399.101
398.983
398.868
398.755
398.645
398.538
398.433
398.329
398.228
398.128
398.03
397.933
397.838
397.744
397.651
397.559
397.469
397.379
397.29
397.202
397.115
397.029
396.944
396.859
396.775
396.691
396.608
396.526
396.444
396.363
396.283
396.203
396.124
396.046
395.969
395.893
395.819
395.745
395.673
395.603
395.535
395.469
395.406
395.346
395.295
395.487
395.61
395.706
395.784
395.853
395.913
395.967
396.017
396.062
396.103
400
400
400
400
400
400
400
400
400
399.996
399.79
399.628
399.484
399.35
399.223
399.101
398.983
398.868
398.755
398.645
398.538
398.432
398.329
398.227
398.127
398.029
397.933
397.837
397.743
397.65
397.559
397.468
397.378
397.289
397.201
397.114
397.028
396.943
396.858
396.774
396.69
396.607
396.525
396.443
396.362
396.281
396.202
396.123
396.045
395.968
395.892
395.817
395.744
395.672
395.602
395.534
395.468
395.405
395.345
395.294
395.486
395.61
395.705
395.784
395.852
395.912
395.966
396.016
396.061
396.103
400
400
400
400
400
400
400
400
400
399.996
399.79
399.628
399.484
399.351
399.224
399.101
398.983
398.868
398.755
398.645
398.538
398.432
398.329
398.227
398.127
398.029
397.932
397.837
397.743
397.65
397.558
397.467
397.377
397.289
397.201
397.113
397.027
396.942
396.857
396.773
396.689
396.606
396.524
396.442
396.361
396.28
396.201
396.122
396.044
395.967
395.891
395.816
395.743
395.671
395.601
395.533
395.467
395.404
395.345
395.294
395.486
395.609
395.704
395.783
395.851
395.912
395.966
396.015
396.061
396.102
400
400
400
400
400
400
400
400
400
399.996
399.79
399.628
399.484
399.35
399.224
399.101
398.983
398.868
398.755
398.645
398.538
398.432
398.328
398.227
398.127
398.028
397.931
397.836
397.742
397.649
397.557
397.467
397.377
397.288
397.2
397.113
397.026
396.941
396.856
396.772
396.688
396.605
396.523
396.441
396.36
396.279
396.2
396.121
396.043
395.966
395.89
395.815
395.742
395.671
395.601
395.533
395.467
395.404
395.344
395.294
395.485
395.609
395.704
395.783
395.851
395.911
395.966
396.015
396.06
396.102
400
400
400
400
400
400
400
400
400
399.996
399.79
399.628
399.484
399.35
399.223
399.101
398.983
398.867
398.755
398.645
398.537
398.432
398.328
398.226
398.126
398.028
397.931
397.836
397.741
397.649
397.557
397.466
397.376
397.287
397.199
397.112
397.025
396.94
396.855
396.771
396.687
396.604
396.522
396.44
396.359
396.279
396.199
396.12
396.042
395.965
395.889
395.815
395.742
395.67
395.6
395.532
395.466
395.403
395.344
395.294
395.485
395.609
395.704
395.783
395.851
395.911
395.965
396.015
396.06
396.101
400
400
400
400
400
400
400
400
400
399.996
399.79
399.628
399.484
399.35
399.223
399.101
398.983
398.867
398.755
398.645
398.537
398.431
398.328
398.226
398.126
398.027
397.931
397.835
397.741
397.648
397.556
397.465
397.375
397.287
397.198
397.111
397.025
396.939
396.854
396.77
396.687
396.604
396.521
396.44
396.359
396.278
396.199
396.12
396.042
395.965
395.889
395.814
395.741
395.67
395.6
395.532
395.466
395.404
395.344
395.294
395.485
395.609
395.704
395.783
395.851
395.911
395.965
396.015
396.06
396.101
400
400
400
400
400
400
400
400
400
399.996
399.79
399.627
399.484
399.35
399.223
399.101
398.983
398.867
398.755
398.645
398.537
398.431
398.327
398.226
398.126
398.027
397.93
397.835
397.74
397.647
397.556
397.465
397.375
397.286
397.198
397.111
397.024
396.939
396.854
396.77
396.686
396.603
396.521
396.44
396.358
396.278
396.198
396.12
396.042
395.965
395.889
395.814
395.741
395.669
395.6
395.532
395.466
395.403
395.344
395.294
395.485
395.609
395.704
395.783
395.851
395.911
395.965
396.015
396.06
396.101
400
400
400
400
400
400
400
400
400
399.996
399.79
399.627
399.483
399.35
399.223
399.1
398.982
398.867
398.754
398.644
398.536
398.431
398.327
398.225
398.125
398.027
397.93
397.834
397.74
397.647
397.555
397.464
397.375
397.286
397.198
397.11
397.024
396.938
396.854
396.77
396.686
396.603
396.521
396.439
396.358
396.278
396.198
396.12
396.042
395.965
395.889
395.814
395.741
395.67
395.6
395.532
395.467
395.404
395.345
395.295
395.486
395.609
395.704
395.783
395.851
395.911
395.966
396.015
396.06
396.101
400
400
400
400
400
400
400
400
400
399.996
399.79
399.627
399.483
399.35
399.223
399.1
398.982
398.867
398.754
398.644
398.536
398.431
398.327
398.225
398.125
398.026
397.93
397.834
397.74
397.647
397.555
397.464
397.374
397.285
397.197
397.11
397.024
396.938
396.854
396.77
396.686
396.603
396.521
396.44
396.359
396.278
396.199
396.12
396.042
395.965
395.889
395.814
395.741
395.67
395.6
395.532
395.467
395.404
395.345
395.295
395.486
395.61
395.704
395.783
395.851
395.912
395.966
396.015
396.061
396.102
400
400
400
400
400
400
400
400
400
399.996
399.79
399.627
399.483
399.349
399.222
399.1
398.982
398.866
398.754
398.644
398.536
398.431
398.327
398.225
398.125
398.026
397.929
397.834
397.74
397.647
397.555
397.464
397.374
397.286
397.198
397.11
397.024
396.939
396.854
396.77
396.686
396.604
396.522
396.44
396.359
396.279
396.199
396.12
396.042
395.965
395.89
395.815
395.742
395.67
395.6
395.533
395.467
395.405
395.345
395.295
395.486
395.61
395.705
395.784
395.852
395.912
395.966
396.016
396.061
396.102
400
400
400
400
400
400
400
400
400
399.996
399.789
399.627
399.483
399.349
399.222
399.1
398.982
398.866
398.754
398.644
398.536
398.431
398.327
398.225
398.125
398.027
397.93
397.834
397.74
397.647
397.555
397.464
397.375
397.286
397.198
397.111
397.025
396.939
396.854
396.77
396.687
396.604
396.522
396.441
396.36
396.28
396.2
396.121
396.043
395.966
395.89
395.816
395.742
395.671
395.601
395.533
395.468
395.405
395.346
395.296
395.487
395.611
395.705
395.784
395.852
395.913
395.967
396.016
396.062
396.103
400
400
400
400
400
400
400
400
400
399.996
399.789
399.627
399.483
399.349
399.222
399.1
398.981
398.866
398.754
398.644
398.536
398.431
398.327
398.225
398.125
398.027
397.93
397.834
397.74
397.647
397.556
397.465
397.375
397.287
397.199
397.112
397.025
396.94
396.855
396.771
396.688
396.605
396.523
396.442
396.361
396.281
396.201
396.122
396.044
395.967
395.891
395.817
395.743
395.672
395.602
395.534
395.468
395.406
395.346
395.297
395.488
395.611
395.706
395.785
395.853
395.913
395.967
396.017
396.062
396.103
400
400
400
400
400
400
400
400
400
399.996
399.789
399.626
399.482
399.349
399.222
399.1
398.981
398.866
398.754
398.644
398.536
398.431
398.327
398.226
398.126
398.027
397.93
397.835
397.741
397.648
397.556
397.466
397.376
397.287
397.2
397.112
397.026
396.941
396.856
396.772
396.689
396.606
396.524
396.443
396.362
396.282
396.202
396.123
396.045
395.968
395.892
395.818
395.744
395.673
395.603
395.535
395.469
395.406
395.347
395.297
395.488
395.612
395.707
395.786
395.854
395.914
395.968
396.017
396.063
396.104
400
400
400
400
400
400
400
400
400
399.996
399.789
399.626
399.482
399.349
399.222
399.1
398.981
398.866
398.754
398.644
398.537
398.431
398.328
398.226
398.126
398.028
397.931
397.836
397.742
397.649
397.557
397.467
397.377
397.289
397.201
397.114
397.027
396.942
396.857
396.773
396.69
396.608
396.526
396.444
396.363
396.283
396.203
396.125
396.047
395.97
395.894
395.819
395.746
395.674
395.604
395.536
395.47
395.407
395.348
395.298
395.489
395.613
395.708
395.786
395.854
395.915
395.969
396.018
396.064
396.105
400
400
400
400
400
400
400
400
400
399.996
399.789
399.626
399.482
399.349
399.222
399.1
398.982
398.867
398.754
398.645
398.537
398.432
398.329
398.227
398.127
398.029
397.932
397.837
397.743
397.65
397.558
397.468
397.379
397.29
397.202
397.115
397.029
396.944
396.859
396.775
396.692
396.609
396.527
396.446
396.365
396.285
396.205
396.126
396.048
395.971
395.895
395.82
395.747
395.675
395.605
395.537
395.471
395.408
395.348
395.299
395.49
395.613
395.708
395.787
395.855
395.915
395.97
396.019
396.065
396.106
400
400
400
400
400
400
400
400
400
399.996
399.789
399.626
399.482
399.349
399.222
399.1
398.982
398.867
398.755
398.645
398.538
398.433
398.329
398.228
398.128
398.03
397.933
397.838
397.744
397.651
397.56
397.47
397.38
397.292
397.204
397.117
397.031
396.945
396.861
396.777
396.693
396.611
396.529
396.447
396.366
396.286
396.207
396.128
396.05
395.973
395.897
395.822
395.748
395.676
395.606
395.538
395.472
395.409
395.349
395.299
395.49
395.614
395.709
395.788
395.856
395.916
395.971
396.02
396.066
396.107
400
400
400
400
400
400
400
400
400
399.996
399.789
399.626
399.482
399.349
399.222
399.1
398.982
398.868
398.756
398.646
398.539
398.434
398.331
398.229
398.129
398.031
397.935
397.839
397.746
397.653
397.562
397.472
397.382
397.294
397.206
397.119
397.033
396.947
396.863
396.779
396.695
396.613
396.531
396.449
396.368
396.288
396.209
396.13
396.052
395.975
395.899
395.824
395.75
395.678
395.608
395.539
395.473
395.41
395.35
395.3
395.491
395.615
395.71
395.789
395.857
395.918
395.972
396.021
396.067
396.108
400
400
400
400
400
400
400
400
400
399.996
399.789
399.626
399.482
399.349
399.222
399.101
398.983
398.868
398.757
398.647
398.54
398.435
398.332
398.231
398.131
398.033
397.936
397.841
397.748
397.655
397.564
397.474
397.385
397.296
397.208
397.121
397.035
396.95
396.865
396.781
396.698
396.615
396.533
396.451
396.371
396.291
396.211
396.132
396.054
395.977
395.901
395.826
395.752
395.68
395.609
395.541
395.475
395.411
395.351
395.301
395.493
395.617
395.712
395.791
395.859
395.919
395.973
396.023
396.068
396.109
400
400
400
400
400
400
400
400
400
399.996
399.789
399.626
399.483
399.349
399.223
399.101
398.984
398.869
398.758
398.648
398.542
398.437
398.334
398.232
398.133
398.035
397.938
397.843
397.75
397.658
397.567
397.476
397.387
397.299
397.211
397.124
397.038
396.952
396.868
396.783
396.7
396.617
396.535
396.454
396.373
396.293
396.214
396.135
396.057
395.98
395.904
395.829
395.755
395.682
395.612
395.543
395.476
395.413
395.353
395.303
395.494
395.618
395.713
395.792
395.861
395.921
395.975
396.025
396.07
396.111
400
400
400
400
400
400
400
400
400
399.996
399.789
399.627
399.483
399.35
399.224
399.102
398.985
398.871
398.759
398.65
398.543
398.439
398.336
398.235
398.135
398.037
397.941
397.846
397.753
397.66
397.569
397.479
397.39
397.302
397.214
397.127
397.041
396.955
396.871
396.787
396.703
396.621
396.539
396.457
396.377
396.297
396.217
396.139
396.061
395.984
395.907
395.832
395.758
395.685
395.614
395.545
395.479
395.415
395.355
395.305
395.497
395.621
395.716
395.795
395.863
395.923
395.978
396.027
396.073
396.114
400
400
400
400
400
400
400
400
400
399.996
399.79
399.627
399.483
399.351
399.224
399.103
398.986
398.872
398.761
398.652
398.545
398.441
398.338
398.237
398.138
398.04
397.944
397.849
397.756
397.663
397.572
397.482
397.393
397.305
397.217
397.13
397.044
396.959
396.874
396.79
396.707
396.624
396.542
396.461
396.38
396.3
396.221
396.142
396.064
395.987
395.911
395.836
395.762
395.689
395.618
395.548
395.482
395.418
395.358
395.307
395.499
395.623
395.718
395.797
395.866
395.926
395.98
396.03
396.075
396.116
400
400
400
400
400
400
400
400
400
399.996
399.79
399.627
399.484
399.351
399.225
399.105
398.988
398.874
398.763
398.654
398.547
398.443
398.341
398.24
398.141
398.043
397.947
397.852
397.759
397.667
397.576
397.486
397.397
397.309
397.221
397.134
397.048
396.963
396.878
396.794
396.711
396.628
396.547
396.465
396.385
396.305
396.225
396.147
396.069
395.992
395.916
395.84
395.766
395.693
395.622
395.552
395.485
395.421
395.361
395.31
395.502
395.626
395.721
395.8
395.869
395.929
395.983
396.033
396.078
396.119
400
400
400
400
400
400
400
400
400
399.996
399.79
399.628
399.485
399.352
399.226
399.106
398.989
398.875
398.765
398.656
398.55
398.446
398.343
398.243
398.144
398.046
397.95
397.856
397.763
397.671
397.58
397.49
397.401
397.313
397.225
397.138
397.052
396.967
396.882
396.799
396.715
396.633
396.551
396.47
396.389
396.309
396.23
396.152
396.074
395.997
395.92
395.845
395.771
395.697
395.626
395.556
395.489
395.425
395.364
395.313
395.505
395.629
395.724
395.803
395.871
395.932
395.986
396.035
396.081
396.122
400
400
400
400
400
400
400
400
400
399.996
399.79
399.628
399.485
399.353
399.228
399.107
398.991
398.878
398.767
398.659
398.553
398.449
398.347
398.246
398.147
398.05
397.954
397.86
397.767
397.675
397.584
397.494
397.405
397.317
397.229
397.143
397.057
396.971
396.887
396.803
396.72
396.637
396.556
396.474
396.394
396.314
396.235
396.156
396.078
396.001
395.924
395.849
395.774
395.701
395.629
395.559
395.491
395.427
395.365
395.314
395.506
395.63
395.725
395.804
395.872
395.933
395.987
396.036
396.081
396.122
400
400
400
400
400
400
400
400
400
399.996
399.791
399.629
399.486
399.354
399.229
399.109
398.993
398.88
398.769
398.661
398.555
398.452
398.35
398.249
398.151
398.054
397.958
397.863
397.77
397.678
397.588
397.498
397.408
397.32
397.233
397.146
397.06
396.975
396.89
396.806
396.723
396.64
396.558
396.477
396.396
396.316
396.236
396.158
396.079
396.002
395.925
395.849
395.774
395.7
395.628
395.557
395.489
395.423
395.362
395.31
395.502
395.626
395.721
395.8
395.868
395.928
395.982
396.031
396.076
396.116
400
400
400
400
400
400
400
400
400
399.996
399.791
399.629
399.487
399.355
399.23
399.111
398.994
398.882
398.771
398.664
398.558
398.454
398.352
398.252
398.153
398.056
397.96
397.866
397.773
397.68
397.589
397.499
397.41
397.321
397.233
397.146
397.06
396.974
396.889
396.804
396.721
396.638
396.555
396.473
396.392
396.311
396.231
396.152
396.073
395.994
395.917
395.84
395.764
395.689
395.616
395.544
395.474
395.408
395.345
395.292
395.484
395.608
395.703
395.781
395.848
395.908
395.961
396.01
396.055
396.095
400
400
400
400
400
400
400
400
400
399.996
399.791
399.63
399.487
399.356
399.231
399.111
398.995
398.882
398.772
398.664
398.558
398.454
398.352
398.251
398.152
398.054
397.958
397.863
397.769
397.676
397.584
397.493
397.402
397.313
397.224
397.136
397.048
396.961
396.875
396.79
396.705
396.62
396.536
396.453
396.37
396.288
396.206
396.125
396.044
395.964
395.885
395.807
395.729
395.652
395.576
395.502
395.43
395.361
395.296
395.24
395.433
395.556
395.65
395.728
395.795
395.854
395.906
395.954
395.998
396.037
400
400
400
400
400
400
400
400
400
399.996
399.791
399.63
399.487
399.355
399.23
399.11
398.993
398.879
398.768
398.659
398.552
398.447
398.343
398.241
398.14
398.041
397.942
397.845
397.749
397.654
397.56
397.466
397.373
397.281
397.19
397.099
397.009
396.919
396.83
396.741
396.653
396.565
396.478
396.391
396.305
396.219
396.134
396.049
395.965
395.881
395.798
395.715
395.633
395.552
395.472
395.393
395.317
395.243
395.173
395.113
395.307
395.43
395.523
395.6
395.665
395.723
395.774
395.82
395.862
395.9
400
400
400
400
400
400
400
400
400
399.996
399.79
399.627
399.483
399.349
399.222
399.099
398.979
398.863
398.748
398.636
398.525
398.416
398.308
398.201
398.096
397.991
397.888
397.786
397.684
397.584
397.484
397.384
397.286
397.188
397.09
396.993
396.896
396.8
396.704
396.608
396.513
396.418
396.324
396.23
396.136
396.043
395.95
395.858
395.766
395.674
395.583
395.493
395.403
395.314
395.225
395.138
395.053
394.971
394.893
394.825
395.022
395.146
395.239
395.315
395.38
395.437
395.487
395.533
395.574
395.612
400
400
400
400
400
400
400
400
400
399.996
399.785
399.617
399.467
399.327
399.192
399.061
398.933
398.808
398.684
398.562
398.441
398.321
398.203
398.085
397.968
397.852
397.737
397.622
397.509
397.396
397.283
397.171
397.06
396.949
396.838
396.727
396.617
396.508
396.398
396.289
396.181
396.072
395.964
395.857
395.75
395.643
395.537
395.43
395.325
395.22
395.115
395.011
394.908
394.805
394.704
394.604
394.506
394.41
394.32
394.241
394.452
394.584
394.684
394.766
394.837
394.9
394.957
395.009
395.056
395.099
400
400
400
400
400
400
400
400
400
399.995
399.766
399.578
399.409
399.249
399.094
398.943
398.794
398.647
398.501
398.356
398.213
398.07
397.929
397.788
397.648
397.509
397.371
397.233
397.097
396.961
396.826
396.692
396.558
396.425
396.293
396.161
396.03
395.9
395.77
395.641
395.512
395.385
395.258
395.131
395.006
394.881
394.757
394.634
394.511
394.389
394.268
394.148
394.029
393.912
393.795
393.681
393.568
393.46
393.356
393.272
393.536
393.709
393.845
393.96
394.061
394.153
394.236
394.313
394.384
394.448
400
400
400
400
400
400
400
400
400
399.993
399.691
399.454
399.242
399.043
398.851
398.664
398.481
398.3
398.122
397.946
397.771
397.599
397.427
397.257
397.089
396.922
396.758
396.595
396.433
396.274
396.116
395.96
395.805
395.652
395.501
395.351
395.202
395.055
394.91
394.766
394.623
394.482
394.342
394.204
394.066
393.931
393.796
393.663
393.531
393.4
393.27
393.142
393.015
392.89
392.767
392.646
392.529
392.417
392.312
392.24
392.681
392.962
393.179
393.359
393.514
393.65
393.772
393.883
393.984
394.072
400
400
400
400
400
400
400
400
400
399.995
399.768
399.552
399.348
399.152
398.962
398.776
398.593
398.413
398.236
398.06
397.886
397.714
397.543
397.373
397.206
397.039
396.874
396.711
396.549
396.388
396.229
396.072
395.917
395.763
395.61
395.46
395.31
395.163
395.016
394.871
394.728
394.585
394.444
394.304
394.165
394.028
393.892
393.758
393.625
393.494
393.364
393.236
393.11
392.985
392.864
392.744
392.627
392.515
392.407
392.327
392.691
392.959
393.173
393.352
393.506
393.642
393.765
393.876
393.977
394.066
400
400
400
400
400
400
400
400
400
399.997
399.835
399.673
399.515
399.361
399.211
399.062
398.916
398.771
398.627
398.485
398.344
398.203
398.063
397.924
397.785
397.647
397.51
397.374
397.238
397.102
396.967
396.833
396.7
396.567
396.435
396.303
396.172
396.042
395.912
395.783
395.654
395.526
395.399
395.272
395.145
395.02
394.895
394.771
394.648
394.526
394.405
394.285
394.166
394.049
393.933
393.82
393.708
393.599
393.493
393.402
393.587
393.739
393.865
393.975
394.072
394.16
394.241
394.317
394.386
394.45
400
400
400
400
400
400
400
400
400
399.998
399.852
399.708
399.569
399.435
399.304
399.176
399.051
398.928
398.806
398.686
398.567
398.45
398.333
398.217
398.101
397.987
397.873
397.76
397.647
397.534
397.423
397.311
397.2
397.09
396.98
396.87
396.76
396.651
396.543
396.434
396.326
396.218
396.11
396.002
395.895
395.788
395.682
395.576
395.47
395.366
395.262
395.158
395.056
394.954
394.854
394.755
394.657
394.561
394.469
394.385
394.521
394.632
394.723
394.8
394.867
394.926
394.98
395.03
395.076
395.117
400
400
400
400
400
400
400
400
400
399.998
399.856
399.717
399.583
399.455
399.331
399.211
399.094
398.979
398.867
398.756
398.647
398.54
398.433
398.328
398.224
398.121
398.019
397.917
397.817
397.717
397.618
397.519
397.421
397.323
397.226
397.129
397.033
396.938
396.842
396.747
396.653
396.558
396.464
396.371
396.277
396.184
396.091
395.999
395.907
395.816
395.726
395.636
395.547
395.459
395.372
395.287
395.202
395.12
395.039
394.967
395.092
395.195
395.279
395.35
395.411
395.465
395.514
395.558
395.597
395.634
400
400
400
400
400
400
400
400
400
399.998
399.857
399.719
399.587
399.461
399.339
399.221
399.107
398.995
398.885
398.778
398.673
398.569
398.467
398.366
398.266
398.168
398.071
397.974
397.879
397.784
397.69
397.597
397.505
397.413
397.322
397.232
397.142
397.053
396.964
396.876
396.788
396.701
396.614
396.528
396.442
396.356
396.271
396.186
396.102
396.019
395.936
395.854
395.774
395.694
395.615
395.537
395.461
395.387
395.315
395.251
395.373
395.475
395.56
395.631
395.693
395.748
395.797
395.842
395.883
395.92
400
400
400
400
400
400
400
400
400
399.998
399.856
399.719
399.587
399.461
399.34
399.222
399.108
398.997
398.889
398.782
398.678
398.576
398.475
398.375
398.277
398.18
398.085
397.99
397.897
397.804
397.713
397.622
397.532
397.443
397.354
397.267
397.18
397.093
397.008
396.923
396.838
396.754
396.67
396.587
396.505
396.423
396.341
396.26
396.18
396.1
396.022
395.944
395.867
395.791
395.717
395.644
395.572
395.502
395.435
395.374
395.497
395.599
395.684
395.757
395.82
395.876
395.927
395.973
396.015
396.054
400
400
400
400
400
400
400
400
400
399.998
399.857
399.718
399.587
399.461
399.339
399.222
399.108
398.997
398.888
398.782
398.678
398.576
398.475
398.376
398.278
398.182
398.087
397.993
397.9
397.808
397.717
397.627
397.538
397.45
397.363
397.276
397.19
397.105
397.021
396.937
396.854
396.771
396.689
396.607
396.526
396.445
396.365
396.286
396.207
396.129
396.053
395.977
395.902
395.828
395.755