/*--------------------------------*- C++ -*----------------------------------*\
  =========                 |
  \\      /  F ield         | OpenFOAM: The Open Source CFD Toolbox
   \\    /   O peration     | Website:  https://openfoam.org
    \\  /    A nd           | Version:  12
     \\/     M anipulation  |
\*---------------------------------------------------------------------------*/
FoamFile
{
    format      ascii;
    class       volScalarField;
    location    "1800/porous";
    object      rho;
}
// * * * * * * * * * * * * * * * * * * * * * * * * * * * * * * * * * * * * * //

dimensions      [1 -3 0 0 0 0 0];

internalField   nonuniform List<scalar> 
140000
(
933.891
933.891
933.891
933.891
933.891
933.891
933.891
933.891
933.892
933.898
934.179
934.4
934.598
934.785
934.964
935.138
935.308
935.475
935.639
935.801
935.961
936.119
936.276
936.431
936.585
936.737
936.888
937.037
937.185
937.331
937.475
937.618
937.759
937.899
938.037
938.174
938.309
938.442
938.575
938.705
938.835
938.964
939.091
939.217
939.342
939.465
939.588
939.708
939.827
939.945
940.062
940.176
940.289
940.4
940.508
940.615
940.719
940.818
940.913
940.979
940.584
940.332
940.137
939.976
939.836
939.713
939.603
939.503
939.412
939.333
933.891
933.891
933.891
933.891
933.891
933.891
933.891
933.891
933.891
933.896
934.11
934.285
934.444
934.594
934.738
934.88
935.018
935.155
935.289
935.423
935.555
935.686
935.816
935.945
936.073
936.201
936.328
936.454
936.579
936.704
936.828
936.951
937.073
937.195
937.316
937.436
937.556
937.675
937.793
937.911
938.028
938.145
938.26
938.376
938.49
938.604
938.717
938.829
938.94
939.051
939.16
939.268
939.374
939.48
939.583
939.685
939.785
939.882
939.976
940.052
939.815
939.659
939.537
939.433
939.342
939.26
939.184
939.115
939.051
938.993
933.891
933.891
933.891
933.891
933.891
933.891
933.891
933.891
933.891
933.895
934.092
934.249
934.39
934.522
934.648
934.77
934.889
935.006
935.121
935.233
935.345
935.455
935.564
935.673
935.78
935.887
935.992
936.098
936.202
936.306
936.41
936.513
936.615
936.717
936.819
936.92
937.021
937.121
937.221
937.32
937.42
937.519
937.617
937.716
937.814
937.911
938.009
938.105
938.201
938.297
938.391
938.485
938.578
938.67
938.761
938.85
938.938
939.024
939.106
939.178
938.988
938.868
938.778
938.703
938.639
938.582
938.531
938.484
938.441
938.402
933.891
933.891
933.891
933.891
933.891
933.891
933.891
933.891
933.891
933.895
934.087
934.24
934.375
934.501
934.621
934.736
934.848
934.956
935.062
935.166
935.268
935.369
935.468
935.567
935.664
935.759
935.855
935.949
936.042
936.135
936.227
936.318
936.409
936.499
936.589
936.678
936.766
936.854
936.942
937.029
937.116
937.203
937.289
937.375
937.461
937.547
937.631
937.716
937.8
937.883
937.965
938.047
938.128
938.208
938.287
938.364
938.44
938.514
938.586
938.648
938.47
938.358
938.273
938.204
938.146
938.094
938.048
938.007
937.969
937.935
933.891
933.891
933.891
933.891
933.891
933.891
933.891
933.891
933.891
933.895
934.086
934.238
934.372
934.496
934.614
934.726
934.835
934.941
935.044
935.145
935.244
935.341
935.436
935.531
935.623
935.715
935.805
935.895
935.983
936.071
936.158
936.244
936.329
936.414
936.498
936.581
936.664
936.746
936.827
936.908
936.989
937.069
937.149
937.228
937.307
937.386
937.464
937.541
937.618
937.694
937.77
937.844
937.918
937.99
938.062
938.132
938.2
938.267
938.331
938.386
938.211
938.099
938.015
937.945
937.886
937.833
937.787
937.745
937.706
937.672
933.891
933.891
933.891
933.891
933.891
933.891
933.891
933.891
933.891
933.895
934.087
934.238
934.371
934.495
934.613
934.725
934.834
934.939
935.041
935.141
935.239
935.335
935.429
935.522
935.613
935.703
935.792
935.879
935.966
936.052
936.136
936.22
936.303
936.386
936.467
936.548
936.628
936.707
936.786
936.864
936.942
937.019
937.096
937.172
937.248
937.323
937.398
937.472
937.545
937.618
937.69
937.76
937.83
937.899
937.966
938.032
938.097
938.16
938.219
938.271
938.096
937.984
937.898
937.828
937.767
937.714
937.666
937.623
937.583
937.547
933.891
933.891
933.891
933.891
933.891
933.891
933.891
933.891
933.891
933.895
934.086
934.238
934.371
934.495
934.613
934.726
934.834
934.939
935.042
935.141
935.239
935.335
935.429
935.521
935.612
935.701
935.79
935.877
935.963
936.048
936.132
936.215
936.297
936.379
936.459
936.539
936.618
936.696
936.774
936.851
936.927
937.003
937.078
937.153
937.228
937.302
937.375
937.447
937.519
937.59
937.66
937.729
937.798
937.864
937.93
937.994
938.057
938.117
938.175
938.224
938.049
937.937
937.851
937.78
937.718
937.664
937.615
937.571
937.531
937.494
933.891
933.891
933.891
933.891
933.891
933.891
933.891
933.891
933.891
933.895
934.087
934.238
934.372
934.496
934.614
934.727
934.836
934.941
935.043
935.143
935.241
935.337
935.431
935.523
935.614
935.704
935.792
935.879
935.965
936.05
936.134
936.217
936.298
936.38
936.46
936.539
936.618
936.696
936.773
936.849
936.925
937.001
937.076
937.15
937.224
937.297
937.37
937.442
937.513
937.583
937.652
937.721
937.788
937.854
937.919
937.982
938.043
938.103
938.159
938.207
938.033
937.92
937.834
937.762
937.701
937.646
937.597
937.552
937.511
937.474
933.891
933.891
933.891
933.891
933.891
933.891
933.891
933.891
933.891
933.895
934.087
934.239
934.372
934.497
934.615
934.728
934.837
934.942
935.045
935.145
935.243
935.339
935.434
935.526
935.617
935.707
935.795
935.882
935.968
936.053
936.137
936.22
936.302
936.383
936.463
936.542
936.621
936.698
936.775
936.852
936.927
937.003
937.078
937.152
937.226
937.299
937.371
937.443
937.514
937.584
937.653
937.721
937.788
937.853
937.918
937.98
938.041
938.1
938.156
938.204
938.029
937.917
937.83
937.758
937.696
937.642
937.592
937.547
937.506
937.469
933.891
933.891
933.891
933.891
933.891
933.891
933.891
933.891
933.891
933.895
934.087
934.239
934.373
934.497
934.615
934.728
934.838
934.944
935.047
935.147
935.245
935.342
935.436
935.529
935.62
935.71
935.798
935.885
935.972
936.056
936.14
936.223
936.305
936.386
936.466
936.546
936.624
936.702
936.779
936.855
936.931
937.006
937.081
937.155
937.229
937.302
937.375
937.446
937.517
937.587
937.656
937.724
937.791
937.857
937.92
937.983
938.044
938.102
938.158
938.205
938.031
937.918
937.831
937.759
937.697
937.642
937.593
937.548
937.507
937.469
933.891
933.891
933.891
933.891
933.891
933.891
933.891
933.891
933.891
933.895
934.087
934.239
934.373
934.497
934.616
934.729
934.838
934.945
935.048
935.148
935.247
935.343
935.438
935.531
935.622
935.712
935.801
935.888
935.974
936.059
936.143
936.226
936.308
936.39
936.47
936.549
936.628
936.705
936.782
936.859
936.935
937.01
937.085
937.159
937.233
937.306
937.378
937.45
937.521
937.591
937.66
937.728
937.795
937.86
937.924
937.987
938.047
938.105
938.161
938.208
938.033
937.921
937.834
937.762
937.7
937.645
937.596
937.551
937.509
937.472
933.891
933.891
933.891
933.891
933.891
933.891
933.891
933.891
933.891
933.895
934.087
934.239
934.373
934.497
934.616
934.729
934.839
934.945
935.049
935.149
935.248
935.345
935.44
935.533
935.624
935.714
935.803
935.89
935.977
936.062
936.146
936.229
936.311
936.392
936.473
936.552
936.63
936.708
936.785
936.862
936.938
937.013
937.088
937.162
937.236
937.31
937.382
937.454
937.525
937.595
937.664
937.732
937.799
937.864
937.928
937.99
938.051
938.109
938.164
938.211
938.037
937.924
937.837
937.765
937.703
937.648
937.599
937.554
937.512
937.475
933.891
933.891
933.891
933.891
933.891
933.891
933.891
933.891
933.891
933.895
934.087
934.239
934.373
934.498
934.616
934.729
934.839
934.946
935.049
935.15
935.249
935.346
935.441
935.534
935.626
935.716
935.805
935.892
935.978
936.064
936.148
936.231
936.313
936.394
936.475
936.554
936.633
936.71
936.788
936.864
936.94
937.016
937.091
937.165
937.239
937.312
937.385
937.457
937.528
937.598
937.667
937.735
937.802
937.867
937.931
937.993
938.054
938.112
938.167
938.214
938.039
937.926
937.84
937.768
937.706
937.651
937.601
937.556
937.515
937.477
933.891
933.891
933.891
933.891
933.891
933.891
933.891
933.891
933.891
933.895
934.088
934.239
934.373
934.498
934.616
934.729
934.839
934.946
935.049
935.151
935.25
935.347
935.442
935.535
935.627
935.717
935.806
935.893
935.98
936.065
936.149
936.233
936.315
936.396
936.476
936.556
936.634
936.712
936.789
936.866
936.942
937.018
937.093
937.168
937.242
937.315
937.387
937.459
937.53
937.601
937.67
937.738
937.805
937.87
937.934
937.996
938.056
938.114
938.169
938.216
938.042
937.929
937.842
937.77
937.708
937.653
937.604
937.558
937.517
937.479
933.891
933.891
933.891
933.891
933.891
933.891
933.891
933.891
933.891
933.895
934.087
934.239
934.373
934.497
934.616
934.729
934.839
934.946
935.05
935.151
935.25
935.347
935.442
935.536
935.627
935.718
935.807
935.894
935.981
936.066
936.15
936.234
936.316
936.397
936.478
936.557
936.636
936.714
936.791
936.868
936.944
937.019
937.095
937.169
937.243
937.317
937.389
937.461
937.533
937.603
937.672
937.74
937.807
937.872
937.936
937.998
938.058
938.116
938.171
938.217
938.043
937.93
937.844
937.772
937.71
937.655
937.605
937.56
937.519
937.481
933.891
933.891
933.891
933.891
933.891
933.891
933.891
933.891
933.891
933.895
934.087
934.239
934.373
934.497
934.615
934.729
934.839
934.946
935.049
935.151
935.25
935.347
935.443
935.536
935.628
935.718
935.807
935.895
935.982
936.067
936.151
936.234
936.317
936.398
936.478
936.558
936.637
936.715
936.792
936.869
936.945
937.021
937.096
937.171
937.245
937.318
937.391
937.463
937.534
937.604
937.674
937.742
937.809
937.874
937.938
938
938.06
938.118
938.172
938.219
938.045
937.932
937.845
937.773
937.711
937.656
937.607
937.561
937.52
937.482
933.891
933.891
933.891
933.891
933.891
933.891
933.891
933.891
933.891
933.895
934.088
934.239
934.373
934.497
934.615
934.729
934.839
934.945
935.049
935.151
935.25
935.347
935.443
935.536
935.628
935.719
935.808
935.896
935.982
936.067
936.152
936.235
936.317
936.399
936.479
936.559
936.638
936.716
936.793
936.87
936.946
937.022
937.097
937.172
937.246
937.32
937.393
937.465
937.536
937.606
937.675
937.743
937.81
937.875
937.939
938.001
938.061
938.119
938.174
938.22
938.046
937.933
937.846
937.774
937.712
937.657
937.608
937.563
937.521
937.483
933.891
933.891
933.891
933.891
933.891
933.891
933.891
933.891
933.891
933.895
934.087
934.239
934.373
934.497
934.615
934.728
934.838
934.945
935.049
935.151
935.25
935.348
935.443
935.537
935.629
935.719
935.808
935.896
935.982
936.068
936.152
936.235
936.318
936.399
936.48
936.559
936.638
936.716
936.794
936.871
936.947
937.023
937.099
937.173
937.247
937.321
937.394
937.466
937.537
937.607
937.676
937.744
937.811
937.877
937.94
938.002
938.062
938.12
938.174
938.22
938.046
937.933
937.847
937.775
937.713
937.658
937.608
937.563
937.522
937.484
933.891
933.891
933.891
933.891
933.891
933.891
933.891
933.891
933.891
933.895
934.087
934.239
934.372
934.497
934.615
934.728
934.838
934.945
935.049
935.151
935.25
935.348
935.443
935.537
935.629
935.72
935.809
935.896
935.983
936.068
936.152
936.236
936.318
936.4
936.48
936.56
936.639
936.717
936.795
936.872
936.948
937.024
937.099
937.174
937.248
937.322
937.395
937.467
937.538
937.608
937.677
937.745
937.812
937.878
937.941
938.003
938.063
938.12
938.175
938.221
938.047
937.934
937.847
937.776
937.714
937.659
937.609
937.564
937.522
937.485
933.891
933.891
933.891
933.891
933.891
933.891
933.891
933.891
933.891
933.895
934.087
934.239
934.373
934.497
934.615
934.728
934.838
934.945
935.049
935.151
935.25
935.348
935.443
935.537
935.629
935.72
935.809
935.897
935.983
936.069
936.153
936.236
936.319
936.4
936.481
936.561
936.64
936.718
936.796
936.873
936.949
937.025
937.1
937.175
937.249
937.323
937.396
937.468
937.539
937.609
937.678
937.746
937.813
937.878
937.942
938.004
938.064
938.121
938.175
938.221
938.047
937.935
937.848
937.776
937.714
937.659
937.61
937.564
937.523
937.485
933.891
933.891
933.891
933.891
933.891
933.891
933.891
933.891
933.891
933.895
934.087
934.238
934.372
934.496
934.614
934.728
934.838
934.945
935.049
935.151
935.25
935.348
935.443
935.537
935.629
935.72
935.809
935.897
935.984
936.069
936.153
936.237
936.319
936.401
936.482
936.561
936.641
936.719
936.797
936.873
936.95
937.026
937.101
937.176
937.25
937.324
937.396
937.468
937.54
937.61
937.679
937.747
937.814
937.879
937.943
938.005
938.064
938.121
938.176
938.221
938.047
937.935
937.848
937.776
937.714
937.659
937.61
937.565
937.523
937.486
933.891
933.891
933.891
933.891
933.891
933.891
933.891
933.891
933.891
933.895
934.087
934.239
934.372
934.496
934.614
934.728
934.838
934.944
935.049
935.151
935.25
935.348
935.444
935.537
935.63
935.72
935.81
935.897
935.984
936.069
936.154
936.237
936.32
936.401
936.482
936.562
936.641
936.72
936.797
936.874
936.951
937.027
937.102
937.177
937.251
937.324
937.397
937.469
937.54
937.611
937.68
937.748
937.815
937.88
937.943
938.005
938.065
938.122
938.176
938.222
938.048
937.935
937.849
937.777
937.715
937.66
937.61
937.565
937.524
937.486
933.891
933.891
933.891
933.891
933.891
933.891
933.891
933.891
933.891
933.895
934.087
934.239
934.372
934.496
934.614
934.728
934.838
934.945
935.049
935.151
935.25
935.348
935.444
935.538
935.63
935.721
935.81
935.898
935.984
936.07
936.154
936.238
936.32
936.402
936.483
936.563
936.642
936.72
936.798
936.875
936.951
937.027
937.103
937.177
937.251
937.325
937.398
937.47
937.541
937.611
937.68
937.748
937.815
937.88
937.944
938.005
938.065
938.122
938.176
938.222
938.048
937.935
937.849
937.777
937.715
937.66
937.61
937.565
937.524
937.486
933.891
933.891
933.891
933.891
933.891
933.891
933.891
933.891
933.891
933.895
934.087
934.239
934.372
934.496
934.614
934.728
934.838
934.944
935.049
935.151
935.25
935.348
935.444
935.538
935.63
935.721
935.81
935.898
935.985
936.07
936.155
936.238
936.321
936.402
936.483
936.563
936.642
936.721
936.799
936.876
936.952
937.028
937.103
937.178
937.252
937.325
937.398
937.47
937.541
937.611
937.681
937.749
937.815
937.88
937.944
938.005
938.065
938.122
938.176
938.221
938.048
937.935
937.849
937.777
937.715
937.66
937.61
937.565
937.524
937.486
933.891
933.891
933.891
933.891
933.891
933.891
933.891
933.891
933.891
933.895
934.087
934.239
934.372
934.496
934.614
934.728
934.838
934.945
935.049
935.151
935.25
935.348
935.444
935.538
935.63
935.721
935.811
935.898
935.985
936.071
936.155
936.239
936.321
936.403
936.484
936.564
936.643
936.721
936.799
936.876
936.952
937.028
937.103
937.178
937.252
937.325
937.398
937.47
937.541
937.611
937.681
937.749
937.815
937.88
937.944
938.005
938.065
938.122
938.176
938.221
938.048
937.935
937.849
937.777
937.715
937.66
937.61
937.565
937.524
937.486
933.891
933.891
933.891
933.891
933.891
933.891
933.891
933.891
933.891
933.895
934.087
934.239
934.372
934.497
934.615
934.728
934.838
934.945
935.049
935.151
935.251
935.348
935.444
935.538
935.631
935.721
935.811
935.899
935.985
936.071
936.155
936.239
936.321
936.403
936.484
936.564
936.643
936.721
936.799
936.876
936.952
937.028
937.103
937.178
937.252
937.325
937.398
937.47
937.541
937.611
937.68
937.748
937.815
937.88
937.944
938.005
938.065
938.122
938.176
938.221
938.047
937.935
937.848
937.777
937.715
937.66
937.61
937.565
937.524
937.486
933.891
933.891
933.891
933.891
933.891
933.891
933.891
933.891
933.891
933.895
934.087
934.239
934.372
934.497
934.615
934.728
934.838
934.945
935.049
935.151
935.251
935.348
935.444
935.538
935.631
935.722
935.811
935.899
935.986
936.071
936.155
936.239
936.321
936.403
936.484
936.564
936.643
936.721
936.799
936.876
936.952
937.028
937.103
937.178
937.252
937.325
937.398
937.47
937.541
937.611
937.68
937.748
937.815
937.88
937.943
938.005
938.064
938.121
938.175
938.221
938.047
937.935
937.848
937.776
937.714
937.659
937.61
937.565
937.523
937.486
933.891
933.891
933.891
933.891
933.891
933.891
933.891
933.891
933.891
933.895
934.087
934.239
934.373
934.497
934.615
934.728
934.838
934.945
935.049
935.151
935.251
935.348
935.444
935.538
935.631
935.722
935.811
935.899
935.986
936.071
936.155
936.239
936.321
936.403
936.484
936.564
936.643
936.721
936.799
936.876
936.952
937.027
937.103
937.177
937.251
937.324
937.397
937.469
937.54
937.61
937.68
937.748
937.814
937.879
937.943
938.004
938.064
938.121
938.175
938.22
938.047
937.934
937.848
937.776
937.714
937.659
937.61
937.565
937.523
937.486
933.891
933.891
933.891
933.891
933.891
933.891
933.891
933.891
933.891
933.895
934.088
934.239
934.373
934.497
934.615
934.728
934.838
934.945
935.049
935.151
935.251
935.348
935.444
935.538
935.631
935.721
935.811
935.899
935.985
936.071
936.155
936.238
936.321
936.403
936.483
936.563
936.642
936.721
936.798
936.875
936.951
937.027
937.102
937.176
937.25
937.324
937.396
937.468
937.539
937.61
937.679
937.747
937.814
937.879
937.942
938.004
938.063
938.12
938.175
938.22
938.046
937.934
937.847
937.776
937.714
937.659
937.609
937.564
937.523
937.485
933.891
933.891
933.891
933.891
933.891
933.891
933.891
933.891
933.891
933.895
934.088
934.239
934.373
934.497
934.615
934.728
934.838
934.945
935.049
935.151
935.251
935.348
935.444
935.538
935.63
935.721
935.811
935.899
935.985
936.071
936.155
936.238
936.32
936.402
936.483
936.562
936.642
936.72
936.797
936.874
936.95
937.026
937.101
937.175
937.249
937.323
937.395
937.467
937.538
937.609
937.678
937.746
937.813
937.878
937.942
938.003
938.063
938.12
938.174
938.219
938.046
937.933
937.847
937.775
937.713
937.658
937.609
937.564
937.522
937.485
933.891
933.891
933.891
933.891
933.891
933.891
933.891
933.891
933.891
933.895
934.088
934.239
934.373
934.497
934.615
934.728
934.838
934.945
935.049
935.151
935.25
935.348
935.444
935.538
935.63
935.721
935.81
935.898
935.985
936.07
936.154
936.237
936.32
936.401
936.482
936.562
936.641
936.719
936.796
936.873
936.949
937.025
937.1
937.174
937.248
937.322
937.394
937.466
937.537
937.608
937.677
937.745
937.812
937.877
937.941
938.003
938.062
938.12
938.174
938.219
938.046
937.933
937.847
937.775
937.713
937.658
937.608
937.563
937.522
937.484
933.891
933.891
933.891
933.891
933.891
933.891
933.891
933.891
933.891
933.895
934.088
934.239
934.373
934.497
934.615
934.728
934.838
934.945
935.049
935.151
935.25
935.348
935.443
935.537
935.629
935.72
935.81
935.897
935.984
936.069
936.153
936.236
936.319
936.4
936.481
936.56
936.639
936.718
936.795
936.872
936.948
937.024
937.099
937.173
937.247
937.32
937.393
937.465
937.536
937.606
937.676
937.744
937.811
937.876
937.94
938.002
938.062
938.119
938.173
938.219
938.045
937.932
937.846
937.774
937.712
937.657
937.608
937.563
937.521
937.484
933.891
933.891
933.891
933.891
933.891
933.891
933.891
933.891
933.891
933.895
934.088
934.239
934.373
934.497
934.615
934.728
934.838
934.945
935.049
935.15
935.25
935.347
935.443
935.537
935.629
935.719
935.809
935.897
935.983
936.068
936.152
936.235
936.317
936.399
936.479
936.559
936.638
936.716
936.794
936.871
936.947
937.023
937.098
937.172
937.246
937.319
937.392
937.464
937.535
937.605
937.674
937.743
937.81
937.875
937.939
938.001
938.061
938.119
938.173
938.218
938.045
937.932
937.845
937.774
937.712
937.657
937.607
937.562
937.521
937.483
933.891
933.891
933.891
933.891
933.891
933.891
933.891
933.891
933.891
933.895
934.088
934.24
934.373
934.497
934.615
934.728
934.838
934.944
935.048
935.15
935.249
935.346
935.442
935.536
935.628
935.719
935.808
935.895
935.982
936.067
936.151
936.234
936.316
936.397
936.478
936.558
936.637
936.715
936.792
936.869
936.946
937.021
937.096
937.171
937.245
937.318
937.39
937.462
937.533
937.604
937.673
937.741
937.809
937.874
937.938
938.001
938.06
938.118
938.173
938.218
938.044
937.932
937.845
937.773
937.711
937.656
937.607
937.561
937.52
937.482
933.891
933.891
933.891
933.891
933.891
933.891
933.891
933.891
933.891
933.895
934.088
934.239
934.373
934.497
934.615
934.728
934.837
934.944
935.047
935.149
935.248
935.345
935.441
935.535
935.627
935.717
935.806
935.894
935.98
936.065
936.149
936.232
936.314
936.395
936.476
936.556
936.635
936.713
936.791
936.868
936.944
937.02
937.095
937.169
937.243
937.316
937.389
937.461
937.532
937.602
937.672
937.74
937.807
937.873
937.937
938
938.06
938.117
938.172
938.218
938.044
937.931
937.844
937.772
937.71
937.655
937.606
937.561
937.519
937.482
933.891
933.891
933.891
933.891
933.891
933.891
933.891
933.891
933.891
933.895
934.088
934.239
934.373
934.497
934.614
934.727
934.837
934.943
935.047
935.148
935.247
935.344
935.44
935.533
935.625
935.716
935.805
935.892
935.979
936.064
936.147
936.23
936.312
936.393
936.474
936.554
936.633
936.711
936.789
936.866
936.942
937.018
937.093
937.167
937.241
937.314
937.387
937.459
937.53
937.6
937.67
937.738
937.805
937.871
937.936
937.998
938.058
938.116
938.171
938.217
938.043
937.93
937.843
937.771
937.709
937.654
937.605
937.559
937.518
937.48
933.891
933.891
933.891
933.891
933.891
933.891
933.891
933.891
933.891
933.895
934.088
934.239
934.373
934.497
934.614
934.727
934.836
934.942
935.046
935.147
935.246
935.343
935.438
935.532
935.624
935.714
935.803
935.89
935.977
936.062
936.145
936.228
936.31
936.391
936.472
936.551
936.631
936.709
936.787
936.864
936.94
937.016
937.091
937.165
937.239
937.312
937.385
937.456
937.527
937.598
937.667
937.736
937.803
937.87
937.934
937.997
938.057
938.115
938.17
938.216
938.042
937.929
937.842
937.77
937.708
937.653
937.603
937.558
937.516
937.479
933.891
933.891
933.891
933.891
933.891
933.891
933.891
933.891
933.891
933.895
934.088
934.239
934.372
934.496
934.613
934.726
934.835
934.941
935.045
935.146
935.244
935.341
935.436
935.53
935.622
935.712
935.801
935.888
935.974
936.059
936.143
936.226
936.307
936.389
936.469
936.549
936.628
936.706
936.784
936.861
936.937
937.013
937.088
937.162
937.236
937.309
937.382
937.454
937.525
937.595
937.664
937.733
937.801
937.867
937.932
937.994
938.055
938.113
938.168
938.214
938.04
937.927
937.84
937.768
937.706
937.651
937.601
937.556
937.515
937.477
933.891
933.891
933.891
933.891
933.891
933.891
933.891
933.891
933.891
933.895
934.087
934.239
934.372
934.496
934.613
934.725
934.834
934.94
935.043
935.144
935.243
935.34
935.435
935.528
935.619
935.71
935.798
935.886
935.972
936.056
936.14
936.223
936.305
936.386
936.466
936.546
936.625
936.703
936.781
936.858
936.934
937.01
937.085
937.159
937.233
937.306
937.378
937.45
937.521
937.592
937.661
937.73
937.797
937.864
937.929
937.992
938.053
938.111
938.166
938.212
938.038
937.925
937.838
937.766
937.704
937.649
937.599
937.554
937.512
937.475
933.891
933.891
933.891
933.891
933.891
933.891
933.891
933.891
933.891
933.895
934.087
934.238
934.372
934.495
934.612
934.724
934.833
934.939
935.042
935.142
935.241
935.337
935.432
935.525
935.617
935.707
935.795
935.883
935.968
936.053
936.137
936.22
936.301
936.383
936.463
936.543
936.622
936.7
936.777
936.854
936.93
937.006
937.081
937.155
937.229
937.302
937.375
937.446
937.517
937.588
937.657
937.726
937.794
937.86
937.925
937.989
938.05
938.108
938.163
938.21
938.035
937.922
937.835
937.763
937.701
937.646
937.596
937.551
937.51
937.472
933.891
933.891
933.891
933.891
933.891
933.891
933.891
933.891
933.891
933.895
934.087
934.238
934.371
934.494
934.611
934.723
934.832
934.937
935.04
935.14
935.239
935.335
935.43
935.523
935.614
935.704
935.792
935.879
935.965
936.05
936.133
936.216
936.298
936.379
936.459
936.539
936.618
936.696
936.774
936.85
936.927
937.002
937.077
937.151
937.225
937.298
937.37
937.442
937.513
937.584
937.653
937.722
937.79
937.857
937.922
937.986
938.047
938.105
938.161
938.207
938.033
937.92
937.833
937.761
937.699
937.644
937.594
937.549
937.507
937.47
933.891
933.891
933.891
933.891
933.891
933.891
933.891
933.891
933.891
933.895
934.087
934.238
934.371
934.494
934.61
934.722
934.83
934.935
935.038
935.138
935.236
935.332
935.427
935.52
935.611
935.701
935.789
935.876
935.962
936.046
936.13
936.212
936.294
936.375
936.456
936.535
936.614
936.692
936.77
936.847
936.923
936.998
937.073
937.147
937.221
937.294
937.367
937.438
937.51
937.58
937.65
937.719
937.787
937.854
937.919
937.983
938.045
938.104
938.16
938.207
938.032
937.919
937.832
937.76
937.698
937.643
937.594
937.549
937.507
937.47
933.891
933.891
933.891
933.891
933.891
933.891
933.891
933.891
933.891
933.895
934.087
934.237
934.37
934.493
934.609
934.721
934.829
934.933
935.036
935.136
935.234
935.33
935.424
935.517
935.608
935.698
935.786
935.873
935.958
936.043
936.127
936.209
936.291
936.372
936.453
936.532
936.611
936.69
936.767
936.844
936.92
936.996
937.071
937.145
937.219
937.293
937.365
937.437
937.509
937.579
937.649
937.718
937.787
937.854
937.92
937.985
938.047
938.107
938.163
938.211
938.036
937.923
937.836
937.764
937.702
937.648
937.599
937.554
937.513
937.475
933.891
933.891
933.891
933.891
933.891
933.891
933.891
933.891
933.891
933.895
934.086
934.237
934.369
934.492
934.608
934.719
934.827
934.932
935.034
935.134
935.232
935.328
935.422
935.514
935.606
935.695
935.784
935.871
935.957
936.041
936.125
936.208
936.29
936.372
936.452
936.532
936.612
936.69
936.768
936.846
936.922
936.998
937.074
937.149
937.223
937.297
937.37
937.443
937.515
937.586
937.657
937.727
937.796
937.864
937.932
937.997
938.061
938.121
938.179
938.227
938.052
937.94
937.853
937.782
937.72
937.666
937.617
937.573
937.532
937.495
933.891
933.891
933.891
933.891
933.891
933.891
933.891
933.891
933.891
933.895
934.086
934.237
934.369
934.492
934.608
934.719
934.827
934.931
935.034
935.134
935.232
935.328
935.422
935.515
935.607
935.697
935.786
935.874
935.96
936.046
936.131
936.214
936.297
936.38
936.461
936.542
936.622
936.702
936.781
936.86
936.937
937.015
937.092
937.168
937.244
937.319
937.393
937.467
937.541
937.614
937.686
937.758
937.829
937.899
937.968
938.035
938.101
938.164
938.224
938.275
938.099
937.987
937.901
937.83
937.769
937.716
937.668
937.624
937.584
937.548
933.891
933.891
933.891
933.891
933.891
933.891
933.891
933.891
933.891
933.895
934.086
934.237
934.369
934.492
934.609
934.72
934.829
934.934
935.037
935.138
935.237
935.335
935.431
935.525
935.618
935.71
935.801
935.89
935.979
936.066
936.153
936.239
936.324
936.409
936.493
936.576
936.659
936.741
936.823
936.904
936.985
937.065
937.145
937.225
937.303
937.382
937.46
937.537
937.614
937.69
937.766
937.842
937.916
937.99
938.063
938.135
938.204
938.272
938.335
938.39
938.214
938.102
938.017
937.947
937.888
937.835
937.789
937.746
937.708
937.673
933.891
933.891
933.891
933.891
933.891
933.891
933.891
933.891
933.891
933.895
934.087
934.239
934.373
934.498
934.616
934.731
934.841
934.95
935.056
935.16
935.263
935.364
935.464
935.562
935.66
935.756
935.851
935.945
936.039
936.131
936.223
936.314
936.405
936.495
936.585
936.674
936.763
936.851
936.939
937.026
937.113
937.2
937.286
937.372
937.458
937.543
937.627
937.712
937.796
937.879
937.962
938.044
938.126
938.207
938.288
938.367
938.444
938.518
938.59
938.651
938.473
938.36
938.276
938.206
938.147
938.096
938.05
938.008
937.971
937.936
933.891
933.891
933.891
933.891
933.891
933.891
933.891
933.891
933.891
933.895
934.092
934.248
934.388
934.519
934.644
934.765
934.884
935.001
935.115
935.229
935.341
935.451
935.561
935.67
935.778
935.884
935.991
936.096
936.2
936.304
936.408
936.511
936.613
936.715
936.816
936.918
937.018
937.119
937.219
937.318
937.418
937.517
937.615
937.713
937.811
937.908
938.005
938.101
938.197
938.293
938.388
938.482
938.576
938.669
938.761
938.852
938.94
939.027
939.109
939.18
938.99
938.87
938.78
938.705
938.64
938.583
938.532
938.485
938.442
938.403
933.891
933.891
933.891
933.891
933.891
933.891
933.891
933.891
933.891
933.896
934.11
934.285
934.442
934.591
934.735
934.876
935.014
935.15
935.285
935.419
935.552
935.683
935.814
935.944
936.073
936.201
936.328
936.454
936.58
936.704
936.828
936.951
937.073
937.195
937.316
937.436
937.556
937.675
937.793
937.911
938.027
938.143
938.259
938.374
938.488
938.601
938.713
938.825
938.936
939.046
939.155
939.263
939.371
939.477
939.582
939.685
939.786
939.884
939.978
940.053
939.816
939.66
939.538
939.434
939.342
939.26
939.185
939.115
939.051
938.993
933.891
933.891
933.891
933.891
933.891
933.891
933.891
933.891
933.892
933.898
934.18
934.4
934.597
934.783
934.961
935.134
935.304
935.471
935.636
935.799
935.959
936.119
936.276
936.432
936.587
936.74
936.891
937.04
937.188
937.334
937.478
937.62
937.761
937.901
938.038
938.175
938.31
938.443
938.575
938.706
938.835
938.963
939.089
939.214
939.338
939.46
939.582
939.702
939.82
939.938
940.054
940.169
940.283
940.396
940.506
940.614
940.719
940.82
940.914
940.979
940.584
940.332
940.137
939.975
939.836
939.713
939.603
939.503
939.412
939.332
933.891
933.891
933.891
933.891
933.891
933.891
933.891
933.891
933.891
933.896
934.108
934.31
934.499
934.682
934.858
935.031
935.2
935.366
935.531
935.693
935.853
936.012
936.17
936.325
936.48
936.633
936.784
936.934
937.082
937.229
937.374
937.518
937.66
937.801
937.939
938.077
938.212
938.347
938.479
938.611
938.741
938.87
938.998
939.124
939.25
939.374
939.496
939.617
939.737
939.855
939.972
940.087
940.201
940.312
940.421
940.529
940.633
940.734
940.83
940.902
940.576
940.335
940.144
939.983
939.844
939.721
939.611
939.511
939.419
939.339
933.891
933.891
933.891
933.891
933.891
933.891
933.891
933.891
933.891
933.894
934.045
934.197
934.344
934.487
934.627
934.765
934.901
935.035
935.168
935.3
935.431
935.561
935.69
935.818
935.946
936.073
936.2
936.325
936.45
936.575
936.699
936.822
936.944
937.066
937.187
937.307
937.427
937.546
937.664
937.782
937.899
938.016
938.132
938.247
938.362
938.476
938.589
938.702
938.813
938.924
939.033
939.142
939.249
939.355
939.459
939.562
939.663
939.761
939.856
939.937
939.771
939.635
939.521
939.422
939.334
939.254
939.181
939.113
939.049
938.992
933.891
933.891
933.891
933.891
933.891
933.891
933.891
933.891
933.891
933.894
934.03
934.164
934.294
934.419
934.54
934.659
934.775
934.89
935.002
935.114
935.224
935.333
935.441
935.548
935.655
935.76
935.865
935.97
936.074
936.177
936.28
936.382
936.484
936.586
936.687
936.788
936.888
936.988
937.088
937.187
937.286
937.384
937.483
937.581
937.679
937.776
937.873
937.97
938.066
938.161
938.256
938.35
938.443
938.536
938.626
938.716
938.805
938.892
938.975
939.051
938.928
938.827
938.745
938.675
938.615
938.56
938.511
938.466