/*--------------------------------*- C++ -*----------------------------------*\
  =========                 |
  \\      /  F ield         | OpenFOAM: The Open Source CFD Toolbox
   \\    /   O peration     | Website:  https://openfoam.org
    \\  /    A nd           | Version:  12
     \\/     M anipulation  |
\*---------------------------------------------------------------------------*/
FoamFile
{
    format      ascii;
    class       volScalarField;
    location    "1800/porous";
    object      T;
}
// * * * * * * * * * * * * * * * * * * * * * * * * * * * * * * * * * * * * * //

dimensions      [0 0 0 1 0 0 0];

internalField   nonuniform List<scalar> 
140000
(
400
400
400
400
400
400
400
400
400
399.993
399.691
399.454
399.241
399.04
398.847
398.659
398.475
398.295
398.117
397.942
397.768
397.596
397.426
397.257
397.09
396.924
396.759
396.596
396.435
396.275
396.117
395.961
395.806
395.652
395.501
395.35
395.202
395.055
394.909
394.764
394.621
394.479
394.338
394.199
394.06
393.923
393.788
393.654
393.521
393.39
393.261
393.133
393.008
392.883
392.763
392.644
392.528
392.416
392.31
392.236
392.678
392.96
393.177
393.357
393.512
393.648
393.77
393.881
393.982
394.071
400
400
400
400
400
400
400
400
400
399.995
399.765
399.577
399.407
399.246
399.09
398.937
398.788
398.641
398.495
398.351
398.208
398.066
397.925
397.785
397.646
397.507
397.369
397.232
397.096
396.96
396.825
396.691
396.557
396.424
396.291
396.16
396.029
395.898
395.768
395.639
395.51
395.382
395.255
395.128
395.002
394.876
394.751
394.628
394.505
394.383
394.262
394.143
394.024
393.908
393.792
393.68
393.568
393.461
393.356
393.272
393.536
393.708
393.844
393.959
394.06
394.152
394.235
394.312
394.383
394.447
400
400
400
400
400
400
400
400
400
399.996
399.785
399.616
399.465
399.323
399.187
399.055
398.927
398.801
398.678
398.556
398.435
398.316
398.198
398.081
397.964
397.849
397.734
397.62
397.506
397.393
397.28
397.168
397.057
396.945
396.835
396.724
396.614
396.505
396.396
396.287
396.178
396.07
395.961
395.853
395.746
395.639
395.532
395.426
395.32
395.215
395.111
395.007
394.905
394.803
394.704
394.605
394.508
394.413
394.322
394.242
394.453
394.584
394.684
394.767
394.838
394.901
394.957
395.009
395.056
395.099
400
400
400
400
400
400
400
400
400
399.996
399.79
399.626
399.481
399.345
399.216
399.092
398.972
398.855
398.741
398.628
398.518
398.409
398.302
398.195
398.09
397.987
397.883
397.781
397.68
397.579
397.479
397.38
397.281
397.183
397.086
396.988
396.892
396.796
396.7
396.605
396.51
396.415
396.321
396.226
396.132
396.039
395.946
395.853
395.761
395.67
395.58
395.49
395.401
395.313
395.226
395.141
395.057
394.975
394.896
394.828
395.024
395.148
395.241
395.317
395.381
395.438
395.488
395.534
395.575
395.613
400
400
400
400
400
400
400
400
400
399.996
399.791
399.629
399.485
399.351
399.224
399.103
398.985
398.871
398.76
398.651
398.544
398.44
398.336
398.234
398.134
398.035
397.937
397.84
397.744
397.648
397.554
397.461
397.368
397.276
397.184
397.094
397.004
396.914
396.825
396.737
396.649
396.561
396.474
396.387
396.301
396.215
396.129
396.045
395.96
395.877
395.794
395.712
395.632
395.552
395.474
395.396
395.321
395.247
395.177
395.116
395.31
395.432
395.525
395.602
395.667
395.724
395.775
395.822
395.864
395.902
400
400
400
400
400
400
400
400
400
399.996
399.791
399.628
399.485
399.352
399.225
399.104
398.987
398.874
398.763
398.656
398.55
398.446
398.344
398.244
398.145
398.048
397.952
397.856
397.762
397.669
397.577
397.486
397.396
397.307
397.218
397.13
397.043
396.956
396.87
396.785
396.7
396.616
396.532
396.449
396.366
396.284
396.202
396.121
396.04
395.961
395.882
395.804
395.728
395.652
395.578
395.506
395.435
395.366
395.3
395.243
395.436
395.559
395.653
395.73
395.797
395.856
395.908
395.956
395.999
396.038
400
400
400
400
400
400
400
400
400
399.996
399.791
399.628
399.485
399.351
399.225
399.104
398.987
398.873
398.763
398.655
398.55
398.446
398.345
398.245
398.146
398.049
397.954
397.859
397.766
397.674
397.582
397.492
397.403
397.314
397.227
397.14
397.054
396.968
396.884
396.8
396.716
396.634
396.551
396.469
396.388
396.307
396.227
396.148
396.069
395.991
395.914
395.838
395.764
395.69
395.618
395.548
395.479
395.413
395.349
395.295
395.487
395.611
395.705
395.783
395.851
395.91
395.963
396.012
396.056
396.096
400
400
400
400
400
400
400
400
400
399.996
399.79
399.628
399.484
399.351
399.224
399.102
398.985
398.872
398.761
398.653
398.547
398.444
398.342
398.242
398.144
398.047
397.951
397.857
397.764
397.671
397.58
397.49
397.401
397.313
397.226
397.14
397.054
396.969
396.885
396.801
396.719
396.636
396.554
396.473
396.392
396.312
396.233
396.154
396.076
395.999
395.923
395.848
395.774
395.702
395.631
395.561
395.494
395.428
395.366
395.313
395.505
395.629
395.724
395.802
395.87
395.93
395.984
396.033
396.078
396.118
400
400
400
400
400
400
400
400
400
399.996
399.79
399.627
399.484
399.35
399.223
399.101
398.984
398.87
398.759
398.651
398.545
398.441
398.339
398.239
398.141
398.044
397.948
397.853
397.76
397.668
397.577
397.487
397.398
397.31
397.223
397.136
397.051
396.966
396.882
396.799
396.716
396.634
396.552
396.471
396.39
396.31
396.231
396.153
396.075
395.998
395.922
395.848
395.774
395.702
395.632
395.563
395.496
395.431
395.37
395.317
395.509
395.633
395.728
395.807
395.875
395.935
395.989
396.038
396.083
396.124
400
400
400
400
400
400
400
400
400
399.996
399.79
399.627
399.483
399.35
399.222
399.101
398.983
398.869
398.757
398.649
398.543
398.439
398.337
398.236
398.138
398.04
397.944
397.85
397.757
397.664
397.573
397.483
397.394
397.306
397.219
397.132
397.047
396.962
396.878
396.795
396.712
396.63
396.548
396.467
396.386
396.306
396.227
396.149
396.071
395.995
395.919
395.844
395.771
395.699
395.629
395.56
395.493
395.429
395.368
395.316
395.508
395.632
395.727
395.806
395.874
395.934
395.988
396.037
396.083
396.124
400
400
400
400
400
400
400
400
400
399.996
399.79
399.627
399.483
399.349
399.222
399.1
398.982
398.868
398.756
398.648
398.541
398.437
398.335
398.234
398.135
398.038
397.942
397.847
397.753
397.661
397.57
397.48
397.391
397.302
397.215
397.129
397.043
396.958
396.874
396.791
396.708
396.626
396.544
396.463
396.382
396.302
396.223
396.145
396.067
395.99
395.914
395.84
395.767
395.695
395.625
395.556
395.489
395.425
395.365
395.313
395.505
395.629
395.724
395.803
395.871
395.931
395.985
396.035
396.08
396.121
400
400
400
400
400
400
400
400
400
399.996
399.79
399.627
399.483
399.349
399.222
399.1
398.981
398.867
398.755
398.646
398.54
398.435
398.333
398.232
398.133
398.035
397.939
397.844
397.751
397.658
397.567
397.477
397.388
397.299
397.212
397.126
397.04
396.955
396.871
396.788
396.705
396.623
396.541
396.459
396.379
396.299
396.219
396.141
396.063
395.986
395.91
395.836
395.762
395.691
395.62
395.552
395.486
395.422
395.361
395.309
395.501
395.625
395.72
395.799
395.867
395.928
395.982
396.031
396.077
396.118
400
400
400
400
400
400
400
400
400
399.996
399.79
399.627
399.483
399.349
399.222
399.099
398.981
398.867
398.755
398.646
398.539
398.434
398.332
398.231
398.132
398.034
397.938
397.843
397.749
397.656
397.565
397.475
397.385
397.297
397.21
397.123
397.038
396.953
396.869
396.785
396.702
396.62
396.538
396.456
396.376
396.295
396.216
396.137
396.06
395.983
395.907
395.832
395.759
395.687
395.617
395.549
395.482
395.418
395.358
395.307
395.498
395.622
395.717
395.796
395.864
395.925
395.979
396.028
396.074
396.115
400
400
400
400
400
400
400
400
400
399.996
399.789
399.627
399.483
399.349
399.222
399.1
398.981
398.866
398.754
398.645
398.538
398.434
398.331
398.23
398.13
398.033
397.936
397.841
397.747
397.655
397.563
397.473
397.384
397.295
397.208
397.121
397.036
396.951
396.867
396.783
396.7
396.617
396.535
396.454
396.373
396.293
396.213
396.134
396.057
395.98
395.904
395.829
395.756
395.684
395.614
395.546
395.479
395.416
395.355
395.304
395.496
395.62
395.715
395.794
395.862
395.922
395.977
396.026
396.071
396.113
400
400
400
400
400
400
400
400
400
399.996
399.79
399.627
399.483
399.349
399.222
399.1
398.981
398.866
398.754
398.645
398.538
398.433
398.33
398.229
398.13
398.032
397.935
397.84
397.746
397.654
397.562
397.472
397.382
397.294
397.206
397.12
397.034
396.949
396.865
396.781
396.698
396.616
396.533
396.452
396.371
396.291
396.211
396.132
396.054
395.977
395.902
395.827
395.753
395.682
395.612
395.543
395.477
395.413
395.353
395.302
395.494
395.618
395.713
395.792
395.86
395.92
395.975
396.024
396.07
396.111
400
400
400
400
400
400
400
400
400
399.996
399.79
399.627
399.483
399.349
399.222
399.1
398.982
398.866
398.754
398.645
398.538
398.433
398.33
398.228
398.129
398.031
397.935
397.839
397.746
397.653
397.561
397.471
397.382
397.293
397.205
397.119
397.033
396.948
396.864
396.78
396.697
396.614
396.532
396.45
396.369
396.289
396.209
396.13
396.052
395.975
395.9
395.825
395.751
395.68
395.61
395.541
395.475
395.412
395.352
395.301
395.492
395.616
395.711
395.79
395.858
395.919
395.973
396.023
396.068
396.109
400
400
400
400
400
400
400
400
400
399.996
399.79
399.627
399.483
399.35
399.223
399.1
398.982
398.867
398.754
398.645
398.538
398.433
398.329
398.228
398.128
398.031
397.934
397.839
397.745
397.652
397.561
397.47
397.381
397.292
397.205
397.118
397.032
396.947
396.863
396.779
396.696
396.613
396.53
396.449
396.368
396.287
396.208
396.129
396.051
395.974
395.898
395.823
395.75
395.678
395.608
395.54
395.474
395.411
395.35
395.3
395.491
395.615
395.71
395.789
395.857
395.918
395.972
396.021
396.067
396.108
400
400
400
400
400
400
400
400
400
399.996
399.79
399.627
399.483
399.35
399.223
399.101
398.982
398.867
398.755
398.645
398.538
398.432
398.329
398.228
398.128
398.03
397.934
397.838
397.745
397.652
397.56
397.47
397.381
397.292
397.204
397.117
397.031
396.946
396.862
396.778
396.694
396.612
396.529
396.447
396.366
396.286
396.206
396.128
396.05
395.973
395.897
395.822
395.749
395.677
395.607
395.539
395.473
395.41
395.35
395.299
395.491
395.614
395.71
395.788
395.857
395.917
395.971
396.021
396.066
396.107
400
400
400
400
400
400
400
400
400
399.996
399.79
399.627
399.484
399.35
399.223
399.101
398.982
398.867
398.755
398.645
398.538
398.432
398.329
398.228
398.128
398.03
397.933
397.838
397.744
397.652
397.56
397.47
397.38
397.291
397.204
397.117
397.031
396.945
396.861
396.777
396.693
396.611
396.528
396.446
396.365
396.285
396.205
396.126
396.048
395.971
395.896
395.821
395.748
395.676
395.606
395.538
395.472
395.409
395.349
395.299
395.49
395.614
395.709
395.788
395.856
395.916
395.971
396.02
396.065
396.107
400
400
400
400
400
400
400
400
400
399.996
399.79
399.627
399.483
399.35
399.223
399.101
398.983
398.867
398.755
398.645
398.538
398.432
398.329
398.227
398.128
398.029
397.933
397.838
397.744
397.651
397.56
397.469
397.38
397.291
397.203
397.116
397.03
396.944
396.86
396.776
396.692
396.61
396.527
396.445
396.364
396.284
396.204
396.125
396.047
395.97
395.895
395.82
395.747
395.675
395.605
395.537
395.471
395.408
395.348
395.298
395.489
395.613
395.708
395.787
395.855
395.916
395.97
396.019
396.065
396.106
400
400
400
400
400
400
400
400
400
399.996
399.79
399.628
399.484
399.35
399.223
399.101
398.983
398.868
398.755
398.645
398.538
398.432
398.329
398.227
398.127
398.029
397.933
397.837
397.743
397.651
397.559
397.469
397.379
397.29
397.202
397.115
397.029
396.944
396.859
396.775
396.692
396.609
396.526
396.445
396.363
396.283
396.203
396.125
396.047
395.97
395.894
395.819
395.746
395.674
395.604
395.536
395.471
395.408
395.348
395.298
395.489
395.613
395.708
395.787
395.855
395.915
395.97
396.019
396.064
396.106
400
400
400
400
400
400
400
400
400
399.996
399.79
399.627
399.484
399.35
399.223
399.101
398.983
398.868
398.755
398.645
398.538
398.432
398.329
398.227
398.127
398.029
397.932
397.837
397.743
397.65
397.559
397.468
397.378
397.289
397.201
397.114
397.028
396.943
396.858
396.774
396.691
396.608
396.525
396.444
396.363
396.282
396.203
396.124
396.046
395.969
395.893
395.818
395.745
395.674
395.604
395.536
395.47
395.408
395.348
395.298
395.489
395.613
395.708
395.786
395.855
395.915
395.969
396.019
396.064
396.105
400
400
400
400
400
400
400
400
400
399.996
399.79
399.627
399.484
399.35
399.223
399.101
398.983
398.868
398.755
398.645
398.538
398.432
398.328
398.227
398.127
398.028
397.932
397.836
397.742
397.65
397.558
397.467
397.378
397.289
397.201
397.114
397.027
396.942
396.857
396.773
396.69
396.607
396.525
396.443
396.362
396.282
396.202
396.123
396.045
395.968
395.892
395.818
395.745
395.673
395.603
395.536
395.47
395.407
395.348
395.298
395.489
395.612
395.707
395.786
395.854
395.915
395.969
396.018
396.064
396.105
400
400
400
400
400
400
400
400
400
399.996
399.79
399.627
399.484
399.35
399.224
399.101
398.983
398.868
398.755
398.645
398.537
398.432
398.328
398.227
398.127
398.028
397.931
397.836
397.742
397.649
397.558
397.467
397.377
397.288
397.2
397.113
397.027
396.941
396.857
396.773
396.689
396.606
396.524
396.443
396.362
396.281
396.202
396.123
396.045
395.968
395.892
395.817
395.744
395.673
395.603
395.535
395.47
395.407
395.348
395.298
395.489
395.613
395.707
395.786
395.854
395.915
395.969
396.018
396.064
396.105
400
400
400
400
400
400
400
400
400
399.996
399.79
399.627
399.484
399.35
399.223
399.101
398.983
398.868
398.755
398.645
398.537
398.432
398.328
398.226
398.126
398.028
397.931
397.836
397.742
397.649
397.557
397.467
397.377
397.288
397.2
397.113
397.027
396.941
396.856
396.772
396.689
396.606
396.524
396.442
396.361
396.281
396.202
396.123
396.045
395.968
395.892
395.817
395.744
395.673
395.603
395.535
395.47
395.407
395.348
395.298
395.489
395.613
395.708
395.786
395.854
395.915
395.969
396.018
396.064
396.105
400
400
400
400
400
400
400
400
400
399.996
399.79
399.627
399.484
399.35
399.223
399.101
398.983
398.867
398.755
398.645
398.537
398.432
398.328
398.226
398.126
398.028
397.931
397.835
397.741
397.649
397.557
397.466
397.376
397.288
397.2
397.113
397.026
396.941
396.856
396.772
396.689
396.606
396.524
396.443
396.362
396.281
396.202
396.123
396.045
395.968
395.892
395.818
395.744
395.673
395.603
395.536
395.47
395.408
395.348
395.298
395.489
395.613
395.708
395.787
395.855
395.915
395.969
396.019
396.064
396.105
400
400
400
400
400
400
400
400
400
399.996
399.79
399.627
399.484
399.35
399.223
399.101
398.983
398.867
398.755
398.645
398.537
398.432
398.328
398.226
398.126
398.028
397.931
397.835
397.741
397.648
397.557
397.466
397.376
397.288
397.2
397.113
397.026
396.941
396.856
396.772
396.689
396.606
396.524
396.443
396.362
396.282
396.202
396.123
396.045
395.968
395.893
395.818
395.745
395.673
395.604
395.536
395.471
395.408
395.349
395.299
395.49
395.613
395.708
395.787
395.855
395.915
395.969
396.019
396.064
396.105
400
400
400
400
400
400
400
400
400
399.996
399.79
399.627
399.483
399.35
399.223
399.101
398.982
398.867
398.755
398.645
398.537
398.431
398.328
398.226
398.126
398.028
397.931
397.835
397.741
397.648
397.557
397.466
397.377
397.288
397.2
397.113
397.027
396.941
396.857
396.773
396.69
396.607
396.525
396.443
396.362
396.282
396.203
396.124
396.046
395.969
395.893
395.819
395.745
395.674
395.604
395.536
395.471
395.408
395.349
395.299
395.49
395.614
395.708
395.787
395.855
395.916
395.97
396.019
396.065
396.106
400
400
400
400
400
400
400
400
400
399.996
399.79
399.627
399.483
399.35
399.223
399.101
398.982
398.867
398.755
398.645
398.537
398.432
398.328
398.226
398.126
398.028
397.931
397.835
397.741
397.649
397.557
397.467
397.377
397.288
397.2
397.113
397.027
396.942
396.857
396.773
396.69
396.608
396.526
396.444
396.363
396.283
396.204
396.125
396.047
395.97
395.894
395.819
395.746
395.675
395.605
395.537
395.472
395.409
395.349
395.3
395.49
395.614
395.709
395.788
395.856
395.916
395.97
396.02
396.065
396.106
400
400
400
400
400
400
400
400
400
399.996
399.79
399.627
399.483
399.35
399.223
399.101
398.982
398.867
398.755
398.645
398.537
398.432
398.328
398.226
398.126
398.028
397.931
397.836
397.742
397.649
397.558
397.467
397.378
397.289
397.201
397.114
397.028
396.943
396.858
396.774
396.691
396.609
396.527
396.445
396.364
396.284
396.205
396.126
396.048
395.971
395.895
395.82
395.747
395.675
395.605
395.538
395.472
395.409
395.35
395.3
395.491
395.615
395.71
395.788
395.856
395.917
395.971
396.02
396.066
396.107
400
400
400
400
400
400
400
400
400
399.996
399.789
399.627
399.483
399.349
399.223
399.101
398.982
398.867
398.755
398.645
398.537
398.432
398.328
398.227
398.127
398.028
397.932
397.836
397.742
397.65
397.558
397.468
397.378
397.29
397.202
397.115
397.029
396.944
396.859
396.775
396.692
396.61
396.528
396.446
396.366
396.285
396.206
396.127
396.049
395.972
395.896
395.821
395.748
395.676
395.606
395.539
395.473
395.41
395.35
395.3
395.491
395.615
395.71
395.789
395.857
395.917
395.971
396.021
396.066
396.107
400
400
400
400
400
400
400
400
400
399.996
399.789
399.627
399.483
399.35
399.223
399.101
398.982
398.867
398.755
398.645
398.538
398.432
398.329
398.227
398.127
398.029
397.932
397.837
397.743
397.65
397.559
397.469
397.379
397.291
397.203
397.116
397.03
396.945
396.861
396.777
396.693
396.611
396.529
396.448
396.367
396.287
396.207
396.128
396.05
395.973
395.897
395.823
395.749
395.677
395.607
395.539
395.474
395.411
395.351
395.301
395.492
395.616
395.711
395.789
395.857
395.918
395.972
396.021
396.067
396.108
400
400
400
400
400
400
400
400
400
399.996
399.789
399.627
399.483
399.349
399.223
399.101
398.983
398.868
398.755
398.646
398.538
398.433
398.33
398.228
398.128
398.03
397.933
397.838
397.744
397.651
397.56
397.47
397.381
397.292
397.205
397.118
397.032
396.946
396.862
396.778
396.695
396.612
396.53
396.449
396.368
396.288
396.208
396.13
396.052
395.975
395.899
395.824
395.75
395.678
395.608
395.54
395.474
395.411
395.351
395.301
395.492
395.616
395.711
395.79
395.858
395.918
395.973
396.022
396.067
396.109
400
400
400
400
400
400
400
400
400
399.996
399.789
399.626
399.483
399.349
399.223
399.101
398.983
398.868
398.756
398.646
398.539
398.434
398.33
398.229
398.129
398.031
397.934
397.839
397.745
397.653
397.562
397.471
397.382
397.294
397.206
397.119
397.033
396.948
396.863
396.78
396.696
396.614
396.532
396.45
396.37
396.289
396.21
396.131
396.053
395.976
395.9
395.825
395.752
395.679
395.609
395.541
395.475
395.412
395.352
395.301
395.493
395.616
395.712
395.79
395.859
395.919
395.973
396.023
396.068
396.109
400
400
400
400
400
400
400
400
400
399.996
399.789
399.627
399.483
399.35
399.223
399.101
398.983
398.869
398.757
398.647
398.54
398.435
398.331
398.23
398.13
398.032
397.936
397.841
397.747
397.655
397.563
397.473
397.384
397.296
397.208
397.121
397.035
396.95
396.865
396.781
396.698
396.615
396.533
396.452
396.371
396.291
396.212
396.133
396.055
395.978
395.902
395.827
395.753
395.681
395.61
395.542
395.476
395.412
395.352
395.302
395.493
395.617
395.712
395.791
395.86
395.92
395.974
396.024
396.069
396.11
400
400
400
400
400
400
400
400
400
399.996
399.789
399.627
399.483
399.35
399.223
399.102
398.984
398.869
398.757
398.648
398.541
398.436
398.333
398.231
398.132
398.034
397.937
397.842
397.749
397.657
397.565
397.475
397.386
397.298
397.21
397.124
397.037
396.952
396.867
396.783
396.7
396.617
396.535
396.454
396.373
396.293
396.214
396.135
396.057
395.98
395.904
395.829
395.755
395.683
395.612
395.543
395.477
395.413
395.353
395.303
395.494
395.618
395.714
395.792
395.861
395.921
395.975
396.025
396.07
396.111
400
400
400
400
400
400
400
400
400
399.996
399.789
399.627
399.483
399.35
399.224
399.102
398.985
398.87
398.758
398.649
398.542
398.437
398.334
398.233
398.134
398.036
397.939
397.844
397.751
397.659
397.568
397.478
397.389
397.3
397.213
397.126
397.04
396.955
396.87
396.786
396.703
396.62
396.538
396.457
396.376
396.296
396.216
396.138
396.06
395.983
395.907
395.831
395.757
395.685
395.614
395.545
395.478
395.415
395.355
395.304
395.496
395.62
395.715
395.794
395.862
395.923
395.977
396.026
396.072
396.113
400
400
400
400
400
400
400
400
400
399.996
399.79
399.627
399.484
399.351
399.224
399.103
398.986
398.871
398.76
398.651
398.544
398.439
398.336
398.235
398.136
398.038
397.942
397.847
397.754
397.662
397.571
397.481
397.392
397.303
397.216
397.129
397.043
396.957
396.873
396.789
396.705
396.623
396.541
396.46
396.379
396.299
396.22
396.141
396.063
395.986
395.91
395.834
395.76
395.688
395.616
395.547
395.481
395.417
395.357
395.306
395.498
395.622
395.717
395.796
395.864
395.925
395.979
396.029
396.074
396.115
400
400
400
400
400
400
400
400
400
399.996
399.79
399.627
399.484
399.351
399.225
399.104
398.987
398.872
398.761
398.652
398.546
398.441
398.338
398.237
398.138
398.041
397.944
397.85
397.756
397.664
397.574
397.484
397.395
397.306
397.219
397.132
397.046
396.961
396.876
396.792
396.709
396.626
396.544
396.463
396.382
396.302
396.223
396.145
396.067
395.99
395.913
395.838
395.764
395.691
395.62
395.55
395.484
395.42
395.359
395.308
395.5
395.624
395.719
395.799
395.867
395.927
395.982
396.031
396.077
396.118
400
400
400
400
400
400
400
400
400
399.996
399.79
399.628
399.485
399.352
399.226
399.105
398.988
398.874
398.763
398.654
398.548
398.443
398.341
398.24
398.141
398.044
397.948
397.853
397.76
397.668
397.577
397.487
397.398
397.31
397.222
397.136
397.05
396.964
396.88
396.796
396.713
396.63
396.548
396.467
396.387
396.307
396.227
396.149
396.071
395.994
395.918
395.842
395.768
395.695
395.623
395.554
395.487
395.423
395.362
395.311
395.503
395.627
395.722
395.801
395.87
395.93
395.984
396.034
396.079
396.121
400
400
400
400
400
400
400
400
400
399.996
399.79
399.628
399.485
399.353
399.227
399.106
398.989
398.876
398.765
398.656
398.55
398.446
398.344
398.243
398.144
398.047
397.951
397.856
397.763
397.671
397.581
397.491
397.402
397.314
397.226
397.14
397.054
396.968
396.884
396.8
396.717
396.635
396.553
396.472
396.391
396.311
396.232
396.153
396.075
395.998
395.922
395.847
395.772
395.699
395.627
395.557
395.49
395.426
395.364
395.313
395.506
395.63
395.725
395.804
395.872
395.933
395.987
396.036
396.082
396.123
400
400
400
400
400
400
400
400
400
399.996
399.79
399.628
399.486
399.353
399.228
399.108
398.991
398.878
398.767
398.659
398.553
398.449
398.347
398.246
398.148
398.05
397.955
397.86
397.767
397.675
397.585
397.495
397.406
397.318
397.23
397.144
397.058
396.973
396.888
396.804
396.721
396.639
396.557
396.476
396.395
396.315
396.236
396.157
396.08
396.002
395.926
395.85
395.776
395.702
395.63
395.56
395.492
395.427
395.366
395.314
395.506
395.631
395.726
395.805
395.873
395.933
395.987
396.037
396.082
396.123
400
400
400
400
400
400
400
400
400
399.996
399.791
399.629
399.486
399.354
399.229
399.109
398.993
398.88
398.769
398.661
398.555
398.452
398.35
398.249
398.151
398.054
397.958
397.864
397.771
397.679
397.588
397.498
397.409
397.321
397.234
397.147
397.061
396.976
396.891
396.807
396.724
396.641
396.559
396.478
396.397
396.317
396.238
396.159
396.081
396.003
395.926
395.851
395.776
395.702
395.629
395.558
395.49
395.424
395.362
395.31
395.502
395.626
395.721
395.8
395.868
395.928
395.982
396.031
396.076
396.117
400
400
400
400
400
400
400
400
400
399.996
399.791
399.629
399.487
399.355
399.23
399.11
398.994
398.881
398.771
398.663
398.558
398.454
398.352
398.252
398.153
398.056
397.96
397.866
397.773
397.681
397.59
397.499
397.41
397.322
397.234
397.147
397.06
396.975
396.89
396.805
396.722
396.639
396.556
396.474
396.393
396.312
396.232
396.153
396.074
395.995
395.918
395.841
395.765
395.69
395.617
395.545
395.475
395.408
395.345
395.291
395.484
395.608
395.703
395.781
395.849
395.908
395.962
396.01
396.055
396.095
400
400
400
400
400
400
400
400
400
399.996
399.791
399.63
399.487
399.355
399.231
399.111
398.995
398.882
398.771
398.664
398.558
398.454
398.351
398.251
398.152
398.054
397.958
397.862
397.769
397.676
397.584
397.493
397.403
397.313
397.224
397.136
397.049
396.962
396.876
396.79
396.705
396.621
396.537
396.453
396.371
396.288
396.207
396.126
396.045
395.965
395.886
395.807
395.729
395.652
395.577
395.502
395.43
395.361
395.295
395.239
395.432
395.556
395.65
395.728
395.795
395.854
395.906
395.954
395.998
396.037
400
400
400
400
400
400
400
400
400
399.996
399.791
399.63
399.487
399.355
399.23
399.109
398.993
398.879
398.768
398.658
398.551
398.446
398.343
398.24
398.14
398.04
397.942
397.845
397.749
397.654
397.56
397.466
397.373
397.281
397.19
397.099
397.009
396.919
396.83
396.741
396.653
396.565
396.478
396.391
396.305
396.219
396.134
396.049
395.965
395.881
395.798
395.715
395.633
395.552
395.472
395.393
395.317
395.243
395.172
395.112
395.306
395.429
395.523
395.599
395.665
395.722
395.774
395.82
395.862
395.9
400
400
400
400
400
400
400
400
400
399.996
399.79
399.627
399.483
399.349
399.221
399.098
398.979
398.862
398.747
398.635
398.524
398.415
398.307
398.2
398.095
397.99
397.887
397.785
397.684
397.583
397.483
397.384
397.285
397.187
397.09
396.993
396.896
396.799
396.704
396.608
396.513
396.418
396.324
396.23
396.136
396.043
395.95
395.858
395.766
395.674
395.583
395.493
395.403
395.313
395.225
395.138
395.053
394.971
394.892
394.824
395.021
395.145
395.238
395.314
395.379
395.436
395.487
395.532
395.574
395.611
400
400
400
400
400
400
400
400
400
399.996
399.785
399.617
399.467
399.326
399.191
399.061
398.933
398.807
398.683
398.561
398.44
398.32
398.202
398.084
397.967
397.851
397.736
397.622
397.508
397.395
397.282
397.171
397.059
396.948
396.837
396.727
396.617
396.507
396.398
396.289
396.18
396.072
395.964
395.856
395.749
395.642
395.536
395.43
395.324
395.219
395.115
395.011
394.907
394.805
394.703
394.603
394.505
394.409
394.318
394.239
394.45
394.582
394.682
394.765
394.836
394.899
394.956
395.008
395.055
395.098
400
400
400
400
400
400
400
400
400
399.995
399.765
399.578
399.409
399.248
399.094
398.942
398.793
398.645
398.5
398.355
398.212
398.069
397.927
397.787
397.647
397.507
397.369
397.232
397.095
396.96
396.825
396.691
396.557
396.424
396.292
396.16
396.029
395.899
395.769
395.64
395.511
395.384
395.257
395.13
395.005
394.88
394.756
394.633
394.51
394.388
394.268
394.147
394.028
393.911
393.794
393.679
393.567
393.458
393.354
393.27
393.534
393.707
393.843
393.958
394.06
394.151
394.234
394.311
394.383
394.446
400
400
400
400
400
400
400
400
400
399.993
399.691
399.454
399.242
399.042
398.85
398.663
398.479
398.299
398.121
397.944
397.77
397.597
397.425
397.256
397.087
396.921
396.756
396.593
396.432
396.272
396.114
395.958
395.804
395.651
395.499
395.349
395.201
395.054
394.908
394.764
394.622
394.48
394.341
394.202
394.065
393.929
393.795
393.661
393.529
393.399
393.269
393.141
393.014
392.888
392.766
392.645
392.527
392.415
392.309
392.236
392.678
392.96
393.177
393.357
393.512
393.648
393.771
393.881
393.982
394.071
400
400
400
400
400
400
400
400
400
399.995
399.767
399.551
399.347
399.151
398.961
398.775
398.592
398.412
398.234
398.059
397.885
397.712
397.541
397.372
397.204
397.037
396.872
396.709
396.547
396.386
396.227
396.07
395.914
395.76
395.608
395.457
395.308
395.16
395.014
394.869
394.725
394.583
394.442
394.301
394.163
394.025
393.889
393.755
393.622
393.49
393.36
393.232
393.106
392.981
392.86
392.74
392.623
392.51
392.403
392.322
392.687
392.956
393.169
393.348
393.503
393.64
393.762
393.873
393.975
394.064
400
400
400
400
400
400
400
400
400
399.997
399.835
399.672
399.514
399.36
399.21
399.061
398.915
398.77
398.626
398.484
398.342
398.202
398.062
397.923
397.784
397.646
397.509
397.372
397.236
397.101
396.966
396.832
396.698
396.565
396.433
396.301
396.17
396.04
395.91
395.781
395.652
395.524
395.397
395.27
395.143
395.018
394.893
394.769
394.646
394.524
394.402
394.282
394.164
394.046
393.93
393.817
393.705
393.596
393.49
393.399
393.584
393.736
393.862
393.972
394.069
394.158
394.239
394.314
394.384
394.447
400
400
400
400
400
400
400
400
400
399.998
399.851
399.707
399.568
399.434
399.303
399.175
399.05
398.927
398.805
398.685
398.566
398.448
398.332
398.216
398.1
397.986
397.872
397.758
397.646
397.533
397.421
397.31
397.199
397.089
396.978
396.869
396.759
396.65
396.541
396.433
396.325
396.217
396.109
396.001
395.894
395.787
395.68
395.574
395.469
395.364
395.26
395.156
395.054
394.952
394.852
394.752
394.655
394.559
394.467
394.383
394.519
394.63
394.72
394.797
394.865
394.925
394.979
395.028
395.074
395.115
400
400
400
400
400
400
400
400
400
399.998
399.856
399.716
399.583
399.454
399.331
399.21
399.093
398.979
398.866
398.755
398.646
398.539
398.432
398.327
398.223
398.12
398.018
397.916
397.816
397.716
397.616
397.518
397.42
397.322
397.225
397.128
397.032
396.937
396.841
396.746
396.652
396.558
396.463
396.37
396.276
396.183
396.09
395.998
395.906
395.815
395.725
395.635
395.546
395.458
395.371
395.285
395.2
395.118
395.038
394.966
395.091
395.193
395.277
395.348
395.41
395.464
395.512
395.556
395.596
395.633
400
400
400
400
400
400
400
400
400
399.998
399.857
399.718
399.586
399.46
399.338
399.22
399.106
398.994
398.884
398.777
398.672
398.568
398.466
398.365
398.266
398.167
398.07
397.973
397.878
397.783
397.689
397.596
397.504
397.412
397.321
397.231
397.141
397.052
396.964
396.876
396.788
396.701
396.614
396.527
396.441
396.355
396.27
396.185
396.101
396.018
395.935
395.854
395.772
395.693
395.614
395.536
395.46
395.386
395.314
395.25
395.372
395.474
395.559
395.63
395.692
395.747
395.796
395.841
395.882
395.919
400
400
400
400
400
400
400
400
400
399.998
399.856
399.718
399.586
399.46
399.339
399.221
399.107
398.996
398.888
398.781
398.677
398.575
398.474
398.374
398.276
398.18
398.084
397.989
397.896
397.803
397.712
397.621
397.531
397.442
397.354
397.266
397.179
397.093
397.007
396.922
396.838
396.754
396.67
396.587
396.504
396.422
396.341
396.26
396.179
396.1
396.021
395.943
395.866
395.79
395.716
395.643
395.571
395.501
395.434
395.374
395.496
395.599
395.684
395.756
395.82
395.876
395.927
395.973
396.015
396.054
400
400
400
400
400
400
400
400
400
399.998
399.856
399.718
399.586
399.46
399.338
399.221
399.107
398.996
398.887
398.781
398.677
398.575
398.474
398.375
398.277
398.181
398.086
397.992
397.899
397.807
397.717
397.627
397.538
397.449
397.362
397.276
397.19
397.105
397.02
396.937
396.853
396.771
396.688
396.607
396.526
396.445
396.365
396.286
396.207
396.129
396.052
395.976
395.901
395.827