/*--------------------------------*- C++ -*----------------------------------*\
  =========                 |
  \\      /  F ield         | OpenFOAM: The Open Source CFD Toolbox
   \\    /   O peration     | Website:  https://openfoam.org
    \\  /    A nd           | Version:  12
     \\/     M anipulation  |
\*---------------------------------------------------------------------------*/
FoamFile
{
    format      ascii;
    class       volScalarField;
    location    "400/porous";
    object      rho;
}
// * * * * * * * * * * * * * * * * * * * * * * * * * * * * * * * * * * * * * //

dimensions      [1 -3 0 0 0 0 0];

internalField   nonuniform List<scalar> 
140000
(
933.891
933.891
933.891
933.891
933.891
933.891
933.891
933.891
933.892
933.899
934.195
934.422
934.622
934.807
934.985
935.156
935.324
935.489
935.651
935.812
935.97
936.127
936.283
936.437
936.589
936.741
936.89
937.038
937.185
937.331
937.476
937.621
937.769
937.919
938.073
938.234
938.405
938.588
938.788
939.007
939.25
939.517
939.814
940.14
940.499
940.892
941.319
941.783
942.283
942.821
943.396
944.007
944.655
945.339
946.055
946.804
947.582
948.386
949.215
950.047
950.52
951.144
951.841
952.585
953.364
954.168
954.99
955.825
956.662
957.432
933.891
933.891
933.891
933.891
933.891
933.891
933.891
933.891
933.891
933.896
934.124
934.304
934.463
934.613
934.756
934.896
935.032
935.167
935.3
935.432
935.562
935.692
935.821
935.949
936.076
936.203
936.328
936.453
936.577
936.7
936.822
936.945
937.067
937.191
937.315
937.442
937.573
937.709
937.853
938.006
938.17
938.347
938.539
938.748
938.975
939.222
939.491
939.783
940.1
940.443
940.813
941.213
941.642
942.102
942.595
943.119
943.676
944.264
944.885
945.525
945.916
946.418
946.986
947.602
948.26
948.953
949.676
950.426
951.192
951.934
933.891
933.891
933.891
933.891
933.891
933.891
933.891
933.891
933.891
933.895
934.105
934.267
934.409
934.54
934.665
934.785
934.902
935.017
935.13
935.241
935.351
935.46
935.567
935.674
935.781
935.886
935.991
936.094
936.197
936.299
936.4
936.501
936.601
936.701
936.801
936.901
937.002
937.105
937.21
937.318
937.431
937.549
937.673
937.803
937.941
938.087
938.243
938.41
938.59
938.784
938.994
939.222
939.469
939.738
940.029
940.347
940.691
941.065
941.467
941.893
942.1
942.413
942.792
943.223
943.701
944.222
944.783
945.383
946.016
946.653
933.891
933.891
933.891
933.891
933.891
933.891
933.891
933.891
933.891
933.895
934.101
934.259
934.395
934.521
934.638
934.751
934.86
934.966
935.07
935.172
935.273
935.372
935.47
935.566
935.662
935.757
935.85
935.943
936.034
936.125
936.214
936.303
936.391
936.478
936.565
936.651
936.736
936.822
936.909
936.998
937.088
937.18
937.275
937.371
937.47
937.573
937.679
937.791
937.909
938.035
938.169
938.315
938.473
938.646
938.835
939.044
939.274
939.528
939.807
940.106
940.194
940.382
940.634
940.937
941.287
941.683
942.122
942.605
943.128
943.667
933.891
933.891
933.891
933.891
933.891
933.891
933.891
933.891
933.891
933.895
934.1
934.257
934.393
934.516
934.632
934.742
934.848
934.951
935.052
935.151
935.247
935.342
935.436
935.529
935.62
935.71
935.799
935.887
935.974
936.059
936.143
936.226
936.309
936.39
936.471
936.55
936.629
936.708
936.788
936.868
936.95
937.032
937.116
937.2
937.285
937.371
937.46
937.551
937.647
937.747
937.853
937.967
938.09
938.225
938.374
938.538
938.72
938.923
939.148
939.391
939.426
939.557
939.748
939.99
940.278
940.611
940.989
941.411
941.876
942.361
933.891
933.891
933.891
933.891
933.891
933.891
933.891
933.891
933.891
933.895
934.101
934.258
934.394
934.517
934.632
934.742
934.847
934.949
935.049
935.146
935.241
935.335
935.427
935.518
935.608
935.696
935.784
935.87
935.954
936.037
936.12
936.201
936.281
936.36
936.438
936.515
936.591
936.667
936.744
936.822
936.9
936.979
937.058
937.137
937.217
937.298
937.381
937.465
937.552
937.644
937.74
937.843
937.954
938.075
938.208
938.355
938.52
938.703
938.907
939.129
939.143
939.252
939.419
939.636
939.9
940.208
940.561
940.958
941.4
941.864
933.891
933.891
933.891
933.891
933.891
933.891
933.891
933.891
933.891
933.895
934.102
934.259
934.395
934.518
934.633
934.743
934.848
934.95
935.049
935.146
935.24
935.334
935.425
935.516
935.605
935.693
935.78
935.865
935.949
936.032
936.113
936.194
936.273
936.351
936.429
936.505
936.58
936.655
936.731
936.808
936.885
936.962
937.04
937.118
937.196
937.275
937.355
937.437
937.521
937.609
937.702
937.801
937.908
938.024
938.151
938.293
938.45
938.626
938.822
939.036
939.043
939.143
939.302
939.511
939.765
940.065
940.409
940.798
941.232
941.689
933.891
933.891
933.891
933.891
933.891
933.891
933.891
933.891
933.891
933.895
934.102
934.26
934.396
934.52
934.635
934.745
934.85
934.951
935.05
935.147
935.242
935.335
935.426
935.517
935.606
935.694
935.78
935.866
935.95
936.032
936.113
936.194
936.273
936.351
936.429
936.505
936.58
936.655
936.731
936.807
936.884
936.961
937.038
937.115
937.192
937.27
937.35
937.431
937.514
937.601
937.693
937.79
937.895
938.009
938.135
938.274
938.429
938.602
938.795
939.006
939.01
939.107
939.263
939.469
939.72
940.016
940.358
940.745
941.177
941.632
933.891
933.891
933.891
933.891
933.891
933.891
933.891
933.891
933.891
933.895
934.103
934.261
934.398
934.521
934.637
934.746
934.851
934.953
935.052
935.148
935.243
935.336
935.427
935.517
935.607
935.695
935.781
935.867
935.951
936.034
936.115
936.196
936.276
936.354
936.432
936.508
936.584
936.659
936.735
936.811
936.888
936.964
937.041
937.118
937.195
937.273
937.352
937.433
937.516
937.602
937.694
937.79
937.895
938.008
938.133
938.271
938.425
938.597
938.789
938.998
939.001
939.098
939.253
939.457
939.707
940.002
940.343
940.729
941.16
941.616
933.891
933.891
933.891
933.891
933.891
933.891
933.891
933.891
933.891
933.895
934.104
934.262
934.399
934.523
934.638
934.748
934.853
934.954
935.053
935.149
935.244
935.337
935.428
935.518
935.608
935.696
935.783
935.868
935.952
936.035
936.117
936.199
936.279
936.358
936.436
936.513
936.589
936.665
936.741
936.817
936.893
936.97
937.047
937.123
937.201
937.278
937.357
937.438
937.521
937.607
937.698
937.795
937.899
938.013
938.137
938.275
938.428
938.599
938.791
938.999
939.002
939.097
939.252
939.455
939.705
940
940.34
940.726
941.157
941.613
933.891
933.891
933.891
933.891
933.891
933.891
933.891
933.891
933.891
933.895
934.104
934.263
934.4
934.524
934.639
934.749
934.854
934.955
935.054
935.15
935.244
935.337
935.428
935.518
935.608
935.696
935.783
935.869
935.953
936.037
936.119
936.201
936.282
936.362
936.441
936.518
936.595
936.671
936.747
936.823
936.9
936.976
937.053
937.129
937.206
937.284
937.363
937.443
937.526
937.613
937.704
937.801
937.905
938.018
938.143
938.28
938.433
938.604
938.795
939.003
939.005
939.101
939.254
939.458
939.707
940.001
940.341
940.727
941.158
941.613
933.891
933.891
933.891
933.891
933.891
933.891
933.891
933.891
933.891
933.895
934.104
934.264
934.401
934.525
934.64
934.75
934.855
934.956
935.055
935.151
935.245
935.337
935.428
935.518
935.607
935.696
935.783
935.869
935.953
936.037
936.12
936.203
936.285
936.365
936.445
936.523
936.6
936.677
936.753
936.829
936.906
936.982
937.059
937.135
937.212
937.29
937.368
937.449
937.532
937.619
937.71
937.807
937.911
938.025
938.149
938.286
938.439
938.609
938.8
939.008
939.01
939.104
939.258
939.461
939.709
940.004
940.343
940.729
941.159
941.614
933.891
933.891
933.891
933.891
933.891
933.891
933.891
933.891
933.891
933.895
934.105
934.264
934.401
934.525
934.641
934.751
934.855
934.957
935.055
935.151
935.245
935.337
935.428
935.517
935.606
935.695
935.782
935.868
935.953
936.037
936.121
936.204
936.287
936.368
936.448
936.527
936.605
936.682
936.759
936.835
936.912
936.988
937.064
937.141
937.217
937.295
937.374
937.454
937.538
937.624
937.716
937.813
937.917
938.03
938.155
938.292
938.444
938.615
938.805
939.012
939.014
939.108
939.261
939.463
939.712
940.006
940.345
940.73
941.16
941.615
933.891
933.891
933.891
933.891
933.891
933.891
933.891
933.891
933.891
933.895
934.105
934.265
934.402
934.526
934.642
934.751
934.856
934.957
935.055
935.151
935.245
935.337
935.427
935.517
935.605
935.693
935.78
935.867
935.952
936.037
936.122
936.206
936.289
936.371
936.452
936.531
936.61
936.688
936.765
936.841
936.917
936.993
937.07
937.146
937.223
937.3
937.379
937.459
937.543
937.63
937.721
937.818
937.922
938.036
938.16
938.297
938.449
938.619
938.809
939.016
939.017
939.111
939.264
939.466
939.714
940.007
940.346
940.73
941.16
941.615
933.891
933.891
933.891
933.891
933.891
933.891
933.891
933.891
933.891
933.895
934.105
934.265
934.402
934.526
934.642
934.751
934.856
934.957
935.055
935.151
935.244
935.336
935.426
935.516
935.604
935.692
935.779
935.865
935.951
936.036
936.122
936.206
936.29
936.373
936.454
936.535
936.614
936.692
936.77
936.846
936.923
936.999
937.075
937.151
937.227
937.305
937.383
937.464
937.547
937.634
937.726
937.823
937.927
938.04
938.164
938.301
938.453
938.623
938.812
939.019
939.02
939.113
939.266
939.467
939.714
940.007
940.346
940.73
941.16
941.614
933.891
933.891
933.891
933.891
933.891
933.891
933.891
933.891
933.891
933.895
934.105
934.265
934.402
934.526
934.642
934.751
934.856
934.957
935.055
935.151
935.244
935.336
935.426
935.515
935.603
935.69
935.777
935.864
935.95
936.036
936.122
936.207
936.291
936.374
936.456
936.537
936.617
936.696
936.774
936.851
936.928
937.004
937.079
937.155
937.232
937.309
937.387
937.468
937.551
937.638
937.73
937.827
937.931
938.044
938.168
938.305
938.457
938.626
938.815
939.021
939.022
939.115
939.267
939.468
939.715
940.007
940.345
940.729
941.158
941.611
933.891
933.891
933.891
933.891
933.891
933.891
933.891
933.891
933.891
933.895
934.105
934.265
934.402
934.526
934.642
934.752
934.856
934.957
935.055
935.151
935.244
935.335
935.425
935.514
935.602
935.689
935.776
935.862
935.949
936.035
936.122
936.207
936.292
936.376
936.458
936.539
936.62
936.7
936.778
936.856
936.932
937.008
937.084
937.159
937.235
937.312
937.391
937.471
937.555
937.642
937.733
937.83
937.934
938.047
938.171
938.307
938.459
938.628
938.817
939.023
939.023
939.116
939.267
939.467
939.714
940.006
940.343
940.727
941.155
941.608
933.891
933.891
933.891
933.891
933.891
933.891
933.891
933.891
933.891
933.895
934.105
934.264
934.402
934.526
934.642
934.751
934.856
934.957
935.055
935.151
935.244
935.335
935.425
935.514
935.601
935.688
935.775
935.861
935.948
936.035
936.122
936.208
936.293
936.377
936.46
936.541
936.622
936.702
936.781
936.859
936.936
937.012
937.087
937.163
937.238
937.315
937.394
937.474
937.557
937.644
937.735
937.832
937.937
938.049
938.173
938.309
938.46
938.629
938.818
939.024
939.023
939.116
939.267
939.467
939.713
940.004
940.341
940.724
941.152
941.605
933.891
933.891
933.891
933.891
933.891
933.891
933.891
933.891
933.891
933.895
934.105
934.264
934.401
934.525
934.641
934.751
934.856
934.957
935.055
935.151
935.244
935.336
935.425
935.514
935.601
935.688
935.774
935.861
935.948
936.035
936.122
936.209
936.295
936.378
936.461
936.542
936.623
936.704
936.784
936.862
936.939
937.015
937.09
937.165
937.241
937.317
937.395
937.476
937.559
937.646
937.737
937.834
937.938
938.051
938.174
938.31
938.461
938.63
938.818
939.023
939.023
939.115
939.265
939.465
939.71
940.001
940.338
940.72
941.148
941.6
933.891
933.891
933.891
933.891
933.891
933.891
933.891
933.891
933.891
933.895
934.105
934.264
934.401
934.525
934.641
934.75
934.855
934.957
935.055
935.151
935.244
935.336
935.426
935.514
935.601
935.688
935.774
935.861
935.948
936.036
936.123
936.21
936.295
936.379
936.461
936.543
936.624
936.704
936.785
936.863
936.94
937.016
937.092
937.167
937.242
937.318
937.396
937.476
937.56
937.646
937.737
937.834
937.938
938.051
938.174
938.309
938.46
938.629
938.817
939.022
939.022
939.113
939.263
939.462
939.707
939.997
940.333
940.715
941.142
941.594
933.891
933.891
933.891
933.891
933.891
933.891
933.891
933.891
933.891
933.895
934.104
934.263
934.4
934.524
934.64
934.75
934.855
934.956
935.055
935.151
935.245
935.337
935.426
935.515
935.602
935.688
935.775
935.861
935.949
936.037
936.124
936.211
936.296
936.379
936.462
936.543
936.624
936.705
936.785
936.863
936.941
937.017
937.092
937.167
937.242
937.318
937.396
937.476
937.559
937.646
937.737
937.834
937.937
938.05
938.173
938.308
938.459
938.627
938.816
939.021
939.02
939.111
939.26
939.459
939.703
939.993
940.328
940.709
941.136
941.587
933.891
933.891
933.891
933.891
933.891
933.891
933.891
933.891
933.891
933.895
934.104
934.263
934.4
934.524
934.639
934.749
934.854
934.956
935.055
935.151
935.245
935.337
935.427
935.516
935.603
935.689
935.776
935.863
935.95
936.038
936.126
936.212
936.297
936.38
936.462
936.544
936.624
936.705
936.785
936.864
936.941
937.017
937.093
937.167
937.242
937.318
937.396
937.476
937.559
937.645
937.736
937.833
937.936
938.048
938.171
938.306
938.457
938.625
938.813
939.019
939.017
939.107
939.256
939.454
939.698
939.988
940.322
940.703
941.129
941.58
933.891
933.891
933.891
933.891
933.891
933.891
933.891
933.891
933.891
933.895
934.103
934.262
934.398
934.523
934.638
934.748
934.854
934.956
935.055
935.151
935.246
935.338
935.428
935.517
935.604
935.691
935.777
935.864
935.952
936.04
936.127
936.213
936.298
936.381
936.463
936.544
936.625
936.705
936.785
936.864
936.941
937.018
937.093
937.167
937.242
937.317
937.395
937.475
937.557
937.644
937.735
937.831
937.934
938.046
938.169
938.304
938.455
938.623
938.811
939.017
939.015
939.105
939.253
939.45
939.694
939.982
940.317
940.697
941.123
941.573
933.891
933.891
933.891
933.891
933.891
933.891
933.891
933.891
933.891
933.895
934.103
934.261
934.397
934.521
934.637
934.747
934.853
934.955
935.055
935.152
935.246
935.339
935.43
935.518
935.606
935.693
935.779
935.867
935.954
936.042
936.129
936.215
936.299
936.382
936.464
936.546
936.626
936.706
936.786
936.864
936.942
937.018
937.093
937.167
937.241
937.317
937.394
937.474
937.556
937.643
937.733
937.829
937.932
938.044
938.166
938.302
938.452
938.621
938.809
939.015
939.012
939.101
939.249
939.446
939.689
939.977
940.311
940.691
941.116
941.566
933.891
933.891
933.891
933.891
933.891
933.891
933.891
933.891
933.891
933.895
934.103
934.261
934.397
934.521
934.637
934.747
934.853
934.955
935.055
935.152
935.247
935.34
935.431
935.52
935.608
935.694
935.781
935.869
935.957
936.044
936.131
936.217
936.301
936.384
936.466
936.547
936.628
936.708
936.787
936.866
936.943
937.019
937.093
937.167
937.241
937.316
937.393
937.473
937.555
937.641
937.732
937.828
937.931
938.042
938.165
938.3
938.45
938.619
938.807
939.013
939.01
939.099
939.247
939.443
939.686
939.974
940.307
940.687
941.112
941.562
933.891
933.891
933.891
933.891
933.891
933.891
933.891
933.891
933.891
933.895
934.102
934.259
934.395
934.519
934.635
934.746
934.852
934.955
935.055
935.153
935.248
935.341
935.432
935.522
935.609
935.697
935.784
935.871
935.959
936.047
936.133
936.219
936.303
936.386
936.468
936.549
936.629
936.709
936.789
936.867
936.944
937.02
937.094
937.168
937.241
937.316
937.393
937.472
937.554
937.64
937.73
937.826
937.929
938.04
938.162
938.298
938.449
938.618
938.808
939.014
939.01
939.099
939.246
939.443
939.685
939.973
940.307
940.686
941.111
941.561
933.891
933.891
933.891
933.891
933.891
933.891
933.891
933.891
933.891
933.895
934.102
934.259
934.395
934.519
934.635
934.745
934.852
934.955
935.055
935.153
935.249
935.342
935.433
935.523
935.611
935.699
935.786
935.874
935.961
936.049
936.136
936.221
936.305
936.388
936.47
936.551
936.631
936.711
936.79
936.869
936.946
937.021
937.095
937.168
937.241
937.316
937.392
937.472
937.554
937.639
937.729
937.825
937.928
938.039
938.162
938.297
938.449
938.618
938.808
939.015
939.011
939.1
939.248
939.445
939.687
939.976
940.309
940.689
941.115
941.564
933.891
933.891
933.891
933.891
933.891
933.891
933.891
933.891
933.891
933.895
934.101
934.258
934.394
934.518
934.634
934.745
934.851
934.955
935.055
935.153
935.249
935.343
935.434
935.524
935.613
935.7
935.788
935.876
935.963
936.051
936.137
936.223
936.307
936.39
936.471
936.552
936.633
936.713
936.792
936.871
936.947
937.022
937.096
937.168
937.241
937.316
937.392
937.471
937.553
937.638
937.728
937.824
937.927
938.038
938.161
938.297
938.449
938.619
938.81
939.017
939.013
939.103
939.251
939.448
939.691
939.98
940.314
940.694
941.12
941.57
933.891
933.891
933.891
933.891
933.891
933.891
933.891
933.891
933.891
933.895
934.1
934.257
934.393
934.517
934.633
934.744
934.851
934.954
935.055
935.154
935.25
935.343
935.435
935.525
935.614
935.702
935.789
935.877
935.964
936.052
936.139
936.224
936.308
936.391
936.473
936.554
936.634
936.714
936.794
936.872
936.948
937.023
937.096
937.168
937.241
937.316
937.392
937.47
937.552
937.637
937.727
937.823
937.926
938.037
938.161
938.297
938.45
938.621
938.812
939.02
939.016
939.106
939.254
939.452
939.695
939.985
940.319
940.7
941.126
941.577
933.891
933.891
933.891
933.891
933.891
933.891
933.891
933.891
933.891
933.895
934.1
934.257
934.393
934.516
934.633
934.744
934.851
934.954
935.055
935.154
935.25
935.344
935.436
935.526
935.615
935.703
935.79
935.878
935.965
936.052
936.139
936.225
936.309
936.392
936.473
936.554
936.635
936.715
936.795
936.873
936.949
937.023
937.096
937.168
937.241
937.315
937.391
937.47
937.551
937.636
937.726
937.822
937.925
938.037
938.16
938.297
938.451
938.622
938.813
939.022
939.018
939.108
939.257
939.455
939.7
939.989
940.325
940.706
941.133
941.584
933.891
933.891
933.891
933.891
933.891
933.891
933.891
933.891
933.891
933.895
934.1
934.256
934.392
934.515
934.632
934.743
934.85
934.954
935.055
935.154
935.25
935.344
935.436
935.526
935.615
935.703
935.791
935.878
935.965
936.052
936.139
936.224
936.309
936.392
936.473
936.554
936.635
936.715
936.795
936.872
936.948
937.022
937.095
937.167
937.24
937.314
937.39
937.468
937.55
937.635
937.725
937.82
937.923
938.036
938.16
938.297
938.451
938.623
938.815
939.024
939.021
939.111
939.261
939.459
939.704
939.994
940.33
940.712
941.139
941.591
933.891
933.891
933.891
933.891
933.891
933.891
933.891
933.891
933.891
933.895
934.099
934.256
934.391
934.515
934.631
934.743
934.85
934.954
935.055
935.154
935.25
935.344
935.436
935.527
935.616
935.703
935.791
935.878
935.965
936.051
936.137
936.223
936.307
936.39
936.472
936.553
936.634
936.714
936.793
936.87
936.946
937.02
937.093
937.165
937.238
937.313
937.389
937.467
937.548
937.633
937.723
937.819
937.922
938.035
938.159
938.297
938.451
938.623
938.816
939.026
939.023
939.114
939.263
939.462
939.708
939.998
940.335
940.717
941.145
941.597
933.891
933.891
933.891
933.891
933.891
933.891
933.891
933.891
933.891
933.895
934.099
934.255
934.391
934.515
934.631
934.742
934.849
934.953
935.055
935.153
935.25
935.344
935.436
935.527
935.616
935.704
935.791
935.877
935.964
936.05
936.135
936.22
936.305
936.388
936.469
936.55
936.631
936.711
936.79
936.867
936.942
937.016
937.089
937.162
937.236
937.31
937.386
937.465
937.546
937.631
937.721
937.817
937.92
938.033
938.158
938.296
938.451
938.624
938.817
939.027
939.024
939.115
939.265
939.465
939.711
940.002
940.339
940.722
941.15
941.603
933.891
933.891
933.891
933.891
933.891
933.891
933.891
933.891
933.891
933.895
934.099
934.255
934.39
934.514
934.63
934.742
934.849
934.953
935.054
935.153
935.249
935.344
935.436
935.526
935.616
935.703
935.79
935.876
935.962
936.048
936.133
936.217
936.301
936.384
936.465
936.546
936.627
936.707
936.785
936.862
936.937
937.012
937.085
937.159
937.233
937.307
937.383
937.462
937.543
937.628
937.718
937.814
937.918
938.031
938.156
938.295
938.45
938.623
938.817
939.028
939.025
939.116
939.267
939.467
939.713
940.005
940.342
940.726
941.154
941.608
933.891
933.891
933.891
933.891
933.891
933.891
933.891
933.891
933.891
933.895
934.099
934.255
934.39
934.514
934.63
934.741
934.848
934.952
935.054
935.152
935.249
935.343
935.436
935.526
935.615
935.703
935.79
935.876
935.961
936.045
936.13
936.213
936.297
936.379
936.461
936.542
936.622
936.701
936.779
936.856
936.932
937.006
937.08
937.154
937.229
937.304
937.38
937.459
937.54
937.625
937.715
937.812
937.915
938.029
938.154
938.293
938.448
938.622
938.816
939.027
939.025
939.117
939.268
939.468
939.715
940.007
940.345
940.729
941.158
941.612
933.891
933.891
933.891
933.891
933.891
933.891
933.891
933.891
933.891
933.895
934.098
934.254
934.39
934.513
934.629
934.741
934.848
934.952
935.053
935.152
935.248
935.343
935.435
935.526
935.615
935.702
935.789
935.875
935.959
936.043
936.127
936.21
936.292
936.374
936.455
936.536
936.616
936.695
936.773
936.85
936.926
937.001
937.075
937.15
937.224
937.3
937.377
937.455
937.537
937.622
937.712
937.809
937.913
938.026
938.152
938.291
938.447
938.621
938.815
939.027
939.025
939.117
939.268
939.469
939.716
940.009
940.347
940.731
941.161
941.615
933.891
933.891
933.891
933.891
933.891
933.891
933.891
933.891
933.891
933.895
934.098
934.254
934.389
934.513
934.629
934.74
934.847
934.951
935.052
935.151
935.247
935.342
935.434
935.525
935.614
935.702
935.788
935.874
935.958
936.041
936.124
936.206
936.288
936.369
936.45
936.53
936.61
936.689
936.766
936.843
936.919
936.994
937.069
937.144
937.22
937.296
937.373
937.451
937.533
937.618
937.709
937.805
937.909
938.023
938.149
938.288
938.444
938.618
938.813
939.026
939.024
939.116
939.268
939.469
939.717
940.01
940.349
940.733
941.163
941.618
933.891
933.891
933.891
933.891
933.891
933.891
933.891
933.891
933.891
933.895
934.098
934.254
934.389
934.512
934.628
934.739
934.846
934.95
935.051
935.15
935.246
935.341
935.433
935.524
935.613
935.701
935.787
935.872
935.956
936.039
936.121
936.202
936.283
936.364
936.444
936.524
936.603
936.682
936.759
936.836
936.912
936.988
937.063
937.139
937.214
937.291
937.368
937.447
937.529
937.614
937.705
937.801
937.906
938.02
938.145
938.285
938.441
938.616
938.811
939.023
939.022
939.115
939.267
939.468
939.716
940.01
940.349
940.734
941.164
941.619
933.891
933.891
933.891
933.891
933.891
933.891
933.891
933.891
933.891
933.895
934.098
934.253
934.388
934.512
934.628
934.738
934.845
934.949
935.05
935.149
935.245
935.339
935.432
935.523
935.612
935.7
935.786
935.871
935.955
936.037
936.119
936.199
936.279
936.359
936.438
936.518
936.597
936.675
936.753
936.829
936.906
936.981
937.057
937.133
937.209
937.285
937.363
937.442
937.524
937.61
937.7
937.797
937.901
938.015
938.141
938.281
938.437
938.612
938.808
939.02
939.019
939.112
939.265
939.467
939.715
940.009
940.349
940.734
941.165
941.62
933.891
933.891
933.891
933.891
933.891
933.891
933.891
933.891
933.891
933.895
934.098
934.253
934.388
934.511
934.627
934.738
934.844
934.948
935.049
935.147
935.243
935.338
935.43
935.521
935.61
935.698
935.784
935.869
935.953
936.035
936.116
936.196
936.275
936.354
936.433
936.512
936.59
936.668
936.746
936.822
936.899
936.975
937.051
937.127
937.203
937.28
937.358
937.437
937.519
937.605
937.695
937.792
937.897
938.011
938.137
938.277
938.433
938.608
938.804
939.017
939.016
939.11
939.263
939.465
939.714
940.008
940.348
940.733
941.164
941.619
933.891
933.891
933.891
933.891
933.891
933.891
933.891
933.891
933.891
933.895
934.097
934.252
934.387
934.51
934.626
934.737
934.843
934.947
935.047
935.146
935.242
935.336
935.429
935.519
935.609
935.696
935.783
935.867
935.951
936.033
936.113
936.193
936.271
936.349
936.428
936.506
936.584
936.662
936.739
936.816
936.893
936.969
937.045
937.121
937.197
937.274
937.352
937.432
937.514
937.6
937.69
937.787
937.892
938.006
938.133
938.273
938.429
938.604
938.8
939.014
939.013
939.107
939.261
939.463
939.713
940.007
940.347
940.733
941.164
941.619
933.891
933.891
933.891
933.891
933.891
933.891
933.891
933.891
933.891
933.895
934.097
934.252
934.386
934.509
934.625
934.735
934.842
934.945
935.046
935.144
935.24
935.334
935.427
935.517
935.606
935.694
935.78
935.865
935.948
936.03
936.11
936.189
936.267
936.345
936.423
936.501
936.579
936.657
936.734
936.811
936.887
936.963
937.04
937.116
937.192
937.27
937.348
937.427
937.51
937.596
937.687
937.784
937.889
938.003
938.13
938.27
938.427
938.603
938.799
939.013
939.013
939.108
939.262
939.465
939.715
940.01
940.35
940.736
941.167
941.622
933.891
933.891
933.891
933.891
933.891
933.891
933.891
933.891
933.891
933.895
934.097
934.251
934.386
934.508
934.624
934.734
934.84
934.944
935.044
935.142
935.238
935.332
935.425
935.516
935.605
935.692
935.779
935.863
935.947
936.028
936.108
936.187
936.265
936.342
936.42
936.498
936.576
936.653
936.73
936.807
936.884
936.96
937.037
937.113
937.19
937.267
937.346
937.426
937.509
937.595
937.687
937.784
937.89
938.005
938.132
938.274
938.431
938.608
938.805
939.02
939.022
939.117
939.273
939.477
939.728
940.024
940.365
940.751
941.183
941.638
933.891
933.891
933.891
933.891
933.891
933.891
933.891
933.891
933.891
933.895
934.096
934.251
934.385
934.507
934.623
934.733
934.839
934.942
935.042
935.14
935.237
935.331
935.423
935.514
935.603
935.691
935.778
935.862
935.946
936.028
936.108
936.186
936.264
936.342
936.42
936.498
936.576
936.654
936.732
936.809
936.886
936.963
937.04
937.117
937.194
937.273
937.352
937.433
937.517
937.604
937.697
937.796
937.903
938.02
938.149
938.293
938.453
938.632
938.832
939.05
939.054
939.153
939.311
939.519
939.772
940.071
940.415
940.804
941.238
941.694
933.891
933.891
933.891
933.891
933.891
933.891
933.891
933.891
933.891
933.895
934.096
934.25
934.384
934.507
934.622
934.732
934.839
934.942
935.042
935.141
935.237
935.332
935.425
935.516
935.606
935.694
935.781
935.867
935.951
936.033
936.114
936.193
936.272
936.351
936.429
936.509
936.588
936.667
936.745
936.824
936.902
936.981
937.059
937.138
937.217
937.297
937.378
937.462
937.549
937.639
937.735
937.838
937.95
938.072
938.206
938.356
938.522
938.708
938.916
939.142
939.153
939.26
939.427
939.644
939.906
940.214
940.566
940.963
941.405
941.868
933.891
933.891
933.891
933.891
933.891
933.891
933.891
933.891
933.891
933.895
934.095
934.25
934.384
934.507
934.623
934.734
934.841
934.945
935.046
935.146
935.243
935.339
935.433
935.526
935.618
935.708
935.797
935.884
935.97
936.054
936.137
936.219
936.3
936.381
936.463
936.544
936.626
936.708
936.79
936.872
936.953
937.035
937.118
937.201
937.285
937.371
937.458
937.549
937.644
937.743
937.849
937.964
938.087
938.223
938.373
938.538
938.723
938.928
939.156
939.403
939.435
939.565
939.755
939.996
940.283
940.616
940.993
941.415
941.879
942.365
933.891
933.891
933.891
933.891
933.891
933.891
933.891
933.891
933.891
933.895
934.096
934.252
934.388
934.513
934.631
934.744
934.854
934.961
935.065
935.168
935.269
935.369
935.467
935.564
935.66
935.755
935.848
935.94
936.031
936.12
936.209
936.296
936.383
936.47
936.557
936.645
936.734
936.823
936.912
937.002
937.092
937.184
937.278
937.373
937.472
937.573
937.679
937.79
937.907
938.032
938.167
938.312
938.471
938.644
938.835
939.044
939.276
939.532
939.813
940.117
940.202
940.389
940.639
940.941
941.291
941.686
942.125
942.607
943.13
943.669
933.891
933.891
933.891
933.891
933.891
933.891
933.891
933.891
933.891
933.895
934.101
934.261
934.403
934.534
934.659
934.779
934.897
935.012
935.125
935.237
935.348
935.457
935.566
935.673
935.779
935.885
935.989
936.092
936.194
936.295
936.395
936.494
936.594
936.694
936.795
936.897
937
937.106
937.213
937.323
937.436
937.554
937.677
937.806
937.943
938.088
938.243
938.409
938.588
938.781
938.991
939.218
939.466
939.735
940.028
940.346
940.691
941.066
941.471
941.9
942.105
942.416
942.794
943.224
943.701
944.221
944.782
945.382
946.014
946.65
933.891
933.891
933.891
933.891
933.891
933.891
933.891
933.891
933.891
933.896
934.12
934.299
934.458
934.608
934.751
934.891
935.028
935.164
935.297
935.43
935.561
935.691
935.821
935.949
936.076
936.203
936.328
936.452
936.575
936.697
936.818
936.939
937.061
937.184
937.309
937.438
937.572
937.71
937.856
938.01
938.175
938.352
938.543
938.751
938.976
939.222
939.489
939.78
940.095
940.437
940.807
941.207
941.636
942.096
942.589
943.113
943.671
944.26
944.882
945.525
945.913
946.414
946.98
947.595
948.252
948.944
949.666
950.415
951.181
951.922
933.891
933.891
933.891
933.891
933.891
933.891
933.891
933.891
933.892
933.899
934.192
934.418
934.617
934.803
934.981
935.153
935.321
935.487
935.65
935.811
935.97
936.128
936.284
936.438
936.591
936.742
936.891
937.039
937.184
937.328
937.472
937.616
937.762
937.912
938.067
938.23
938.403
938.589
938.791
939.012
939.254
939.522
939.816
940.141
940.498
940.888
941.314
941.776
942.274
942.811
943.385
943.996
944.644
945.327
946.043
946.792
947.57
948.375
949.205
950.038
950.509
951.131
951.826
952.57
953.347
954.151
954.972
955.805
956.642
957.412
933.891
933.891
933.891
933.891
933.891
933.891
933.891
933.891
933.891
933.896
934.12
934.328
934.52
934.703
934.878
935.049
935.216
935.381
935.544
935.705
935.863
936.021
936.177
936.332
936.485
936.637
936.787
936.936
937.083
937.23
937.376
937.522
937.67
937.82
937.974
938.135
938.305
938.488
938.686
938.903
939.143
939.408
939.701
940.025
940.38
940.769
941.193
941.652
942.149
942.683
943.254
943.862
944.506
945.185
945.898
946.643
947.418
948.219
949.045
949.877
950.405
951.034
951.728
952.47
953.245
954.047
954.866
955.699
956.535
957.314
933.891
933.891
933.891
933.891
933.891
933.891
933.891
933.891
933.891
933.894
934.055
934.212
934.361
934.505
934.644
934.781
934.915
935.048
935.179
935.31
935.439
935.568
935.696
935.823
935.95
936.076
936.201
936.325
936.449
936.572
936.694
936.817
936.939
937.062
937.186
937.312
937.442
937.577
937.718
937.868
938.029
938.202
938.389
938.593
938.814
939.054
939.315
939.6
939.908
940.242
940.603
940.993
941.412
941.861
942.342
942.855
943.4
943.977
944.586
945.218
945.66
946.166
946.727
947.335
947.983
948.666
949.379
950.12
950.879
951.622
933.891
933.891
933.891
933.891
933.891
933.891
933.891
933.891
933.891
933.894
934.039
934.178
934.31
934.435
934.556
934.673
934.788
934.901
935.012
935.122
935.23
935.338
935.445
935.551
935.656
935.761
935.864
935.968
936.07
936.171
936.272
936.372
936.472
936.572
936.671
936.771
936.871
936.973
937.076
937.183
937.294
937.41
937.53
937.657
937.791
937.933
938.084
938.246
938.42
938.608
938.81
939.03
939.268
939.527
939.808
940.115
940.447
940.807
941.196
941.611
941.867
942.182
942.551
942.969
943.432
943.938
944.483