/*--------------------------------*- C++ -*----------------------------------*\
  =========                 |
  \\      /  F ield         | OpenFOAM: The Open Source CFD Toolbox
   \\    /   O peration     | Website:  https://openfoam.org
    \\  /    A nd           | Version:  12
     \\/     M anipulation  |
\*---------------------------------------------------------------------------*/
FoamFile
{
    format      ascii;
    class       volScalarField;
    location    "400/porous";
    object      T;
}
// * * * * * * * * * * * * * * * * * * * * * * * * * * * * * * * * * * * * * //

dimensions      [0 0 0 1 0 0 0];

internalField   nonuniform List<scalar> 
140000
(
400
400
400
400
400
400
400
400
400
399.992
399.674
399.43
399.216
399.015
398.824
398.639
398.458
398.279
398.104
397.93
397.758
397.587
397.418
397.251
397.085
396.92
396.757
396.595
396.435
396.276
396.116
395.957
395.795
395.631
395.461
395.284
395.096
394.893
394.673
394.431
394.163
393.866
393.537
393.173
392.773
392.334
391.855
391.333
390.768
390.16
389.506
388.808
388.065
387.277
386.448
385.576
384.664
383.716
382.733
381.74
381.171
380.419
379.574
378.666
377.709
376.714
375.69
374.643
373.583
372.601
400
400
400
400
400
400
400
400
400
399.995
399.751
399.557
399.386
399.225
399.071
398.92
398.773
398.627
398.484
398.341
398.2
398.059
397.92
397.781
397.643
397.505
397.369
397.233
397.098
396.964
396.831
396.697
396.563
396.429
396.292
396.153
396.01
395.861
395.703
395.535
395.355
395.159
394.948
394.717
394.466
394.193
393.895
393.571
393.218
392.836
392.422
391.974
391.491
390.973
390.416
389.821
389.186
388.513
387.8
387.062
386.609
386.025
385.363
384.64
383.865
383.044
382.184
381.285
380.361
379.461
400
400
400
400
400
400
400
400
400
399.996
399.771
399.597
399.444
399.303
399.169
399.039
398.913
398.79
398.668
398.548
398.429
398.311
398.194
398.079
397.963
397.849
397.736
397.623
397.512
397.401
397.291
397.181
397.072
396.963
396.854
396.745
396.634
396.523
396.408
396.289
396.165
396.036
395.9
395.757
395.606
395.446
395.274
395.09
394.892
394.678
394.446
394.194
393.92
393.621
393.297
392.943
392.558
392.14
391.689
391.208
390.975
390.621
390.193
389.703
389.158
388.562
387.917
387.226
386.492
385.751
400
400
400
400
400
400
400
400
400
399.996
399.775
399.606
399.459
399.324
399.198
399.076
398.959
398.844
398.732
398.622
398.513
398.406
398.3
398.196
398.092
397.989
397.888
397.788
397.688
397.59
397.493
397.396
397.301
397.206
397.112
397.018
396.925
396.831
396.736
396.639
396.541
396.44
396.337
396.231
396.123
396.01
395.893
395.771
395.641
395.503
395.355
395.195
395.021
394.83
394.621
394.39
394.135
393.854
393.545
393.211
393.113
392.903
392.623
392.284
391.89
391.446
390.95
390.404
389.811
389.196
400
400
400
400
400
400
400
400
400
399.996
399.776
399.607
399.462
399.329
399.205
399.086
398.971
398.86
398.752
398.645
398.541
398.438
398.337
398.236
398.138
398.04
397.943
397.848
397.754
397.662
397.57
397.48
397.39
397.302
397.214
397.128
397.042
396.955
396.869
396.781
396.692
396.602
396.511
396.419
396.326
396.231
396.134
396.034
395.929
395.82
395.703
395.578
395.442
395.294
395.13
394.949
394.748
394.524
394.276
394.005
393.967
393.822
393.61
393.341
393.02
392.648
392.225
391.752
391.228
390.68
400
400
400
400
400
400
400
400
400
399.996
399.775
399.606
399.461
399.328
399.204
399.086
398.973
398.863
398.755
398.65
398.547
398.446
398.346
398.248
398.151
398.055
397.96
397.867
397.775
397.685
397.596
397.508
397.421
397.335
397.25
397.166
397.083
397
396.916
396.831
396.746
396.66
396.574
396.487
396.399
396.311
396.221
396.128
396.033
395.933
395.827
395.714
395.592
395.459
395.313
395.15
394.969
394.767
394.542
394.296
394.28
394.16
393.975
393.734
393.441
393.098
392.704
392.259
391.764
391.242
400
400
400
400
400
400
400
400
400
399.996
399.774
399.605
399.46
399.327
399.203
399.085
398.972
398.862
398.755
398.651
398.548
398.447
398.348
398.25
398.154
398.058
397.964
397.872
397.781
397.691
397.603
397.515
397.429
397.344
397.26
397.177
397.095
397.013
396.93
396.847
396.762
396.678
396.593
396.508
396.423
396.336
396.249
396.159
396.067
395.97
395.868
395.76
395.643
395.515
395.375
395.219
395.046
394.852
394.635
394.399
394.391
394.28
394.104
393.873
393.591
393.258
392.874
392.439
391.953
391.439
400
400
400
400
400
400
400
400
400
399.996
399.774
399.604
399.458
399.325
399.201
399.083
398.97
398.86
398.753
398.649
398.547
398.446
398.347
398.25
398.153
398.058
397.964
397.871
397.78
397.691
397.602
397.515
397.429
397.344
397.26
397.177
397.095
397.013
396.93
396.847
396.764
396.68
396.596
396.511
396.427
396.341
396.255
396.166
396.074
395.979
395.879
395.772
395.657
395.531
395.393
395.24
395.07
394.879
394.665
394.433
394.428
394.32
394.147
393.92
393.641
393.311
392.93
392.498
392.015
391.503
400
400
400
400
400
400
400
400
400
399.996
399.773
399.603
399.457
399.323
399.199
399.081
398.968
398.859
398.752
398.648
398.546
398.445
398.346
398.249
398.152
398.057
397.963
397.87
397.779
397.689
397.601
397.513
397.426
397.341
397.256
397.173
397.091
397.009
396.926
396.843
396.76
396.676
396.592
396.508
396.424
396.338
396.252
396.164
396.073
395.978
395.878
395.771
395.657
395.532
395.395
395.243
395.073
394.884
394.672
394.441
394.437
394.331
394.159
393.933
393.655
393.327
392.947
392.516
392.033
391.521
400
400
400
400
400
400
400
400
400
399.996
399.772
399.602
399.455
399.322
399.198
399.08
398.966
398.857
398.75
398.646
398.545
398.444
398.346
398.248
398.151
398.056
397.961
397.869
397.777
397.687
397.598
397.51
397.423
397.336
397.251
397.168
397.085
397.002
396.92
396.837
396.753
396.67
396.586
396.502
396.418
396.333
396.247
396.158
396.067
395.972
395.873
395.766
395.652
395.527
395.391
395.239
395.07
394.881
394.67
394.44
394.437
394.331
394.16
393.935
393.657
393.329
392.95
392.519
392.036
391.525
400
400
400
400
400
400
400
400
400
399.996
399.772
399.601
399.454
399.321
399.196
399.078
398.965
398.856
398.75
398.646
398.544
398.444
398.345
398.248
398.151
398.055
397.961
397.868
397.776
397.686
397.596
397.507
397.419
397.332
397.247
397.162
397.079
396.996
396.913
396.83
396.746
396.663
396.579
396.496
396.411
396.327
396.24
396.152
396.061
395.966
395.866
395.76
395.646
395.521
395.384
395.233
395.065
394.876
394.665
394.435
394.433
394.328
394.157
393.932
393.655
393.328
392.949
392.518
392.035
391.524
400
400
400
400
400
400
400
400
400
399.996
399.772
399.6
399.453
399.32
399.195
399.077
398.964
398.855
398.749
398.645
398.544
398.444
398.345
398.248
398.151
398.056
397.961
397.868
397.776
397.685
397.595
397.505
397.416
397.329
397.242
397.157
397.073
396.989
396.906
396.823
396.74
396.656
396.573
396.489
396.405
396.32
396.234
396.146
396.055
395.96
395.86
395.753
395.639
395.514
395.378
395.227
395.058
394.87
394.66
394.43
394.428
394.323
394.153
393.929
393.652
393.325
392.947
392.516
392.034
391.523
400
400
400
400
400
400
400
400
400
399.996
399.771
399.6
399.453
399.319
399.195
399.077
398.964
398.854
398.748
398.645
398.544
398.444
398.346
398.249
398.152
398.057
397.962
397.869
397.777
397.685
397.594
397.504
397.414
397.325
397.238
397.152
397.067
396.983
396.9
396.817
396.733
396.65
396.567
396.483
396.399
396.314
396.228
396.14
396.049
395.954
395.854
395.747
395.633
395.508
395.371
395.221
395.052
394.865
394.655
394.426
394.424
394.319
394.15
393.926
393.65
393.323
392.945
392.515
392.033
391.522
400
400
400
400
400
400
400
400
400
399.996
399.771
399.6
399.452
399.319
399.194
399.076
398.963
398.854
398.748
398.645
398.544
398.444
398.346
398.25
398.153
398.058
397.964
397.87
397.777
397.685
397.594
397.502
397.412
397.323
397.235
397.148
397.062
396.978
396.894
396.81
396.727
396.644
396.561
396.477
396.394
396.309
396.223
396.134
396.043
395.948
395.848
395.741
395.627
395.502
395.366
395.215
395.047
394.86
394.65
394.421
394.42
394.316
394.147
393.923
393.648
393.322
392.944
392.514
392.033
391.522
400
400
400
400
400
400
400
400
400
399.996
399.771
399.599
399.452
399.318
399.194
399.076
398.963
398.854
398.748
398.645
398.544
398.445
398.347
398.251
398.155
398.06
397.965
397.872
397.779
397.686
397.594
397.502
397.41
397.321
397.232
397.144
397.058
396.973
396.888
396.804
396.721
396.638
396.555
396.472
396.388
396.304
396.218
396.129
396.038
395.943
395.843
395.736
395.621
395.497
395.361
395.21
395.043
394.855
394.646
394.418
394.417
394.313
394.145
393.922
393.647
393.321
392.944
392.515
392.034
391.524
400
400
400
400
400
400
400
400
400
399.996
399.771
399.599
399.452
399.318
399.194
399.076
398.963
398.854
398.748
398.645
398.544
398.445
398.348
398.252
398.156
398.061
397.967
397.873
397.78
397.687
397.594
397.501
397.409
397.319
397.23
397.141
397.054
396.968
396.883
396.799
396.716
396.633
396.55
396.467
396.384
396.299
396.213
396.125
396.034
395.938
395.838
395.732
395.617
395.493
395.357
395.206
395.039
394.852
394.643
394.415
394.415
394.312
394.144
393.921
393.647
393.322
392.945
392.516
392.036
391.526
400
400
400
400
400
400
400
400
400
399.996
399.771
399.599
399.452
399.318
399.194
399.076
398.963
398.854
398.748
398.645
398.544
398.445
398.348
398.252
398.157
398.063
397.969
397.875
397.781
397.687
397.594
397.5
397.408
397.317
397.228
397.139
397.051
396.965
396.879
396.795
396.711
396.628
396.546
396.463
396.38
396.295
396.209
396.121
396.03
395.935
395.835
395.728
395.614
395.489
395.353
395.203
395.036
394.85
394.641
394.414
394.414
394.311
394.143
393.921
393.648
393.323
392.947
392.519
392.038
391.529
400
400
400
400
400
400
400
400
400
399.996
399.771
399.6
399.452
399.318
399.194
399.076
398.963
398.854
398.748
398.645
398.544
398.446
398.348
398.253
398.158
398.064
397.97
397.876
397.782
397.688
397.593
397.499
397.407
397.316
397.226
397.137
397.049
396.962
396.876
396.791
396.707
396.624
396.542
396.459
396.376
396.292
396.206
396.118
396.027
395.932
395.832
395.725
395.611
395.487
395.351
395.201
395.035
394.848
394.64
394.413
394.413
394.311
394.144
393.922
393.649
393.325
392.949
392.522
392.042
391.534
400
400
400
400
400
400
400
400
400
399.996
399.771
399.6
399.453
399.319
399.194
399.076
398.963
398.854
398.748
398.645
398.544
398.445
398.348
398.253
398.158
398.064
397.971
397.877
397.782
397.688
397.593
397.498
397.406
397.315
397.225
397.136
397.048
396.96
396.873
396.788
396.704
396.621
396.539
396.456
396.374
396.29
396.204
396.117
396.025
395.93
395.83
395.724
395.61
395.486
395.35
395.2
395.034
394.848
394.64
394.413
394.414
394.312
394.145
393.924
393.652
393.328
392.953
392.526
392.047
391.539
400
400
400
400
400
400
400
400
400
399.996
399.771
399.6
399.453
399.319
399.195
399.077
398.964
398.855
398.748
398.645
398.544
398.445
398.348
398.252
398.158
398.064
397.971
397.877
397.782
397.687
397.592
397.497
397.405
397.314
397.224
397.135
397.047
396.959
396.872
396.786
396.702
396.619
396.537
396.455
396.372
396.289
396.204
396.116
396.025
395.93
395.83
395.723
395.609
395.486
395.35
395.201
395.035
394.849
394.641
394.414
394.415
394.314
394.148
393.927
393.655
393.332
392.958
392.532
392.053
391.546
400
400
400
400
400
400
400
400
400
399.996
399.772
399.601
399.454
399.321
399.196
399.078
398.964
398.855
398.749
398.645
398.544
398.444
398.347
398.252
398.157
398.064
397.97
397.876
397.781
397.686
397.591
397.496
397.404
397.313
397.224
397.135
397.047
396.959
396.872
396.786
396.702
396.618
396.536
396.454
396.372
396.289
396.204
396.116
396.025
395.93
395.83
395.724
395.61
395.487
395.352
395.202
395.036
394.85
394.642
394.416
394.417
394.316
394.151
393.931
393.66
393.337
392.964
392.538
392.06
391.553
400
400
400
400
400
400
400
400
400
399.996
399.772
399.601
399.455
399.321
399.197
399.078
398.965
398.855
398.749
398.645
398.543
398.443
398.346
398.25
398.156
398.062
397.969
397.875
397.78
397.684
397.589
397.495
397.403
397.313
397.223
397.135
397.047
396.959
396.872
396.786
396.701
396.618
396.536
396.454
396.372
396.289
396.204
396.117
396.026
395.931
395.831
395.725
395.612
395.488
395.354
395.205
395.039
394.853
394.645
394.418
394.42
394.32
394.155
393.936
393.665
393.343
392.97
392.545
392.067
391.561
400
400
400
400
400
400
400
400
400
399.996
399.773
399.602
399.456
399.322
399.198
399.079
398.966
398.856
398.749
398.644
398.542
398.443
398.345
398.249
398.155
398.061
397.967
397.873
397.778
397.682
397.588
397.494
397.402
397.312
397.222
397.134
397.046
396.958
396.872
396.785
396.701
396.618
396.536
396.454
396.373
396.29
396.205
396.118
396.027
395.932
395.833
395.727
395.614
395.491
395.356
395.207
395.041
394.855
394.647
394.42
394.423
394.323
394.159
393.94
393.67
393.349
392.977
392.552
392.075
391.569
400
400
400
400
400
400
400
400
400
399.996
399.773
399.603
399.457
399.324
399.199
399.08
398.967
398.856
398.749
398.644
398.542
398.442
398.344
398.248
398.153
398.059
397.965
397.87
397.775
397.68
397.586
397.492
397.401
397.31
397.221
397.132
397.045
396.957
396.871
396.785
396.7
396.617
396.535
396.454
396.373
396.291
396.206
396.119
396.028
395.934
395.834
395.729
395.616
395.493
395.359
395.21
395.044
394.858
394.65
394.422
394.426
394.327
394.163
393.945
393.675
393.355
392.983
392.559
392.082
391.577
400
400
400
400
400
400
400
400
400
399.996
399.773
399.603
399.457
399.324
399.199
399.081
398.967
398.856
398.749
398.644
398.541
398.441
398.342
398.246
398.151
398.057
397.963
397.868
397.773
397.678
397.583
397.49
397.399
397.309
397.219
397.131
397.043
396.956
396.869
396.784
396.699
396.616
396.535
396.454
396.373
396.291
396.207
396.12
396.029
395.935
395.836
395.73
395.617
395.495
395.36
395.212
395.046
394.86
394.652
394.425
394.428
394.329
394.166
393.948
393.679
393.359
392.987
392.563
392.087
391.582
400
400
400
400
400
400
400
400
400
399.996
399.774
399.605
399.459
399.326
399.201
399.082
398.968
398.857
398.749
398.643
398.54
398.439
398.341
398.244
398.149
398.055
397.96
397.865
397.77
397.675
397.581
397.488
397.397
397.306
397.217
397.129
397.041
396.954
396.868
396.782
396.698
396.615
396.534
396.454
396.373
396.291
396.207
396.121
396.03
395.936
395.838
395.732
395.62
395.497
395.363
395.214
395.047
394.861
394.652
394.423
394.428
394.329
394.166
393.948
393.679
393.359
392.987
392.564
392.088
391.583
400
400
400
400
400
400
400
400
400
399.996
399.775
399.605
399.459
399.326
399.201
399.082
398.968
398.857
398.748
398.643
398.539
398.438
398.339
398.243
398.147
398.052
397.958
397.863
397.768
397.673
397.578
397.486
397.394
397.304
397.215
397.127
397.039
396.952
396.866
396.78
396.696
396.614
396.533
396.453
396.373
396.291
396.208
396.121
396.031
395.937
395.839
395.734
395.621
395.498
395.364
395.214
395.047
394.861
394.651
394.423
394.427
394.328
394.165
393.947
393.677
393.357
392.985
392.561
392.084
391.579
400
400
400
400
400
400
400
400
400
399.996
399.775
399.606
399.46
399.327
399.202
399.083
398.968
398.857
398.748
398.642
398.539
398.437
398.338
398.241
398.146
398.051
397.956
397.861
397.766
397.671
397.577
397.484
397.392
397.302
397.213
397.125
397.037
396.95
396.864
396.778
396.694
396.613
396.533
396.453
396.373
396.292
396.208
396.122
396.032
395.938
395.84
395.735
395.622
395.499
395.364
395.214
395.047
394.859
394.649
394.42
394.424
394.325
394.161
393.943
393.673
393.352
392.98
392.555
392.078
391.572
400
400
400
400
400
400
400
400
400
399.996
399.776
399.608
399.462
399.328
399.203
399.084
398.969
398.857
398.748
398.642
398.538
398.437
398.338
398.24
398.144
398.049
397.954
397.859
397.764
397.669
397.575
397.482
397.391
397.301
397.212
397.124
397.036
396.949
396.862
396.777
396.693
396.612
396.532
396.453
396.373
396.292
396.209
396.122
396.033
395.939
395.841
395.736
395.623
395.5
395.365
395.214
395.046
394.858
394.647
394.417
394.421
394.322
394.158
393.939
393.668
393.347
392.974
392.548
392.071
391.565
400
400
400
400
400
400
400
400
400
399.996
399.776
399.608
399.462
399.329
399.204
399.084
398.969
398.857
398.748
398.642
398.538
398.436
398.337
398.239
398.143
398.048
397.953
397.858
397.763
397.669
397.575
397.481
397.39
397.3
397.211
397.123
397.035
396.948
396.861
396.776
396.693
396.612
396.532
396.453
396.373
396.292
396.209
396.123
396.034
395.941
395.842
395.737
395.624
395.501
395.365
395.214
395.046
394.857
394.646
394.415
394.419
394.319
394.154
393.935
393.663
393.341
392.968
392.542
392.064
391.557
400
400
400
400
400
400
400
400
400
399.996
399.777
399.609
399.463
399.33
399.205
399.085
398.97
398.857
398.748
398.642
398.538
398.436
398.337
398.239
398.143
398.048
397.953
397.858
397.763
397.669
397.575
397.482
397.39
397.3
397.211
397.123
397.035
396.948
396.861
396.776
396.694
396.613
396.533
396.454
396.374
396.293
396.21
396.125
396.035
395.942
395.844
395.739
395.626
395.502
395.366
395.214
395.045
394.855
394.643
394.412
394.416
394.316
394.15
393.93
393.659
393.336
392.962
392.535
392.057
391.549
400
400
400
400
400
400
400
400
400
399.996
399.777
399.609
399.464
399.33
399.205
399.085
398.97
398.858
398.749
398.642
398.538
398.436
398.336
398.239
398.142
398.047
397.953
397.858
397.764
397.67
397.577
397.484
397.392
397.302
397.213
397.124
397.036
396.949
396.863
396.778
396.696
396.615
396.536
396.456
396.376
396.295
396.212
396.126
396.037
395.944
395.846
395.741
395.627
395.503
395.367
395.215
395.045
394.855
394.642
394.41
394.414
394.313
394.147
393.927
393.655
393.331
392.956
392.529
392.05
391.542
400
400
400
400
400
400
400
400
400
399.996
399.777
399.61
399.464
399.331
399.206
399.086
398.97
398.858
398.749
398.642
398.538
398.436
398.336
398.239
398.142
398.047
397.953
397.859
397.765
397.672
397.579
397.486
397.395
397.304
397.215
397.127
397.039
396.952
396.866
396.782
396.7
396.619
396.539
396.459
396.379
396.298
396.215
396.129
396.04
395.947
395.848
395.743
395.629
395.505
395.368
395.216
395.045
394.855
394.642
394.409
394.412
394.311
394.145
393.924
393.651
393.327
392.952
392.524
392.044
391.536
400
400
400
400
400
400
400
400
400
399.996
399.778
399.61
399.465
399.331
399.206
399.086
398.971
398.859
398.749
398.643
398.539
398.437
398.337
398.239
398.142
398.047
397.953
397.86
397.767
397.674
397.582
397.49
397.399
397.309
397.22
397.131
397.044
396.957
396.872
396.788
396.705
396.624
396.544
396.463
396.383
396.301
396.218
396.132
396.043
395.949
395.851
395.745
395.632
395.507
395.37
395.217
395.047
394.855
394.641
394.408
394.411
394.31
394.143
393.922
393.648
393.324
392.948
392.52
392.039
391.53
400
400
400
400
400
400
400
400
400
399.996
399.778
399.61
399.465
399.332
399.207
399.087
398.971
398.859
398.75
398.643
398.539
398.437
398.337
398.239
398.143
398.048
397.954
397.861
397.768
397.676
397.585
397.494
397.403
397.314
397.225
397.137
397.049
396.963
396.878
396.794
396.711
396.63
396.549
396.468
396.387
396.305
396.221
396.135
396.046
395.953
395.854
395.748
395.634
395.51
395.372
395.219
395.048
394.856
394.642
394.409
394.411
394.31
394.142
393.92
393.646
393.321
392.945
392.516
392.035
391.525
400
400
400
400
400
400
400
400
400
399.996
399.778
399.61
399.465
399.332
399.207
399.087
398.972
398.86
398.751
398.644
398.54
398.438
398.338
398.24
398.143
398.048
397.954
397.862
397.77
397.679
397.588
397.498
397.408
397.319
397.231
397.143
397.056
396.97
396.884
396.801
396.718
396.636
396.555
396.473
396.392
396.309
396.225
396.139
396.05
395.956
395.857
395.752
395.637
395.513
395.375
395.221
395.05
394.858
394.643
394.409
394.412
394.31
394.142
393.919
393.645
393.319
392.942
392.513
392.032
391.522
400
400
400
400
400
400
400
400
400
399.996
399.778
399.611
399.466
399.333
399.208
399.088
398.973
398.861
398.752
398.645
398.541
398.439
398.339
398.241
398.144
398.049
397.955
397.863
397.771
397.681
397.591
397.502
397.413
397.325
397.237
397.15
397.063
396.977
396.892
396.808
396.725
396.643
396.561
396.479
396.397
396.314
396.23
396.143
396.054
395.96
395.861
395.755
395.641
395.516
395.378
395.224
395.052
394.86
394.645
394.411
394.413
394.31
394.142
393.919
393.644
393.318
392.941
392.511
392.029
391.519
400
400
400
400
400
400
400
400
400
399.996
399.778
399.611
399.466
399.333
399.208
399.089
398.974
398.862
398.753
398.646
398.542
398.44
398.34
398.242
398.145
398.05
397.956
397.864
397.773
397.683
397.594
397.506
397.418
397.33
397.243
397.156
397.07
396.984
396.899
396.816
396.733
396.65
396.568
396.485
396.403
396.319
396.235
396.148
396.058
395.965
395.866
395.76
395.645
395.52
395.382
395.228
395.056
394.863
394.648
394.413
394.415
394.312
394.144
393.92
393.645
393.318
392.94
392.51
392.028
391.517
400
400
400
400
400
400
400
400
400
399.996
399.779
399.612
399.467
399.334
399.209
399.09
398.975
398.863
398.754
398.647
398.543
398.441
398.341
398.243
398.146
398.051
397.958
397.866
397.775
397.685
397.597
397.509
397.422
397.336
397.249
397.163
397.077
396.991
396.907
396.823
396.74
396.657
396.574
396.492
396.409
396.325
396.24
396.153
396.064
395.97
395.871
395.764
395.65
395.524
395.386
395.232
395.06
394.867
394.652
394.416
394.418
394.315
394.146
393.922
393.646
393.319
392.941
392.51
392.028
391.517
400
400
400
400
400
400
400
400
400
399.996
399.779
399.612
399.467
399.335
399.21
399.091
398.976
398.864
398.755
398.649
398.545
398.443
398.343
398.245
398.148
398.053
397.96
397.867
397.777
397.688
397.6
397.513
397.427
397.341
397.255
397.169
397.084
396.999
396.914
396.831
396.747
396.664
396.581
396.498
396.415
396.331
396.246
396.159
396.069
395.975
395.876
395.77
395.655
395.53
395.391
395.237
395.065
394.872
394.656
394.42
394.421
394.318
394.148
393.924
393.648
393.321
392.942
392.511
392.029
391.517
400
400
400
400
400
400
400
400
400
399.996
399.779
399.613
399.468
399.336
399.211
399.092
398.977
398.865
398.757
398.651
398.547
398.445
398.345
398.246
398.15
398.055
397.961
397.869
397.779
397.69
397.603
397.516
397.431
397.346
397.261
397.175
397.09
397.005
396.921
396.837
396.754
396.671
396.588
396.505
396.421
396.337
396.252
396.165
396.075
395.981
395.881
395.775
395.66
395.534
395.396
395.241
395.069
394.876
394.66
394.424
394.424
394.32
394.15
393.926
393.649
393.321
392.943
392.512
392.029
391.518
400
400
400
400
400
400
400
400
400
399.996
399.78
399.613
399.469
399.337
399.212
399.093
398.978
398.867
398.759
398.653
398.549
398.447
398.347
398.249
398.152
398.057
397.964
397.872
397.782
397.693
397.606
397.52
397.435
397.351
397.266
397.181
397.096
397.011
396.927
396.844
396.76
396.677
396.594
396.51
396.427
396.342
396.257
396.17
396.079
395.985
395.885
395.779
395.664
395.538
395.399
395.244
395.071
394.878
394.661
394.425
394.424
394.32
394.149
393.924
393.647
393.319
392.939
392.508
392.026
391.514
400
400
400
400
400
400
400
400
400
399.996
399.78
399.614
399.47
399.338
399.213
399.094
398.98
398.869
398.76
398.654
398.551
398.449
398.349
398.251
398.154
398.059
397.966
397.874
397.784
397.695
397.608
397.523
397.438
397.354
397.269
397.185
397.1
397.015
396.931
396.847
396.764
396.68
396.597
396.513
396.429
396.345
396.259
396.171
396.08
395.986
395.886
395.778
395.663
395.536
395.396
395.241
395.067
394.872
394.654
394.416
394.415
394.309
394.137
393.911
393.632
393.303
392.923
392.491
392.008
391.496
400
400
400
400
400
400
400
400
400
399.996
399.781
399.614
399.471
399.339
399.215
399.096
398.981
398.87
398.762
398.656
398.552
398.451
398.351
398.252
398.156
398.061
397.967
397.875
397.784
397.696
397.609
397.523
397.438
397.354
397.269
397.184
397.099
397.014
396.93
396.845
396.761
396.677
396.593
396.509
396.424
396.339
396.252
396.164
396.072
395.976
395.874
395.765
395.648
395.519
395.377
395.219
395.043
394.845
394.624
394.383
394.379
394.27
394.094
393.864
393.583
393.25
392.867
392.432
391.946
391.433
400
400
400
400
400
400
400
400
400
399.996
399.781
399.615
399.471
399.339
399.215
399.096
398.982
398.871
398.762
398.656
398.552
398.45
398.349
398.25
398.153
398.057
397.963
397.87
397.779
397.69
397.602
397.516
397.43
397.344
397.259
397.173
397.087
397.001
396.915
396.829
396.744
396.658
396.572
396.486
396.4
396.312
396.223
396.132
396.037
395.937
395.832
395.719
395.596
395.462
395.314
395.15
394.966
394.761
394.532
394.282
394.269
394.151
393.966
393.726
393.434
393.091
392.698
392.254
391.758
391.237
400
400
400
400
400
400
400
400
400
399.996
399.781
399.615
399.471
399.339
399.214
399.095
398.979
398.867
398.758
398.65
398.545
398.441
398.339
398.239
398.14
398.042
397.946
397.851
397.758
397.667
397.577
397.488
397.399
397.311
397.223
397.134
397.045
396.955
396.866
396.777
396.688
396.598
396.508
396.417
396.325
396.232
396.136
396.036
395.933
395.823
395.707
395.581
395.445
395.296
395.131
394.949
394.745
394.519
394.266
393.992
393.957
393.813
393.602
393.334
393.014
392.642
392.22
391.747
391.224
390.676
400
400
400
400
400
400
400
400
400
399.996
399.78
399.613
399.467
399.333
399.206
399.084
398.966
398.85
398.737
398.626
398.517
398.409
398.303
398.198
398.094
397.992
397.89
397.791
397.692
397.595
397.499
397.404
397.31
397.215
397.12
397.024
396.927
396.83
396.733
396.635
396.536
396.435
396.333
396.229
396.121
396.01
395.894
395.772
395.644
395.506
395.358
395.198
395.024
394.832
394.622
394.39
394.133
393.85
393.537
393.2
393.104
392.896
392.617
392.278
391.886
391.442
390.947
390.402
389.809
389.195
400
400
400
400
400
400
400
400
400
399.996
399.775
399.603
399.451
399.31
399.176
399.046
398.919
398.795
398.672
398.551
398.432
398.314
398.196
398.08
397.965
397.851
397.738
397.626
397.515
397.405
397.296
397.188
397.08
396.971
396.861
396.749
396.636
396.522
396.404
396.284
396.16
396.031
395.896
395.754
395.604
395.445
395.274
395.091
394.894
394.681
394.449
394.197
393.923
393.624
393.299
392.944
392.558
392.138
391.684
391.201
390.97
390.618
390.19
389.702
389.158
388.563
387.919
387.228
386.495
385.755
400
400
400
400
400
400
400
400
400
399.995
399.755
399.562
399.392
399.23
399.076
398.925
398.777
398.631
398.487
398.344
398.202
398.06
397.92
397.781
397.643
397.506
397.369
397.234
397.101
396.968
396.836
396.703
396.57
396.436
396.299
396.157
396.012
395.859
395.7
395.53
395.349
395.154
394.943
394.714
394.465
394.193
393.897
393.574
393.223
392.842
392.428
391.981
391.499
390.98
390.423
389.828
389.192
388.518
387.804
387.062
386.612
386.03
385.37
384.648
383.875
383.055
382.195
381.298
380.375
379.476
400
400
400
400
400
400
400
400
400
399.992
399.677
399.434
399.22
399.02
398.828
398.643
398.461
398.282
398.105
397.93
397.758
397.587
397.417
397.249
397.083
396.918
396.755
396.595
396.436
396.278
396.121
395.963
395.802
395.638
395.468
395.288
395.098
394.893
394.67
394.426
394.158
393.861
393.534
393.172
392.774
392.338
391.861
391.341
390.778
390.171
389.518
388.82
388.078
387.29
386.461
385.589
384.678
383.729
382.745
381.75
381.185
380.435
379.592
378.685
377.73
376.736
375.713
374.667
373.608
372.626
400
400
400
400
400
400
400
400
400
399.995
399.754
399.531
399.325
399.128
398.939
398.755
398.574
398.396
398.22
398.046
397.874
397.703
397.533
397.365
397.198
397.033
396.869
396.707
396.546
396.386
396.226
396.066
395.904
395.739
395.57
395.393
395.206
395.004
394.786
394.546
394.28
393.987
393.661
393.302
392.906
392.471
391.997
391.48
390.92
390.316
389.667
388.974
388.237
387.454
386.63
385.763
384.857
383.914
382.935
381.943
381.31
380.552
379.711
378.807
377.855
376.865
375.845
374.801
373.744
372.751
400
400
400
400
400
400
400
400
400
399.997
399.825
399.656
399.496
399.342
399.192
399.044
398.9
398.756
398.614
398.473
398.333
398.194
398.055
397.917
397.78
397.643
397.507
397.372
397.238
397.104
396.97
396.837
396.704
396.569
396.434
396.296
396.154
396.006
395.851
395.686
395.51
395.319
395.113
394.889
394.645
394.379
394.09
393.775
393.432
393.06
392.657
392.221
391.751
391.245
390.702
390.121
389.501
388.842
388.144
387.417
386.906
386.318
385.665
384.954
384.192
383.385
382.538
381.652
380.74
379.84
400
400
400
400
400
400
400
400
400
399.998
399.842
399.692
399.551
399.416
399.286
399.16
399.036
398.915
398.795
398.677
398.559
398.443
398.327
398.213
398.098
397.985
397.873
397.761
397.65
397.54
397.43
397.321
397.212
397.104
396.995
396.887
396.777
396.667
396.553
396.437
396.315
396.189
396.057
395.918
395.771
395.615
395.449
395.271
395.079
394.872
394.649
394.406
394.142
393.855
393.543
393.202
392.831
392.428
391.993
391.527
391.238
390.883
390.466
389.992
389.465
388.887
388.262
387.591
386.877
386.147
400
400
400
400
400
400
400
400
400
399.998
399.846
399.7
399.564
399.436
399.313
399.195
399.079
398.967
398.856
398.748
398.64
398.535
398.43
398.326
398.223
398.122
398.021
397.921
397.822
397.725
397.628
397.532
397.437
397.342
397.248
397.155
397.062
396.969
396.875
396.779
396.682
396.583
396.481
396.378
396.271
396.161
396.047
395.927
395.801
395.667
395.524
395.37
395.202
395.018
394.817
394.596
394.351
394.082
393.785
393.462
393.307
393.093
392.821
392.496
392.12
391.694
391.218
390.693
390.121
389.522
400
400
400
400
400
400
400
400
400
399.998
399.846
399.702
399.567
399.44
399.32
399.204
399.091
398.982
398.875
398.77
398.667
398.565
398.465
398.365
398.267
398.17
398.075
397.98
397.887
397.794
397.703
397.613
397.524
397.435
397.348
397.261
397.175
397.09
397.003
396.916
396.828
396.739
396.649
396.559
396.467
396.373
396.278
396.179
396.077
395.969
395.856
395.734
395.602
395.459
395.302
395.127
394.934
394.719
394.48
394.219
394.122
393.969
393.764
393.507
393.201
392.845
392.441
391.988
391.485
390.952
400
400
400
400
400
400
400
400
400
399.998
399.846
399.701
399.566
399.439
399.319
399.204
399.093
398.984
398.878
398.775
398.673
398.573
398.474
398.376
398.28
398.185
398.091
397.998
397.907
397.817
397.728
397.64
397.553
397.467
397.382
397.298
397.215
397.132
397.049
396.965
396.881
396.796
396.71
396.624
396.537
396.45
396.36
396.269
396.175
396.077
395.974
395.863
395.745
395.616
395.474
395.318
395.143
394.949
394.732
394.494
394.418
394.29
394.11
393.879
393.6
393.273
392.897
392.471
391.996
391.488
400
400
400
400
400
400
400
400
400
399.998
399.845
399.7
399.565
399.438
399.318
399.203
399.091
398.983
398.878
398.775
398.673
398.574
398.475
398.378
398.283
398.188
398.095
398.002
397.912
397.822
397.734
397.647
397.561
397.476
397.392
397.309
397.227
397.145
397.063
396.98
396.897
396.813
396.729
396.644
396.56
396.474
396.387
396.299
396.207