/*--------------------------------*- C++ -*----------------------------------*\
  =========                 |
  \\      /  F ield         | OpenFOAM: The Open Source CFD Toolbox
   \\    /   O peration     | Website:  https://openfoam.org
    \\  /    A nd           | Version:  12
     \\/     M anipulation  |
\*---------------------------------------------------------------------------*/
FoamFile
{
    format      ascii;
    class       volScalarField;
    location    "450/porous";
    object      rho;
}
// * * * * * * * * * * * * * * * * * * * * * * * * * * * * * * * * * * * * * //

dimensions      [1 -3 0 0 0 0 0];

internalField   nonuniform List<scalar> 
140000
(
933.891
933.891
933.891
933.891
933.891
933.891
933.891
933.891
933.892
933.899
934.195
934.422
934.621
934.807
934.984
935.155
935.323
935.487
935.649
935.809
935.968
936.124
936.28
936.434
936.587
936.738
936.888
937.036
937.183
937.327
937.47
937.611
937.751
937.889
938.025
938.161
938.298
938.437
938.579
938.725
938.879
939.042
939.215
939.4
939.599
939.814
940.046
940.297
940.569
940.864
941.184
941.528
941.899
942.297
942.722
943.177
943.661
944.172
944.712
945.259
945.404
945.719
946.121
946.586
947.102
947.662
948.26
948.891
949.548
950.172
933.891
933.891
933.891
933.891
933.891
933.891
933.891
933.891
933.891
933.896
934.124
934.304
934.463
934.613
934.756
934.895
935.031
935.166
935.299
935.43
935.56
935.69
935.818
935.946
936.074
936.2
936.326
936.452
936.576
936.699
936.821
936.942
937.063
937.182
937.3
937.417
937.535
937.653
937.772
937.893
938.018
938.148
938.282
938.422
938.568
938.722
938.885
939.058
939.243
939.44
939.652
939.879
940.122
940.383
940.663
940.963
941.284
941.627
941.993
942.369
942.466
942.672
942.941
943.258
943.618
944.018
944.454
944.928
945.431
945.937
933.891
933.891
933.891
933.891
933.891
933.891
933.891
933.891
933.891
933.895
934.105
934.267
934.409
934.54
934.665
934.785
934.901
935.016
935.128
935.239
935.349
935.457
935.565
935.672
935.778
935.884
935.989
936.093
936.196
936.299
936.4
936.501
936.601
936.7
936.798
936.895
936.992
937.089
937.186
937.284
937.384
937.486
937.59
937.696
937.804
937.914
938.028
938.145
938.266
938.393
938.524
938.663
938.809
938.963
939.127
939.302
939.488
939.687
939.9
940.12
940.093
940.158
940.274
940.429
940.619
940.843
941.1
941.39
941.712
942.05
933.891
933.891
933.891
933.891
933.891
933.891
933.891
933.891
933.891
933.895
934.101
934.258
934.395
934.52
934.638
934.751
934.86
934.966
935.069
935.171
935.271
935.37
935.467
935.564
935.659
935.754
935.848
935.941
936.033
936.124
936.214
936.303
936.392
936.478
936.564
936.649
936.733
936.817
936.901
936.986
937.072
937.159
937.247
937.335
937.424
937.513
937.603
937.693
937.785
937.878
937.973
938.07
938.17
938.274
938.382
938.495
938.614
938.74
938.875
939.012
938.912
938.894
938.92
938.979
939.066
939.182
939.326
939.498
939.7
939.92
933.891
933.891
933.891
933.891
933.891
933.891
933.891
933.891
933.891
933.895
934.1
934.257
934.392
934.516
934.631
934.742
934.848
934.951
935.051
935.149
935.246
935.341
935.434
935.526
935.617
935.707
935.796
935.885
935.972
936.058
936.143
936.226
936.309
936.39
936.47
936.548
936.626
936.704
936.782
936.861
936.94
937.021
937.101
937.182
937.262
937.342
937.422
937.502
937.582
937.662
937.743
937.824
937.906
937.99
938.075
938.164
938.256
938.353
938.455
938.558
938.429
938.376
938.363
938.379
938.421
938.487
938.578
938.695
938.838
938.999
933.891
933.891
933.891
933.891
933.891
933.891
933.891
933.891
933.891
933.895
934.101
934.258
934.393
934.516
934.632
934.741
934.847
934.949
935.048
935.145
935.24
935.333
935.425
935.515
935.605
935.693
935.78
935.867
935.952
936.036
936.118
936.2
936.28
936.358
936.436
936.512
936.587
936.662
936.738
936.814
936.891
936.968
937.046
937.123
937.2
937.276
937.352
937.428
937.503
937.578
937.653
937.729
937.804
937.881
937.958
938.038
938.12
938.206
938.296
938.387
938.247
938.182
938.154
938.153
938.177
938.224
938.294
938.388
938.506
938.643
933.891
933.891
933.891
933.891
933.891
933.891
933.891
933.891
933.891
933.895
934.101
934.259
934.394
934.518
934.633
934.742
934.848
934.949
935.048
935.145
935.24
935.332
935.423
935.513
935.602
935.689
935.776
935.861
935.946
936.029
936.111
936.191
936.27
936.348
936.425
936.5
936.574
936.649
936.723
936.798
936.874
936.951
937.027
937.103
937.179
937.254
937.328
937.402
937.476
937.549
937.622
937.695
937.768
937.842
937.917
937.993
938.072
938.154
938.239
938.324
938.182
938.112
938.079
938.072
938.089
938.129
938.191
938.276
938.385
938.513
933.891
933.891
933.891
933.891
933.891
933.891
933.891
933.891
933.891
933.895
934.102
934.26
934.396
934.519
934.635
934.744
934.85
934.951
935.05
935.147
935.241
935.334
935.424
935.514
935.602
935.689
935.776
935.861
935.945
936.028
936.11
936.19
936.269
936.346
936.423
936.498
936.573
936.647
936.721
936.796
936.872
936.948
937.024
937.1
937.175
937.249
937.323
937.396
937.469
937.542
937.614
937.686
937.758
937.831
937.904
937.98
938.057
938.137
938.221
938.304
938.161
938.089
938.054
938.045
938.06
938.097
938.155
938.237
938.343
938.467
933.891
933.891
933.891
933.891
933.891
933.891
933.891
933.891
933.891
933.895
934.103
934.261
934.397
934.521
934.636
934.746
934.851
934.953
935.052
935.149
935.243
935.335
935.426
935.515
935.603
935.69
935.776
935.861
935.945
936.028
936.11
936.19
936.269
936.347
936.424
936.5
936.575
936.649
936.724
936.799
936.875
936.951
937.026
937.102
937.177
937.251
937.325
937.398
937.47
937.543
937.614
937.686
937.758
937.83
937.904
937.978
938.055
938.135
938.218
938.301
938.157
938.084
938.049
938.039
938.053
938.088
938.146
938.226
938.331
938.454
933.891
933.891
933.891
933.891
933.891
933.891
933.891
933.891
933.891
933.895
934.103
934.262
934.398
934.522
934.638
934.748
934.853
934.955
935.054
935.15
935.244
935.337
935.427
935.516
935.604
935.69
935.777
935.862
935.946
936.029
936.111
936.191
936.271
936.349
936.427
936.503
936.578
936.653
936.728
936.803
936.879
936.955
937.031
937.106
937.181
937.255
937.329
937.402
937.475
937.547
937.619
937.69
937.762
937.834
937.907
937.982
938.058
938.138
938.221
938.303
938.159
938.086
938.05
938.041
938.054
938.089
938.146
938.226
938.33
938.452
933.891
933.891
933.891
933.891
933.891
933.891
933.891
933.891
933.891
933.895
934.104
934.262
934.399
934.523
934.639
934.749
934.854
934.956
935.055
935.152
935.246
935.338
935.428
935.516
935.604
935.69
935.776
935.861
935.945
936.029
936.111
936.192
936.272
936.351
936.429
936.506
936.582
936.658
936.733
936.808
936.884
936.96
937.036
937.111
937.186
937.26
937.334
937.407
937.479
937.552
937.623
937.695
937.767
937.839
937.912
937.987
938.063
938.143
938.226
938.308
938.163
938.091
938.055
938.045
938.058
938.092
938.149
938.229
938.332
938.454
933.891
933.891
933.891
933.891
933.891
933.891
933.891
933.891
933.891
933.895
934.104
934.263
934.4
934.524
934.64
934.75
934.855
934.957
935.056
935.153
935.247
935.338
935.428
935.517
935.604
935.69
935.776
935.861
935.945
936.028
936.11
936.192
936.273
936.353
936.432
936.51
936.587
936.662
936.738
936.814
936.89
936.965
937.041
937.116
937.191
937.265
937.339
937.412
937.484
937.557
937.628
937.7
937.772
937.845
937.918
937.992
938.069
938.148
938.231
938.313
938.169
938.096
938.06
938.05
938.063
938.097
938.154
938.233
938.336
938.458
933.891
933.891
933.891
933.891
933.891
933.891
933.891
933.891
933.891
933.895
934.104
934.263
934.4
934.525
934.64
934.751
934.856
934.958
935.057
935.153
935.247
935.339
935.429
935.516
935.603
935.689
935.774
935.859
935.943
936.027
936.11
936.192
936.274
936.355
936.435
936.513
936.591
936.667
936.743
936.819
936.894
936.97
937.046
937.121
937.195
937.269
937.343
937.416
937.489
937.561
937.633
937.705
937.777
937.849
937.923
937.997
938.074
938.153
938.236
938.318
938.174
938.101
938.065
938.055
938.067
938.102
938.158
938.237
938.34
938.461
933.891
933.891
933.891
933.891
933.891
933.891
933.891
933.891
933.891
933.895
934.105
934.264
934.4
934.525
934.641
934.751
934.857
934.959
935.058
935.154
935.248
935.339
935.429
935.516
935.603
935.688
935.773
935.858
935.942
936.026
936.109
936.192
936.275
936.357
936.437
936.516
936.595
936.672
936.748
936.824
936.899
936.975
937.05
937.125
937.2
937.274
937.347
937.42
937.493
937.565
937.637
937.709
937.781
937.854
937.927
938.002
938.078
938.158
938.241
938.323
938.178
938.106
938.069
938.059
938.071
938.106
938.162
938.241
938.343
938.464
933.891
933.891
933.891
933.891
933.891
933.891
933.891
933.891
933.891
933.895
934.104
934.264
934.401
934.525
934.641
934.751
934.857
934.959
935.058
935.154
935.248
935.339
935.429
935.516
935.602
935.687
935.772
935.856
935.94
936.025
936.109
936.193
936.276
936.358
936.44
936.52
936.598
936.676
936.753
936.829
936.904
936.979
937.054
937.129
937.203
937.277
937.35
937.424
937.496
937.569
937.641
937.713
937.785
937.858
937.931
938.006
938.082
938.162
938.245
938.327
938.182
938.11
938.073
938.063
938.075
938.109
938.165
938.244
938.346
938.467
933.891
933.891
933.891
933.891
933.891
933.891
933.891
933.891
933.891
933.895
934.104
934.263
934.4
934.525
934.641
934.751
934.857
934.959
935.058
935.154
935.248
935.339
935.429
935.516
935.601
935.686
935.77
935.855
935.939
936.024
936.109
936.193
936.277
936.36
936.442
936.522
936.602
936.68
936.758
936.834
936.909
936.983
937.058
937.132
937.206
937.28
937.354
937.427
937.499
937.572
937.644
937.716
937.789
937.861
937.935
938.009
938.086
938.165
938.248
938.33
938.186
938.113
938.076
938.066
938.078
938.112
938.168
938.246
938.348
938.468
933.891
933.891
933.891
933.891
933.891
933.891
933.891
933.891
933.891
933.895
934.104
934.264
934.4
934.524
934.64
934.751
934.856
934.959
935.058
935.154
935.248
935.34
935.429
935.516
935.601
935.685
935.769
935.854
935.938
936.024
936.109
936.194
936.279
936.362
936.444
936.525
936.605
936.684
936.762
936.838
936.913
936.988
937.062
937.136
937.209
937.283
937.356
937.429
937.502
937.574
937.647
937.719
937.791
937.864
937.937
938.012
938.089
938.168
938.251
938.333
938.188
938.116
938.079
938.068
938.08
938.114
938.17
938.248
938.349
938.469
933.891
933.891
933.891
933.891
933.891
933.891
933.891
933.891
933.891
933.895
934.104
934.262
934.399
934.524
934.64
934.75
934.856
934.958
935.058
935.154
935.248
935.34
935.429
935.516
935.601
935.685
935.769
935.853
935.938
936.024
936.11
936.196
936.281
936.364
936.446
936.527
936.608
936.688
936.766
936.842
936.918
936.992
937.065
937.139
937.212
937.285
937.358
937.431
937.504
937.576
937.649
937.721
937.793
937.866
937.939
938.014
938.091
938.17
938.253
938.335
938.19
938.117
938.081
938.07
938.082
938.115
938.171
938.249
938.35
938.47
933.891
933.891
933.891
933.891
933.891
933.891
933.891
933.891
933.891
933.895
934.104
934.262
934.398
934.523
934.639
934.749
934.855
934.958
935.057
935.154
935.248
935.34
935.429
935.516
935.601
935.685
935.769
935.853
935.938
936.025
936.111
936.198
936.283
936.366
936.448
936.529
936.61
936.69
936.769
936.846
936.921
936.995
937.068
937.141
937.214
937.287
937.36
937.432
937.505
937.577
937.65
937.722
937.794
937.867
937.94
938.015
938.092
938.171
938.254
938.336
938.191
938.118
938.082
938.071
938.082
938.116
938.171
938.248
938.35
938.469
933.891
933.891
933.891
933.891
933.891
933.891
933.891
933.891
933.891
933.895
934.103
934.262
934.398
934.522
934.638
934.748
934.855
934.957
935.057
935.154
935.248
935.34
935.429
935.516
935.602
935.686
935.769
935.854
935.939
936.026
936.113
936.2
936.284
936.368
936.449
936.531
936.611
936.691
936.77
936.848
936.923
936.997
937.07
937.142
937.215
937.287
937.36
937.433
937.505
937.578
937.65
937.722
937.795
937.867
937.941
938.015
938.092
938.171
938.254
938.336
938.192
938.119
938.082
938.071
938.082
938.115
938.17
938.248
938.349
938.468
933.891
933.891
933.891
933.891
933.891
933.891
933.891
933.891
933.891
933.895
934.102
934.26
934.396
934.52
934.637
934.747
934.854
934.956
935.056
935.153
935.248
935.34
935.43
935.517
935.602
935.686
935.77
935.855
935.941
936.027
936.115
936.201
936.286
936.369
936.45
936.531
936.612
936.692
936.771
936.849
936.925
936.998
937.071
937.143
937.215
937.287
937.36
937.432
937.505
937.577
937.65
937.722
937.794
937.867
937.94
938.015
938.091
938.171
938.254
938.336
938.191
938.118
938.081
938.07
938.082
938.114
938.169
938.246
938.347
938.465
933.891
933.891
933.891
933.891
933.891
933.891
933.891
933.891
933.891
933.895
934.102
934.26
934.396
934.52
934.636
934.746
934.853
934.956
935.056
935.153
935.248
935.34
935.43
935.518
935.603
935.688
935.772
935.856
935.942
936.029
936.117
936.203
936.287
936.37
936.451
936.532
936.613
936.692
936.772
936.849
936.925
936.999
937.072
937.143
937.215
937.287
937.359
937.432
937.504
937.576
937.649
937.721
937.793
937.866
937.939
938.013
938.09
938.17
938.253
938.335
938.19
938.117
938.08
938.069
938.08
938.113
938.167
938.244
938.345
938.463
933.891
933.891
933.891
933.891
933.891
933.891
933.891
933.891
933.891
933.895
934.101
934.259
934.395
934.519
934.635
934.746
934.852
934.955
935.056
935.153
935.248
935.341
935.431
935.519
935.605
935.689
935.773
935.858
935.944
936.031
936.118
936.204
936.288
936.371
936.453
936.533
936.614
936.693
936.772
936.85
936.926
937
937.072
937.143
937.215
937.286
937.358
937.431
937.503
937.575
937.648
937.72
937.792
937.864
937.938
938.012
938.089
938.169
938.252
938.335
938.19
938.116
938.079
938.068
938.079
938.111
938.166
938.242
938.342
938.46
933.891
933.891
933.891
933.891
933.891
933.891
933.891
933.891
933.891
933.895
934.101
934.258
934.393
934.517
934.634
934.745
934.851
934.955
935.055
935.153
935.249
935.341
935.432
935.52
935.606
935.691
935.775
935.86
935.947
936.034
936.12
936.206
936.29
936.372
936.454
936.535
936.615
936.694
936.773
936.851
936.927
937.001
937.072
937.143
937.214
937.286
937.358
937.43
937.502
937.574
937.647
937.719
937.791
937.863
937.936
938.011
938.087
938.167
938.251
938.334
938.189
938.115
938.078
938.067
938.078
938.11
938.164
938.24
938.34
938.458
933.891
933.891
933.891
933.891
933.891
933.891
933.891
933.891
933.891
933.895
934.101
934.257
934.393
934.517
934.633
934.744
934.851
934.955
935.055
935.153
935.249
935.342
935.433
935.521
935.608
935.692
935.777
935.862
935.949
936.036
936.122
936.208
936.291
936.374
936.456
936.536
936.616
936.696
936.774
936.852
936.928
937.001
937.073
937.144
937.214
937.285
937.357
937.429
937.501
937.573
937.645
937.717
937.789
937.862
937.935
938.01
938.086
938.166
938.25
938.333
938.188
938.115
938.077
938.066
938.077
938.109
938.163
938.239
938.338
938.456
933.891
933.891
933.891
933.891
933.891
933.891
933.891
933.891
933.891
933.895
934.099
934.255
934.391
934.515
934.632
934.743
934.85
934.954
935.055
935.154
935.249
935.343
935.434
935.522
935.609
935.694
935.779
935.865
935.951
936.038
936.125
936.21
936.293
936.376
936.457
936.538
936.618
936.697
936.776
936.853
936.929
937.002
937.074
937.144
937.214
937.285
937.357
937.428
937.5
937.572
937.644
937.716
937.788
937.86
937.933
938.008
938.085
938.166
938.251
938.335
938.189
938.115
938.078
938.066
938.077
938.109
938.163
938.239
938.338
938.456
933.891
933.891
933.891
933.891
933.891
933.891
933.891
933.891
933.891
933.895
934.099
934.255
934.391
934.515
934.631
934.743
934.85
934.954
935.055
935.154
935.25
935.343
935.435
935.524
935.611
935.696
935.781
935.867
935.953
936.04
936.127
936.212
936.295
936.378
936.459
936.54
936.62
936.699
936.778
936.855
936.931
937.004
937.074
937.144
937.214
937.285
937.356
937.428
937.5
937.572
937.643
937.715
937.787
937.859
937.932
938.007
938.085
938.165
938.25
938.335
938.189
938.115
938.078
938.066
938.077
938.109
938.163
938.239
938.339
938.457
933.891
933.891
933.891
933.891
933.891
933.891
933.891
933.891
933.891
933.895
934.099
934.255
934.39
934.514
934.631
934.742
934.85
934.954
935.055
935.154
935.25
935.344
935.435
935.525
935.612
935.698
935.783
935.869
935.955
936.042
936.128
936.213
936.297
936.379
936.461
936.541
936.621
936.701
936.779
936.857
936.932
937.004
937.075
937.145
937.214
937.285
937.356
937.427
937.499
937.571
937.642
937.714
937.786
937.858
937.931
938.007
938.084
938.165
938.251
938.336
938.19
938.116
938.079
938.067
938.078
938.11
938.164
938.241
938.341
938.459
933.891
933.891
933.891
933.891
933.891
933.891
933.891
933.891
933.891
933.895
934.098
934.254
934.39
934.514
934.63
934.742
934.849
934.954
935.055
935.154
935.25
935.344
935.436
935.526
935.613
935.699
935.785
935.87
935.956
936.043
936.129
936.214
936.298
936.381
936.462
936.543
936.623
936.702
936.781
936.858
936.933
937.005
937.075
937.145
937.214
937.284
937.355
937.427
937.498
937.57
937.641
937.713
937.785
937.857
937.93
938.006
938.084
938.165
938.252
938.338
938.191
938.117
938.08
938.068
938.079
938.112
938.166
938.243
938.343
938.461
933.891
933.891
933.891
933.891
933.891
933.891
933.891
933.891
933.891
933.895
934.098
934.254
934.389
934.513
934.63
934.742
934.849
934.954
935.055
935.154
935.251
935.345
935.437
935.526
935.614
935.701
935.786
935.871
935.957
936.043
936.13
936.215
936.299
936.381
936.463
936.543
936.623
936.703
936.782
936.859
936.933
937.005
937.075
937.144
937.213
937.284
937.354
937.426
937.497
937.569
937.64
937.712
937.784
937.856
937.93
938.005
938.083
938.165
938.252
938.338
938.192
938.118
938.08
938.069
938.08
938.113
938.167
938.244
938.345
938.463
933.891
933.891
933.891
933.891
933.891
933.891
933.891
933.891
933.891
933.895
934.098
934.254
934.389
934.513
934.63
934.741
934.849
934.954
935.055
935.154
935.251
935.345
935.437
935.527
935.615
935.702
935.787
935.872
935.957
936.043
936.129
936.215
936.299
936.381
936.462
936.543
936.623
936.703
936.782
936.858
936.932
937.004
937.074
937.143
937.212
937.282
937.353
937.424
937.496
937.567
937.639
937.71
937.782
937.854
937.928
938.004
938.083
938.166
938.253
938.34
938.193
938.119
938.081
938.07
938.081
938.114
938.169
938.246
938.346
938.465
933.891
933.891
933.891
933.891
933.891
933.891
933.891
933.891
933.891
933.895
934.098
934.253
934.389
934.513
934.629
934.741
934.849
934.953
935.055
935.154
935.251
935.345
935.437
935.527
935.616
935.703
935.788
935.873
935.957
936.043
936.128
936.213
936.297
936.38
936.461
936.541
936.622
936.701
936.78
936.856
936.929
937.001
937.071
937.141
937.21
937.28
937.351
937.422
937.493
937.565
937.636
937.708
937.78
937.853
937.927
938.003
938.082
938.165
938.252
938.34
938.193
938.119
938.081
938.07
938.081
938.114
938.169
938.247
938.348
938.467
933.891
933.891
933.891
933.891
933.891
933.891
933.891
933.891
933.891
933.895
934.097
934.253
934.388
934.512
934.629
934.741
934.849
934.953
935.055
935.154
935.25
935.345
935.437
935.528
935.616
935.703
935.789
935.873
935.957
936.042
936.126
936.211
936.294
936.377
936.458
936.539
936.619
936.698
936.776
936.852
936.925
936.997
937.067
937.137
937.207
937.277
937.348
937.419
937.491
937.562
937.634
937.705
937.777
937.85
937.924
938.001
938.081
938.164
938.252
938.339
938.192
938.118
938.081
938.069
938.081
938.114
938.169
938.247
938.348
938.468
933.891
933.891
933.891
933.891
933.891
933.891
933.891
933.891
933.891
933.895
934.097
934.253
934.388
934.512
934.629
934.74
934.848
934.953
935.054
935.153
935.25
935.345
935.437
935.528
935.616
935.703
935.789
935.874
935.957
936.041
936.124
936.208
936.291
936.373
936.454
936.535
936.614
936.693
936.771
936.846
936.92
936.992
937.063
937.133
937.203
937.274
937.345
937.416
937.487
937.559
937.631
937.702
937.775
937.848
937.922
937.999
938.079
938.162
938.251
938.339
938.191
938.117
938.08
938.069
938.08
938.114
938.169
938.247
938.349
938.468
933.891
933.891
933.891
933.891
933.891
933.891
933.891
933.891
933.891
933.895
934.097
934.252
934.388
934.512
934.628
934.74
934.848
934.952
935.054
935.153
935.249
935.344
935.437
935.527
935.616
935.704
935.789
935.874
935.957
936.04
936.123
936.205
936.287
936.369
936.45
936.53
936.609
936.688
936.765
936.84
936.914
936.986
937.058
937.129
937.199
937.27
937.341
937.412
937.484
937.555
937.627
937.699
937.771
937.845
937.919
937.996
938.077
938.16
938.249
938.337
938.19
938.115
938.078
938.067
938.079
938.113
938.168
938.246
938.348
938.468
933.891
933.891
933.891
933.891
933.891
933.891
933.891
933.891
933.891
933.895
934.097
934.252
934.387
934.511
934.628
934.739
934.847
934.951
935.053
935.152
935.249
935.343
935.436
935.527
935.616
935.703
935.789
935.874
935.957
936.039
936.121
936.202
936.284
936.364
936.445
936.524
936.604
936.682
936.758
936.834
936.908
936.98
937.052
937.124
937.195
937.266
937.337
937.409
937.48
937.552
937.624
937.696
937.768
937.841
937.916
937.994
938.074
938.158
938.247
938.335
938.187
938.113
938.076
938.065
938.077
938.111
938.167
938.245
938.347
938.468
933.891
933.891
933.891
933.891
933.891
933.891
933.891
933.891
933.891
933.895
934.097
934.252
934.387
934.511
934.627
934.739
934.846
934.95
935.052
935.151
935.248
935.342
935.435
935.526
935.615
935.703
935.789
935.873
935.956
936.038
936.119
936.2
936.28
936.36
936.44
936.519
936.598
936.675
936.752
936.827
936.901
936.975
937.047
937.119
937.191
937.262
937.333
937.405
937.477
937.548
937.62
937.692
937.765
937.838
937.913
937.99
938.071
938.155
938.244
938.332
938.185
938.11
938.073
938.063
938.075
938.109
938.164
938.243
938.346
938.466
933.891
933.891
933.891
933.891
933.891
933.891
933.891
933.891
933.891
933.895
934.096
934.251
934.386
934.51
934.626
934.738
934.845
934.949
935.051
935.15
935.247
935.341
935.434
935.525
935.614
935.702
935.788
935.872
935.955
936.037
936.117
936.197
936.276
936.356
936.435
936.513
936.592
936.669
936.745
936.821
936.895
936.969
937.042
937.115
937.187
937.258
937.33
937.401
937.473
937.545
937.616
937.688
937.761
937.834
937.909
937.987
938.067
938.152
938.24
938.329
938.181
938.107
938.07
938.059
938.071
938.106
938.162
938.241
938.343
938.464
933.891
933.891
933.891
933.891
933.891
933.891
933.891
933.891
933.891
933.895
934.096
934.251
934.386
934.509
934.626
934.737
934.844
934.948
935.05
935.149
935.245
935.34
935.433
935.524
935.613
935.701
935.787
935.871
935.954
936.035
936.115
936.194
936.273
936.351
936.43
936.508
936.586
936.663
936.739
936.815
936.89
936.964
937.037
937.11
937.183
937.254
937.326
937.397
937.469
937.541
937.612
937.684
937.757
937.83
937.905
937.983
938.063
938.148
938.236
938.325
938.177
938.103
938.066
938.055
938.068
938.102
938.158
938.238
938.341
938.462
933.891
933.891
933.891
933.891
933.891
933.891
933.891
933.891
933.891
933.895
934.096
934.251
934.385
934.509
934.625
934.736
934.843
934.947
935.048
935.147
935.244
935.338
935.431
935.522
935.611
935.699
935.785
935.869
935.952
936.033
936.113
936.191
936.269
936.347
936.425
936.503
936.58
936.657
936.733
936.809
936.884
936.959
937.033
937.106
937.179
937.251
937.322
937.394
937.465
937.537
937.608
937.68
937.753
937.826
937.901
937.979
938.059
938.143
938.232
938.321
938.173
938.099
938.062
938.051
938.064
938.098
938.155
938.234
938.338
938.459
933.891
933.891
933.891
933.891
933.891
933.891
933.891
933.891
933.891
933.895
934.095
934.25
934.385
934.508
934.624
934.735
934.842
934.946
935.047
935.145
935.242
935.336
935.429
935.52
935.609
935.697
935.783
935.867
935.95
936.031
936.11
936.188
936.266
936.343
936.42
936.498
936.575
936.652
936.728
936.804
936.88
936.954
937.029
937.102
937.175
937.247
937.319
937.39
937.462
937.533
937.605
937.677
937.749
937.822
937.897
937.975
938.055
938.139
938.228
938.317
938.169
938.095
938.058
938.048
938.06
938.095
938.152
938.232
938.336
938.458
933.891
933.891
933.891
933.891
933.891
933.891
933.891
933.891
933.891
933.895
934.095
934.25
934.384
934.507
934.623
934.734
934.84
934.944
935.045
935.143
935.24
935.334
935.427
935.518
935.607
935.694
935.78
935.865
935.947
936.028
936.107
936.185
936.262
936.339
936.416
936.493
936.57
936.647
936.724
936.8
936.876
936.951
937.025
937.099
937.172
937.244
937.316
937.388
937.459
937.531
937.602
937.674
937.747
937.82
937.895
937.972
938.053
938.137
938.226
938.315
938.167
938.093
938.057
938.047
938.06
938.095
938.152
938.233
938.337
938.46
933.891
933.891
933.891
933.891
933.891
933.891
933.891
933.891
933.891
933.895
934.095
934.249
934.383
934.506
934.622
934.732
934.839
934.942
935.043
935.142
935.238
935.332
935.425
935.516
935.605
935.692
935.778
935.863
935.945
936.026
936.105
936.182
936.259
936.336
936.413
936.49
936.568
936.645
936.722
936.798
936.874
936.949
937.024
937.098
937.171
937.244
937.316
937.388
937.46
937.532
937.603
937.675
937.748
937.822
937.897
937.975
938.056
938.14
938.229
938.319
938.171
938.098
938.062
938.053
938.067
938.104
938.162
938.244
938.349
938.473
933.891
933.891
933.891
933.891
933.891
933.891
933.891
933.891
933.891
933.895
934.094
934.249
934.382
934.505
934.62
934.731
934.837
934.941
935.041
935.14
935.236
935.33
935.423
935.514
935.603
935.691
935.777
935.862
935.944
936.025
936.104
936.182
936.259
936.336
936.414
936.491
936.569
936.647
936.724
936.801
936.878
936.954
937.029
937.103
937.177
937.251
937.324
937.396
937.469
937.541
937.613
937.686
937.76
937.834
937.911
937.989
938.071
938.157
938.248
938.339
938.193
938.121
938.087
938.08
938.097
938.136
938.197
938.282
938.391
938.519
933.891
933.891
933.891
933.891
933.891
933.891
933.891
933.891
933.891
933.895
934.095
934.248
934.382
934.504
934.62
934.73
934.837
934.94
935.041
935.14
935.236
935.331
935.424
935.516
935.605
935.694
935.78
935.865
935.949
936.03
936.11
936.189
936.267
936.345
936.424
936.502
936.581
936.66
936.739
936.817
936.895
936.972
937.049
937.125
937.2
937.275
937.35
937.424
937.498
937.572
937.647
937.722
937.798
937.875
937.954
938.036
938.121
938.211
938.305
938.4
938.258
938.191
938.162
938.161
938.184
938.231
938.3
938.394
938.512
938.649
933.891
933.891
933.891
933.891
933.891
933.891
933.891
933.891
933.891
933.895
934.094
934.248
934.382
934.505
934.621
934.732
934.839
934.943
935.045
935.145
935.243
935.339
935.433
935.526
935.617
935.707
935.796
935.883
935.968
936.051
936.133
936.214
936.295
936.376
936.457
936.539
936.62
936.702
936.783
936.865
936.945
937.026
937.106
937.185
937.264
937.343
937.421
937.5
937.579
937.658
937.738
937.819
937.901
937.985
938.072
938.163
938.257
938.358
938.464
938.572
938.44
938.385
938.371
938.386
938.427
938.493
938.584
938.7
938.843
939.004
933.891
933.891
933.891
933.891
933.891
933.891
933.891
933.891
933.891
933.895
934.095
934.25
934.386
934.511
934.629
934.742
934.852
934.959
935.064
935.167
935.268
935.368
935.467
935.564
935.659
935.754
935.847
935.939
936.029
936.117
936.205
936.291
936.378
936.465
936.552
936.639
936.727
936.815
936.903
936.99
937.078
937.165
937.253
937.34
937.427
937.515
937.604
937.693
937.783
937.875
937.97
938.067
938.167
938.271
938.38
938.494
938.615
938.745
938.883
939.025
938.922
938.903
938.927
938.985
939.072
939.188
939.331
939.503
939.704
939.924
933.891
933.891
933.891
933.891
933.891
933.891
933.891
933.891
933.891
933.895
934.1
934.26
934.401
934.532
934.657
934.777
934.895
935.011
935.124
935.236
935.347
935.457
935.565
935.672
935.779
935.884
935.988
936.09
936.192
936.292
936.391
936.489
936.588
936.687
936.787
936.887
936.987
937.088
937.188
937.29
937.391
937.494
937.597
937.702
937.809
937.918
938.03
938.145
938.265
938.39
938.522
938.66
938.805
938.96
939.125
939.3
939.488
939.69
939.906
940.131
940.101
940.165
940.279
940.434
940.623
940.846
941.103
941.392
941.713
942.051
933.891
933.891
933.891
933.891
933.891
933.891
933.891
933.891
933.891
933.896
934.119
934.298
934.456
934.606
934.749
934.889
935.027
935.162
935.296
935.429
935.56
935.69
935.82
935.948
936.075
936.201
936.326
936.45
936.572
936.692
936.812
936.931
937.05
937.17
937.289
937.41
937.531
937.652
937.775
937.9
938.026
938.156
938.29
938.429
938.573
938.726
938.887
939.058
939.241
939.437
939.647
939.873
940.116
940.377
940.658
940.959
941.282
941.626
941.995
942.376
942.469
942.673
942.941
943.257
943.616
944.015
944.45
944.923
945.425
945.93
933.891
933.891
933.891
933.891
933.891
933.891
933.891
933.891
933.892
933.899
934.192
934.417
934.616
934.801
934.979
935.151
935.32
935.485
935.648
935.81
935.969
936.127
936.283
936.437
936.59
936.741
936.889
937.035
937.179
937.321
937.461
937.601
937.739
937.877
938.016
938.155
938.296
938.438
938.584
938.733
938.889
939.052
939.224
939.407
939.604
939.816
940.045
940.294
940.564
940.857
941.175
941.518
941.889
942.287
942.713
943.169
943.654
944.167
944.709
945.259
945.401
945.714
946.115
946.578
947.093
947.652
948.248
948.879
949.534
950.157
933.891
933.891
933.891
933.891
933.891
933.891
933.891
933.891
933.891
933.896
934.12
934.328
934.52
934.702
934.878
935.048
935.215
935.379
935.541
935.702
935.861
936.018
936.174
936.329
936.482
936.634
936.785
936.934
937.081
937.227
937.37
937.512
937.652
937.791
937.929
938.065
938.203
938.342
938.484
938.63
938.784
938.945
939.117
939.301
939.499
939.712
939.942
940.192
940.462
940.755
941.072
941.413
941.781
942.177
942.6
943.052
943.533
944.041
944.579
945.127
945.333
945.654
946.055
946.517
947.029
947.584
948.178
948.805
949.459
950.086
933.891
933.891
933.891
933.891
933.891
933.891
933.891
933.891
933.891
933.894
934.055
934.211
934.361
934.504
934.643
934.78
934.914
935.046
935.178
935.308
935.437
935.566
935.693
935.821
935.947
936.074
936.199
936.324
936.448
936.571
936.693
936.814
936.935
937.054
937.172
937.29
937.407
937.525
937.644
937.765
937.889
938.017
938.149
938.287
938.432
938.583
938.743
938.913
939.094
939.288
939.495
939.716
939.954
940.21
940.484
940.777
941.091
941.427
941.785
942.157
942.313
942.528
942.794
943.105
943.457
943.848
944.275
944.738
945.232
945.734
933.891
933.891
933.891
933.891
933.891
933.891
933.891
933.891
933.891
933.894
934.038
934.178
934.31
934.435
934.556
934.673
934.787
934.9
935.011
935.12
935.229
935.336
935.443
935.548
935.654
935.758
935.863
935.966
936.069
936.171
936.272
936.373
936.472
936.571
936.669
936.766
936.863
936.959
937.056
937.154
937.253
937.353
937.456
937.56
937.667
937.776
937.887
938.003
938.122
938.245
938.374
938.51
938.652
938.802
938.962
939.131
939.312
939.505
939.711
939.927
939.96
940.034
940.148
940.298
940.48
940.695
940.941
941.22
941.529
941.859