/*--------------------------------*- C++ -*----------------------------------*\
  =========                 |
  \\      /  F ield         | OpenFOAM: The Open Source CFD Toolbox
   \\    /   O peration     | Website:  https://openfoam.org
    \\  /    A nd           | Version:  12
     \\/     M anipulation  |
\*---------------------------------------------------------------------------*/
FoamFile
{
    format      ascii;
    class       volScalarField;
    location    "450/porous";
    object      T;
}
// * * * * * * * * * * * * * * * * * * * * * * * * * * * * * * * * * * * * * //

dimensions      [0 0 0 1 0 0 0];

internalField   nonuniform List<scalar> 
140000
(
400
400
400
400
400
400
400
400
400
399.992
399.674
399.43
399.216
399.016
398.825
398.641
398.459
398.282
398.106
397.932
397.761
397.591
397.422
397.254
397.088
396.923
396.759
396.597
396.437
396.279
396.122
395.968
395.815
395.664
395.514
395.364
395.213
395.061
394.904
394.742
394.572
394.393
394.201
393.996
393.775
393.537
393.279
392.998
392.694
392.365
392.007
391.62
391.203
390.753
390.271
389.755
389.204
388.619
387.999
387.369
387.202
386.838
386.371
385.829
385.227
384.57
383.866
383.118
382.336
381.59
400
400
400
400
400
400
400
400
400
399.995
399.751
399.558
399.386
399.225
399.071
398.921
398.774
398.629
398.485
398.343
398.202
398.062
397.923
397.784
397.646
397.508
397.371
397.235
397.1
396.965
396.832
396.7
396.569
396.438
396.309
396.181
396.052
395.923
395.792
395.658
395.521
395.379
395.232
395.078
394.916
394.746
394.566
394.374
394.17
393.951
393.717
393.464
393.194
392.903
392.59
392.254
391.894
391.509
391.096
390.671
390.562
390.328
390.024
389.663
389.253
388.796
388.296
387.751
387.17
386.584
400
400
400
400
400
400
400
400
400
399.996
399.771
399.597
399.444
399.303
399.169
399.04
398.914
398.791
398.669
398.549
398.431
398.314
398.197
398.081
397.966
397.852
397.738
397.625
397.513
397.401
397.29
397.181
397.072
396.964
396.857
396.751
396.645
396.54
396.434
396.326
396.216
396.105
395.991
395.875
395.757
395.635
395.511
395.382
395.249
395.109
394.964
394.811
394.65
394.479
394.298
394.105
393.899
393.677
393.441
393.195
393.225
393.153
393.024
392.851
392.639
392.388
392.1
391.775
391.413
391.031
400
400
400
400
400
400
400
400
400
399.996
399.776
399.606
399.459
399.325
399.198
399.077
398.959
398.845
398.733
398.623
398.515
398.408
398.303
398.198
398.095
397.992
397.891
397.79
397.69
397.591
397.493
397.396
397.3
397.206
397.112
397.02
396.928
396.837
396.745
396.652
396.558
396.463
396.367
396.271
396.173
396.076
395.977
395.878
395.777
395.675
395.571
395.464
395.354
395.24
395.121
394.997
394.865
394.726
394.578
394.426
394.536
394.556
394.527
394.463
394.366
394.238
394.078
393.887
393.664
393.418
400
400
400
400
400
400
400
400
400
399.996
399.776
399.608
399.462
399.329
399.205
399.086
398.972
398.861
398.752
398.646
398.542
398.44
398.339
398.239
398.141
398.043
397.946
397.851
397.756
397.663
397.571
397.48
397.39
397.302
397.215
397.129
397.044
396.96
396.875
396.789
396.702
396.614
396.526
396.438
396.35
396.263
396.175
396.088
396
395.912
395.824
395.735
395.645
395.553
395.459
395.361
395.26
395.153
395.04
394.927
395.069
395.127
395.142
395.124
395.078
395.005
394.905
394.776
394.618
394.44
400
400
400
400
400
400
400
400
400
399.996
399.775
399.607
399.461
399.329
399.205
399.087
398.973
398.863
398.756
398.651
398.549
398.448
398.349
398.251
398.154
398.059
397.964
397.87
397.778
397.687
397.597
397.509
397.422
397.336
397.252
397.169
397.087
397.005
396.923
396.84
396.756
396.672
396.587
396.503
396.418
396.335
396.252
396.169
396.086
396.004
395.922
395.839
395.756
395.673
395.587
395.5
395.409
395.314
395.215
395.116
395.269
395.342
395.372
395.373
395.347
395.295
395.218
395.115
394.984
394.833
400
400
400
400
400
400
400
400
400
399.996
399.775
399.606
399.46
399.327
399.203
399.085
398.972
398.862
398.756
398.651
398.549
398.449
398.35
398.253
398.157
398.063
397.969
397.876
397.784
397.694
397.605
397.518
397.432
397.347
397.264
397.182
397.101
397.02
396.939
396.857
396.774
396.691
396.607
396.524
396.442
396.359
396.278
396.197
396.116
396.036
395.956
395.876
395.796
395.715
395.633
395.549
395.463
395.373
395.278
395.185
395.341
395.419
395.455
395.462
395.443
395.4
395.332
395.238
395.118
394.977
400
400
400
400
400
400
400
400
400
399.996
399.774
399.604
399.458
399.326
399.201
399.083
398.97
398.86
398.753
398.649
398.547
398.447
398.349
398.253
398.157
398.062
397.969
397.876
397.785
397.695
397.607
397.519
397.434
397.349
397.266
397.184
397.103
397.022
396.941
396.859
396.777
396.694
396.611
396.528
396.446
396.365
396.284
396.204
396.124
396.044
395.965
395.886
395.807
395.727
395.646
395.564
395.479
395.39
395.298
395.206
395.365
395.444
395.482
395.491
395.475
395.435
395.37
395.28
395.164
395.027
400
400
400
400
400
400
400
400
400
399.996
399.773
399.603
399.457
399.324
399.2
399.081
398.968
398.858
398.752
398.647
398.546
398.446
398.348
398.252
398.156
398.062
397.968
397.876
397.785
397.695
397.606
397.519
397.433
397.348
397.265
397.182
397.101
397.02
396.938
396.856
396.774
396.691
396.608
396.526
396.444
396.363
396.282
396.202
396.122
396.043
395.965
395.886
395.807
395.728
395.647
395.565
395.481
395.393
395.301
395.211
395.369
395.449
395.488
395.498
395.483
395.444
395.381
395.292
395.177
395.042
400
400
400
400
400
400
400
400
400
399.996
399.773
399.602
399.456
399.323
399.198
399.08
398.966
398.856
398.75
398.646
398.544
398.444
398.347
398.25
398.155
398.061
397.968
397.876
397.784
397.694
397.606
397.518
397.432
397.346
397.262
397.179
397.097
397.015
396.934
396.851
396.769
396.686
396.603
396.521
396.439
396.358
396.277
396.197
396.118
396.039
395.96
395.881
395.803
395.723
395.643
395.561
395.477
395.39
395.298
395.208
395.367
395.447
395.486
395.497
395.482
395.444
395.381
395.293
395.179
395.044
400
400
400
400
400
400
400
400
400
399.996
399.772
399.602
399.455
399.321
399.197
399.078
398.965
398.855
398.748
398.644
398.543
398.443
398.346
398.25
398.155
398.061
397.968
397.876
397.785
397.695
397.606
397.517
397.43
397.344
397.259
397.175
397.092
397.01
396.928
396.846
396.763
396.68
396.597
396.515
396.433
396.352
396.272
396.192
396.113
396.033
395.955
395.876
395.797
395.718
395.638
395.556
395.472
395.384
395.293
395.203
395.362
395.442
395.481
395.492
395.478
395.44
395.377
395.29
395.176
395.042
400
400
400
400
400
400
400
400
400
399.996
399.772
399.601
399.454
399.321
399.196
399.077
398.964
398.854
398.747
398.643
398.541
398.442
398.345
398.25
398.155
398.062
397.969
397.877
397.786
397.695
397.606
397.517
397.429
397.342
397.256
397.171
397.088
397.005
396.923
396.84
396.757
396.675
396.592
396.51
396.428
396.347
396.267
396.187
396.107
396.028
395.949
395.87
395.792
395.712
395.632
395.55
395.466
395.379
395.287
395.197
395.356
395.436
395.476
395.487
395.473
395.435
395.372
395.285
395.171
395.038
400
400
400
400
400
400
400
400
400
399.996
399.772
399.601
399.454
399.32
399.195
399.077
398.963
398.853
398.746
398.642
398.541
398.442
398.345
398.25
398.156
398.063
397.97
397.878
397.787
397.696
397.606
397.517
397.428
397.34
397.253
397.168
397.083
397
396.917
396.835
396.752
396.669
396.587
396.505
396.423
396.342
396.262
396.182
396.102
396.023
395.944
395.865
395.786
395.707
395.626
395.544
395.46
395.373
395.282
395.192
395.35
395.43
395.47
395.481
395.468
395.43
395.368
395.281
395.167
395.034
400
400
400
400
400
400
400
400
400
399.996
399.771
399.6
399.453
399.32
399.195
399.076
398.962
398.852
398.746
398.642
398.54
398.441
398.345
398.25
398.156
398.064
397.972
397.88
397.789
397.698
397.607
397.517
397.427
397.338
397.25
397.164
397.079
396.995
396.912
396.829
396.747
396.664
396.582
396.5
396.419
396.338
396.258
396.178
396.098
396.019
395.94
395.861
395.781
395.702
395.621
395.539
395.455
395.368
395.277
395.187
395.345
395.425
395.465
395.477
395.463
395.425
395.363
395.276
395.164
395.03
400
400
400
400
400
400
400
400
400
399.996
399.772
399.601
399.453
399.32
399.195
399.076
398.962
398.852
398.745
398.641
398.54
398.441
398.345
398.25
398.157
398.065
397.973
397.882
397.79
397.699
397.608
397.516
397.426
397.336
397.248
397.161
397.075
396.99
396.906
396.824
396.742
396.66
396.578
396.496
396.415
396.334
396.254
396.174
396.094
396.015
395.936
395.856
395.777
395.698
395.617
395.535
395.451
395.363
395.272
395.182
395.341
395.421
395.461
395.472
395.459
395.421
395.36
395.273
395.161
395.028
400
400
400
400
400
400
400
400
400
399.996
399.772
399.601
399.454
399.32
399.195
399.076
398.962
398.852
398.745
398.641
398.54
398.441
398.345
398.251
398.158
398.066
397.975
397.883
397.792
397.7
397.608
397.516
397.424
397.334
397.245
397.158
397.071
396.986
396.901
396.819
396.736
396.655
396.573
396.492
396.411
396.331
396.25
396.17
396.091
396.011
395.932
395.853
395.774
395.694
395.613
395.531
395.447
395.36
395.268
395.178
395.337
395.417
395.457
395.469
395.455
395.418
395.357
395.271
395.158
395.026
400
400
400
400
400
400
400
400
400
399.996
399.772
399.601
399.454
399.32
399.195
399.077
398.963
398.852
398.745
398.641
398.54
398.441
398.345
398.251
398.158
398.067
397.976
397.884
397.793
397.7
397.607
397.514
397.423
397.332
397.243
397.155
397.068
396.981
396.897
396.813
396.732
396.65
396.569
396.489
396.408
396.328
396.248
396.168
396.088
396.009
395.929
395.85
395.771
395.691
395.61
395.528
395.444
395.357
395.265
395.175
395.334
395.414
395.455
395.466
395.453
395.416
395.355
395.269
395.157
395.025
400
400
400
400
400
400
400
400
400
399.996
399.772
399.602
399.455
399.321
399.196
399.077
398.963
398.853
398.746
398.641
398.54
398.441
398.345
398.251
398.158
398.067
397.976
397.885
397.793
397.7
397.606
397.513
397.421
397.33
397.24
397.152
397.065
396.978
396.892
396.809
396.727
396.646
396.566
396.486
396.405
396.325
396.245
396.165
396.086
396.006
395.927
395.848
395.768
395.689
395.608
395.526
395.442
395.354
395.263
395.173
395.332
395.412
395.453
395.464
395.451
395.415
395.354
395.268
395.156
395.025
400
400
400
400
400
400
400
400
400
399.996
399.772
399.602
399.456
399.322
399.197
399.078
398.964
398.853
398.746
398.642
398.54
398.441
398.344
398.25
398.158
398.067
397.976
397.885
397.792
397.699
397.605
397.511
397.418
397.328
397.239
397.15
397.062
396.975
396.889
396.805
396.723
396.643
396.563
396.483
396.403
396.324
396.244
396.164
396.085
396.005
395.926
395.847
395.767
395.688
395.607
395.525
395.441
395.353
395.262
395.172
395.331
395.411
395.452
395.464
395.451
395.414
395.354
395.268
395.157
395.025
400
400
400
400
400
400
400
400
400
399.996
399.773
399.603
399.456
399.323
399.198
399.079
398.965
398.854
398.746
398.642
398.54
398.441
398.344
398.25
398.157
398.066
397.976
397.884
397.791
397.698
397.603
397.509
397.417
397.326
397.237
397.149
397.061
396.974
396.887
396.803
396.721
396.64
396.561
396.482
396.402
396.323
396.243
396.164
396.084
396.005
395.926
395.846
395.767
395.687
395.607
395.525
395.44
395.353
395.262
395.171
395.331
395.411
395.452
395.464
395.451
395.414
395.354
395.269
395.158
395.027
400
400
400
400
400
400
400
400
400
399.996
399.774
399.604
399.458
399.325
399.199
399.08
398.966
398.855
398.747
398.642
398.54
398.44
398.344
398.249
398.157
398.066
397.975
397.883
397.79
397.696
397.601
397.507
397.415
397.325
397.236
397.148
397.06
396.973
396.887
396.802
396.719
396.639
396.559
396.481
396.402
396.323
396.243
396.164
396.085
396.005
395.926
395.847
395.768
395.688
395.607
395.525
395.441
395.354
395.262
395.172
395.331
395.411
395.452
395.464
395.452
395.416
395.355
395.271
395.16
395.029
400
400
400
400
400
400
400
400
400
399.996
399.774
399.604
399.458
399.325
399.2
399.081
398.966
398.855
398.747
398.642
398.54
398.44
398.343
398.248
398.156
398.064
397.973
397.881
397.788
397.694
397.599
397.506
397.414
397.324
397.235
397.147
397.059
396.972
396.886
396.801
396.718
396.638
396.559
396.48
396.402
396.323
396.244
396.165
396.085
396.006
395.927
395.848
395.769
395.689
395.609
395.527
395.442
395.355
395.263
395.173
395.332
395.413
395.453
395.466
395.453
395.417
395.357
395.273
395.162
395.032
400
400
400
400
400
400
400
400
400
399.996
399.775
399.606
399.46
399.327
399.201
399.082
398.967
398.856
398.748
398.642
398.54
398.44
398.342
398.247
398.154
398.063
397.972
397.879
397.786
397.691
397.597
397.504
397.413
397.323
397.234
397.146
397.058
396.972
396.885
396.801
396.718
396.637
396.558
396.48
396.402
396.324
396.245
396.166
396.086
396.007
395.928
395.849
395.77
395.69
395.61
395.528
395.444
395.356
395.264
395.173
395.333
395.413
395.454
395.467
395.455
395.419
395.359
395.275
395.165
395.035
400
400
400
400
400
400
400
400
400
399.996
399.776
399.607
399.461
399.328
399.203
399.083
398.968
398.856
398.748
398.642
398.539
398.439
398.341
398.246
398.153
398.061
397.97
397.877
397.784
397.689
397.595
397.502
397.411
397.321
397.232
397.144
397.057
396.97
396.885
396.8
396.717
396.636
396.558
396.48
396.403
396.325
396.246
396.167
396.088
396.008
395.929
395.85
395.771
395.692
395.612
395.53
395.445
395.357
395.265
395.174
395.334
395.415
395.456
395.468
395.456
395.421
395.361
395.277
395.167
395.038
400
400
400
400
400
400
400
400
400
399.996
399.776
399.607
399.461
399.328
399.203
399.084
398.968
398.857
398.748
398.642
398.539
398.438
398.34
398.245
398.151
398.059
397.967
397.875
397.781
397.687
397.593
397.5
397.409
397.319
397.23
397.143
397.055
396.969
396.883
396.798
396.716
396.635
396.557
396.48
396.403
396.325
396.246
396.168
396.088
396.009
395.931
395.852
395.773
395.693
395.613
395.531
395.446
395.359
395.266
395.175
395.335
395.415
395.456
395.469
395.457
395.422
395.363
395.279
395.169
395.04
400
400
400
400
400
400
400
400
400
399.996
399.777
399.609
399.464
399.33
399.205
399.085
398.969
398.857
398.748
398.642
398.539
398.438
398.339
398.243
398.149
398.057
397.965
397.872
397.778
397.684
397.59
397.498
397.407
397.317
397.228
397.141
397.053
396.967
396.881
396.797
396.714
396.634
396.556
396.48
396.403
396.325
396.247
396.168
396.089
396.011
395.932
395.853
395.774
395.695
395.615
395.533
395.448
395.359
395.266
395.173
395.333
395.415
395.456
395.469
395.457
395.422
395.363
395.279
395.169
395.04
400
400
400
400
400
400
400
400
400
399.996
399.777
399.61
399.464
399.331
399.205
399.085
398.97
398.857
398.748
398.642
398.538
398.437
398.338
398.242
398.148
398.055
397.963
397.87
397.776
397.682
397.588
397.496
397.405
397.315
397.226
397.139
397.052
396.965
396.879
396.795
396.713
396.633
396.556
396.479
396.403
396.326
396.247
396.169
396.09
396.011
395.933
395.854
395.775
395.696
395.616
395.533
395.448
395.36
395.266
395.173
395.333
395.414
395.456
395.468
395.457
395.421
395.362
395.278
395.168
395.039
400
400
400
400
400
400
400
400
400
399.996
399.778
399.61
399.465
399.331
399.206
399.085
398.97
398.857
398.748
398.642
398.538
398.436
398.337
398.241
398.146
398.053
397.961
397.868
397.774
397.68
397.586
397.494
397.403
397.313
397.225
397.137
397.05
396.963
396.878
396.793
396.711
396.632
396.555
396.479
396.403
396.326
396.248
396.17
396.091
396.012
395.934
395.855
395.776
395.697
395.617
395.534
395.449
395.359
395.265
395.172
395.332
395.414
395.455
395.467
395.455
395.42
395.361
395.276
395.167
395.037
400
400
400
400
400
400
400
400
400
399.996
399.778
399.611
399.465
399.332
399.206
399.086
398.97
398.858
398.748
398.642
398.538
398.436
398.337
398.24
398.145
398.052
397.959
397.867
397.773
397.679
397.585
397.493
397.402
397.312
397.223
397.136
397.049
396.962
396.876
396.792
396.71
396.631
396.555
396.479
396.403
396.326
396.249
396.17
396.092
396.013
395.935
395.856
395.778
395.698
395.618
395.535
395.449
395.36
395.265
395.17
395.331
395.412
395.454
395.466
395.454
395.418
395.359
395.275
395.164
395.034
400
400
400
400
400
400
400
400
400
399.996
399.778
399.611
399.466
399.332
399.206
399.086
398.97
398.858
398.748
398.641
398.537
398.435
398.336
398.239
398.144
398.05
397.958
397.865
397.772
397.679
397.585
397.492
397.401
397.311
397.223
397.135
397.048
396.961
396.875
396.791
396.71
396.632
396.555
396.479
396.404
396.327
396.249
396.171
396.093
396.015
395.936
395.858
395.779
395.7
395.619
395.536
395.45
395.36
395.265
395.17
395.331
395.412
395.453
395.466
395.453
395.417
395.357
395.273
395.162
395.032
400
400
400
400
400
400
400
400
400
399.996
399.779
399.611
399.466
399.332
399.207
399.087
398.971
398.858
398.748
398.642
398.537
398.435
398.336
398.238
398.143
398.049
397.957
397.864
397.772
397.679
397.585
397.492
397.401
397.312
397.223
397.135
397.048
396.961
396.875
396.792
396.711
396.633
396.556
396.481
396.405
396.328
396.251
396.173
396.095
396.017
395.938
395.86
395.781
395.701
395.62
395.537
395.45
395.359
395.263
395.168
395.329
395.411
395.452
395.465
395.452
395.416
395.356
395.271
395.16
395.029
400
400
400
400
400
400
400
400
400
399.996
399.779
399.612
399.466
399.333
399.207
399.087
398.971
398.858
398.749
398.642
398.537
398.435
398.336
398.238
398.142
398.048
397.956
397.864
397.772
397.679
397.587
397.494
397.403
397.313
397.225
397.137
397.05
396.963
396.877
396.794
396.714
396.636
396.559
396.483
396.407
396.331
396.253
396.175
396.097
396.019
395.941
395.862
395.783
395.703
395.622
395.538
395.451
395.36
395.264
395.168
395.329
395.411
395.452
395.464
395.452
395.416
395.355
395.27
395.159
395.028
400
400
400
400
400
400
400
400
400
399.996
399.779
399.612
399.467
399.333
399.207
399.087
398.971
398.858
398.749
398.642
398.537
398.435
398.335
398.238
398.142
398.048
397.955
397.863
397.772
397.68
397.588
397.497
397.406
397.316
397.228
397.14
397.053
396.966
396.881
396.799
396.718
396.64
396.563
396.487
396.411
396.334
396.256
396.179
396.1
396.022
395.943
395.865
395.786
395.706
395.624
395.54
395.453
395.361
395.265
395.168
395.33
395.412
395.453
395.465
395.452
395.416
395.355
395.27
395.158
395.027
400
400
400
400
400
400
400
400
400
399.996
399.779
399.612
399.467
399.334
399.208
399.088
398.972
398.859
398.749
398.642
398.538
398.436
398.336
398.238
398.142
398.047
397.954
397.863
397.772
397.681
397.591
397.5
397.41
397.32
397.232
397.144
397.057
396.972
396.887
396.805
396.724
396.646
396.568
396.491
396.415
396.338
396.26
396.182
396.104
396.025
395.947
395.868
395.789
395.709
395.627
395.543
395.455
395.363
395.266
395.169
395.331
395.413
395.454
395.466
395.453
395.416
395.356
395.27
395.158
395.026
400
400
400
400
400
400
400
400
400
399.996
399.779
399.613
399.467
399.334
399.208
399.088
398.972
398.86
398.75
398.643
398.538
398.436
398.336
398.238
398.142
398.047
397.954
397.863
397.772
397.682
397.593
397.503
397.414
397.325
397.237
397.15
397.063
396.978
396.894
396.811
396.731
396.652
396.574
396.496
396.419
396.342
396.264
396.186
396.108
396.029
395.951
395.872
395.792
395.712
395.63
395.545
395.457
395.365
395.268
395.171
395.333
395.415
395.456
395.468
395.455
395.418
395.357
395.271
395.158
395.026
400
400
400
400
400
400
400
400
400
399.996
399.78
399.613
399.468
399.334
399.209
399.089
398.973
398.86
398.751
398.644
398.539
398.437
398.337
398.239
398.142
398.047
397.954
397.863
397.772
397.683
397.594
397.506
397.418
397.33
397.242
397.155
397.069
396.984
396.901
396.818
396.738
396.658
396.58
396.502
396.424
396.346
396.268
396.19
396.112
396.033
395.954
395.875
395.796
395.716
395.633
395.549
395.46
395.368
395.27
395.173
395.335
395.417
395.458
395.47
395.457
395.42
395.358
395.272
395.159
395.027
400
400
400
400
400
400
400
400
400
399.996
399.78
399.613
399.468
399.335
399.209
399.089
398.974
398.861
398.752
398.645
398.54
398.438
398.338
398.239
398.143
398.048
397.955
397.863
397.773
397.684
397.596
397.509
397.421
397.334
397.248
397.161
397.076
396.991
396.908
396.826
396.745
396.665
396.585
396.507
396.428
396.35
396.272
396.194
396.116
396.037
395.958
395.879
395.8
395.719
395.637
395.552
395.464
395.371
395.273
395.176
395.338
395.42
395.461
395.473
395.459
395.422
395.36
395.274
395.161
395.028
400
400
400
400
400
400
400
400
400
399.996
399.78
399.614
399.469
399.336
399.21
399.09
398.975
398.862
398.753
398.646
398.542
398.439
398.339
398.241
398.144
398.049
397.956
397.864
397.774
397.686
397.598
397.512
397.425
397.339
397.253
397.167
397.082
396.998
396.915
396.833
396.751
396.671
396.591
396.512
396.433
396.355
396.276
396.198
396.12
396.041
395.962
395.884
395.804
395.723
395.641
395.556
395.467
395.375
395.277
395.18
395.342
395.424
395.465
395.476
395.463
395.425
395.364
395.277
395.164
395.03
400
400
400
400
400
400
400
400
400
399.996
399.78
399.614
399.469
399.336
399.211
399.091
398.976
398.863
398.754
398.647
398.543
398.441
398.34
398.242
398.145
398.05
397.957
397.865
397.775
397.687
397.6
397.515
397.429
397.344
397.258
397.173
397.089
397.005
396.921
396.839
396.757
396.676
396.596
396.516
396.437
396.359
396.281
396.202
396.124
396.045
395.967
395.888
395.808
395.728
395.645
395.56
395.472
395.379
395.281
395.184
395.346
395.428
395.469
395.48
395.467
395.429
395.367
395.28
395.167
395.033
400
400
400
400
400
400
400
400
400
399.996
399.781
399.614
399.47
399.337
399.212
399.092
398.977
398.865
398.756
398.649
398.545
398.443
398.342
398.244
398.147
398.052
397.959
397.867
397.777
397.689
397.603
397.518
397.433
397.349
397.264
397.179
397.095
397.011
396.928
396.845
396.763
396.682
396.601
396.521
396.442
396.363
396.285
396.206
396.128
396.05
395.971
395.892
395.813
395.732
395.65
395.565
395.476
395.384
395.286
395.189
395.351
395.433
395.473
395.485
395.471
395.433
395.371
395.284
395.17
395.036
400
400
400
400
400
400
400
400
400
399.996
399.781
399.615
399.471
399.338
399.213
399.094
398.978
398.866
398.757
398.651
398.547
398.445
398.344
398.246
398.149
398.054
397.961
397.869
397.78
397.692
397.606
397.521
397.437
397.353
397.269
397.185
397.1
397.017
396.933
396.851
396.768
396.687
396.606
396.525
396.446
396.367
396.288
396.21
396.132
396.053
395.975
395.896
395.817
395.736
395.654
395.569
395.481
395.388
395.291
395.193
395.356
395.437
395.478
395.489
395.475
395.437
395.374
395.286
395.172
395.038
400
400
400
400
400
400
400
400
400
399.996
399.781
399.615
399.471
399.339
399.214
399.095
398.98
398.868
398.759
398.653
398.549
398.447
398.347
398.248
398.152
398.057
397.964
397.872
397.783
397.695
397.609
397.525
397.441
397.357
397.274
397.189
397.105
397.022
396.938
396.855
396.773
396.691
396.609
396.529
396.449
396.37
396.291
396.213
396.135
396.056
395.978
395.899
395.82
395.739
395.657
395.572
395.483
395.391
395.293
395.195
395.358
395.439
395.479
395.49
395.476
395.437
395.374
395.285
395.171
395.035
400
400
400
400
400
400
400
400
400
399.996
399.782
399.616
399.472
399.34
399.216
399.096
398.982
398.87
398.761
398.655
398.551
398.449
398.349
398.251
398.154
398.059
397.966
397.875
397.785
397.697
397.612
397.527
397.444
397.36
397.277
397.192
397.108
397.024
396.941
396.857
396.774
396.692
396.61
396.53
396.449
396.37
396.291
396.212
396.134
396.055
395.977
395.898
395.818
395.737
395.654
395.569
395.48
395.387
395.289
395.191
395.353
395.433
395.473
395.483
395.467
395.427
395.363
395.273
395.157
395.02
400
400
400
400
400
400
400
400
400
399.996
399.782
399.617
399.473
399.341
399.217
399.098
398.983
398.872
398.763
398.657
398.553
398.451
398.351
398.253
398.156
398.061
397.967
397.876
397.786
397.698
397.613
397.528
397.444
397.36
397.276
397.192
397.107
397.022
396.938
396.854
396.771
396.688
396.605
396.524
396.443
396.363
396.283
396.204
396.124
396.045
395.966
395.886
395.805
395.723
395.64
395.553
395.463
395.369
395.269
395.169
395.33
395.408
395.446
395.453
395.435
395.392
395.324
395.231
395.111
394.971
400
400
400
400
400
400
400
400
400
399.996
399.782
399.617
399.474
399.342
399.217
399.098
398.984
398.872
398.763
398.657
398.552
398.45
398.35
398.251
398.153
398.058
397.964
397.872
397.781
397.693
397.606
397.521
397.436
397.351
397.265
397.179
397.093
397.008
396.922
396.837
396.752
396.667
396.584
396.5
396.418
396.336
396.255
396.173
396.092
396.011
395.929
395.847
395.764
395.679
395.592
395.502
395.408
395.31
395.206
395.101
395.258
395.332
395.363
395.364
395.339
395.288
395.211
395.108
394.978
394.827
400
400
400
400
400
400
400
400
400
399.996
399.783
399.617
399.473
399.341
399.216
399.097
398.981
398.869
398.759
398.651
398.546
398.442
398.34
398.24
398.141
398.043
397.947
397.853
397.761
397.67
397.581
397.493
397.405
397.317
397.229
397.14
397.051
396.962
396.873
396.785
396.696
396.609
396.521
396.435
396.348
396.262
396.176
396.09
396.004
395.917
395.829
395.741
395.65
395.558
395.462
395.363
395.258
395.148
395.031
394.912
395.057
395.117
395.133
395.116
395.071
394.998
394.898
394.77
394.613
394.434
400
400
400
400
400
400
400
400
400
399.996
399.782
399.615
399.469
399.335
399.208
399.086
398.967
398.852
398.739
398.627
398.518
398.41
398.304
398.199
398.095
397.993
397.892
397.792
397.694
397.598
397.503
397.409
397.315
397.221
397.126
397.03
396.935
396.839
396.743
396.647
396.552
396.456
396.361
396.265
396.169
396.073
395.977
395.879
395.779
395.678
395.575
395.468
395.358
395.244
395.124
394.998
394.864
394.721
394.569
394.412
394.525
394.547
394.519
394.455
394.359
394.231
394.073
393.882
393.659
393.414
400
400
400
400
400
400
400
400
400
399.996
399.776
399.605
399.453
399.312
399.178
399.048
398.921
398.796
398.674
398.553
398.433
398.314
398.197
398.081
397.966
397.852
397.739
397.628
397.517
397.409
397.301
397.194
397.086
396.978
396.87
396.761
396.651
396.541
396.431
396.32
396.209
396.097
395.983
395.868
395.751
395.632
395.509
395.382
395.25
395.112
394.967
394.815
394.654
394.483
394.301
394.106
393.898
393.674
393.434
393.184
393.217
393.146
393.018
392.846
392.634
392.385
392.098
391.773
391.412
391.031
400
400
400
400
400
400
400
400
400
399.995
399.756
399.564
399.393
399.232
399.078
398.927
398.779
398.633
398.488
398.345
398.203
398.062
397.921
397.782
397.644
397.507
397.371
397.237
397.104
396.972
396.842
396.712
396.582
396.451
396.321
396.189
396.056
395.923
395.788
395.652
395.512
395.37
395.223
395.07
394.91
394.742
394.564
394.375
394.172
393.955
393.722
393.47
393.2
392.909
392.595
392.259
391.897
391.509
391.094
390.664
390.558
390.327
390.023
389.664
389.255
388.799
388.3
387.757
387.177
386.592
400
400
400
400
400
400
400
400
400
399.992
399.678
399.435
399.222
399.022
398.83
398.645
398.462
398.284
398.107
397.932
397.759
397.588
397.418
397.25
397.084
396.92
396.758
396.598
396.441
396.286
396.132
395.98
395.828
395.676
395.524
395.371
395.216
395.059
394.899
394.734
394.562
394.382
394.191
393.988
393.77
393.534
393.279
393.002
392.7
392.373
392.016
391.631
391.214
390.764
390.282
389.764
389.212
388.625
388.003
387.369
387.205
386.843
386.378
385.839
385.237
384.582
383.879
383.133
382.352
381.607
400
400
400
400
400
400
400
400
400
399.995
399.754
399.532
399.325
399.129
398.94
398.756
398.576
398.398
398.223
398.049
397.877
397.706
397.537
397.368
397.201
397.036
396.872
396.709
396.548
396.389
396.232
396.077
395.923
395.771
395.62
395.47
395.319
395.165
395.009
394.847
394.678
394.499
394.309
394.105
393.886
393.65
393.394
393.116
392.814
392.487
392.132
391.749
391.335
390.888
390.41
389.897
389.35
388.769
388.152
387.522
387.283
386.912
386.447
385.91
385.312
384.661
383.962
383.22
382.443
381.692
400
400
400
400
400
400
400
400
400
399.997
399.825
399.657
399.496
399.342
399.192
399.045
398.901
398.758
398.616
398.475
398.335
398.196
398.058
397.92
397.783
397.646
397.509
397.374
397.239
397.105
396.972
396.839
396.708
396.578
396.449
396.32
396.192
396.062
395.932
395.799
395.663
395.523
395.377
395.225
395.066
394.899
394.722
394.535
394.335
394.121
393.891
393.645
393.38
393.096
392.79
392.463
392.11
391.734
391.33
390.911
390.735
390.492
390.19
389.837
389.436
388.99
388.501
387.969
387.4
386.819
400
400
400
400
400
400
400
400
400
399.998
399.842
399.693
399.551
399.416
399.286
399.16
399.037
398.916
398.796
398.678
398.561
398.445
398.33
398.215
398.101
397.988
397.875
397.763
397.651
397.54
397.43
397.321
397.212
397.105
396.998
396.892
396.787
396.682
396.576
396.469
396.361
396.25
396.138
396.024
395.907
395.788
395.665
395.539
395.408
395.272
395.129
394.98
394.823
394.657
394.481
394.294
394.094
393.879
393.651
393.41
393.374
393.291
393.164
392.998
392.794
392.554
392.279
391.966
391.618
391.247
400
400
400
400
400
400
400
400
400
399.998
399.846
399.701
399.565
399.436
399.313
399.195
399.08
398.968
398.857
398.749
398.642
398.536
398.432
398.329
398.226
398.124
398.023
397.923
397.824
397.726
397.628
397.532
397.436
397.342
397.248
397.156
397.065
396.973
396.882
396.79
396.697
396.603
396.508
396.413
396.317
396.22
396.123
396.024
395.925
395.824
395.721
395.616
395.508
395.396
395.28
395.159
395.031
394.895
394.751
394.602
394.644
394.65
394.62
394.559
394.468
394.347
394.197
394.016
393.805
393.569
400
400
400
400
400
400
400
400
400
399.998
399.846
399.702
399.567
399.441
399.32
399.204
399.092
398.983
398.876
398.771
398.668
398.567
398.467
398.368
398.27
398.174
398.078
397.983
397.889
397.796
397.704
397.613
397.524
397.436
397.349
397.263
397.178
397.093
397.009
396.923
396.837
396.751
396.664
396.576
396.489
396.402
396.315
396.228
396.141
396.054
395.966
395.878
395.789
395.698
395.605
395.509
395.409
395.304
395.194
395.082
395.155
395.196
395.207
395.191
395.148
395.081
394.987
394.866
394.718
394.547
400
400
400
400
400
400
400
400
400
399.998
399.846
399.701
399.566
399.44
399.32
399.204
399.093
398.985
398.879
398.775
398.674
398.574
398.476
398.379
398.283
398.188
398.094
398.001
397.909
397.819
397.729
397.641
397.554
397.469
397.384
397.301
397.219
397.137
397.055
396.973
396.89
396.806
396.722
396.639
396.555
396.472
396.389
396.307
396.225
396.143
396.061
395.979
395.896
395.813
395.728
395.641
395.552
395.459
395.361
395.262
395.346
395.4
395.426
395.426
395.403
395.356
395.284
395.188
395.065
394.921
400
400
400
400
400
400
400
400
400
399.998
399.845
399.7
399.565
399.438
399.318
399.203
399.092
398.984
398.878
398.775
398.674
398.575
398.477
398.381
398.286
398.192
398.099
398.006
397.915
397.825
397.737
397.65
397.564
397.479
397.396
397.313
397.232
397.152
397.071
396.989
396.907
396.825
396.742
396.659