/*--------------------------------*- C++ -*----------------------------------*\
  =========                 |
  \\      /  F ield         | OpenFOAM: The Open Source CFD Toolbox
   \\    /   O peration     | Website:  https://openfoam.org
    \\  /    A nd           | Version:  12
     \\/     M anipulation  |
\*---------------------------------------------------------------------------*/
FoamFile
{
    format      ascii;
    class       volScalarField;
    location    "1100/air";
    object      alphat;
}
// * * * * * * * * * * * * * * * * * * * * * * * * * * * * * * * * * * * * * //

dimensions      [1 -1 -1 0 0 0 0];

internalField   nonuniform List<scalar> 
243000
(
0.000100704
9.08692e-05
9.03422e-05
8.71101e-05
8.60284e-05
0.000385068
0.000380007
0.000370642
0.000360757
0.000351899
0.00034511
0.000341812
0.000342759
0.000349227
0.000361272
8.53034e-05
8.5272e-05
8.67118e-05
8.83865e-05
9.02755e-05
9.20964e-05
9.35871e-05
9.45752e-05
9.49528e-05
9.47551e-05
9.39532e-05
9.26878e-05
9.02078e-05
8.8325e-05
8.00501e-05
0.000363854
0.000345339
0.000319335
0.000307363
0.000294588
0.000285357
0.00027705
0.00027123
0.000266349
0.000263007
0.000261183
0.000261279
0.000263541
0.000268478
0.000276257
0.000285803
0.000299615
0.000312615
0.000325394
0.000336511
0.000345246
0.000351616
0.000355609
0.000357153
0.000356336
0.000353148
0.000347788
0.000338343
0.00032247
0.000301726
0.000469691
0.000473988
0.000469032
0.000464547
0.000459214
0.00045269
0.000444829
0.000438294
0.000434125
0.000435034
0.000439708
0.000448681
0.000462164
0.000480708
0.000504218
0.000532206
0.000561519
0.000588791
0.00060978
0.000622462
0.000626621
0.00062338
0.000613901
0.000598865
0.000579007
0.000554848
0.000526997
0.000493885
0.000456817
0.000413523
0.000505605
0.000512605
0.000511804
0.000509214
0.000504473
0.000497555
0.000488291
0.000476019
0.000464654
0.000455926
0.000453196
0.000459785
0.000475671
0.000500566
0.000532966
0.000571174
0.000609436
0.000643406
0.000668471
0.000682958
0.000687364
0.000683336
0.000672562
0.000655998
0.00063441
0.00060833
0.000578226
0.000542933
0.000503124
0.000459444
0.000541743
0.000549591
0.000551086
0.00054986
0.000545778
0.000538858
0.000528983
0.000515956
0.000499776
0.000484451
0.0004727
0.00046942
0.000482603
0.000512005
0.000553711
0.000602685
0.000650041
0.000690025
0.000718377
0.000734117
0.000738437
0.000733502
0.000721416
0.000703482
0.000680575
0.000653212
0.000621757
0.00058535
0.000544032
0.000500132
0.000577833
0.000586415
0.000589395
0.00058891
0.000585045
0.000577893
0.0005674
0.000553516
0.000535514
0.000515879
0.000497696
0.000485459
0.000488744
0.000518461
0.000568615
0.00062862
0.000684999
0.000730478
0.000761567
0.000778192
0.000782252
0.000776384
0.000763057
0.000743909
0.000719946
0.000691723
0.00065952
0.000622722
0.000580985
0.000536887
0.00061367
0.000622963
0.000626895
0.000626775
0.000622819
0.000615207
0.000603962
0.000589096
0.000570504
0.000547857
0.000525103
0.000506159
0.000499466
0.000523459
0.000579755
0.00065039
0.000715476
0.000766012
0.000799397
0.000816637
0.00082035
0.000813585
0.000799137
0.000778917
0.00075409
0.000725276
0.000692741
0.000656009
0.000614552
0.000570925
0.000649274
0.000659084
0.000663513
0.000663456
0.000659204
0.00065097
0.000638839
0.000622877
0.000603121
0.000578837
0.000553046
0.000529125
0.000515057
0.000529556
0.000589002
0.000669156
0.000742327
0.000797486
0.00083279
0.000850453
0.00085379
0.000846208
0.000830764
0.000809623
0.000784091
0.000754877
0.000722273
0.000685869
0.000645113
0.000602397
0.000684709
0.000694703
0.000699242
0.000698991
0.000694284
0.000685316
0.000672207
0.000655066
0.000633999
0.000608872
0.000580578
0.000552918
0.000533345
0.000538847
0.000598015
0.000685901
0.000766222
0.000825484
0.000862407
0.000880368
0.000883341
0.000875034
0.000858744
0.000836833
0.000810739
0.000781262
0.000748743
0.00071282
0.000672992
0.000631423
0.000719924
0.000729667
0.000734
0.000733391
0.000728137
0.000718395
0.000704276
0.00068592
0.00066347
0.000637109
0.000606918
0.000576536
0.000552955
0.0005524
0.000608143
0.000701439
0.000787669
0.000850438
0.000888725
0.00090692
0.000909573
0.000900657
0.000883676
0.000861143
0.000834617
0.000804985
0.000772644
0.000737281
0.000698493
0.000658169
0.000754794
0.000763855
0.000767665
0.000766561
0.000760746
0.000750272
0.0007352
0.000715666
0.000691823
0.000663953
0.000632157
0.000599705
0.000573232
0.000568658
0.000619905
0.000716321
0.000807047
0.000872666
0.000912103
0.000930502
0.000932913
0.000923515
0.000906
0.000882996
0.000856166
0.000826468
0.000794356
0.0007596
0.000721899
0.000682851
0.000789218
0.000797232
0.00080024
0.000798508
0.000792105
0.000780966
0.000765069
0.000744481
0.000719338
0.000689973
0.000656695
0.000622521
0.000593953
0.000586667
0.000633407
0.000730869
0.000824623
0.000892367
0.000932826
0.000951411
0.000953669
0.000943933
0.000926044
0.000902725
0.000875715
0.000846039
0.000814198
0.000780076
0.000743488
0.000705703
0.000823031
0.00082967
0.000831706
0.000829281
0.000822289
0.000810558
0.000793961
0.000772488
0.000746218
0.000715486
0.000680888
0.00064521
0.000615063
0.00060586
0.000648531
0.000745233
0.000840558
0.00090975
0.000951057
0.000969854
0.00097207
0.000962151
0.000944056
0.000920575
0.000893521
0.000863958
0.000832438
0.000798978
0.000763483
0.000726925
0.000856358
0.000861384
0.000862232
0.000859004
0.000851421
0.000839161
0.000821988
0.000799791
0.000772582
0.000740677
0.000704964
0.000667996
0.000636621
0.000625938
0.000665046
0.000759431
0.000854935
0.000924943
0.000966928
0.000985983
0.000988281
0.000978345
0.000960212
0.000936731
0.000909768
0.00088042
0.000849299
0.000816539
0.000782069
0.000746708
0.000889438
0.000892656
0.00089216
0.000887967
0.000879722
0.000866954
0.000849299
0.000826515
0.000798532
0.000765657
0.000729056
0.000691022
0.000658666
0.000646696
0.000682653
0.000773404
0.000867796
0.000938033
0.000980535
0.000999904
0.00100242
0.00099264
0.00097464
0.000951325
0.000924595
0.000895589
0.000864953
0.000832908
0.000799432
0.000765224
0.000922582
0.000923798
0.000921832
0.000916527
0.000907498
0.000894204
0.000876112
0.000852832
0.000824198
0.000790523
0.000753243
0.000714358
0.00068118
0.000667952
0.000701024
0.000787042
0.000879165
0.000949069
0.000991943
0.00101169
0.00101456
0.00100512
0.000987421
0.000964447
0.000938111
0.000909577
0.000879534
0.00084823
0.000815744
0.000782682
0.000956089
0.00095514
0.000951602
0.000945067
0.000935149
0.000921276
0.00090275
0.000879015
0.0008498
0.000815445
0.000777655
0.000738074
0.000704119
0.000689566
0.000719849
0.000800237
0.000889054
0.00095809
0.00100117
0.0010214
0.00102474
0.00101581
0.000998632
0.000976167
0.000950389
0.000922487
0.000893153
0.000862662
0.000831172
0.000799263
0.000989181
0.000986914
0.000981951
0.000974063
0.000963189
0.000948705
0.000929733
0.000905532
0.000875731
0.000840851
0.000802622
0.000762325
0.00072751
0.000711606
0.000738945
0.00081292
0.000897481
0.000965094
0.00100822
0.00102902
0.001033
0.00102481
0.00100831
0.000986551
0.000961506
0.000934391
0.000905872
0.000876283
0.000845821
0.00081508
0.00102171
0.0010181
0.00101225
0.00100384
0.000992461
0.000977457
0.000958026
0.000933282
0.000902802
0.000868033
0.000828894
0.000787539
0.000751638
0.000735126
0.00075843
0.000825123
0.000904498
0.000970041
0.00101307
0.00103462
0.00103942
0.00103212
0.0010165
0.000995635
0.000971498
0.000945308
0.000917735
0.000889157
0.000859775
0.00083023
0.00105355
0.00104858
0.00104184
0.00103296
0.00102147
0.00100666
0.000987585
0.000963155
0.000932919
0.000898165
0.000857586
0.000814708
0.000777593
0.000760061
0.000778323
0.000836929
0.000910212
0.0009732
0.00101589
0.00103819
0.001044
0.00103777
0.00102324
0.00100345
0.000980385
0.000955255
0.000928769
0.000901316
0.000873106
0.000844793
0.00108459
0.00107828
0.00107064
0.0010613
0.00104978
0.00103535
0.00101696
0.000993518
0.000965398
0.000930011
0.00088848
0.000844407
0.000805893
0.000786167
0.000798568
0.000848426
0.000914786
0.000974692
0.00101687
0.00103975
0.00104671
0.00104178
0.00102855
0.00101002
0.00098816
0.000964242
0.000938983
0.000912785
0.000885859
0.000858858
0.00111465
0.0011071
0.00109865
0.00108894
0.00107749
0.0010637
0.00104651
0.00102555
0.000997627
0.000962062
0.00092019
0.00087545
0.000835543
0.00081303
0.000819052
0.000859694
0.000918367
0.000974724
0.00101602
0.00103957
0.00104759
0.00104416
0.00103243
0.00101532
0.00099485
0.000972303
0.000948416
0.000923608
0.000898115
0.000872522
0.0011436
0.00113503
0.001126
0.0011162
0.00110517
0.00109303
0.00107796
0.00105701
0.00102907
0.000993752
0.000952049
0.000907149
0.000865995
0.000840352
0.000839616
0.000870719
0.000920993
0.000972927
0.00101284
0.00103691
0.00104635
0.00104448
0.00103462
0.00101924
0.00100042
0.000979457
0.000957121
0.000933877
0.000909946
0.000885902
0.00117149
0.00116231
0.00115334
0.00114459
0.0011352
0.00112311
0.00110725
0.00108624
0.00105876
0.00102426
0.000983266
0.000938762
0.000896626
0.000867614
0.000860047
0.000881253
0.000922481
0.000968935
0.00100703
0.00103152
0.00104252
0.00104248
0.00103447
0.00102125
0.0010045
0.0009855
0.000965054
0.000943633
0.000921465
0.000899173
0.00119859
0.00119014
0.00118175
0.00117242
0.00116171
0.00114883
0.00113259
0.00111172
0.00108499
0.00105162
0.00101189
0.000968498
0.000926079
0.000893988
0.000879781
0.000891139
0.000923635
0.000963975
0.000999518
0.00102419
0.00103672
0.00103863
0.00103247
0.00102082
0.0010063
0.000989701
0.000971661
0.000952565
0.000932624
0.000912498
0.00122208
0.00121278
0.00120314
0.00119272
0.00118105
0.00116748
0.00115105
0.00113054
0.00110478
0.00107301
0.00103514
0.000994782
0.000954726
0.000922388
0.000905306
0.000909811
0.000933831
0.000967352
0.000999246
0.00102254
0.00103541
0.00103864
0.00103397
0.00102366
0.00100982
0.000993639
0.000976721
0.000960078
0.000942869
0.000925576
0.00123682
0.00122465
0.00121328
0.00120234
0.00119137
0.00117969
0.00116635
0.00115009
0.00112952
0.00110358
0.00107191
0.00103645
0.00100022
0.000969235
0.00095012
0.000948144
0.000963073
0.00098798
0.00101363
0.00103351
0.00104506
0.00104837
0.00104439
0.00103482
0.00102146
0.00100556
0.000988394
0.000970912
0.000953107
0.000937197
0.00127076
0.00125821
0.00124618
0.00123516
0.00122517
0.00121579
0.00120616
0.00119495
0.00118068
0.00116207
0.00113837
0.00111064
0.00108137
0.00105494
0.00103627
0.00102909
0.00103457
0.00104857
0.00106467
0.00107762
0.00108476
0.00108562
0.00108031
0.00107003
0.00105616
0.00103982
0.00102201
0.00100354
0.000984742
0.000967274
0.00133971
0.00132891
0.00131985
0.00131385
0.00131044
0.00130876
0.00130761
0.00130558
0.00130131
0.00129366
0.00128118
0.00126511
0.00124712
0.00122992
0.00121585
0.00120685
0.00120404
0.00120611
0.00120976
0.00121214
0.00121151
0.00120694
0.00119823
0.00118597
0.001171
0.00115401
0.00113507
0.00111499
0.00109448
0.00107549
0.00157342
0.00156851
0.00157138
0.00157985
0.00158696
0.00159239
0.00159626
0.00159866
0.00159933
0.00159766
0.00159089
0.00158293
0.0015743
0.00156626
0.00155866
0.00155289
0.00154782
0.00154491
0.00154304
0.00154219
0.00154159
0.00154056
0.00153878
0.00153628
0.00153314
0.00152919
0.00152
0.00150833
0.00149588
0.00148388
0.000144129
0.000153198
0.000152126
0.000149026
0.000144146
0.00013866
0.000132993
0.000127743
0.000122959
0.0001188
0.000115316
0.000112672
0.00011095
0.000110367
0.000110907
0.000112607
0.000115136
0.0001179
0.000120497
0.000122652
0.000124001
0.000124184
0.000122836
0.00011968
0.000114754
0.000108131
0.000100286
9.06249e-05
8.46021e-05
8.39194e-05
0.000453763
0.000462243
0.000443956
0.000420309
0.000394942
0.00036998
0.000346861
0.000326785
0.000311044
0.000300332
0.00029519
0.000297242
0.000306983
0.000326065
0.000352969
0.00038404
0.000408608
0.000422492
0.000423971
0.000417332
0.000406764
0.000396772
0.000386956
0.0003747
0.000359737
0.000339468
0.000313034
0.000275022
0.000254031
0.000255572
0.000637032
0.000663477
0.000649986
0.000625923
0.00059661
0.000569748
0.000545925
0.000527054
0.000514996
0.00051059
0.000516232
0.000536281
0.000573551
0.000632297
0.000708971
0.000788826
0.000844885
0.000870194
0.000864339
0.00083768
0.000801192
0.000764944
0.000733085
0.000702805
0.00066888
0.000626717
0.000573968
0.000503829
0.000438374
0.00041336
0.000686486
0.000739078
0.000740511
0.00072649
0.000705518
0.00068297
0.000664757
0.000653971
0.000653132
0.000663622
0.000688578
0.000735541
0.000811254
0.000923755
0.00106451
0.00120195
0.00129131
0.00132759
0.00131404
0.00126666
0.00120168
0.00113639
0.00107798
0.00102339
0.000967149
0.00090253
0.000824935
0.000727895
0.000627165
0.00056749
0.000686597
0.000743154
0.000752297
0.000751185
0.000741463
0.000728807
0.000719304
0.000717493
0.000727463
0.00075385
0.000801097
0.000882265
0.00100645
0.00118545
0.00139966
0.00159786
0.00171773
0.00176217
0.00173999
0.00167313
0.00158171
0.00148891
0.00140446
0.00132648
0.00124898
0.00116399
0.00106462
0.000944899
0.000817577
0.00073133
0.00068357
0.000740864
0.000758032
0.000763631
0.000760843
0.000754103
0.000748714
0.000749409
0.000763107
0.000799984
0.000865838
0.000980336
0.00116346
0.00142049
0.00171543
0.00197341
0.00211904
0.00216687
0.00213455
0.00204915
0.0019339
0.00181646
0.00170821
0.00160887
0.00151227
0.00140969
0.00129174
0.0011545
0.00100725
0.000903871
0.000688907
0.000746884
0.000769542
0.000781269
0.000783606
0.000781156
0.000778827
0.000781542
0.000795528
0.000830639
0.000902698
0.00104425
0.00129239
0.00163588
0.00201598
0.00232921
0.00249515
0.0025408
0.00249684
0.00239368
0.00225698
0.00211785
0.00198868
0.00187039
0.00175705
0.0016392
0.00150698
0.00135632
0.00119453
0.00107817
0.000727522
0.0007726
0.000799542
0.000816708
0.000820877
0.000818941
0.000816634
0.000818443
0.000830742
0.000863853
0.000936145
0.00109294
0.00139787
0.00183778
0.00230465
0.00266631
0.002846
0.00288449
0.00282772
0.00270777
0.00255187
0.0023939
0.00224662
0.00211184
0.001984
0.00185314
0.00171014
0.00154988
0.00137806
0.00125177
0.000857949
0.000877329
0.000886794
0.00089183
0.000887367
0.000878256
0.00087002
0.000865591
0.000872845
0.000901764
0.000976202
0.00114352
0.00148802
0.00203061
0.00258344
0.00298479
0.00317151
0.00319868
0.00312872
0.00299316
0.00282031
0.00264614
0.00248343
0.00233446
0.00219409
0.00205279
0.00190155
0.0017345
0.00155644
0.00142311
0.00108494
0.00108221
0.00106725
0.00104668
0.00101722
0.000985428
0.000956081
0.000934977
0.000929429
0.000948968
0.00101778
0.00119399
0.00157713
0.00222196
0.00285351
0.00328396
0.00347135
0.0034843
0.00340142
0.00325176
0.0030643
0.00287648
0.00270078
0.00253975
0.00238814
0.00223885
0.00208177
0.00191007
0.00172874
0.00159114
0.00138619
0.00137589
0.00133818
0.00128824
0.00122666
0.00116056
0.00109553
0.00104266
0.00101182
0.00101531
0.00107706
0.00126491
0.00168694
0.00242494
0.00311501
0.00356255
0.00374514
0.00374222
0.0036475
0.00348556
0.00328601
0.00308687
0.00290048
0.00272941
0.0025688
0.0024127
0.00225104
0.00207698
0.00189432
0.001755
0.00173225
0.0017313
0.00167788
0.00159995
0.0015049
0.00140072
0.00129559
0.00120165
0.0011327
0.00110923
0.00115607
0.00136073
0.00183511
0.00263435
0.00336516
0.00381877
0.00399236
0.00397353
0.00386849
0.00369658
0.00348742
0.0032793
0.00308435
0.00290518
0.002737
0.00257523
0.00241027
0.0022363
0.00205431
0.00191416
0.00205819
0.002073
0.00203309
0.00194903
0.00182908
0.00169213
0.00154867
0.00141233
0.00130007
0.00123921
0.00126533
0.00148111
0.00200134
0.0028456
0.0036008
0.00405069
0.00421237
0.00417948
0.00406585
0.00388658
0.00367041
0.0034556
0.00325425
0.00306772
0.00289382
0.00272768
0.00256063
0.00238766
0.00220839
0.0020687
0.00236843
0.00239676
0.00236901
0.00229535
0.00217185
0.00201393
0.00184056
0.00166685
0.00151312
0.00141207
0.00141323
0.00163263
0.00218877
0.00306015
0.00381884
0.00425636
0.00440441
0.00436105
0.00424099
0.0040571
0.00383654
0.00361744
0.00341131
0.00321886
0.00304058
0.00287134
0.00270371
0.00253193
0.00235654
0.00221881
0.00266367
0.00270254
0.00268646
0.00262258
0.00250972
0.00234546
0.00215458
0.00195323
0.00176434
0.00162693
0.00160203
0.00181615
0.00239477
0.0032724
0.00401533
0.00443365
0.00456815
0.00451838
0.00439481
0.00420921
0.00398692
0.00376606
0.00355601
0.00335985
0.00317864
0.00300757
0.00284003
0.00267057
0.00249992
0.00236507
0.00294152
0.00298829
0.00298253
0.0029289
0.00282647
0.00267105
0.00247446
0.002257
0.00204285
0.00187654
0.00182848
0.00202724
0.00261345
0.00347534
0.00418569
0.00458012
0.00470281
0.00465115
0.00452759
0.00434329
0.00412199
0.00390146
0.00368851
0.00349147
0.00330903
0.0031374
0.00297074
0.00280464
0.00264046
0.00250855
0.00319584
0.00324853
0.00325151
0.00320865
0.00311805
0.0029762
0.00278431
0.00256227
0.00233429
0.00214805
0.0020829
0.00225764
0.00283555
0.00366004
0.00432444
0.00469269
0.0048068
0.00475809
0.00463863
0.00445882
0.00424121
0.00402283
0.00381135
0.00361471
0.0034326
0.00326194
0.00309699
0.002935
0.00277871
0.00265004
0.00343337
0.00347687
0.0034847
0.00345308
0.00337517
0.00324716
0.00306839
0.00285174
0.00262101
0.00242464
0.00234767
0.00249475
0.00304815
0.00381491
0.00442483
0.00476718
0.00487719
0.00483653
0.00472611
0.00455405
0.00434398
0.00413143
0.00392356
0.00372939
0.00354925
0.00338087
0.00321912
0.0030624
0.00291377
0.00278986
0.00365437
0.0036824
0.00368469
0.00365387
0.00358451
0.00347096
0.00330933
0.00310563
0.00288192
0.00268445
0.00260045
0.0027187
0.00323271
0.003924
0.00447814
0.00479753
0.00490906
0.00488187
0.00478644
0.0046273
0.00442845
0.00422436
0.00402317
0.00383403
0.00365779
0.00349332
0.00333667
0.0031867
0.00304507
0.0029269
0.00385448
0.00386558
0.00385765
0.0038224
0.00375493
0.00364892
0.00349842
0.00330596
0.0030919
0.00290008
0.00281267
0.00290371
0.00336389
0.00397278
0.00447335
0.00477482
0.00489435
0.00488739
0.00481337
0.00467185
0.00448902
0.00429749
0.00410452
0.00392396
0.00375497
0.00359641
0.00344625
0.00330343
0.0031695
0.00305828
0.00402782
0.00402198
0.0040018
0.00395981
0.00389121
0.00378851
0.00364359
0.00345821
0.00325037
0.00306047
0.00296349
0.00302428
0.00341676
0.00394523
0.0043962
0.00468598
0.00482132
0.00484122
0.00479355
0.00467784
0.00451805
0.00434301
0.00416379
0.00399303
0.00383176
0.00368157
0.00353988
0.00340556
0.00328053
0.00317934
0.00416649
0.0041439
0.00411158
0.00406249
0.00399103
0.0038877
0.00374456
0.00356167
0.00335476
0.00316012
0.00304462
0.00306825
0.00337365
0.00382662
0.00422984
0.00451357
0.00467169
0.00472221
0.00470782
0.00462749
0.00450099
0.00434999
0.00418987
0.00403441
0.00388529
0.00374531
0.00361325
0.00348919
0.00337548
0.0032847
0.00425911
0.00422142
0.00417869
0.00412311
0.00404632
0.00393951
0.00379498
0.00361049
0.00339947
0.00319373
0.00305178
0.00303025
0.00323226
0.00360801
0.00396144
0.00423972
0.00442145
0.00450337
0.00452888
0.00449332
0.00440871
0.00429388
0.00416362
0.00403244
0.00390207
0.00377565
0.00365587
0.00354436
0.00344386
0.00336428
0.0042903
0.00424151
0.00419138
0.00412838
0.00404486
0.00393438
0.00378613
0.00359753
0.00338133
0.00316423
0.00299606
0.00292817
0.00302771
0.00330654
0.00360655
0.00386825
0.00405372
0.00416544
0.00422997
0.00424077
0.00420419
0.00413453
0.00404569
0.00394968
0.00384909
0.00374808
0.00364931
0.00355466
0.0034679
0.00339932
0.0042402
0.00418861
0.00413299
0.00406503
0.00398009
0.00386734
0.00371674
0.00352744
0.00331522
0.00309989
0.00292146
0.00282089
0.00283885
0.00300856
0.00324236
0.00345855
0.00362022
0.0037398
0.0038277
0.00387149
0.00387581
0.00384952
0.00380318
0.00374728
0.00368395
0.00361769
0.00354998
0.00348167
0.0034174
0.00336547
0.00409177
0.00404532
0.00399514
0.00393647
0.00386015
0.00375576
0.00361539
0.00344103
0.00325039
0.00306062
0.00289928
0.00279149
0.00276146
0.00284057
0.0029897
0.00313627
0.00325269
0.00335238
0.00342766
0.00347286
0.00348967
0.00348278
0.0034589
0.00342812
0.00339487
0.00336224
0.00332769
0.00328892
0.00325213
0.00322346
0.00386653
0.0038431
0.00381596
0.00377946
0.00372287
0.00363869
0.00352557
0.00338861
0.00324027
0.00309302
0.00296577
0.0028728
0.00283034
0.002855
0.00293206
0.00301111
0.00308012
0.00313937
0.0031816
0.00320348
0.00320551
0.00319086
0.00316358
0.00313171
0.0031001
0.00307187
0.00304693
0.00302482
0.00300827
0.00300081
0.003632
0.00363141
0.00363839
0.00363814
0.00361296
0.00356099
0.00348585
0.00339188
0.00328943
0.00318688
0.00309489
0.00302478
0.00298648
0.00298671
0.00301697
0.00305152
0.00308585
0.00311386
0.00313036
0.00313274
0.00312092
0.00309757
0.00306463
0.0030284
0.00299227
0.00295869
0.00292856
0.00290204
0.00288098
0.00287938
0.00344767
0.00345472
0.00347621
0.00349279
0.00349073
0.00346838
0.00342779
0.00337237
0.00330874
0.00324168
0.003177
0.00312545
0.00309116
0.00307848
0.00308221
0.00309245
0.00310709
0.00311994
0.00312746
0.00312795
0.00312104
0.00310973
0.00309136
0.00307342
0.00305698
0.00304257
0.00302902
0.00301419
0.00300059
0.00299919
0.00330797
0.00332342
0.00334707
0.00336332
0.00336492
0.00335275
0.00332965
0.00329809
0.00326134
0.00321986
0.00317662
0.00314061
0.00311109
0.00309256
0.00308244
0.00307936
0.00308194
0.00308595
0.00308968
0.00309278
0.00309555
0.00309738
0.00310344
0.00311078
0.00312049
0.0031318
0.00314213
0.00315275
0.0031578
0.00315714
0.000180028
0.000189012
0.000188582
0.000184494
0.000178359
0.000171277
0.000163987
0.000156985
0.000150556
0.000144935
0.000140215
0.000136598
0.00013414
0.000133051
0.000133162
0.000134375
0.000136109
0.000138085
0.000140391
0.000143068
0.000145334
0.000146065
0.000144283
0.000139374
0.000131246
0.00011997
0.000106286
8.94919e-05
8.02367e-05
8.72532e-05
0.000651724
0.000747622
0.00073535
0.000693209
0.000645467
0.000600598
0.00056185
0.00053027
0.000506309
0.000490785
0.000483833
0.000487223
0.000499436
0.000520075
0.00054119
0.000558227
0.000560839
0.000553678
0.000542297
0.00053371
0.000530013
0.00053095
0.000529647
0.000517118
0.000490027
0.000447734
0.000393333
0.00032644
0.000287063
0.000256748
0.000996219
0.00115697
0.00118322
0.00115414
0.00110335
0.00104916
0.0010003
0.000960842
0.000933447
0.000921166
0.000926042
0.000952336
0.000998745
0.00106206
0.0011241
0.00116897
0.00117591
0.00115526
0.00111733
0.00107619
0.00104134
0.00101725
0.000993891
0.000959909
0.000907249
0.000825928
0.000719544
0.0005907
0.000487843
0.000436228
0.00116137
0.00136839
0.00144754
0.00144924
0.00141469
0.00136999
0.00132786
0.00129501
0.00127694
0.00127935
0.00130735
0.00136943
0.0014642
0.00158318
0.00169601
0.00177229
0.0017853
0.00175104
0.0016841
0.0016074
0.00153752
0.00148251
0.00143425
0.00137568
0.00129336
0.00117788
0.00102895
0.000851118
0.00069009
0.000614285
0.00121391
0.00142649
0.00154272
0.00158538
0.00158509
0.00156157
0.00153714
0.00152143
0.00152277
0.00154945
0.00161164
0.00172214
0.00187884
0.00206354
0.00223175
0.00233753
0.00235345
0.00230278
0.00220588
0.00209442
0.00199059
0.00190382
0.00182849
0.00174767
0.00164304
0.00150224
0.00132247
0.00110783
0.000902043
0.000799196
0.00118799
0.00139009
0.00152291
0.00159535
0.00162576
0.00163203
0.00163471
0.00164634
0.00167653
0.00173763
0.00184572
0.00201777
0.00225072
0.00251012
0.00273466
0.002865
0.00287776
0.00280618
0.00267731
0.00253222
0.00239725
0.00228204
0.0021824
0.00208193
0.00195987
0.00180153
0.00160069
0.00135966
0.00112055
0.0009939
0.0011363
0.00131071
0.00144401
0.00153259
0.00158486
0.00161523
0.00164529
0.0016853
0.00174802
0.00185043
0.00201873
0.00226748
0.00259054
0.00293192
0.00320939
0.003358
0.00336037
0.00326324
0.00310114
0.00292395
0.00276046
0.00262042
0.00249988
0.0023828
0.00224756
0.00207784
0.00186398
0.00160519
0.00134256
0.00119688
0.00110207
0.00123853
0.00136183
0.00145759
0.00152483
0.00157396
0.00162191
0.00168142
0.00176803
0.00191184
0.00213537
0.00248544
0.00290817
0.00333419
0.00365906
0.00381863
0.00380305
0.00367672
0.00348132
0.00327442
0.00308492
0.00292365
0.00278544
0.00265461
0.00250982
0.00233295
0.00211163
0.00184596
0.00156752
0.00140607
0.00110439
0.00120769
0.00130932
0.00140034
0.00147244
0.00153286
0.00159432
0.00167048
0.00177962
0.00195266
0.00223763
0.00269134
0.0032131
0.00372111
0.00408546
0.00424754
0.00420689
0.00404904
0.00382215
0.00358854
0.00337594
0.0031967
0.00304376
0.00290171
0.00274959
0.0025689
0.00234475
0.00207507
0.00178908
0.00161818
0.00114594
0.00122674
0.00132105
0.00139476
0.00145769
0.00151842
0.00158465
0.00167047
0.00179857
0.00200212
0.00234398
0.00287535
0.0035095
0.00409507
0.00448839
0.0046442
0.00457241
0.00438275
0.00412776
0.00387101
0.00363892
0.0034447
0.00327952
0.00312776
0.0029701
0.00278757
0.00256608
0.00229462
0.00200718
0.00183242
0.00129368
0.0013429
0.00139552
0.00145032
0.00150753
0.00155698
0.0016165
0.00170095
0.00184019
0.00207786
0.00246454
0.00305919
0.00380606
0.0044568
0.00486602
0.00500714
0.00490026
0.00468034
0.00440236
0.00412649
0.00387918
0.00367256
0.00349741
0.00333761
0.00317504
0.00299144
0.00277242
0.00250471
0.00222134
0.0020475
0.00151624
0.00155368
0.0015895
0.00162087
0.00164472
0.00166531
0.00169747
0.00177365
0.00191548
0.0021723
0.00259356
0.0032592
0.00411199
0.00480471
0.00521512
0.00533422
0.0051912
0.00494501
0.00465027
0.00435989
0.00410143
0.0038849
0.00370186
0.00353453
0.00336783
0.00318373
0.00296744
0.00270679
0.00243173
0.0022627
0.0018241
0.0018624
0.00188769
0.00189219
0.00187936
0.00186347
0.0018612
0.00190758
0.00203073
0.00229151
0.00276228
0.00351518
0.00443625
0.00513405
0.00553121
0.00562277
0.00544645
0.00518039
0.00487589
0.00457577
0.00430998
0.00408593
0.00389614
0.00372213
0.0035518
0.00336783
0.00315352
0.00290315
0.00263972
0.00247793
0.00221617
0.00225866
0.00227355
0.00225223
0.00220623
0.00214874
0.00210576
0.00211406
0.00221794
0.00249286
0.00301942
0.00382794
0.00475309
0.00543519
0.00580871
0.00587035
0.00566718
0.00539022
0.005083
0.00477806
0.00450849
0.00427959
0.00408239
0.00390338
0.00373003
0.00354571
0.0033348
0.0030953
0.00284629
0.00269347
0.00267167
0.00271109
0.00271309
0.00267291
0.0025997
0.0025053
0.00242063
0.00239131
0.00246212
0.00274067
0.00331849
0.00414901
0.00503897
0.00569779
0.00604147
0.00607461
0.00585445
0.00557744
0.00527418
0.0049697
0.00469965
0.00446789
0.004264
0.00408105
0.00390518
0.00372014
0.00351413
0.0032856
0.00305239
0.00290955
0.00315244
0.00318398
0.00317304
0.00311945
0.00302551
0.00290294
0.00278331
0.00272052
0.00276033
0.00303061
0.00362406
0.00444112
0.00529252
0.00591244
0.00622299
0.00623294
0.00600858
0.00574329
0.00544986
0.00515218
0.00488483
0.0046515
0.00444375
0.00425749
0.00407983
0.00389644
0.00369459
0.00347665
0.00326067
0.00312713
0.00362909
0.00364668
0.0036266
0.00356052
0.00345104
0.00330912
0.0031639
0.00307391
0.00308845
0.00333512
0.00392254
0.00470266
0.00549722
0.00606809
0.00634598
0.0063418
0.00612817
0.00588603
0.00560834
0.00532382
0.00506267
0.00482962
0.00462092
0.00443291
0.00425566
0.00407543
0.00387894
0.00367119
0.00347283
0.00334761
0.00407822
0.00408197
0.00404916
0.00397096
0.00384953
0.00369446
0.00353213
0.003421
0.0034152
0.00362326
0.00418422
0.00490977
0.00563481
0.00615233
0.00640203
0.00639593
0.00620883
0.00599949
0.00574428
0.00547935
0.00522855
0.00499931
0.0047902
0.00460453
0.00442978
0.00425463
0.00406853
0.00387317
0.00368671
0.00356949
0.00448564
0.00447199
0.00442357
0.00433258
0.00420064
0.00403572
0.00386188
0.00373182
0.00370612
0.00386512
0.00437571
0.00503881
0.00568618
0.00615157
0.00638126
0.00638732
0.00624157
0.00607208
0.0058472
0.00560893
0.00537456
0.00515343
0.00494915
0.00476373
0.00459321
0.00442641
0.00425287
0.00407107
0.00389731
0.00378915
0.00483284
0.00480136
0.00473687
0.00463287
0.00449066
0.00431657
0.00413185
0.0039818
0.00392951
0.00403495
0.00446838
0.00506463
0.00563299
0.00605223
0.00627246
0.00630468
0.00621113
0.00608646
0.00590075
0.00569627
0.00548603
0.0052806
0.00508625
0.00490675
0.00474074
0.00458062
0.00441562
0.00424831
0.0040882
0.0039964
0.00510884
0.00505752
0.00497782
0.0048613
0.00470896
0.00452509
0.00432717
0.00415388
0.00406553
0.00411239
0.0044469
0.00496353
0.00546347
0.00584421
0.00606525
0.00613494
0.00609788
0.00602005
0.00588176
0.00571729
0.00553933
0.00535755
0.00518089
0.00501485
0.00485948
0.00470943
0.00455759
0.00440492
0.00426032
0.00418248
0.00529983
0.00522935
0.00513564
0.0050082
0.00484669
0.00465267
0.00443926
0.00423919
0.00410768
0.00409152
0.00431823
0.00473241
0.00517879
0.00552957
0.00575698
0.0058695
0.00588299
0.00585153
0.00576365
0.00564204
0.00550105
0.00535161
0.00520215
0.00505889
0.00492306
0.00479084
0.00465716
0.00452221
0.00439728
0.00433009
0.00539057
0.0053047
0.00520049
0.00506578
0.00489806
0.00469569
0.00446769
0.00424185
0.00406841
0.00399123
0.00411379
0.00441921
0.00480412
0.00513891
0.00536771
0.00551449
0.00556726
0.00557477
0.00553195
0.00545335
0.00535212
0.00523878
0.00512194
0.00500826
0.00489983
0.00479389
0.00468586
0.00457486
0.00447253
0.0044146
0.00536875
0.00527506
0.00516727
0.00503214
0.00486498
0.0046608
0.0044261
0.00418572
0.0039859
0.0038607
0.00390233
0.00411152
0.00441808
0.00473133
0.00495539
0.00511544
0.00519
0.00522434
0.00521462
0.00517015
0.00510259
0.00502129
0.00493487
0.00485031
0.00477018
0.00469244
0.00461304
0.00453088
0.00445454
0.00440735
0.00523435
0.00514356
0.00504335
0.00491964
0.004766
0.00457333
0.00434883
0.00411656
0.00391397
0.0037736
0.00376807
0.00389995
0.00412807
0.00439157
0.00460419
0.00475276
0.00482791
0.00487225
0.00487664
0.00485009
0.00480181
0.00473984
0.00467243
0.00460685
0.00454626
0.0044894
0.00443268
0.00437445
0.00432051
0.00428429
0.00501438
0.00493987
0.00486082
0.00476504
0.00463783
0.00447619
0.00428552
0.00408767
0.00391258
0.00379036
0.00376272
0.00383777
0.00399413
0.00419194
0.0043734
0.0044907
0.00455062
0.0045859
0.00458832
0.00456444
0.00452114
0.00446512
0.00440346
0.00434311
0.0042879
0.00423757
0.00418909
0.00414085
0.00409743
0.00406953
0.00477533
0.00472378
0.00467696
0.00461985
0.00453756
0.00442351
0.00428265
0.00413379
0.00399921
0.00390159
0.00386615
0.00390179
0.00399845
0.00413036
0.00426085
0.00433564
0.00437198
0.00438763
0.00438034
0.0043533
0.00431088
0.00425845
0.00420141
0.00414435
0.00409116
0.00404151
0.00399293
0.00394454
0.0039006