/*--------------------------------*- C++ -*----------------------------------*\
  =========                 |
  \\      /  F ield         | OpenFOAM: The Open Source CFD Toolbox
   \\    /   O peration     | Website:  https://openfoam.org
    \\  /    A nd           | Version:  12
     \\/     M anipulation  |
\*---------------------------------------------------------------------------*/
FoamFile
{
    format      ascii;
    class       volScalarField;
    location    "1100/air";
    object      epsilon;
}
// * * * * * * * * * * * * * * * * * * * * * * * * * * * * * * * * * * * * * //

dimensions      [0 2 -3 0 0 0 0];

internalField   nonuniform List<scalar> 
243000
(
0.768335
0.648006
0.75761
0.798929
0.893746
1.04236
1.17386
0.304586
0.329871
0.352762
0.373971
0.394698
0.415408
0.437166
0.459272
0.464087
0.456654
1.88306
1.86759
1.85783
1.82338
1.74716
1.62733
1.47123
1.29438
1.10839
0.928679
0.743765
0.595886
0.113669
0.445295
0.444018
0.421973
0.418328
0.419848
0.430123
0.447793
0.47021
0.494979
0.523325
0.555356
0.593947
0.641056
0.70115
0.776001
0.864534
0.964957
1.06504
1.14255
1.18348
1.18021
1.13679
1.06013
0.958271
0.841633
0.718928
0.598666
0.478328
0.366242
0.25682
0.493982
0.507866
0.49306
0.478433
0.461564
0.442112
0.418692
0.399144
0.387317
0.390044
0.403718
0.430331
0.471705
0.531856
0.61405
0.721832
0.845578
0.972175
1.07666
1.14172
1.16158
1.14119
1.08809
1.00883
0.911121
0.801673
0.687107
0.566235
0.449745
0.333755
0.616619
0.642437
0.639484
0.629529
0.611623
0.586218
0.553307
0.511762
0.4751
0.448517
0.441466
0.462906
0.514903
0.601992
0.727441
0.894444
1.08356
1.27063
1.41975
1.50886
1.5338
1.50352
1.43092
1.32588
1.19816
1.05609
0.906962
0.751348
0.599012
0.456807
0.758368
0.791598
0.797816
0.791982
0.773783
0.743903
0.702805
0.651355
0.590843
0.537427
0.499578
0.491393
0.537631
0.645546
0.818234
1.0536
1.31728
1.56899
1.76312
1.87467
1.90228
1.85989
1.76617
1.6353
1.47926
1.3074
1.1273
0.94097
0.756366
0.588665
0.919668
0.961007
0.975268
0.972162
0.952268
0.916775
0.866628
0.803386
0.726477
0.648376
0.581965
0.541573
0.557278
0.671172
0.888794
1.19874
1.54398
1.86306
2.10165
2.23368
2.26192
2.20593
2.09035
1.93409
1.75146
1.5527
1.34543
1.13267
0.920574
0.727732
1.10072
1.15116
1.17248
1.17097
1.14791
1.1052
1.04444
0.967857
0.877768
0.776093
0.682682
0.61239
0.592498
0.690901
0.94473
1.33111
1.76217
2.15004
2.4317
2.58208
2.60935
2.53901
2.40162
2.22074
2.01319
1.79016
1.55937
1.32418
1.0892
0.874389
1.30255
1.36204
1.38894
1.38763
1.36
1.3084
1.23521
1.14346
1.03661
0.914984
0.797042
0.698512
0.647977
0.714746
0.993059
1.45324
1.971
2.42789
2.75045
2.91711
2.94232
2.85751
2.69887
2.49456
2.26382
2.01896
1.76783
1.51356
1.25982
1.02671
1.52636
1.59362
1.62424
1.62146
1.58769
1.52556
1.43817
1.32935
1.20359
1.06459
0.921722
0.796271
0.718092
0.750922
1.04105
1.56847
2.17044
2.69455
3.05564
3.23677
3.2593
3.16036
2.98164
2.75545
2.50336
2.23884
1.96999
1.69949
1.43044
1.18224
1.7727
1.84497
1.87714
1.87137
1.83013
1.75616
1.65303
1.52541
1.37876
1.21923
1.05262
0.902207
0.799307
0.807442
1.09587
1.68045
2.36064
2.9483
3.34529
3.53955
3.55923
3.44706
3.24984
3.00357
2.73203
2.44986
2.16545
1.88109
1.59961
1.33898
2.04126
2.11488
2.14573
2.13535
2.08576
1.99924
1.87946
1.73178
1.56255
1.37947
1.18918
1.0151
0.890002
0.879558
1.161
1.79199
2.54171
3.18753
3.61767
3.82402
3.84128
3.7172
3.50342
3.23912
2.95016
2.65219
2.35402
2.05784
1.76634
1.49555
2.33164
2.40256
2.42887
2.41196
2.35302
2.25354
2.11692
1.94867
1.75588
1.54764
1.33283
1.13524
0.989763
0.964717
1.23809
1.90491
2.71356
3.41034
3.87128
4.08888
4.10452
3.97034
3.74226
3.46225
3.15798
2.84609
2.53578
2.22958
1.93017
1.65111
2.64253
2.70607
2.725
2.70005
2.63094
2.51829
2.3649
2.17615
1.95953
1.7253
1.48536
1.26383
1.09891
1.06162
1.32776
2.02001
2.87563
3.61542
4.10427
4.3327
4.34797
4.20592
3.96612
3.67294
3.35571
3.03185
2.71102
2.39646
2.09083
1.80505
2.97496
3.02667
3.03452
2.99934
2.91919
2.79321
2.62329
2.41434
2.17403
1.91359
1.6483
1.40241
1.21839
1.16979
1.42991
2.13727
3.0269
3.80132
4.31486
4.55402
4.57058
4.42325
4.17458
3.87104
3.54335
3.2096
2.88012
2.55886
2.24805
1.95702
3.33157
3.36685
3.3601
3.31165
3.21877
3.07892
2.89262
2.66378
2.39994
2.11337
1.82287
1.55239
1.34917
1.28904
1.54386
2.25597
3.16616
3.96658
4.50136
4.75134
4.77118
4.62151
4.36706
4.05619
3.72072
3.37956
3.0434
2.71686
2.40202
2.10691
3.71654
3.73023
3.70529
3.64033
3.53222
3.37745
3.17445
2.92568
2.63829
2.32561
2.01009
1.71486
1.49196
1.41909
1.66848
2.37494
3.29217
4.10964
4.6622
4.92321
4.94845
4.79966
4.54269
4.22783
3.88765
3.54168
3.20102
2.87061
2.55302
2.25519
4.13498
4.1217
4.07477
3.98994
3.86398
3.69262
3.47204
3.20275
2.89125
2.5521
2.21157
1.89104
1.64725
1.55978
1.80245
2.49291
3.40378
4.22916
4.79556
5.06823
5.10088
4.95636
4.70087
4.38539
4.04376
3.69594
3.35325
3.02074
2.7016
2.40237
4.57794
4.54552
4.47605
4.36753
4.2211
4.03142
3.79188
3.50055
3.16333
2.79754
2.43096
2.08303
1.816
1.71226
1.94505
2.60892
3.50008
4.32368
4.89989
5.18474
5.22753
5.0912
4.84064
4.52851
4.18885
3.84224
3.49982
3.16726
2.84801
2.5487
5.04316
4.98891
4.90213
4.7794
4.61673
4.40812
4.14755
3.83105
3.46484
3.07675
2.67656
2.29545
2.00117
1.88555
2.09773
2.72288
3.58068
4.39124
4.97328
5.27232
5.32807
5.20317
4.96163
4.65655
4.32239
3.97995
3.64046
3.3101
2.99237
2.69438
5.52841
5.44942
5.34355
5.20643
5.03264
4.81441
4.54272
4.21012
3.82182
3.40631
2.96189
2.53868
2.21284
2.08076
2.26109
2.83513
3.64589
4.43454
5.01688
5.33001
5.40132
5.29155
5.06313
4.76895
4.44382
4.10845
3.77471
3.44899
3.13479
2.8396
6.03042
5.92455
5.79803
5.64589
5.4619
5.2372
4.95968
4.62039
4.23412
3.78043
3.29216
2.82455
2.46059
2.29854
2.43521
2.94621
3.69694
4.45481
5.03322
5.35673
5.44633
5.35582
5.1448
4.86534
4.55223
4.22711
3.90205
3.5836
3.2753
2.98476
6.54463
6.41132
6.2642
6.09779
5.90529
5.67863
5.40386
5.081
4.6718
4.18398
3.65609
3.14578
2.73939
2.53752
2.6197
3.05677
3.73564
4.45437
5.02244
5.35658
5.46305
5.39547
5.20582
4.94463
4.6473
4.33575
4.02237
3.71397
3.41437
3.13053
7.06697
6.90797
6.74283
6.56652
6.37148
6.16046
5.90542
5.56279
5.12702
4.61034
4.04769
3.4979
3.04652
2.79642
2.81353
3.1664
3.76183
4.42793
4.97683
5.31864
5.44689
5.40365
5.24196
5.00473
4.728
4.43403
4.13579
3.84071
3.55236
3.27791
7.59577
7.4172
7.24493
7.07904
6.90371
6.68255
6.3994
6.03652
5.58282
5.04691
4.45738
3.87405
3.37739
3.07153
3.01424
3.272
3.77318
4.37072
4.89227
5.2388
5.39036
5.37593
5.24276
5.03727
4.78856
4.51878
4.24134
3.96394
3.6904
3.42866
8.13422
7.96184
7.79328
7.60809
7.39889
7.15196
6.84826
6.47057
6.00712
5.46082
4.85652
4.2518
3.71739
3.35364
3.2167
3.37172
3.77558
4.29633
4.78044
5.12724
5.30146
5.31752
5.21342
5.03319
4.81707
4.57932
4.3313
4.07953
3.82778
3.58481
8.62185
8.42509
8.22401
8.00992
7.77421
7.50544
7.18774
6.80383
6.34093
5.79981
5.20035
4.60913
4.0733
3.68078
3.49799
3.57692
3.89017
4.33334
4.7708
5.09999
5.28099
5.31831
5.23719
5.07577
4.86822
4.63468
4.40119
4.17887
3.95722
3.74284
8.93676
8.67335
8.43192
8.20377
7.97854
7.74284
7.4786
7.16398
6.77876
6.31297
5.77672
5.21513
4.6848
4.26834
4.03624
4.03546
4.25203
4.60311
4.97067
5.26052
5.42763
5.46868
5.39737
5.24398
5.039
4.80415
4.56083
4.32207
4.08789
3.88665
9.68841
9.40283
9.13397
8.89154
8.67484
8.4738
8.26947
8.03514
7.74308
7.3736
6.92265
6.42154
5.92386
5.50403
5.22981
5.14403
5.2489
5.48004
5.74058
5.94886
6.06021
6.06617
5.96977
5.79517
5.56856
5.31117
5.0413
4.77203
4.50836
4.27248
11.3422
11.0684
10.8417
10.6923
10.6066
10.5621
10.5294
10.4744
10.3646
10.174
9.87387
9.49992
9.09683
8.72808
8.44189
8.27338
8.23547
8.29223
8.37463
8.42437
8.40751
8.30697
8.12284
7.87152
7.5739
7.24667
6.89479
6.53478
6.18054
5.8637
18.3069
18.1353
18.236
18.5309
18.7798
18.9702
19.1047
19.1863
19.2046
19.1387
18.8914
18.6049
18.299
18.0204
17.763
17.5737
17.4113
17.3206
17.2613
17.2327
17.2106
17.1726
17.1092
17.0229
16.9166
16.7846
16.486
16.1082
15.711
15.3321
2.18741
3.07048
3.50632
3.79568
3.94875
4.0131
4.01805
3.99234
3.95081
3.90751
3.86797
3.85045
3.86539
3.93676
4.06589
4.25988
4.4707
4.64021
4.70904
4.64895
4.43384
4.05785
3.53649
2.91545
2.27095
1.66647
1.159
0.743946
0.134811
0.116204
2.25029
2.60599
2.75445
2.79845
2.74344
2.6301
2.48929
2.34553
2.21198
2.09764
2.00814
1.95078
1.93398
1.97167
2.07126
2.23383
2.43023
2.61336
2.74574
2.80613
2.76831
2.62233
2.36582
2.02605
1.64229
1.26231
0.922669
0.633919
0.41046
0.322051
2.05351
2.32592
2.43907
2.45994
2.39861
2.29112
2.16381
2.0379
1.92123
1.81454
1.73038
1.67815
1.66639
1.70917
1.81436
1.98486
2.1905
2.38566
2.53371
2.61779
2.61701
2.5162
2.31478
2.02464
1.68936
1.34532
1.02366
0.733994
0.513979
0.384553
1.69225
1.92839
2.04195
2.07021
2.03257
1.9589
1.87246
1.79156
1.72096
1.65877
1.61157
1.58718
1.59896
1.66426
1.79391
1.9894
2.21596
2.42632
2.58397
2.67475
2.68371
2.59427
2.41162
2.14402
1.82631
1.49133
1.16825
0.865809
0.622893
0.462111
1.2995
1.51901
1.62433
1.66929
1.65976
1.61822
1.56493
1.51858
1.48592
1.47099
1.47499
1.49977
1.55178
1.65561
1.82385
2.05554
2.30977
2.5377
2.70512
2.7989
2.80839
2.72088
2.54288
2.28428
1.97474
1.64341
1.3167
1.00393
0.739433
0.551552
1.00841
1.20753
1.31162
1.36257
1.36977
1.34806
1.3121
1.27741
1.25775
1.26801
1.30689
1.38108
1.48765
1.64379
1.86269
2.13856
2.42448
2.67181
2.84908
2.9446
2.95123
2.86089
2.68103
2.42523
2.11969
1.79042
1.46107
1.14038
0.858789
0.647946
0.836228
1.00469
1.10857
1.16383
1.17898
1.168
1.14267
1.11546
1.09671
1.10126
1.14316
1.24461
1.40315
1.62202
1.90057
2.22588
2.54567
2.81335
3.00038
3.09719
3.09955
3.0032
2.81857
2.56202
2.25797
1.93022
1.59858
1.27268
0.978523
0.749116
0.782519
0.919884
1.01151
1.07099
1.08906
1.0791
1.05391
1.02409
0.999208
0.992839
1.02183
1.11811
1.31154
1.59451
1.93685
2.31391
2.66806
2.95616
3.15262
3.2506
3.24809
3.14424
2.95308
2.69354
2.38917
2.06244
1.72924
1.39998
1.09737
0.853557
0.875332
0.99339
1.05689
1.09192
1.09209
1.06992
1.03637
0.995547
0.957015
0.934784
0.94694
1.02454
1.22778
1.56845
1.97374
2.40192
2.78956
3.09735
3.30266
3.40161
3.39399
3.28196
3.08342
2.81955
2.51377
2.18716
1.85329
1.52216
1.21432
0.960057
1.11149
1.22037
1.27143
1.27194
1.22948
1.16694
1.09561
1.02596
0.965186
0.920881
0.91169
0.970065
1.16561
1.54974
2.01389
2.49009
2.90918
3.23538
3.44858
3.54802
3.53507
3.41478
3.20859
2.93988
2.6327
2.30531
1.97114
1.63956
1.32902
1.06751
1.43357
1.52028
1.56896
1.55218
1.48234
1.37625
1.24711
1.12474
1.02225
0.947069
0.911103
0.950195
1.13317
1.54258
2.05975
2.57879
3.02627
3.36917
3.58887
3.68804
3.6695
3.54112
3.32759
3.05416
2.74493
2.41723
2.08343
1.75258
1.44172
1.17538
1.80862
1.87845
1.90421
1.86842
1.77804
1.6404
1.46929
1.292
1.13185
1.01225
0.943599
0.958722
1.12629
1.55533
2.11371
2.6684
3.14028
3.49757
3.72216
3.82003
3.79561
3.65957
3.43937
3.16179
2.85117
2.52361
2.19081
1.8618
1.55209
1.28352
2.14472
2.1987
2.22642
2.18611
2.08098
1.92184
1.72127
1.50204
1.2892
1.11463
1.00727
0.995658
1.15228
1.59113
2.17675
2.75906
3.25068
3.61937
3.84721
3.94254
3.91196
3.76886
3.54281
3.26318
2.95164
2.62479
2.29368
1.9677
1.66041
1.3915
2.45349
2.48986
2.50825
2.47211
2.3682
2.19891
1.97979
1.73063
1.47751
1.25082
1.09931
1.0585
1.2042
1.64591
2.24867
2.85085
3.35712
3.7337
3.96288
4.05444
4.01748
3.86783
3.63726
3.35712
3.04605
2.72063
2.39284
2.07087
1.76705
1.49923
2.74573
2.76441
2.77121
2.73225
2.63554
2.46376
2.23525
1.96597
1.68177
1.4142
1.21697
1.14595
1.27887
1.71859
2.32937
2.94414
3.45972
3.84026
4.06845
4.15507
4.11142
3.9556
3.72263
3.44301
3.13371
2.81221
2.48867
2.17174
1.87236
1.60673
3.03478
3.03797
3.03369
2.98911
2.89197
2.72401
2.48984
2.2063
1.89756
1.59814
1.35911
1.25791
1.37428
1.80847
2.41939
3.03997
3.55946
3.9397
4.16417
4.24444
4.1935
4.03262
3.7984
3.52057
3.216
2.89953
2.58151
2.27056
1.97644
1.71423
3.33239
3.32377
3.31024
3.25912
3.1586
2.99202
2.75276
2.45723
2.12757
1.79932
1.52596
1.39503
1.49115
1.91623
2.52063
3.14084
3.65882
4.03424
4.2517
4.32415
4.26391
4.09951
3.86748
3.59239
3.29295
2.98301
2.67183
2.36766
2.07952
1.82229
3.64661
3.63114
3.61077
3.55375
3.44881
3.27925
3.03646
2.72961
2.38004
2.0245
1.72182
1.56075
1.63324
2.04527
2.63768
3.25189
3.76285
4.12871
4.33512
4.39674
4.33139
4.16498
3.93123
3.65922
3.36599
3.06372
2.76045
2.4639
2.18254
1.93178
3.98608
3.9655
3.9408
3.8807
3.7728
3.60056
3.35564
3.03847
2.66929
2.2869
1.95663
1.76362
1.80894
2.20379
2.77999
3.38308
3.88145
4.23216
4.42505
4.47936
4.40538
4.23268
3.99459
3.72551
3.43843
3.14416
2.84941
2.5611
2.28735
2.04421
4.35872
4.33455
4.30632
4.24435
4.13604
3.96594
3.72468
3.40273
3.01766
2.60907
2.24788
2.02247
2.03638
2.40963
2.9662
3.55359
4.03289
4.36618
4.54239
4.58306
4.49693
4.31505
4.07084
3.80165
3.51759
3.22984
2.94324
2.66323
2.39762
2.16223
4.77555
4.74989
4.71905
4.6561
4.55161
4.39399
4.16431
3.84706
3.45478
3.02522
2.63399
2.37667
2.35296
2.69857
3.23313
3.80051
4.25731
4.56429
4.71724
4.73752
4.63224
4.4362
4.17824
3.90528
3.6209
3.3348
3.05285
2.7794
2.52107
2.29111
5.2576
5.23472
5.2049
5.14565
5.05333
4.92318
4.72063
4.42471
4.04086
3.60245
3.18752
2.89862
2.83683
3.14396
3.65641
4.20027
4.62408
4.8953
5.01536
5.00249
4.8655
4.6415
4.35784
4.06791
3.77117
3.47747
3.19259
2.91956
2.66319
2.43714
5.85426
5.8428
5.82276
5.78156
5.72773
5.639
5.48687
5.24233
4.89961
4.48163
4.06341
3.75208
3.65579
3.91106
4.40321
4.91603
5.2895
5.51163
5.57801
5.50904
5.31698
5.03858
4.70658
4.37117
4.03464
3.70864
3.3995
3.11201
2.8465
2.6176
6.68126
6.69654
6.70646
6.71995
6.73315
6.72044
6.66211
6.52939
6.29787
5.96983
5.60399
5.30377
5.18778
5.40052
5.87411
6.33546
6.63507
6.77405
6.7409
6.55631
6.25011
5.8566
5.419
4.98068
4.55199
4.14792
3.7754
3.43687
3.13357
2.88456
7.99882
8.0699
8.1697
8.29097
8.41783
8.55829
8.70186
8.81226
8.8346
8.74465
8.56318
8.36776
8.28564
8.47996
8.93008
9.30544
9.45067
9.40783
9.16317
8.75703
8.223
7.59739
6.92272
6.25858
5.62924
5.0535
4.53776
4.08092
3.68399
3.37467
10.4058
10.6141
10.8801
11.1873
11.5649
12.0378
12.605
13.2108
13.7614
14.1834
14.4374
14.5496
14.6556
14.9056
15.3113
15.515
15.4015
15.0096
14.3407
13.4546
12.4189
11.2902
10.1246
9.00311
7.96462
7.0331
6.21252
5.49948
4.89192
4.43571
15.3137
15.7899
16.3505
17.0322
17.8972
18.9959
20.3225
21.7688
23.1705
24.4143
25.3923
26.1341
26.7486
27.2936
27.7198
27.7089
27.1956
26.2407
24.8668
23.165
21.2387
19.1994
17.1385
15.1594
13.3251
11.6793
10.2353
8.9852
7.91601
7.11552
25.5846
26.3538
27.2568
28.4703
30.096
32.1372
34.496
36.9338
39.212
41.2382
42.8932
44.3599
45.7348
46.8994
47.4976
47.4115
46.675
45.2965
43.2935
40.7772
37.872
34.7417
31.5297
28.3853
25.3987
22.649
20.1667
17.9315
15.9424
14.4372
40.5593
40.8954
42.3261
44.5747
47.1356
49.9617
52.8352
55.2491
57.2566
58.9385
60.2842
61.7876
63.4652
65.0453
65.8555
65.9279
65.56
64.562
62.9621
60.8096
58.1568
55.1428
51.9056
48.6418
45.4563
42.4083
39.4596
36.4746
33.6202
31.3037
45.159
45.3166
46.841
49.1024
51.4475
53.4092
54.8544
55.8601
56.5644
57.1043
57.5796
58.2804
59.1587
60.1668
60.7124
60.5969
60.5202
60.0549
59.2783
58.1983
56.8985
55.424
53.9167
52.5145
51.3208
50.2804
49.1934
47.984
46.6553
44.9998
4.31827
5.81506
6.70109
7.24811
7.52234
7.59975
7.54843
7.4247
7.2661
7.10613
6.96228
6.8689
6.837
6.9002
7.03482
7.22465
7.37429
7.43644
7.42491
7.35219
7.11084
6.57437
5.70214
4.57562
3.36968
2.25058
1.35999
0.703933
0.130985
0.504134
3.08431
3.64302
4.03505
4.2597
4.33485
4.29591
4.18055
4.02505
3.85672
3.69652
3.55929
3.45816
3.40524
3.4118
3.48201
3.60191
3.73565
3.84941
3.97049
4.10415
4.16668
4.04312
3.68341
3.1305
2.4718
1.79543
1.18863
0.693354
0.381313
0.333122
2.77066
3.23044
3.55635
3.74731
3.81427
3.78395
3.68356
3.54321
3.38849
3.24013
3.11278
3.01908
2.96816
2.97035
3.02875
3.13626
3.26147
3.37643
3.50545
3.65907
3.76916
3.73116
3.49156
3.05976
2.50362
1.90994
1.34624
0.8525
0.507624
0.358707
2.51627
2.94661
3.27529
3.47992
3.56626
3.56086
3.48778
3.37419
3.24409
3.11771
3.01078
2.93683
2.90448
2.9226
2.99385
3.11142
3.24171
3.36268
3.49473
3.64375
3.75184
3.73099
3.52668
3.14755
2.64756
2.0898
1.53764
1.02883
0.641112
0.427069
2.21849
2.62945
2.97692
3.2047
3.31648
3.33788
3.29509
3.21399
3.11731
3.02317
2.94863
2.90744
2.90822
2.95868
3.05853
3.19906
3.34393
3.47766
3.61535
3.75785
3.85216
3.82859
3.63719
3.28144
2.80869
2.27204
1.72604
1.20438
0.780625
0.5157
1.84175
2.20733
2.56091
2.81392
2.95804
3.01566
3.01593
2.98283
2.93522
2.88587
2.85734
2.86382
2.91205
3.00933
3.15016
3.32275
3.48917
3.64126
3.78853
3.92494
4.00202
3.96377
3.76987
3.42392
2.96698
2.4447
1.90388
1.37366
0.922704
0.617333
1.46089
1.77916
2.10706
2.35931
2.51962
2.60405
2.64603
2.66172
2.66819
2.68207
2.71853
2.78789
2.89854
3.05611
3.2479
3.45935
3.65312
3.82784
3.98751
4.11877
4.17756
4.11855
3.9128
3.5674
3.11884
2.60664
2.07051
1.53594
1.06563
0.728371
1.17595
1.42631
1.70808
1.94564
2.11116
2.21316
2.27682
2.31982
2.35918
2.42605
2.52962
2.67897
2.86684
3.09595
3.3459
3.60117
3.82715
4.02762
4.20109
4.32752
4.36745
4.28395
4.06057
3.70932
3.26347
2.75864
2.22704
1.69108
1.20878
0.846085
1.00426
1.18932
1.41109
1.61376
1.7677
1.8753
1.9526
2.01559
2.07867
2.16972
2.31915
2.54631
2.82365
3.1316
3.44378
3.74615
4.00838
4.23653
4.42385
4.54466
4.56467
4.45417
4.20961
3.84819
3.40173
2.90185
2.37469
1.83985
1.35087
0.969867
0.936339
1.07491
1.24063
1.39886
1.52677
1.62248
1.69699
1.76461
1.84217
1.95008
2.12356
2.4083
2.78014
3.16789
3.54333
3.89476
4.19623
4.45288
4.65269
4.76582
4.7637
4.6246
4.35688
3.98344
3.534
3.03734
2.51481
1.98333
1.49187
1.09811
0.950887
1.059
1.18854
1.30781
1.40311
1.47269
1.52781
1.58438
1.65947
1.77615
1.96645
2.28787
2.74534
3.20952
3.64713
4.04861
4.39097
4.67589
4.88468
4.98714
4.9598
4.79116
4.49942
4.11292
3.66008
3.16594
2.64849
2.12255
1.6321
1.23008
1.05465
1.14554
1.24844
1.33231
1.38781
1.42528
1.44846
1.48081
1.54045
1.65265
1.85235
2.20136
2.72309
3.26078
3.75822
4.21003
4.5935
4.90437
5.11684
5.20478
5.14912
4.95043
4.63462
4.23622
3.77994
3.2884
2.77688
2.25844
1.77189
1.36539
1.22801
1.31393
1.40508
1.46356
1.48101
1.47326
1.45494
1.45271
1.48615
1.58313
1.78836
2.15559
2.71712
3.32609
3.88018
4.38196
4.80514
5.13704
5.34664
5.41552
5.32881
5.09987
4.76148
4.35245
3.89366
3.40545
2.90096
2.39176
1.91155
1.50383
1.48287
1.56425
1.64174
1.67565
1.65808
1.60575
1.54028
1.49564
1.49059
1.5647
1.76579
2.14254
2.74365
3.4112
4.01744
4.56818
5.02777
5.37326
5.57284
5.61763
5.49749
5.2379
4.88066
4.46166
4.00167
3.51793
3.02168
2.5231
2.05138
1.6454
1.83441
1.8846
1.93851
1.94741
1.90183
1.80794
1.69422
1.60376
1.55905
1.60294
1.79136
2.17712
2.81225
3.52172
4.17569
4.7739
5.26445
5.61415
5.79614
5.81158
5.65606
5.36627
4.99215
4.56467
4.10502
3.62706
3.14009
2.65319
2.19165
1.79025
2.26205
2.26857
2.28822
2.26813
2.19725
2.06863
1.9088
1.77261
1.68746
1.6955
1.87326
2.26724
2.91849
3.6638
4.36298
5.00672
5.52076
5.86446
6.02179
6.00141
5.80879
5.49001
5.09814
4.66384
4.20581
3.73476
3.25767
2.78296
2.33275
1.93929
2.75098
2.71978
2.70033
2.64633
2.54424
2.3843
2.18168
2.00213
1.87572
1.84618
2.00643
2.40596
3.06951
3.84784
4.59168
5.27868
5.80711
6.1342
6.26031
6.19784
5.96604
5.61815
5.20703
4.76549
4.30899
3.8447
3.37703
2.91409
2.47583
2.09305
3.30602
3.24114
3.18336
3.09136
2.95362
2.76031
2.51903
2.2978
2.12815
2.06162
2.2001
2.6043
3.27943
4.09172
4.88185
5.60976
6.14256
6.44383
6.5318
6.42089
6.14656
5.76688
5.33688
4.88343
4.42509
3.96406
3.50393
3.05108
2.62408
2.25374
3.93811
3.84076
3.74443
3.61393
3.4391
3.21039
2.93671
2.672
2.45976
2.35883
2.47586
2.88432
3.57483
4.42639
5.26729
6.03438
6.56136
6.83028
6.87208
6.70528
6.38187
5.96609
5.5101
5.04356
4.57622
4.11153
3.65248
3.20511
2.78628
2.42737
4.64581
4.52689
4.39582
4.22995
4.0206
3.75937
3.45702
3.15321
2.90425
2.77415
2.87488
3.29084
4.00576
4.90692
5.80716
6.61354
7.12634
7.35797
7.34369
7.11158
6.72873
6.26718
5.77416
5.28009
4.79504
4.31845
3.85235
3.40021
2.98211
2.62461
5.46229
5.32179
5.16382
4.96895
4.73275
4.4487
4.1265
3.79881
3.52629
3.37814
3.47539
3.91232
4.66798
5.63433
6.60933
7.45788
7.95171
8.14245
8.05874
7.74986
7.29278
6.77362
6.22488
5.67731
5.14517
4.63078
4.13488
3.65996
3.22603
2.86018
6.44313
6.28239
6.1027
5.88886
5.64142
5.35588
5.03852
4.71618
4.44841
4.30702
4.42896
4.91654
5.7433
6.80032
7.878
8.77294
9.25113
9.39578
9.22882
8.83276
8.28016
7.64833
6.98567
6.33076
5.70395
5.11037
4.55023
4.02563
3.55231
3.16334
7.685
7.5074
7.31573
7.1025
6.87392
6.62747
6.36586
6.10751
5.90366
5.82544
6.03037
6.62127
7.57472
8.77752
10.0099
10.9549
11.4289
11.5238
11.2496
10.6881
9.9468
9.10915
8.24125
7.39516
6.60051
5.86593
5.19026
4.5716
4.02495
3.59006
9.36676
9.18844
9.00889
8.8358
8.68143
8.54822
8.43756
8.35542
8.33182
8.44142
8.84101
9.62819
10.7864
12.2031
13.6764
14.7019
15.1458
15.1252
14.6383
13.7965
12.7365
11.5566
10.344
9.17292
8.0877
7.10523
6.22578
5.44509
4.77041
4.25315
11.8488
11.7156
11.6027
11.5439
11.5609
11.6739
11.8826
12.1725
12.5489
13.0631
13.8423
14.9734
16.4462
18.1521
19.9124
21.0048
21.3705
21.133
20.3058
19.0233
17.4568
15.7318
13.9612
12.2562
10.6848
9.28059
8.04747
6.97739
6.07085
5.40084
15.8776
15.881
15.9571
16.1411
16.5111
17.0807
17.861
18.8026
19.8648
21.0594
22.4516
24.1078
26.0232
28.0735
30.0992
31.1798
31.3859
30.8119
29.5085
27.621
25.3446
22.8429
20.2613
17.7529
15.4241
13.3439
11.5233
9.95294
8.62858
7.67544
22.868
23.1379
23.6013
24.2923
25.2457
26.5146
28.1169
29.926
31.8434
33.8462
35.9562
38.2269
40.6523
43.0402
45.1632
46.0442
45.9871
45.0017
43.2001
40.7006
37.6859
34.3612
30.8894
27.4326
24.1441
21.1563
18.4972
16.156
14.1327
12.6694
34.6465
35.0576
35.9916
37.4382
39.2853
41.4412
43.7867
46.2024
48.593
50.9889
53.449
56.0643
58.8033
61.2757
63.0628
63.3196
62.8004
61.4302
59.4078
56.7535
53.5805
50.0615
46.3468
42.5645
38.8219
35.2548
31.9186
28.8071
25.9398
23.7024
48.4012
48.6912
50.1408
52.3098
54.7516
57.2078
59.5123
61.5383
63.3575
65.1709
67.1344
69.3745
71.7516
73.6239
74.3434
73.2579
71.9583
70.1698
68.2359
66.0903
63.7991
61.4191
59.0798
56.9133
54.8878
52.735
50.3868
47.8493
45.1445
42.4502
49.5535
50.4658
52.4427
54.9643
57.4772
59.5902
61.1733
62.3091
63.1958
64.0958
65.1855
66.5294
67.8941
68.7086
68.2175
66.1008
64.2208
62.0917
60.1429
58.3304
56.775
55.4549
54.4444
53.8046
53.5232
53.4697
53.3651
52.9987
52.2501
50.9604
6.97841
9.16692
10.3491
11.1331
11.5499
11.678
11.6077
11.4192
11.167
10.9003
10.6396
10.425
10.2503
10.1521
10.0903
10.0698
9.98924
9.90982
10.0661
10.4787
10.6911
10.2487
9.00941
7.18085
5.14131
3.23898
1.75891
0.715375
0.135372
0.504971
4.4076
5.09399
5.54268
5.85601
6.01158
6.02595
5.93489
5.77967
5.59493
5.40463
5.22584
5.06694
4.94161
4.85357
4.81731
4.81396
4.8206
4.86983
5.13502
5.61835
6.03526
6.05756
5.58797
4.73621
3.69419
2.59851
1.59762
0.792544
0.316259
0.298453
3.96199
4.46129
4.82233
5.07356
5.20684
5.23136
5.16736
5.04285
4.88644
4.71867
4.55376
4.40061
4.27127
4.1747
4.12583
4.11555
4.12423
4.17998
4.43024
4.88176
5.30733
5.42466
5.14172
4.52228
3.65776
2.71161
1.80173
1.01101
0.475124
0.303453
3.64194
4.05193
4.43081
4.71652
4.89357
4.96242
4.94299
4.85825
4.73516
4.59307
4.44566
4.30627
4.18626
4.09756
4.05492
4.05269
4.07108
4.14689
4.40126
4.82301
5.20802
5.33652
5.10099
4.55198
3.78973
2.9161
2.03578
1.23363
0.630495
0.356027
3.30542
3.62863
4.03917
4.39085
4.63335
4.75762
4.78636
4.74518
4.66095
4.55288
4.43771
4.32172
4.22683
4.16157
4.14063
4.1595
4.19968
4.31041
4.58257
4.98145
5.3207
5.42724
5.20506
4.68134
3.96267
3.12778
2.2641
1.44797
0.791584
0.43683
2.90994
3.17294
3.61006
4.0235
4.32984
4.51221
4.59024
4.59499
4.55536
4.4909
4.41748
4.34253
4.28958
4.26253
4.27711
4.32905
4.40299
4.562
4.86477
5.2473
5.53906
5.60488
5.36716
4.84871
4.14689
3.33349
2.48089
1.65231
0.956936
0.538017
2.46736
2.66383
3.11386
3.57753
3.94397
4.1863
4.31587
4.37067
4.38471
4.37493
4.35834
4.34193
4.34463
4.37042
4.43309
4.52885
4.64939
4.86889
5.20951
5.57915
5.8216
5.83499
5.56212
5.03362
4.33423
3.53143
2.68581
1.8477
1.12415
0.655094
2.0172
2.16653
2.59197
3.06351
3.45809
3.74572
3.93404
4.05296
4.13705
4.19644
4.25301
4.31043
4.38488
4.47775
4.59856
4.74881
4.92974
5.21981
5.60059
5.95633
6.1471
6.09745
5.77695
5.22665
4.52097
3.72171
2.87958
2.03515
1.29239
0.785569
1.67471
1.76239
2.12539
2.56658
2.96218
3.27081
3.49548
3.66195
3.81126
3.9561
4.10558
4.25371
4.41361
4.5845
4.77192
4.98718
5.2433
5.61057
6.02763
6.36548
6.49959
6.37853
6.00208
5.42162
4.7046
3.90488
3.06441
2.21697
1.4622
0.926937
1.43074
1.46289
1.74896
2.13408
2.50407
2.81416
3.06211
3.26751
3.46493
3.6777
3.92747
4.18193
4.43819
4.69497
4.95611
5.24706
5.59244
6.03869
6.48826
6.79596
6.86544
6.66663
6.22922
5.61421
4.88337
4.08122
3.24227
2.3954
1.63452
1.07776
1.27531
1.26863
1.48219
1.79748
2.12478
2.41803
2.67031
2.90115
3.1389
3.40811
3.7375
4.11041
4.4679
4.81538
5.15643
5.53416
5.98086
6.50608
6.97321
7.2371
7.23191
6.95134
6.45096
5.80216
5.05639
4.25125
3.41507
2.57237
1.8101
1.23721
1.2092
1.17673
1.33046
1.57503
1.84371
2.10406
2.3489
2.58963
2.85623
3.17262
3.56629
4.05475
4.51201
4.95309
5.38011
5.85596
6.41209
7.00816
7.47249
7.67876
7.5872
7.2242
6.66351
5.98299
5.22324
4.41607
3.5846
2.74938
1.98956
1.40497
1.23597
1.1786
1.28371
1.47697
1.68405
1.89767
2.11517
2.35259
2.63341
2.9855
3.44443
4.01754
4.57908
5.11685
5.63649
6.22162
6.88939
7.53903
7.97539
8.11017
7.92467
7.48013
6.86606
6.15608
5.38477
4.5775
3.75227
2.92712
2.17312
1.58063
1.35105
1.29016
1.35437
1.48013
1.63648
1.80683
1.98224
2.19874
2.48055
2.86314
3.37225
4.00533
4.67974
5.31764
5.93762
6.64224
7.41577
8.09223
8.47993
8.52586
8.24239
7.71937
7.05949
6.32353
5.54403
4.73783
3.91963
3.10605
2.3607
1.76417
1.58347
1.51114
1.53721
1.61346
1.70906
1.81073
1.94332
2.13385
2.40546
2.80132
3.344
4.04759
4.82856
5.56986
6.29934
7.13142
7.99455
8.66242
8.98094
8.92581
8.54534
7.95005
7.24752
6.49103
5.70555
4.90073
4.08941
3.28752
2.55301
1.95582
1.943
1.84449
1.82852
1.85349
1.89076
1.93379
2.00732
2.14272
2.39096
2.79212
3.38149
4.16858
5.04239
5.89283
6.74308
7.70649
8.63179
9.26294
9.48879
9.32271
8.84848
8.18923
7.44676
6.66841
5.8776
5.0735
4.26777
3.47694
2.75186
2.15649
2.43268
2.29219
2.22792
2.19756
2.17615
2.15986
2.1723
2.25799
2.48297
2.89256
3.52694
4.37003
5.34253
6.31379
7.29875
8.39161
9.34081
9.90516
10.0262
9.74577
9.18292
8.46409
7.68378
6.88906
6.0847
5.27861
4.47247
3.68269
2.96117
2.36846
3.05549
2.8613
2.73922
2.64697
2.56475
2.48928
2.44325
2.47468
2.66962
3.09098
3.77013
4.6798
5.7623
6.87296
8.00965
9.22349
10.1606
10.6315
10.6393
10.2464
9.59836
8.81836
8.00715
7.20887
6.38665
5.546
4.71636
3.91331
3.18677
2.59496
3.8143
3.55665
3.36827
3.21005
3.0655
2.93113
2.83077
2.80921
2.97579
3.40802
4.14425
5.1414
6.35409
7.63144
8.94058
10.2605
11.1482
11.5161
11.4065
10.9105
10.1774
9.34806
8.51956
7.66693
6.79035
5.89973
5.01741
4.18176
3.43777
2.84001
4.71667
4.39002
4.13118
3.90614
3.70132
3.51232
3.36308
3.29818
3.44364
3.89993
4.70804
5.82606
7.20227
8.68457
10.1918
11.5985
12.4105
12.6768
12.4671
11.8869
11.0821
10.1889
9.26195
8.29927
7.32356
6.34652
5.39889
4.50764
3.72973
3.1162
5.78582
5.3884
5.06035
4.77396
4.51816
4.28727
4.10332
4.01193
4.15634
4.66182
5.57726
6.85471
8.44498
10.1846
11.9235
13.3965
14.1295
14.3174
14.0659
13.4074
12.4588
11.4258
10.297
9.14912
8.01929
6.91823
5.87366
4.91564
4.09002
3.44532
7.07173
6.60846
6.22041
5.88816
5.60336
5.35838
5.17045
5.08521
5.26983
5.8693
6.94588
8.44815
10.3206
12.3776
14.3968
15.9249
16.6194
16.8065
16.4894
15.6199
14.4933
13.1732
11.7513
10.333
8.97519
7.69719
6.50984
5.44883
4.55199
3.8644
8.68108
8.16408
7.73813
7.39196
7.12013
6.91313
6.78025
6.76641
7.06799
7.83728
9.15366
10.9666
13.206
15.6551
18.0372
19.6451
20.3567
20.4603
19.956
18.8139
17.3778
15.6649
13.8406
12.0446
10.3619
8.82331
7.43546
6.21609
5.20404
4.45292
10.8195
10.2805
9.85982
9.55748
9.36904
9.28743
9.31093
9.49988
10.0422
11.0978
12.7604
14.9828
17.6786
20.5849
23.4095
25.0558
25.7018
25.6371
24.8573
23.3939
21.4901
19.263
16.9101
14.6135
12.482
10.5701
8.8833
7.427
6.23251
5.38329
13.8668
13.4019
13.0549
12.8876
12.8844
13.0686
13.4221
13.993
14.9554
16.4508
18.5722
21.2934
24.5024
27.8684
31.1359
32.6624
33.1158
32.7545
31.6093
29.7199
27.2974
24.4766
21.4868
18.581
15.8715
13.451
11.3334
9.51687
8.03178
7.0146
18.5358
18.2497
18.1457
18.2417
18.5868
19.2032
20.067
21.2079
22.7604
24.8268
27.47
30.7129
34.4116
38.119
41.6489
42.7048
42.7168
41.805
40.2217
37.9718
35.1207
31.8031
28.2283
24.7345
21.4055
18.3867
15.7096
13.3822
11.4464
10.1449
25.8684
25.8172
26.086
26.6925
27.6062
28.7854
30.2334
31.9759
34.1047
36.6946
39.7603
43.4012
47.4086
51.1567
54.4001
54.0454
52.8711
51.0576
49.0046
46.5507
43.7476
40.6544
37.3466
33.7606
30.124
26.7207
23.5447
20.6528
18.127
16.3724
36.2949
36.4319
37.1669
38.3481
39.8245
41.5133
43.3893
45.4689
47.8359
50.6141
53.7276
57.4338
61.346
64.4206
66.1863
63.5449
60.9857
58.2096
55.7698
53.3438
50.9304
48.5407
46.2
43.9283
41.6259
38.9281
36.0395
33.094
30.214
27.8947
46.0774
46.6759
48.0468
49.8342
51.7304
53.5722
55.3363
57.0966
59.012
61.3206
64.075
67.2546
70.356
72.117
71.7669
66.8409
62.9918
59.3865
56.6118
54.3675
52.6009
51.2618
50.3376
49.8049
49.4764
49.1076
48.3954
47.1814
45.4086
43.1427
45.3181
46.8135
48.9633
51.3709
53.6654
55.6059
57.1764
58.5383
59.9385
61.6497
63.7513
66.0708
68.0596
68.4417
66.021
59.6572
55.1315
51.1433
48.1852
45.9391
44.5662
43.8776
43.8186
44.378
45.3906
46.6111
47.666
48.2599
48.1999
47.4924
10.2805
13.1759
14.4993
15.3628
15.8482
15.9881
15.8741
15.6037
15.2413
14.8412
14.4096
13.9802
13.5273
13.1124
12.713
12.3764
12.0245
11.9808
12.9723
14.8928
16.3454
16.2437
14.4406
11.5235
8.22088
5.10465
2.62146
0.846227
0.119003
0.114477
6.16997
6.92509
7.30293
7.57079
7.72624
7.74881
7.65707
7.49027
7.28365
7.05569
6.82105
6.57568
6.34021
6.10813
5.92298
5.75177
5.62594
5.69571
6.41732
7.72325
8.83522
9.08247
8.41418
7.13507
5.58701
3.95474
2.38653
1.05299
0.25754
0.237081
5.68038
6.09634
6.34985
6.53
6.62766
6.64323
6.58059
6.45657
6.29146
6.09578
5.88066
5.64724
5.41804
5.20292
5.03624
4.89741
4.79955
4.89367
5.54658
6.66178
7.66214
7.97946
7.5634
6.64799