/*--------------------------------*- C++ -*----------------------------------*\
  =========                 |
  \\      /  F ield         | OpenFOAM: The Open Source CFD Toolbox
   \\    /   O peration     | Website:  https://openfoam.org
    \\  /    A nd           | Version:  12
     \\/     M anipulation  |
\*---------------------------------------------------------------------------*/
FoamFile
{
    format      ascii;
    class       volScalarField;
    location    "1100/air";
    object      k;
}
// * * * * * * * * * * * * * * * * * * * * * * * * * * * * * * * * * * * * * //

dimensions      [0 2 -2 0 0 0 0];

internalField   nonuniform List<scalar> 
243000
(
0.0272483
0.0237854
0.0251118
0.0258556
0.0272101
0.0293822
0.0310368
0.0328742
0.0337969
0.034492
0.0351466
0.0359173
0.0368851
0.0381839
0.039806
0.040456
0.0406937
0.0396159
0.0397368
0.0400549
0.0400844
0.039555
0.0383747
0.0365587
0.0342526
0.0315587
0.0286888
0.0253284
0.0221856
0.0201403
0.0394281
0.0383456
0.0362483
0.0350764
0.0344172
0.0341935
0.0344659
0.0349752
0.0355563
0.0363178
0.0372707
0.0385397
0.0402016
0.0424266
0.0452705
0.0487894
0.0526273
0.0564298
0.0596237
0.0617166
0.0624328
0.0618409
0.060061
0.057228
0.0535708
0.0492885
0.0446316
0.0393438
0.0338012
0.0274271
0.0471784
0.048045
0.0470956
0.0461534
0.0450693
0.0437859
0.0422497
0.0409496
0.0401466
0.0403239
0.0412338
0.0429897
0.0456654
0.0494394
0.0543972
0.0606021
0.067368
0.0739683
0.0792241
0.0824372
0.0834389
0.0824971
0.0799463
0.0760349
0.0710527
0.0652431
0.0588643
0.0517275
0.044346
0.0363344
0.0546852
0.0561959
0.0560168
0.0554333
0.0543815
0.0528727
0.0508849
0.0483218
0.046001
0.044272
0.0437819
0.0451412
0.0484044
0.0536708
0.0608641
0.069862
0.07943
0.0883886
0.0952472
0.099264
0.100417
0.0991393
0.0959587
0.0912309
0.0852899
0.0784115
0.0708435
0.0624791
0.0537001
0.0448024
0.0627738
0.0645901
0.0649261
0.0646127
0.0636264
0.0619889
0.0596985
0.0567581
0.0532057
0.0499602
0.047576
0.0470051
0.0498262
0.0562087
0.0657877
0.0778765
0.0904401
0.101709
0.110029
0.114711
0.115908
0.114239
0.110411
0.10492
0.0981554
0.0904051
0.0819019
0.0726022
0.0627493
0.053069
0.0713928
0.0735125
0.0742389
0.074087
0.0730824
0.0712679
0.0686606
0.0652953
0.0610738
0.0566321
0.0526972
0.0501954
0.0510609
0.0576752
0.0694752
0.0848261
0.100504
0.114028
0.123683
0.128915
0.130084
0.127996
0.123535
0.117335
0.10985
0.101384
0.0921524
0.0821595
0.0715406
0.061139
0.0804902
0.0829278
0.083951
0.0838859
0.0827921
0.0807393
0.0777689
0.0739382
0.0692952
0.0638543
0.0586313
0.0545119
0.0532387
0.0588032
0.0723202
0.0909119
0.109726
0.125436
0.136302
0.141985
0.143077
0.140569
0.135505
0.128652
0.12053
0.111468
0.101676
0.0911771
0.0800347
0.0691123
0.090064
0.0927842
0.0940056
0.0939542
0.0927139
0.0903681
0.0869834
0.0826403
0.0774291
0.0712683
0.0650192
0.0595315
0.0565486
0.0601645
0.0747312
0.0963425
0.118196
0.136001
0.147955
0.154006
0.154995
0.152083
0.146459
0.139012
0.130328
0.120767
0.110541
0.0996724
0.0881898
0.0769288
0.100121
0.103041
0.10436
0.104249
0.102808
0.100123
0.09628
0.0913798
0.0855428
0.0788441
0.071641
0.0649786
0.0605855
0.0622207
0.0770969
0.101325
0.126005
0.145764
0.158693
0.165051
0.165928
0.162638
0.156509
0.148533
0.139357
0.129374
0.118807
0.107671
0.0959806
0.0845161
0.11064
0.113628
0.114949
0.114721
0.113041
0.109989
0.105657
0.100167
0.0936616
0.0863121
0.0782778
0.0706305
0.0650896
0.0653356
0.0797683
0.106055
0.133231
0.154757
0.168556
0.17518
0.175948
0.172322
0.165749
0.15731
0.147708
0.13737
0.126532
0.115202
0.103401
0.0918291
0.121569
0.124476
0.125688
0.125289
0.123353
0.119932
0.11511
0.109019
0.101818
0.0937239
0.0849138
0.076411
0.0699335
0.069194
0.0828967
0.11067
0.139931
0.162998
0.177572
0.184433
0.185114
0.181201
0.174251
0.165419
0.155457
0.144822
0.133764
0.122301
0.11046
0.0988518
0.13286
0.135542
0.136533
0.135906
0.133693
0.129912
0.124624
0.117951
0.11006
0.1012
0.0916247
0.0823294
0.0750715
0.0736095
0.0865362
0.115254
0.146147
0.170489
0.185763
0.192842
0.193466
0.189325
0.182071
0.172918
0.162662
0.151786
0.140552
0.129004
0.117181
0.105588
0.144441
0.146749
0.147436
0.146541
0.144038
0.13991
0.134187
0.126969
0.11842
0.108809
0.0984912
0.0884358
0.0804965
0.0784744
0.0906851
0.119848
0.151893
0.177239
0.193129
0.20042
0.20103
0.196729
0.189249
0.179851
0.16937
0.158308
0.146944
0.135352
0.123587
0.112047
0.156331
0.158139
0.158416
0.157194
0.15439
0.149928
0.143802
0.136081
0.126918
0.116592
0.105571
0.0947887
0.0862324
0.0837325
0.0953078
0.12445
0.157164
0.183248
0.199665
0.207174
0.207821
0.203436
0.19581
0.186247
0.175613
0.164424
0.15298
0.141389
0.129697
0.118243
0.168602
0.169791
0.169567
0.167939
0.164793
0.159996
0.153492
0.145307
0.135571
0.124577
0.112902
0.101432
0.0922999
0.0893454
0.100345
0.129038
0.161945
0.188508
0.205363
0.213101
0.213843
0.209455
0.201769
0.192125
0.181411
0.170165
0.158696
0.147139
0.135543
0.124197
0.181365
0.18181
0.181002
0.178885
0.175335
0.170187
0.163315
0.154689
0.14441
0.132787
0.120508
0.108392
0.0987062
0.095276
0.105723
0.133569
0.166218
0.193002
0.210209
0.218193
0.219091
0.214788
0.207127
0.197492
0.186783
0.17555
0.164117
0.152627
0.141153
0.129948
0.194745
0.194327
0.192852
0.190172
0.186157
0.180625
0.173376
0.164314
0.153505
0.141279
0.128435
0.115698
0.105449
0.101495
0.111365
0.138002
0.169966
0.196717
0.214181
0.22244
0.223549
0.219421
0.211892
0.202353
0.191736
0.180597
0.169266
0.15789
0.146567
0.135532
0.208426
0.207439
0.205322
0.201996
0.197465
0.191518
0.183873
0.174356
0.162997
0.150203
0.136799
0.123408
0.112544
0.108031
0.117226
0.142307
0.173177
0.19963
0.217258
0.225818
0.227215
0.223365
0.216054
0.206716
0.196279
0.185318
0.17415
0.162942
0.151803
0.14097
0.222326
0.220727
0.218162
0.214511
0.209626
0.203278
0.195208
0.185175
0.173205
0.160047
0.145875
0.131674
0.120089
0.115231
0.123352
0.146487
0.175852
0.201702
0.219402
0.228332
0.230098
0.226608
0.219621
0.210577
0.200413
0.189705
0.17877
0.167792
0.156878
0.146281
0.236374
0.234116
0.231076
0.227112
0.222039
0.215589
0.207423
0.197202
0.18492
0.171301
0.15609
0.140848
0.128448
0.123093
0.129752
0.150562
0.178019
0.203027
0.220668
0.229971
0.232179
0.229145
0.222586
0.213934
0.204133
0.193751
0.183124
0.17244
0.161805
0.15148
0.250481
0.24754
0.244005
0.239723
0.234497
0.228036
0.219932
0.209817
0.197997
0.183634
0.167501
0.151253
0.137896
0.131587
0.136415
0.154558
0.179727
0.203652
0.221134
0.230717
0.233445
0.230973
0.224952
0.216788
0.207421
0.197448
0.187205
0.176884
0.166592
0.156589
0.264529
0.260924
0.256919
0.252355
0.247026
0.24068
0.23288
0.223545
0.211421
0.196486
0.179639
0.162532
0.148156
0.140612
0.143313
0.158499
0.181036
0.203653
0.220806
0.230692
0.233898
0.232087
0.226704
0.219116
0.21028
0.200799
0.191018
0.181134
0.171261
0.161635
0.278426
0.274234
0.269849
0.265131
0.259865
0.254115
0.247076
0.237461
0.224943
0.209623
0.192259
0.174465
0.159069
0.150084
0.150396
0.162375
0.18195
0.202872
0.21946
0.229577
0.233409
0.232294
0.227726
0.220864
0.212687
0.203804
0.194576
0.185217
0.175832
0.166656
0.292148
0.287552
0.28309
0.278761
0.274151
0.268278
0.260671
0.250762
0.23809
0.222665
0.205037
0.186781
0.170428
0.159839
0.157577
0.166088
0.182397
0.201157
0.216967
0.227254
0.231767
0.231472
0.227722
0.221794
0.214476
0.206372
0.197854
0.189141
0.180343
0.171714
0.305797
0.301465
0.297196
0.292476
0.287102
0.280699
0.272726
0.262648
0.250014
0.234691
0.217116
0.198754
0.181722
0.169554
0.164667
0.169578
0.1826
0.198953
0.213687
0.224029
0.229212
0.229788
0.226866
0.221655
0.215302
0.208188
0.20062
0.192781
0.184774
0.176874
0.31789
0.313037
0.308043
0.302683
0.296731
0.289875
0.281671
0.271598
0.2592
0.244315
0.22724
0.209722
0.193141
0.180437
0.174207
0.176513
0.186409
0.200186
0.213465
0.223268
0.228633
0.22981
0.22755
0.222903
0.216823
0.209859
0.202755
0.195878
0.188897
0.182017
0.325583
0.319164
0.313222
0.307556
0.301914
0.295958
0.289215
0.281088
0.270977
0.25849
0.243704
0.2277
0.212005
0.199182
0.191722
0.191427
0.197956
0.208551
0.219484
0.227989
0.232877
0.234133
0.232169
0.227801
0.221863
0.214941
0.207631
0.200328
0.19303
0.18664
0.343608
0.336828
0.330383
0.324521
0.31924
0.314307
0.30926
0.303428
0.296082
0.286652
0.274908
0.261533
0.247859
0.23596
0.227922
0.225193
0.228006
0.23448
0.241784
0.247605
0.250733
0.250955
0.248347
0.243525
0.237166
0.229822
0.22198
0.214008
0.206054
0.198802
0.381693
0.37553
0.370391
0.366989
0.365037
0.364033
0.363302
0.362068
0.359573
0.355203
0.348232
0.339425
0.32977
0.320765
0.313622
0.309274
0.308143
0.309412
0.311372
0.312575
0.312165
0.309698
0.305135
0.298834
0.291273
0.282833
0.273605
0.263996
0.254367
0.245601
0.525244
0.521954
0.52388
0.52952
0.534256
0.537871
0.540421
0.541973
0.542339
0.541118
0.536465
0.531043
0.525216
0.51986
0.514865
0.511143
0.507917
0.506088
0.50489
0.504312
0.503876
0.503143
0.501916
0.500238
0.49816
0.495569
0.489655
0.482149
0.474198
0.466566
0.0550008
0.0671463
0.0715624
0.0736269
0.0738495
0.0729699
0.0715357
0.0698811
0.0681975
0.0666602
0.0653365
0.0644304
0.0640539
0.0644661
0.0656695
0.0677505
0.0701631
0.0723371
0.073677
0.0738665
0.0725428
0.0694579
0.0644964
0.0578073
0.0499601
0.0415437
0.0333623
0.0254109
0.0219602
0.0207913
0.0990354
0.107564
0.108412
0.106311
0.101998
0.0966167
0.0909705
0.0856755
0.0811376
0.0776062
0.0752467
0.0743901
0.0752429
0.0782749
0.0834644
0.0904312
0.0973299
0.102677
0.105476
0.10583
0.103808
0.0998013
0.0936294
0.0852698
0.0752246
0.0640693
0.0526049
0.0408747
0.0323602
0.0291176
0.112168
0.121784
0.123437
0.121627
0.11722
0.111913
0.106414
0.101421
0.0972906
0.0940964
0.0923476
0.0926439
0.0954275
0.101442
0.110672
0.122144
0.132866
0.140794
0.144672
0.144819
0.14165
0.135737
0.127468
0.116732
0.104028
0.0898649
0.0750284
0.0595351
0.0465063
0.0391036
0.105737
0.117054
0.120556
0.120205
0.117341
0.113298
0.109234
0.105925
0.103694
0.102561
0.102916
0.105497
0.111143
0.12096
0.134823
0.15094
0.165218
0.175389
0.180147
0.180014
0.175675
0.16799
0.15777
0.144954
0.130061
0.113542
0.0960917
0.0777194
0.0611897
0.050135
0.0926449
0.104154
0.108373
0.109756
0.108698
0.106369
0.103874
0.102146
0.101687
0.102937
0.10619
0.112293
0.121921
0.136633
0.15586
0.176901
0.194558
0.206664
0.21211
0.211643
0.206178
0.196928
0.184918
0.17034
0.153689
0.135359
0.11589
0.0953503
0.0761176
0.0621736
0.0814059
0.0926936
0.097714
0.0999461
0.100003
0.0987331
0.0970213
0.0957311
0.0958165
0.098448
0.103908
0.113564
0.128311
0.148989
0.174354
0.200527
0.22141
0.23516
0.241108
0.240244
0.233706
0.223038
0.209402
0.193297
0.17521
0.155481
0.13447
0.112329
0.0910509
0.0749157
0.0744013
0.0848466
0.0904643
0.0933952
0.094125
0.0935122
0.0923266
0.0913431
0.0913419
0.0934776
0.0992155
0.111237
0.131299
0.158782
0.190909
0.222268
0.246207
0.261315
0.267609
0.266304
0.25874
0.246747
0.23166
0.21421
0.194919
0.174081
0.15192
0.128618
0.105841
0.0879708
0.0738523
0.0825288
0.0880495
0.0915647
0.092555
0.0920031
0.0907777
0.0895531
0.0890858
0.0905057
0.0955082
0.107825
0.131947
0.166816
0.20605
0.24248
0.269215
0.285421
0.291932
0.290171
0.281639
0.268422
0.252029
0.233382
0.213055
0.191324
0.168316
0.144196
0.120385
0.101177
0.084751
0.0913128
0.0947159
0.0965584
0.0963255
0.0948501
0.0928987
0.0907961
0.0893638
0.0897223
0.0938778
0.105558
0.131682
0.173868
0.220223
0.261408
0.290615
0.307673
0.314306
0.312088
0.302658
0.288322
0.27076
0.251045
0.229815
0.207362
0.183735
0.159053
0.134579
0.114407
0.107372
0.112373
0.113922
0.112858
0.109397
0.104905
0.100118
0.0957918
0.0926051
0.0913535
0.0940506
0.104946
0.132035
0.180744
0.233801
0.27921
0.310518
0.328208
0.334887
0.332221
0.321969
0.306628
0.28803
0.267375
0.245363
0.222323
0.198256
0.173218
0.148372
0.127557
0.137873
0.14145
0.141721
0.138318
0.131912
0.123637
0.114344
0.105923
0.0994455
0.0958325
0.096714
0.106882
0.134594
0.188361
0.247069
0.295979
0.328984
0.347116
0.35378
0.350682
0.339693
0.323464
0.303969
0.28251
0.259839
0.236323
0.211941
0.186741
0.161759
0.140564
0.173185
0.176428
0.174865
0.169156
0.160047
0.148316
0.134995
0.121896
0.110735
0.103569
0.101979
0.111333
0.13995
0.197176
0.26018
0.311752
0.346033
0.364453
0.371051
0.36755
0.355911
0.338922
0.318675
0.296552
0.273347
0.249463
0.224882
0.199709
0.174775
0.153397
0.205632
0.208941
0.208213
0.201995
0.190925
0.176483
0.159781
0.142523
0.126646
0.114897
0.110251
0.118367
0.147848
0.207316
0.273168
0.326525
0.361656
0.380252
0.386743
0.382878
0.370684
0.353068
0.332216
0.309578
0.285973
0.261831
0.237161
0.212133
0.187416
0.166034
0.235972
0.239126
0.238607
0.233164
0.221977
0.205981
0.186848
0.166236
0.146307
0.129962
0.121755
0.128155
0.158106
0.218716
0.28598
0.340272
0.375836
0.394529
0.400887
0.396703
0.384058
0.365953
0.34464
0.321641
0.297782
0.273492
0.248903
0.22409
0.199708
0.178475
0.264761
0.267586
0.267112
0.262052
0.251771
0.235328
0.214837
0.191828
0.16859
0.148372
0.136439
0.140679
0.170495
0.231188
0.298517
0.35296
0.388585
0.407289
0.413501
0.409059
0.396064
0.377606
0.355976
0.332783
0.308813
0.28457
0.260148
0.23567
0.211722
0.190745
0.292527
0.294994
0.294497
0.289682
0.279908
0.264082
0.243014
0.218472
0.192729
0.169435
0.154093
0.155778
0.184721
0.244484
0.310675
0.36457
0.399933
0.41856
0.424617
0.419971
0.406718
0.388057
0.366216
0.343034
0.319188
0.295119
0.270976
0.246934
0.223544
0.2029
0.31953
0.321732
0.321216
0.316616
0.307263
0.292171
0.271065
0.245676
0.218173
0.192387
0.174314
0.173201
0.200523
0.258354
0.32238
0.37513
0.409953
0.428406
0.434292
0.4295
0.416007
0.397299
0.375631
0.352574
0.328954
0.305215
0.281464
0.25794
0.235211
0.215007
0.346467
0.34791
0.347318
0.342993
0.334056
0.319506
0.29887
0.273179
0.244532
0.21684
0.196618
0.192672
0.217687
0.272589
0.333641
0.384752
0.418789
0.436961
0.442652
0.437695
0.424335
0.405825
0.384246
0.361435
0.338181
0.314898
0.291671
0.268767
0.246742
0.227131
0.373722
0.374178
0.373122
0.368709
0.360077
0.346144
0.32629
0.300776
0.271555
0.242517
0.220628
0.213903
0.236021
0.287057
0.34463
0.393708
0.426738
0.444476
0.450069
0.445329
0.432082
0.413682
0.392214
0.369772
0.346984
0.32426
0.301686
0.279515
0.258216
0.239309
0.401367
0.400825
0.399103
0.3944
0.38588
0.372486
0.353454
0.328403
0.299064
0.269247
0.245965
0.23681
0.255527
0.302094
0.355835
0.40257
0.434337
0.451713
0.457282
0.452617
0.43952
0.421284
0.399918
0.377883
0.355584
0.333459
0.311604
0.290202
0.26971
0.251579
0.429472
0.428003
0.425535
0.420457
0.41209
0.399508
0.381411
0.357141
0.328094
0.297848
0.273331
0.262073
0.276888
0.318642
0.368312
0.41244
0.442916
0.459655
0.465037
0.460468
0.447519
0.429407
0.408067
0.386349
0.364432
0.34282
0.321634
0.30101
0.281362
0.264039
0.458328
0.456085
0.453001
0.447711
0.439749
0.428386
0.411682
0.388709
0.360494
0.330291
0.304813
0.291604
0.302168
0.338777
0.384215
0.425533
0.454367
0.47013
0.475192
0.470597
0.45777
0.439577
0.41804
0.396343
0.374501
0.353088
0.332297
0.312265
0.293332
0.276794
0.488991
0.486342
0.483036
0.478102
0.471408
0.461519
0.446818
0.425994
0.399601
0.370374
0.34461
0.329793
0.335849
0.366945
0.408039
0.446159
0.472739
0.487116
0.491493
0.486606
0.473584
0.455014
0.43307
0.410744
0.388194
0.366105
0.344908
0.324926
0.306311
0.290311
0.524305
0.521904
0.519183
0.51577
0.511015
0.503503
0.491773
0.474566
0.451841
0.425514
0.401048
0.385539
0.387363
0.412845
0.449702
0.483766
0.506918
0.519312
0.52211
0.515661
0.501367
0.481339
0.458038
0.433907
0.409512
0.385758
0.363148
0.341959
0.322506
0.306337
0.570318
0.569338
0.569014
0.568472
0.566774
0.56332
0.556854
0.545917
0.529901
0.50976
0.489615
0.47543
0.474259
0.493637
0.525825
0.554394
0.57169
0.579813
0.578995
0.56934
0.552092
0.528933
0.501897
0.473736
0.445497
0.418301
0.392661
0.368775
0.347127
0.329688
0.638983
0.641654
0.64558
0.649785
0.654206
0.658351
0.660981
0.660162
0.654852
0.645107
0.633405
0.623797
0.622402
0.636278
0.661405
0.68184
0.691849
0.693405
0.685411
0.668341
0.643733
0.613247
0.578788
0.543401
0.508644
0.47569
0.444796
0.416057
0.390201
0.369909
0.753458
0.762731
0.773386
0.785541
0.799177
0.813978
0.82874
0.840915
0.848384
0.850853
0.84964
0.848246
0.851543
0.863594
0.881718
0.893181
0.894885
0.887402
0.869658
0.8423
0.806834
0.765426
0.720132
0.673898
0.628641
0.585873
0.546243
0.509947
0.477336
0.451991
0.943755
0.957735
0.974927
0.99635
1.02085
1.04729
1.07355
1.09578
1.11191
1.12237
1.12799
1.13396
1.14388
1.15814
1.17113
1.17655
1.17379
1.16147
1.13845
1.10529
1.06321
1.01454
0.961384
0.906801
0.85265
0.800649
0.751644
0.705545
0.662839
0.630588
1.15752
1.16348
1.18732
1.22135
1.25559
1.28854
1.3173
1.33613
1.3473
1.35303
1.35463
1.36017
1.37079
1.38471
1.39395
1.39686
1.39612
1.38821
1.37249
1.34891
1.3177
1.28079
1.23898
1.19592
1.153
1.11105
1.06932
1.02556
0.982386
0.947733
1.196
1.20088
1.22525
1.25753
1.28753
1.30947
1.32249
1.32822
1.3291
1.32691
1.32341
1.32384
1.32743
1.33461
1.33835
1.33632
1.33595
1.33162
1.32374
1.31228
1.29812
1.28159
1.26528
1.2502
1.23784
1.22744
1.21609
1.20308
1.18725
1.16588
0.0862865
0.102598
0.110009
0.113161
0.113344
0.111636
0.10886
0.105628
0.102325
0.0992776
0.0966468
0.0947424
0.0936599
0.0937025
0.0946482
0.0963542
0.0979796
0.0991142
0.0998752
0.100344
0.0994766
0.0959045
0.088782
0.0781767
0.0651117
0.050882
0.0372314
0.0245884
0.0212653
0.0205804
0.138826
0.161585
0.168642
0.16822
0.163725
0.157189
0.149945
0.1429
0.136645
0.131671
0.128245
0.126814
0.127379
0.130103
0.134097
0.138559
0.14149
0.142761
0.143536
0.144805
0.145419
0.143387
0.136705
0.124541
0.107737
0.0877871
0.0669668
0.046624
0.0330976
0.0286915
0.162639
0.18928
0.200828
0.20358
0.200787
0.194973
0.18779
0.180461
0.17389
0.168862
0.16589
0.165622
0.168136
0.173446
0.180229
0.187097
0.191438
0.193138
0.193597
0.194158
0.193868
0.19066
0.182324
0.167744
0.147531
0.122974
0.0964027
0.0695425
0.0487381
0.0387242
0.167333
0.196575
0.213156
0.21983
0.219829
0.216118
0.210522
0.204431
0.198986
0.195187
0.193825
0.195851
0.201354
0.210038
0.220096
0.229465
0.235176
0.237298
0.237312
0.236786
0.235025
0.230161
0.220116
0.203674
0.181141
0.153615
0.123206
0.0916992
0.0651513
0.0501408
0.160675
0.189627
0.209803
0.220635
0.224392
0.223386
0.220152
0.216247
0.212994
0.211502
0.212936
0.218489
0.228201
0.241252
0.255189
0.267224
0.274247
0.276741
0.276243
0.274481
0.270966
0.264205
0.252391
0.234392
0.210283
0.180883
0.147981
0.113186
0.0822065
0.0628486
0.144861
0.171533
0.193365
0.207416
0.214634
0.217078
0.217206
0.216708
0.216852
0.218801
0.224275
0.234669
0.24989
0.26833
0.286684
0.301517
0.309784
0.312598
0.311532
0.308436
0.303077
0.294315
0.280711
0.261312
0.236039
0.205463
0.170975
0.133905
0.0996174
0.0766838
0.126189
0.149541
0.170793
0.186152
0.195583
0.200682
0.204106
0.207112
0.211099
0.217664
0.22872
0.245389
0.267427
0.292232
0.31536
0.333085
0.342536
0.345623
0.343972
0.339512
0.332274
0.321469
0.306068
0.285344
0.259149
0.227837
0.192391
0.153834
0.117179
0.091403
0.111491
0.130143
0.149323
0.164849
0.175597
0.182618
0.187969
0.193112
0.199606
0.21038
0.226875
0.2518
0.281758
0.313652
0.341782
0.36242
0.372987
0.376318
0.374074
0.368266
0.359144
0.3463
0.329108
0.3071
0.280117
0.248344
0.212354
0.17308
0.134851
0.10677
0.103134
0.11733
0.133058
0.147135
0.157879
0.165877
0.172567
0.179395
0.187943
0.201017
0.222298
0.255382
0.293892
0.333255
0.36641
0.38987
0.401481
0.405025
0.40221
0.395074
0.384081
0.369224
0.350277
0.327017
0.299324
0.267263
0.231047
0.191386
0.152284
0.122626
0.101441
0.112409
0.125296
0.136688
0.145968
0.153543
0.160368
0.167829
0.177831
0.192914
0.217665
0.256643
0.304753
0.351631
0.389589
0.415696
0.428265
0.432011
0.428651
0.42019
0.407352
0.390533
0.369885
0.34542
0.317073
0.284816
0.248715
0.208931
0.16949
0.138844
0.108607
0.116724
0.126022
0.134758
0.142288
0.148114
0.153668
0.160447
0.170688
0.187502
0.214736
0.257964
0.315355
0.369257
0.411573
0.440099
0.453536
0.457481
0.453579
0.44379
0.429147
0.410432
0.388164
0.362562
0.333614
0.301213
0.265283
0.225792
0.186473
0.155326
0.123834
0.130583
0.137846
0.143786
0.147806
0.150694
0.15333
0.158398
0.167779
0.184923
0.213786
0.261158
0.326452
0.386483
0.432554
0.463234
0.477463
0.481593
0.477124
0.466013
0.449607
0.429083
0.405296
0.378647
0.349163
0.316681
0.281007
0.242093
0.203263
0.172022
0.146565
0.153129
0.159386
0.162841
0.16323
0.162082
0.160927
0.162715
0.169691
0.185883
0.216762
0.268402
0.338738
0.403537
0.452676
0.48523
0.500217
0.504484
0.499414
0.486979
0.468866
0.446633
0.421441
0.393852
0.363916
0.331441
0.296063
0.257984
0.219942
0.188913
0.177515
0.184014
0.189102
0.190125
0.18716
0.181734
0.176148
0.173839
0.177615
0.192736
0.225197
0.279295
0.352425
0.420538
0.472062
0.506243
0.521953
0.526304
0.520588
0.506827
0.48707
0.463236
0.436755
0.408349
0.378063
0.345638
0.310703
0.273572
0.236564
0.206009
0.216771
0.2213
0.224495
0.223318
0.217622
0.208259
0.19811
0.191495
0.191427
0.204574
0.237826
0.293189
0.367453
0.437555
0.490853
0.526462
0.542862
0.547242
0.540812
0.525739
0.504409
0.47908
0.451432
0.422326
0.391792
0.359474
0.325116
0.289002
0.253185
0.22333
0.261473
0.263132
0.26379
0.260385
0.252374
0.239831
0.225526
0.214774
0.210936
0.221309
0.254226
0.309646
0.383712
0.454678
0.509255
0.546144
0.563201
0.567569
0.560351
0.543974
0.521146
0.494426
0.465713
0.436015
0.405337
0.373301
0.339523
0.30444
0.269933
0.240955
0.309372
0.308342
0.306374
0.300503
0.290066
0.274935
0.257103
0.242673
0.235312
0.242329
0.273816
0.328336
0.401134
0.472103
0.527598
0.565671
0.58335
0.58765
0.579592
0.561936
0.537678
0.509647
0.479952
0.449727
0.419022
0.387348
0.354184
0.320098
0.286972
0.258986
0.359519
0.356127
0.351505
0.343014
0.330103
0.312597
0.291935
0.274307
0.26364
0.266997
0.296227
0.349141
0.419856
0.490248
0.546436
0.585636
0.6039
0.608081
0.599158
0.58025
0.554618
0.525338
0.494714
0.463986
0.433226
0.401862
0.369477
0.336403
0.304382
0.277498
0.41152
0.405776
0.398471
0.387408
0.372107
0.352368
0.329628
0.308991
0.295319
0.295066
0.321438
0.372323
0.440419
0.50991
0.566694
0.606993
0.62579
0.629824
0.620042
0.599924
0.572964
0.542502
0.510945
0.479608
0.448611
0.417445
0.38567
0.353479
0.322471
0.296714
0.463954
0.456478
0.446781
0.433423
0.416012
0.394374
0.369958
0.346766
0.330465
0.327052
0.350111
0.398788
0.464078
0.532549
0.589942
0.631327
0.650575
0.654469
0.643877
0.622611
0.594387
0.562832
0.530231
0.498028
0.466519
0.435199
0.403581
0.371913
0.341676
0.316856
0.51725
0.507979
0.496416
0.481217
0.462211
0.43927
0.413668
0.388793
0.370442
0.364449
0.384123
0.430504
0.493421
0.560779
0.618882
0.661314
0.680903
0.684687
0.673384
0.651126
0.621775
0.589359
0.555617
0.522065
0.489252
0.456941
0.424775
0.392889
0.36276
0.33838
0.572189
0.561234
0.548163
0.531741
0.511978
0.488748
0.463012
0.437671
0.418283
0.410572
0.427424
0.471295
0.532888
0.599266
0.658261
0.701533
0.721338
0.72509
0.713298
0.690499
0.660204
0.625881
0.589774
0.553685
0.518474
0.484134
0.450423
0.417484
0.386714
0.362088
0.630239
0.617929
0.603961
0.587326
0.568141
0.546203
0.522126
0.498264
0.479631
0.471714
0.486934
0.528627
0.589461
0.656346
0.716453
0.759816
0.779888
0.783733
0.771481
0.746701
0.713691
0.67576
0.635593
0.595391
0.556391
0.51883
0.482521
0.447462
0.41513
0.389486
0.694383
0.681708
0.668073
0.652905
0.636325
0.618019
0.598324
0.578958
0.564061
0.558598
0.574413
0.615029
0.674655
0.742615
0.804649
0.847744
0.866787
0.869144
0.854354
0.825972
0.78848
0.745126
0.698905
0.652525
0.607655
0.564911
0.524319
0.485968
0.451016
0.423582
0.771132
0.760095
0.749008
0.737877
0.726786
0.715405
0.703816
0.693028
0.686042
0.687124
0.706499
0.747235
0.805474
0.872717
0.935957
0.976738
0.993029
0.992102
0.97303
0.939326
0.895412
0.844587
0.790013
0.735032
0.681801
0.631461
0.584308
0.540503
0.501054
0.470599
0.873657
0.867218
0.862294
0.85865
0.856755
0.856077
0.85656
0.858299
0.863046
0.874484
0.899363
0.940873
0.996956
1.06063
1.1217
1.15687
1.16843
1.16223
1.13777
1.09799
1.04685
0.987731
0.923853
0.858872
0.795489
0.735576
0.679658
0.628018
0.581676
0.546728
1.0231
1.02352
1.02857
1.03712
1.04781
1.06024
1.07428
1.08886
1.10472
1.12482
1.15385
1.1949
1.24708
1.30393
1.3565
1.38157
1.38647
1.374
1.34515
1.30168
1.24649
1.18304
1.11419
1.04288
0.972104
0.90445
0.840617
0.780852
0.726243
0.685568
1.23321
1.23821
1.25342
1.2756
1.30006
1.32395
1.34565
1.36486
1.38269
1.40267
1.429
1.46489
1.50937
1.55439
1.59021
1.59845
1.59333
1.57447
1.54516
1.50547
1.45693
1.40211
1.34338
1.28222
1.22042
1.15896
1.09848
1.03913
0.981871
0.936855
1.42662
1.43418
1.4589
1.49105
1.52182
1.54671
1.56478
1.57623
1.58429
1.59402
1.60976
1.63437
1.66521
1.69214
1.70412
1.68941
1.67062
1.64459
1.61659
1.58591
1.55376
1.52134
1.49083
1.4626
1.4377
1.41186
1.38279
1.34941
1.3116
1.27267
1.39778
1.41737
1.45069
1.48771
1.51994
1.54275
1.55508
1.55948
1.56006
1.56166
1.56787
1.58018
1.59481
1.60342
1.59381
1.56151
1.53177
1.49852
1.46836
1.44109
1.41881
1.40156
1.39078
1.38663
1.38898
1.39632
1.40344
1.40609
1.40196
1.38879
0.118869
0.13897
0.146956
0.15061
0.150814
0.148621
0.144998
0.14071
0.136245
0.132023
0.128207
0.125116
0.122695
0.121237
0.120416
0.120275
0.120006
0.120086
0.122411
0.127156
0.130623
0.129
0.120499
0.105644
0.0863803
0.0649679
0.0443039
0.0250022
0.0218941
0.0205462
0.190483
0.219679
0.229301
0.229315
0.224223
0.21664
0.208235
0.200099
0.192891
0.187087
0.182722
0.179956
0.178254
0.177648
0.177155
0.176718
0.174622
0.173722
0.178561
0.189092
0.199245
0.202961
0.196087
0.177954
0.150985
0.118272
0.0840402
0.0518105
0.0322678
0.0269354
0.224567
0.257877
0.273576
0.278449
0.276826
0.271478
0.264346
0.256848
0.250009
0.244559
0.240702
0.238595
0.237625
0.237712
0.237694
0.237363
0.23476
0.233165
0.237867
0.248851
0.259605
0.263585
0.25592
0.235265
0.20374
0.16416
0.120896
0.0787131
0.0473986
0.0356318
0.237223
0.271005
0.292237
0.302648
0.306566
0.305301
0.301325
0.296229
0.291393
0.287767
0.285771
0.285543
0.286447
0.288133
0.289311
0.289552
0.286783
0.284737
0.288675
0.298557
0.308079
0.310934
0.302144
0.280089
0.246082
0.202629
0.153882
0.104813
0.0644495
0.0459497
0.235918
0.265284
0.290584
0.30915
0.32
0.323525
0.323549
0.321764
0.320021
0.319421
0.320576
0.323558
0.327557
0.331788
0.334846
0.336028
0.333333
0.330995
0.334024
0.342168
0.349505
0.350385
0.340005
0.316803
0.28148
0.236
0.184062
0.130242
0.0829946
0.0581025
0.22692
0.251684
0.279679
0.303063
0.319056
0.328467
0.333367
0.335499
0.337774
0.341367
0.346969
0.354486
0.362798
0.37049
0.376031
0.378456
0.376052
0.373613
0.375731
0.381785
0.386474
0.384763
0.372424
0.34804
0.311932
0.265518
0.211868
0.154724
0.102388
0.0720835
0.20968
0.228542
0.258158
0.286147
0.307551
0.32224
0.331703
0.338505
0.345911
0.354839
0.366184
0.379613
0.393392
0.405403
0.413934
0.417841
0.415978
0.41363
0.414834
0.418651
0.42041
0.415681
0.401083
0.375395
0.338709
0.291964
0.23774
0.177993
0.122099
0.0876546
0.186384
0.201107
0.230259
0.260483
0.285444
0.304598
0.319221
0.331703
0.344678
0.360835
0.379298
0.399997
0.420295
0.43737
0.449286
0.454871
0.453804
0.451717
0.451978
0.453507
0.452092
0.44408
0.426983
0.399869
0.362656
0.315868
0.261234
0.200091
0.141974
0.104563
0.167243
0.176772
0.202917
0.232999
0.259854
0.281942
0.300311
0.317331
0.336354
0.359478
0.387427
0.416625
0.444331
0.46706
0.482629
0.490061
0.490022
0.488312
0.487535
0.486767
0.481975
0.470521
0.450776
0.422126
0.384374
0.337815
0.282849
0.221225
0.162027
0.122578
0.153482
0.158038
0.179847
0.207787
0.234668
0.258408
0.279727
0.300832
0.324797
0.354753
0.392458
0.430513
0.466267
0.495019
0.514391
0.523851
0.525009
0.523696
0.522028
0.518673
0.510352
0.495373
0.472908
0.442656
0.404314
0.357908
0.302916
0.241629
0.182283
0.141526
0.1458
0.1468
0.16406
0.188303
0.213674
0.237628
0.260574
0.284902
0.313447
0.349516
0.394207
0.442813
0.486887
0.521721
0.544909
0.55662
0.559099
0.558321
0.555545
0.549382
0.537419
0.518897
0.493727
0.46187
0.42288
0.376379
0.321959
0.261489
0.20269
0.161261
0.146678
0.143774
0.156935
0.177556
0.19971
0.222318
0.245671
0.272031
0.304592
0.345351
0.395574
0.454713
0.506937
0.547591
0.574566
0.588724
0.592613
0.592342
0.588174
0.57901
0.563343
0.541334
0.513544
0.480144
0.440475
0.393877
0.34026
0.280987
0.223246
0.181686
0.15518
0.150863
0.159133
0.175113
0.194224
0.214984
0.237153
0.264126
0.298652
0.343087
0.399264
0.46719
0.526959
0.573046
0.603753
0.620544
0.625886
0.625935
0.620025
0.607713
0.588342
0.562957
0.532686
0.497848
0.457493
0.410934
0.358139
0.300289
0.243978
0.202725
0.173918
0.169033
0.17409
0.185389
0.199048
0.21478
0.234461
0.26079
0.296162
0.343432
0.406391
0.481109
0.547394
0.598481
0.632898
0.652507
0.659284
0.659341
0.651548
0.635791
0.612737
0.584121
0.551528
0.515388
0.474442
0.427905
0.375903
0.319561
0.264926
0.224357
0.203741
0.198074
0.200046
0.206729
0.215303
0.226104
0.241314
0.264115
0.298885
0.34969
0.418253
0.496986
0.568622
0.624327
0.662505
0.68512
0.693244
0.692837
0.68287
0.663638
0.636988
0.605309
0.570546
0.533216
0.491814
0.445218
0.39391
0.339038
0.28623
0.246596
0.244087
0.236853
0.235537
0.237641
0.241124
0.246524
0.256671
0.276061
0.3104
0.362932
0.433919
0.514953
0.591043
0.651114
0.693219
0.718995
0.72829
0.727333
0.714592
0.691859
0.66175
0.627192
0.590354
0.551859
0.510195
0.463501
0.412703
0.359192
0.308113
0.269485
0.293406
0.283641
0.278785
0.276286
0.274752
0.274802
0.279583
0.294745
0.327353
0.380596
0.452794
0.535253
0.615191
0.679562
0.725877
0.754906
0.765061
0.76311
0.747477
0.721333
0.687975
0.650692
0.611737
0.572423
0.530524
0.484118
0.433358
0.380589
0.330969
0.293079
0.34982
0.336932
0.328077
0.320823
0.314393
0.309523
0.30891
0.31943
0.349273
0.402317
0.474981
0.558543
0.641876
0.710686
0.761598
0.793858
0.804748
0.801192
0.782686
0.753386
0.717046
0.677087
0.63659
0.596739
0.554127
0.507123
0.456224
0.403594
0.354875
0.317374
0.411441
0.395021
0.381871
0.369929
0.358766
0.34918
0.343944
0.349435
0.375924
0.428103
0.500965
0.585761
0.672336
0.745948
0.801909
0.837189
0.848388
0.843016
0.821994
0.790046
0.751042
0.709158
0.668108
0.625916
0.58133
0.532764
0.481083
0.428396
0.379865
0.342355
0.47665
0.456614