/*--------------------------------*- C++ -*----------------------------------*\
  =========                 |
  \\      /  F ield         | OpenFOAM: The Open Source CFD Toolbox
   \\    /   O peration     | Website:  https://openfoam.org
    \\  /    A nd           | Version:  12
     \\/     M anipulation  |
\*---------------------------------------------------------------------------*/
FoamFile
{
    format      ascii;
    class       volScalarField;
    location    "1100/air";
    object      nut;
}
// * * * * * * * * * * * * * * * * * * * * * * * * * * * * * * * * * * * * * //

dimensions      [0 2 -1 0 0 0 0];

internalField   nonuniform List<scalar> 
243000
(
8.69703e-05
7.85752e-05
7.49123e-05
7.53084e-05
7.4557e-05
7.45405e-05
7.38547e-05
0.000319334
0.000311639
0.000303528
0.000297284
0.000294162
0.000294761
0.000300163
0.000310505
0.000317402
0.000326369
7.50097e-05
7.60933e-05
7.77226e-05
7.93078e-05
8.0596e-05
8.14436e-05
8.17601e-05
8.15769e-05
8.087e-05
7.97628e-05
7.76285e-05
7.43398e-05
0.000321168
0.000314201
0.00029804
0.000280242
0.000264701
0.000253923
0.000244645
0.00023875
0.000234138
0.000229874
0.000226834
0.000225116
0.000225067
0.000226899
0.000231051
0.000237689
0.000247806
0.000258319
0.000269088
0.000280031
0.000289657
0.00029724
0.000302772
0.000306243
0.000307589
0.000306886
0.000304122
0.000299463
0.000291252
0.000280762
0.000263618
0.000405524
0.000409063
0.000404859
0.000400709
0.000396069
0.000390283
0.000383702
0.000378104
0.00037452
0.000375191
0.000379028
0.000386516
0.000397876
0.000413615
0.000433703
0.000457912
0.000483054
0.000506512
0.000524662
0.00053571
0.000539422
0.000536738
0.000528656
0.000515761
0.000498686
0.000477875
0.00045386
0.000425294
0.000393536
0.000356
0.000436481
0.000442406
0.000441621
0.000439308
0.000435171
0.000429187
0.000421167
0.00041064
0.000400859
0.000393298
0.000390782
0.000396184
0.000409531
0.000430654
0.000458319
0.000491102
0.000524033
0.00055337
0.000575091
0.000587731
0.000591677
0.000588337
0.000579157
0.000564965
0.000546416
0.000523964
0.000498028
0.000467595
0.000433268
0.000395469
0.000467648
0.000474318
0.00047553
0.000474421
0.000470867
0.000464895
0.000456388
0.000445123
0.000431209
0.000417995
0.000407769
0.000404673
0.000415598
0.000440476
0.000476052
0.000518058
0.000558838
0.000593389
0.000617977
0.000631723
0.000635614
0.000631511
0.000621212
0.000605851
0.000586173
0.000562625
0.000535537
0.000504158
0.00046852
0.000430583
0.000498793
0.000506102
0.000508606
0.000508145
0.000504788
0.000498617
0.000489581
0.000477619
0.000462094
0.000445185
0.000429458
0.00041871
0.000421064
0.000446054
0.000488766
0.000540228
0.000588801
0.000628118
0.000655094
0.000669624
0.000673305
0.00066841
0.000657052
0.000640651
0.000620069
0.000595786
0.000568063
0.000536358
0.000500368
0.000462282
0.000529727
0.000537659
0.000540991
0.000540849
0.000537416
0.000530848
0.000521161
0.000508357
0.000492345
0.000472834
0.000453193
0.000436713
0.000430536
0.000450431
0.000498257
0.000558818
0.000614913
0.000658625
0.000687604
0.000702681
0.000706075
0.000700416
0.000688099
0.000670778
0.000649456
0.00062467
0.000596666
0.000565026
0.000529289
0.000491642
0.000560468
0.000568853
0.000572619
0.000572533
0.000568845
0.000561737
0.000551283
0.000537533
0.000520518
0.000499599
0.000477358
0.000456628
0.000444147
0.000455797
0.000506141
0.00057483
0.00063791
0.000685643
0.0007163
0.000731756
0.000734836
0.000728479
0.000715309
0.000697197
0.00067527
0.000650143
0.000622083
0.000590734
0.000555611
0.000518767
0.000591068
0.000599618
0.000603482
0.000603229
0.000599147
0.000591403
0.000580102
0.000565331
0.000547184
0.000525532
0.000501148
0.000477224
0.000460044
0.000464
0.000513862
0.00058912
0.000658373
0.000709673
0.000741747
0.000757475
0.000760248
0.000753271
0.000739376
0.000720603
0.000698193
0.000672843
0.000644857
0.000613928
0.000579614
0.000543772
0.000621485
0.000629824
0.00063351
0.000632946
0.00062839
0.000619975
0.000607798
0.000591977
0.000572634
0.000549923
0.000523901
0.000497646
0.000477037
0.000475807
0.000522567
0.000602393
0.00067674
0.000731089
0.000764359
0.0007803
0.000782804
0.000775307
0.000760817
0.000741509
0.000718728
0.000693246
0.000665415
0.000634972
0.000601561
0.000566801
0.000651611
0.000659364
0.000662599
0.000661605
0.00065656
0.00064751
0.000634506
0.000617665
0.000597118
0.000573103
0.000545696
0.000517662
0.000494564
0.000489908
0.000532702
0.000615126
0.000693342
0.000750162
0.000784445
0.00080057
0.000802869
0.00079496
0.000780012
0.000760298
0.000737256
0.000711719
0.000684085
0.000654167
0.000621699
0.000588045
0.000681352
0.000688203
0.000690744
0.000689206
0.00068365
0.000674022
0.000660302
0.000642548
0.000620877
0.000595569
0.000566882
0.000537361
0.000512461
0.000505487
0.000544358
0.000627602
0.000708409
0.000767069
0.000802246
0.000818539
0.000820711
0.000812512
0.000797243
0.000777257
0.000754061
0.000728543
0.000701144
0.000671774
0.000640269
0.000607709
0.000710566
0.000716231
0.000717932
0.000715791
0.000709723
0.000699579
0.000685252
0.000666732
0.000644085
0.000617597
0.000587766
0.000556944
0.000530682
0.000522072
0.000557434
0.00063995
0.000722081
0.00078199
0.000817906
0.000834386
0.000836524
0.000828169
0.000812723
0.000792597
0.000769362
0.000743943
0.000716822
0.000688023
0.000657462
0.000625965
0.000739356
0.000743628
0.000744301
0.000741466
0.000734884
0.00072428
0.000709453
0.000690305
0.000666847
0.000639344
0.000608548
0.000576607
0.000549282
0.000539413
0.000571729
0.000652189
0.000734431
0.000795035
0.000831536
0.000848241
0.000850451
0.000842083
0.000826603
0.000806478
0.000783321
0.000758088
0.000731312
0.000703118
0.00067344
0.000642978
0.000767926
0.000770636
0.000770148
0.000766479
0.000759324
0.000748279
0.000733033
0.000713377
0.000689248
0.000660907
0.000629342
0.000596475
0.0005683
0.00055734
0.000586987
0.000664267
0.000745497
0.000806277
0.00084322
0.000860196
0.000862594
0.000854361
0.000838997
0.000819014
0.000796057
0.000771119
0.000744763
0.000717182
0.000688363
0.000658898
0.000796545
0.000797525
0.000795768
0.000791138
0.000783305
0.000771805
0.00075618
0.000736095
0.000711404
0.00068237
0.000650217
0.000616611
0.000587726
0.000575703
0.000602922
0.000676088
0.000755298
0.000815761
0.000853014
0.000870314
0.000873016
0.000865073
0.00084997
0.000830281
0.000807665
0.000783134
0.000757288
0.000730347
0.000702379
0.000673904
0.000825469
0.000824579
0.000821465
0.000815774
0.000807175
0.000795175
0.000779174
0.000758697
0.000733504
0.000703883
0.000671287
0.000637079
0.000607524
0.000594384
0.000619267
0.000687555
0.000763847
0.000823519
0.000860926
0.000878644
0.000881748
0.00087425
0.000859593
0.000840341
0.000818206
0.000794219
0.000768984
0.000742743
0.000715633
0.000688154
0.000854034
0.000852004
0.000847657
0.000840799
0.000831375
0.000818849
0.000802465
0.000781587
0.000755888
0.000725813
0.000692838
0.000658015
0.000627724
0.000613442
0.000635862
0.000698608
0.000771157
0.000829547
0.000866979
0.000885179
0.000888835
0.000881963
0.00086789
0.000849251
0.000827747
0.000804438
0.000779905
0.000754441
0.000728216
0.000701745
0.000882104
0.000878918
0.000873807
0.000866498
0.000856636
0.000843663
0.000826887
0.000805547
0.000779259
0.000749282
0.000715525
0.000679796
0.000648577
0.000633782
0.000652805
0.000709272
0.000777275
0.000833824
0.000871126
0.000889972
0.000894333
0.000888226
0.000874914
0.00085704
0.000836319
0.000813806
0.000790088
0.000765495
0.000740203
0.000714762
0.000909586
0.000905223
0.000899337
0.000891622
0.000881669
0.000868864
0.000852391
0.000831323
0.000805263
0.000775314
0.000740326
0.000703298
0.000671042
0.000655367
0.000670116
0.000719619
0.000782294
0.000836572
0.000873549
0.000893019
0.000898236
0.000893057
0.000880681
0.000863735
0.000843939
0.00082234
0.000799558
0.000775935
0.000751651
0.000727274
0.000936363
0.000930844
0.000924187
0.000916075
0.000906092
0.000893618
0.000877738
0.00085752
0.000833292
0.000802801
0.000767002
0.000728959
0.000695515
0.000677979
0.000687748
0.000729724
0.000786367
0.000837899
0.000874398
0.000894339
0.000900548
0.000896477
0.000885222
0.000869358
0.000850601
0.000830047
0.000808322
0.000785781
0.000762604
0.000739356
0.000962285
0.000955703
0.000948355
0.000939926
0.000930005
0.000918076
0.000903239
0.000885166
0.000861098
0.000830459
0.000794375
0.000755773
0.000721156
0.000701257
0.000705602
0.000739657
0.0007896
0.000837991
0.000873673
0.000894168
0.000901279
0.000898493
0.000888526
0.000873887
0.000856327
0.000836955
0.000816414
0.000795069
0.000773126
0.000751093
0.000987252
0.000979792
0.000971946
0.000963448
0.000953891
0.000943388
0.000930361
0.000912296
0.000888223
0.000857805
0.000821881
0.000783158
0.000747495
0.000724954
0.000723542
0.000749406
0.000792043
0.000836537
0.000870961
0.000891868
0.000900183
0.000898736
0.000890379
0.000877231
0.000861091
0.000843083
0.000823877
0.000803878
0.000783283
0.000762585
0.00101129
0.00100331
0.000995534
0.00098794
0.000979802
0.000969329
0.00095563
0.000937516
0.000913841
0.000884137
0.000848842
0.000810479
0.000774007
0.000748606
0.000741398
0.000758763
0.000793541
0.00083322
0.000866
0.000887226
0.000896865
0.000896983
0.000890209
0.000878913
0.000864562
0.000848249
0.000830673
0.000812246
0.00079317
0.000773982
0.00103465
0.00102731
0.00102002
0.00101192
0.00100265
0.000991512
0.000977496
0.000959507
0.00093649
0.000907774
0.000873574
0.000836182
0.000799506
0.000771512
0.000758657
0.000767586
0.000794806
0.000829176
0.00085967
0.000880985
0.000891912
0.000893693
0.000888504
0.000878522
0.000866079
0.000851827
0.000836322
0.000819899
0.000802743
0.000785422
0.00105486
0.00104679
0.00103844
0.00102942
0.00101932
0.0010076
0.000993424
0.000975759
0.000953584
0.000926249
0.000893677
0.000858842
0.000824224
0.000796074
0.000780824
0.000783944
0.000803908
0.000832316
0.000859617
0.000879684
0.000890848
0.000893728
0.000889813
0.000880992
0.000869126
0.000855224
0.000840651
0.000826332
0.000811526
0.000796645
0.00106754
0.00105702
0.00104718
0.00103771
0.00102822
0.00101813
0.00100662
0.000992596
0.000974893
0.000952569
0.00092531
0.000894753
0.000863461
0.000836531
0.000819613
0.000817253
0.000829435
0.000850389
0.000872231
0.000889285
0.00089926
0.000902168
0.000898809
0.000890622
0.00087916
0.000865495
0.000850717
0.000835667
0.000820341
0.000806632
0.00109677
0.00108592
0.00107552
0.00106599
0.00105734
0.00104923
0.00104091
0.00103124
0.00101895
0.00100294
0.000982531
0.000958641
0.000933359
0.000910409
0.000893979
0.000887255
0.000891387
0.000902967
0.000916522
0.00092753
0.000933633
0.000934374
0.00092983
0.000921005
0.000909083
0.000895025
0.000879683
0.000863775
0.000847587
0.00083254
0.00115604
0.00114669
0.00113885
0.00113365
0.00113068
0.0011292
0.00112817
0.0011264
0.00112271
0.0011161
0.00110533
0.00109147
0.00107591
0.00106096
0.00104862
0.00104051
0.00103767
0.00103907
0.00104193
0.00104379
0.00104314
0.00103915
0.00103162
0.00102105
0.00100814
0.000993495
0.000977166
0.000959855
0.000942188
0.000925829
0.00135628
0.00135202
0.00135449
0.00136179
0.00136789
0.00137254
0.00137583
0.00137786
0.00137841
0.00137694
0.00137108
0.00136419
0.00135672
0.00134975
0.00134312
0.00133803
0.00133351
0.00133086
0.00132911
0.00132828
0.00132769
0.00132675
0.00132518
0.00132301
0.00132029
0.00131686
0.00130891
0.00129884
0.00128813
0.00127781
0.000124466
0.000132154
0.00013145
0.000128536
0.000124302
0.000119413
0.000114623
0.000110087
0.000105948
0.000102347
9.93281e-05
9.70315e-05
9.55301e-05
9.50092e-05
9.54585e-05
9.69772e-05
9.91024e-05
0.000101491
0.000103747
0.000105629
0.00010682
0.000107001
0.000105862
0.000103158
9.89194e-05
9.32085e-05
8.64314e-05
7.81163e-05
0.000321951
0.000334801
0.00039227
0.000399579
0.000384031
0.000363482
0.000341295
0.000319429
0.000299204
0.000281654
0.000267859
0.000258407
0.00025376
0.000255308
0.000263465
0.000279676
0.000302698
0.00032948
0.000350822
0.000363072
0.000364663
0.000359214
0.00035034
0.000341844
0.000333492
0.000322985
0.000310107
0.000292667
0.000269929
0.000237202
0.000229611
0.000236934
0.000551423
0.000573888
0.000562221
0.000541228
0.000515565
0.000491986
0.000470998
0.000454272
0.00044341
0.000439159
0.000443559
0.000460304
0.000491827
0.000541866
0.000607564
0.000676479
0.000725315
0.000747829
0.000743451
0.000721041
0.00069003
0.000659011
0.00063173
0.000605723
0.000576529
0.000540253
0.000494925
0.000434607
0.000378722
0.000357865
0.000594612
0.00063947
0.000640586
0.000628166
0.000609676
0.00058976
0.000573517
0.000563654
0.00056231
0.000570717
0.00059151
0.0006311
0.000695298
0.000791233
0.000911941
0.00103069
0.00110866
0.00114103
0.00113034
0.00109036
0.00103496
0.000979033
0.000928934
0.000882015
0.000833605
0.000778008
0.000711342
0.000627884
0.000540986
0.000489528
0.000594442
0.00064274
0.000650748
0.000649481
0.000640677
0.000629264
0.000620528
0.000618363
0.0006263
0.000648304
0.000688053
0.000756703
0.000862123
0.00101484
0.00119873
0.00137018
0.00147494
0.00151472
0.00149684
0.00144033
0.00136229
0.00128277
0.00121025
0.00114321
0.00107652
0.0010034
0.000918014
0.000815051
0.000705202
0.000630767
0.000591449
0.000640388
0.000655159
0.000659804
0.000657077
0.000650816
0.000645668
0.000645681
0.000656945
0.000687913
0.000743535
0.000840428
0.000996022
0.00121536
0.00146882
0.00169226
0.00181978
0.00186279
0.00183638
0.0017641
0.00166563
0.00156495
0.00147198
0.00138656
0.00130343
0.00121518
0.00111384
0.000995818
0.00086881
0.000779559
0.000595771
0.000644879
0.000664404
0.00067453
0.000676311
0.00067381
0.000671391
0.000673194
0.000684682
0.000714113
0.000774985
0.000894766
0.00110577
0.00139891
0.00172588
0.00199753
0.00214309
0.00218447
0.00214817
0.00206077
0.00194388
0.00182457
0.00171362
0.0016119
0.00151437
0.00141298
0.00129937
0.00116984
0.00103034
0.00092976
0.000627301
0.000666377
0.000689805
0.000704554
0.000707929
0.000705968
0.000703717
0.000704801
0.000714832
0.000742532
0.000803425
0.000935824
0.00119471
0.0015707
0.00197284
0.00228691
0.00244481
0.00248021
0.00243296
0.00233123
0.00219786
0.00206236
0.00193583
0.00181992
0.00170993
0.00159736
0.00147447
0.00133668
0.00118859
0.00107937
0.000738514
0.000755416
0.000763936
0.000768481
0.000764656
0.000756774
0.000749456
0.000745273
0.000751011
0.000775053
0.000837617
0.000978808
0.00127109
0.00173465
0.00221146
0.00256048
0.00272486
0.00275062
0.00269206
0.00257699
0.00242906
0.00227962
0.00213982
0.00201171
0.00189092
0.00176937
0.00163939
0.00149578
0.00134234
0.00122701
0.000933507
0.000931266
0.000918676
0.000901238
0.000876056
0.00084877
0.000823406
0.000804953
0.000799652
0.000815623
0.000873209
0.00102182
0.00134607
0.0018972
0.00244285
0.00281767
0.00298295
0.00299651
0.00292684
0.00279969
0.0026392
0.00247802
0.00232704
0.00218855
0.00205807
0.00192967
0.00179464
0.00164703
0.00149079
0.00137177
0.00119339
0.00118448
0.00115212
0.00110933
0.00105648
0.000999631
0.000943555
0.000897778
0.000870675
0.000872744
0.000923961
0.00108204
0.00143878
0.00207002
0.00266726
0.00305736
0.00321872
0.00321862
0.00313872
0.00300106
0.00283014
0.00265922
0.00249904
0.0023519
0.0022137
0.0020794
0.00194042
0.00179078
0.00163342
0.00151292
0.0014925
0.00149135
0.00144521
0.00137829
0.00129657
0.0012069
0.00111626
0.00103505
0.000975049
0.000953707
0.000991926
0.00116357
0.00156508
0.00224973
0.00288235
0.00327801
0.00343171
0.0034179
0.003329
0.00318281
0.00300362
0.00282496
0.0026574
0.00250329
0.00235857
0.00221938
0.00207753
0.00192799
0.00177128
0.00164997
0.00177441
0.001787
0.00175247
0.00167978
0.00157652
0.00145857
0.00133489
0.00121712
0.0011197
0.00106593
0.00108608
0.00126648
0.00170731
0.00243108
0.00308526
0.00347789
0.00362126
0.00359544
0.00349898
0.00334647
0.00316123
0.0029768
0.00280374
0.00264327
0.00249362
0.00235066
0.00220698
0.00205825
0.00190389
0.001783
0.00204257
0.0020669
0.00204286
0.00197924
0.00187259
0.00173656
0.00158709
0.0014371
0.00130389
0.00121528
0.00121367
0.00139645
0.00186826
0.00261578
0.00327331
0.00365529
0.00378679
0.00375199
0.00364986
0.00349335
0.00330433
0.00311619
0.002939
0.00277344
0.00262
0.00247436
0.00233017
0.0021824
0.00203135
0.00191218
0.00229769
0.00233114
0.00231718
0.00226202
0.00216464
0.00202297
0.00185838
0.00168458
0.00152105
0.00140098
0.0013767
0.0015543
0.00204569
0.00279899
0.00344304
0.00380834
0.00392801
0.00388766
0.00378239
0.0036244
0.00343385
0.0032442
0.00306362
0.00289485
0.00273888
0.00259163
0.00244746
0.00230167
0.00215469
0.00203802
0.00253774
0.00257801
0.00257296
0.00252664
0.00243827
0.00230415
0.00213468
0.00194702
0.00176174
0.00161671
0.00157237
0.00173622
0.00223459
0.00297462
0.00359046
0.00393492
0.00404421
0.00400217
0.0038968
0.00373991
0.00355019
0.00336082
0.00317772
0.00300818
0.00285114
0.00270339
0.00255994
0.00241697
0.00227554
0.00216143
0.00275747
0.00280285
0.0028053
0.00276826
0.0026901
0.00256775
0.00240227
0.00221067
0.00201353
0.00185133
0.0017921
0.00193534
0.0024269
0.00313491
0.00371082
0.00403236
0.004134
0.00409442
0.00399249
0.00383945
0.00365289
0.00346533
0.00328351
0.00311429
0.00295752
0.00281061
0.00266856
0.00252907
0.00239439
0.00228313
0.00296263
0.00300009
0.00300675
0.00297939
0.00291214
0.00280172
0.00264753
0.00246057
0.00226114
0.00209027
0.00202071
0.00214065
0.0026113
0.00326972
0.00379821
0.00409701
0.00419485
0.00416211
0.00406787
0.00392151
0.00374139
0.00355884
0.00338013
0.00321302
0.00305795
0.00291295
0.00277363
0.00263859
0.00251054
0.00240345
0.00315351
0.00317762
0.00317951
0.00315282
0.00309292
0.00299493
0.00285545
0.00267963
0.00248635
0.00231462
0.002239
0.00233491
0.00277152
0.00336517
0.00384507
0.00412362
0.0042225
0.00420123
0.00411987
0.00398464
0.00381408
0.00363883
0.0034659
0.00330312
0.00315138
0.0030097
0.00287474
0.00274552
0.00262347
0.00252137
0.00332634
0.00333587
0.00332894
0.00329842
0.00324012
0.00314859
0.00301868
0.00285253
0.00266748
0.00250068
0.00242223
0.00249553
0.00288574
0.0034086
0.00384183
0.00410449
0.00420998
0.00420597
0.00414311
0.00402299
0.00386619
0.00370174
0.00353589
0.00338054
0.00323505
0.00309847
0.00296908
0.002846
0.00273059
0.00263444
0.00347607
0.00347099
0.0034535
0.00341715
0.00335785
0.00326915
0.00314403
0.00298397
0.00280427
0.00263921
0.00255274
0.00260088
0.00293248
0.00338622
0.00377618
0.0040283
0.00414715
0.00416614
0.00412601
0.004028
0.00389112
0.00374085
0.00358684
0.00343993
0.00330111
0.00317179
0.00304972
0.00293395
0.0028261
0.00273863
0.0035959
0.00357635
0.00354837
0.00350589
0.00344409
0.00335481
0.00323123
0.00307331
0.00289445
0.00272546
0.00262336
0.00264021
0.0028967
0.00328544
0.00363359
0.00388
0.00401819
0.00406349
0.00405208
0.00398432
0.00387623
0.00374674
0.00360917
0.00347547
0.00334714
0.0032266
0.00311281
0.00300587
0.00290777
0.00282929
0.00367597
0.00364338
0.00360639
0.00355827
0.00349184
0.00339954
0.00327475
0.00311548
0.00293314
0.00275478
0.00263031
0.00260887
0.00277683
0.00309849
0.00340311
0.00364425
0.00380251
0.00387459
0.00389761
0.00386832
0.00379639
0.00369814
0.00358635
0.00347365
0.00336152
0.00325267
0.00314944
0.00305331
0.00296659
0.00289778
0.00370299
0.00366077
0.00361735
0.00356278
0.00349054
0.00339507
0.00326708
0.0031043
0.00291756
0.00272966
0.00258308
0.00252229
0.00260314
0.00284041
0.00309849
0.00332457
0.00348556
0.00358304
0.00363956
0.00365016
0.00361965
0.0035604
0.00348439
0.00340209
0.0033157
0.0032288
0.00314374
0.00306216
0.0029873
0.00292794
0.00365975
0.00361505
0.00356683
0.00350797
0.00343449
0.00333707
0.0032071
0.00304375
0.00286052
0.00267443
0.00251952
0.00243112
0.00244314
0.00258622
0.00278656
0.00297264
0.00311244
0.0032161
0.00329265
0.00333141
0.00333607
0.0033142
0.00327487
0.0032273
0.00317309
0.00311621
0.003058
0.0029992
0.00294376
0.00289879
0.0035314
0.00349107
0.00344754
0.0033967
0.00333066
0.00324049
0.00311945
0.00296902
0.00280458
0.00264074
0.00250101
0.00240701
0.00237892
0.00244448
0.00257137
0.00269684
0.00279705
0.00288303
0.00294831
0.00298792
0.00300312
0.00299786
0.00297785
0.00295182
0.00292352
0.00289564
0.00286614
0.00283287
0.00280117
0.00277632
0.00333641
0.00331594
0.00329232
0.00326068
0.00321176
0.00313912
0.00304161
0.00292356
0.00279571
0.00266874
0.00255865
0.00247787
0.00243981
0.00245924
0.00252413
0.00259121
0.0026502
0.00270089
0.00273728
0.00275641
0.00275856
0.00274638
0.00272328
0.00269617
0.00266918
0.00264504
0.0026237
0.00260475
0.00259051
0.00258402
0.00313316
0.0031325
0.00313843
0.00313816
0.00311644
0.00307164
0.0030069
0.00292594
0.00283768
0.00274926
0.00266973
0.00260884
0.00257488
0.00257394
0.00259886
0.00262775
0.00265669
0.00268034
0.00269433
0.00269637
0.00268633
0.00266644
0.00263826
0.00260719
0.00257616
0.00254728
0.00252134
0.00249848
0.00248031
0.00247886
0.00297311
0.00297908
0.00299758
0.00301188
0.00301013
0.00299089
0.00295591
0.00290815
0.0028533
0.00279548
0.00273954
0.00269479
0.00266469
0.00265305
0.0026555
0.00266367
0.00267578
0.00268643
0.00269265
0.00269298
0.00268706
0.00267739
0.00266168
0.00264629
0.00263215
0.00261972
0.00260801
0.00259522
0.00258349
0.00258238
0.00285077
0.00286406
0.00288448
0.00289853
0.00289995
0.00288948
0.00286958
0.00284238
0.0028107
0.00277497
0.00273757
0.00270639
0.0026807
0.00266437
0.00265526
0.00265223
0.00265414
0.00265737
0.00266044
0.00266307
0.00266546
0.00266711
0.00267236
0.00267871
0.00268706
0.00269678
0.00270563
0.00271476
0.00271909
0.00271855
0.000155174
0.000162915
0.000162537
0.000159004
0.000153705
0.000147589
0.000141293
0.000135244
0.000129688
0.000124828
0.000120744
0.00011761
0.000115474
0.000114521
0.000114608
0.000115656
0.000117164
0.000118891
0.000120911
0.000123255
0.000125246
0.000125912
0.00012441
0.000120212
0.000113233
0.000103533
9.17331e-05
7.72989e-05
0.000310718
7.56142e-05
0.000562373
0.000645037
0.000634347
0.000597884
0.000556543
0.000517644
0.000484031
0.0004566
0.000435727
0.000422112
0.000415871
0.000418535
0.000428836
0.000446511
0.000464782
0.000479709
0.000482309
0.000476502
0.000467006
0.00045982
0.000456769
0.000457665
0.000456624
0.00044592
0.000422631
0.00038631
0.000339559
0.000282167
0.000258556
0.000222405
0.000859227
0.000998138
0.00102067
0.00099539
0.000951266
0.000904157
0.000861632
0.000827199
0.000803127
0.000792034
0.000795673
0.000817721
0.000857185
0.000911519
0.000965221
0.00100453
0.00101132
0.000994301
0.000962264
0.000927215
0.000897446
0.000876836
0.000856863
0.000827656
0.000782423
0.000712604
0.000621296
0.000510562
0.000421151
0.000376242
0.0010015
0.00118026
0.0012485
0.00124981
0.00121955
0.0011805
0.00114364
0.00111473
0.00109849
0.00109978
0.00112301
0.00117548
0.0012563
0.00135853
0.00145626
0.00152306
0.00153551
0.0015071
0.00145034
0.00138486
0.00132504
0.00127786
0.00123646
0.00118615
0.0011154
0.00101626
0.000888482
0.00073558
0.000595874
0.000529818
0.00104733
0.00123077
0.00133076
0.00136711
0.0013664
0.00134551
0.00132379
0.00130948
0.00130978
0.00133171
0.00138395
0.00147771
0.00161158
0.00177046
0.00191625
0.00200895
0.00202427
0.00198199
0.00189965
0.00180437
0.00171541
0.00164092
0.00157625
0.00150683
0.00141692
0.00129605
0.00114184
0.00095733
0.000779135
0.000689346
0.00102545
0.00119969
0.00131402
0.00137599
0.00140164
0.00140634
0.00140788
0.00141698
0.00144188
0.00149302
0.00158432
0.00173064
0.00192994
0.00215333
0.00234811
0.00246245
0.00247536
0.00241526
0.00230557
0.00218142
0.00206571
0.00196679
0.0018812
0.00179489
0.00169004
0.00155413
0.00138187
0.00117477
0.000967944
0.000857294
0.000980996
0.00113122
0.00124596
0.00132188
0.00136637
0.00139191
0.00141696
0.0014504
0.00150313
0.00158981
0.00173188
0.00194391
0.00222061
0.00251496
0.00275582
0.00288641
0.00289061
0.00280863
0.00267046
0.00251875
0.00237855
0.00225828
0.00215472
0.00205413
0.00193797
0.0017923
0.00160892
0.00138667
0.00115968
0.00103231
0.000951338
0.00106873
0.00117486
0.00125705
0.00131449
0.00135617
0.00139664
0.0014468
0.00151995
0.00164192
0.00183131
0.00213004
0.00249225
0.00285986
0.00314216
0.00328264
0.00327155
0.0031645
0.00299775
0.00282051
0.00265798
0.00251944
0.00240068
0.00228827
0.00216391
0.00201211
0.00182237
0.00159431
0.00135396
0.00121263
0.000953242
0.00104174
0.0011292
0.00120736
0.00126907
0.00132051
0.00137261
0.00143702
0.00152937
0.00167613
0.00191771
0.00230522
0.002753
0.00319176
0.00350866
0.00365171
0.00361912
0.00348495
0.00329115
0.00309098
0.00290857
0.00275458
0.00262315
0.00250108
0.00237043
0.00221536
0.00202319
0.00179176
0.00154503
0.00139539
0.000989087
0.00105797
0.00113887
0.00120206
0.00125597
0.00130775
0.00136395
0.00143658
0.001545
0.00171758
0.00200795
0.00246145
0.00300658
0.00351275
0.00385516
0.00399314
0.00393376
0.00377218
0.00355424
0.00333423
0.00313499
0.00296814
0.00282618
0.00269575
0.00256031
0.00240368
0.00221381
0.00198086
0.001733
0.00157997
0.00111643
0.00115789
0.0012026
0.00124971
0.00129863
0.00134067
0.00139103
0.00146234
0.00158009
0.00178146
0.00211041
0.00261776
0.00326022
0.00382349
0.00418009
0.00430563
0.00421605
0.00402832
0.00379065
0.00355424
0.00334188
0.00316434
0.00301382
0.00287645
0.00273678
0.00257921
0.00239146
0.00216172
0.00191746
0.00176523
0.00130862
0.0013397
0.00136982
0.00139659
0.00141675
0.00143395
0.0014608
0.00152491
0.00164463
0.00186226
0.00222065
0.00278842
0.00352225
0.00412269
0.00448065
0.00458731
0.00446662
0.00425618
0.00400409
0.00375523
0.00353326
0.0033472
0.00318987
0.00304601
0.00290277
0.00274475
0.00255929
0.0023356
0.00209857
0.00195053
0.00157435
0.00160614
0.0016272
0.00163065
0.00161915
0.00160485
0.00160197
0.00164029
0.0017438
0.00196429
0.00236457
0.00300779
0.00380069
0.00440631
0.00475297
0.00483582
0.00468655
0.00445886
0.00419839
0.00394115
0.00371287
0.00352034
0.00335717
0.00320756
0.00306117
0.00290323
0.00271938
0.00250444
0.00227757
0.00213584
0.00191253
0.00194821
0.00196035
0.0019415
0.00190136
0.00185114
0.001813
0.00181849
0.00190478
0.00213666
0.00258481
0.00327672
0.00407424
0.00466601
0.00499219
0.00504913
0.00487674
0.00463956
0.00437677
0.00411538
0.00388384
0.00368714
0.00351754
0.00336363
0.00321462
0.00305632
0.00287531
0.00266963
0.00245524
0.00232137
0.00230541
0.00233877
0.00233984
0.0023048
0.00224117
0.00215907
0.00208491
0.00205786
0.00211538
0.00234977
0.00284171
0.00355349
0.00432106
0.00489274
0.00519299
0.0052252
0.00503812
0.00480084
0.00454147
0.00428044
0.0040485
0.00384933
0.003674
0.00351664
0.00336542
0.00320644
0.00302955
0.00283319
0.00263237
0.0025074
0.00272015
0.00274687
0.00273691
0.00269034
0.00260887
0.00250249
0.00239816
0.00234202
0.00237308
0.00259981
0.00310517
0.00380605
0.00454041
0.0050783
0.0053497
0.00536171
0.00517096
0.0049437
0.00469286
0.00443757
0.00420799
0.00400748
0.00382885
0.00366862
0.00351582
0.00335814
0.00318473
0.00299736
0.00281116
0.00269446
0.00313125
0.00314612
0.00312844
0.00307112
0.00297631
0.00285328
0.00272688
0.00264724
0.00265684
0.00286274
0.00336307
0.00403266
0.00471793
0.00521314
0.00545605
0.00545564
0.00527402
0.00506666
0.00482938
0.00458539
0.00436115
0.0041609
0.00398151
0.00381973
0.00366724
0.00351224
0.00334323
0.00316451
0.00299365
0.00288413
0.00351869
0.00352172
0.00349316
0.00342544
0.00332037
0.00318606
0.00304497
0.00294715
0.00293943
0.00311206
0.00358962
0.00421264
0.00483778
0.0052865
0.00550474
0.00550242
0.00534347
0.00516441
0.00494644
0.0047193
0.004504
0.00430704
0.00412728
0.00396759
0.00381723
0.00366653
0.00350641
0.00333818
0.00317763
0.00307509
0.00387023
0.00385832
0.00381637
0.00373766
0.00362355
0.0034808
0.00332989
0.00321585
0.00319106
0.00332189
0.00375586
0.00432553
0.00488336
0.00528664
0.00548723
0.00549511
0.00537162
0.00522689
0.00503497
0.0048308
0.00462967
0.00443972
0.00426413
0.00410467
0.003958
0.0038145
0.00366511
0.00350855
0.00335891
0.00326423
0.00416994
0.00414269
0.00408689
0.00399698
0.00387404
0.00372344
0.00356324
0.00343212
0.00338423
0.00347013
0.00383738
0.00434932
0.00483883
0.00520178
0.00539383
0.00542397
0.00534529
0.00523918
0.00508082
0.0049058
0.0047255
0.00454912
0.00438211
0.00422775
0.00408497
0.00394721
0.00380521
0.00366117
0.00352327
0.00344272
0.00440826
0.00436391
0.004295
0.0041943
0.00406266
0.00390367
0.0037322
0.00358123
0.0035024
0.00353866
0.00382103
0.00426347
0.00469406
0.00502323
0.00521556
0.00527768
0.00524751
0.0051817
0.00506408
0.00492355
0.00477107
0.00461511
0.00446337
0.00432065
0.00418705
0.00405797
0.00392732
0.00379581
0.00367124
0.00360295
0.00457324
0.00451237
0.00443138
0.00432127
0.00418173
0.00401405
0.00382934
0.00365551
0.00353979
0.00352244
0.00371244
0.00406601
0.00444993
0.00475283
0.00495019
0.00504887
0.00506205
0.00503609
0.00496179
0.00485817
0.00473761
0.00460957
0.00448131
0.00435826
0.00424152
0.00412782
0.00401283
0.00389663
0.00378888
0.00373015
0.00465168
0.00457752
0.00448747
0.00437109
0.00422621
0.00405137
0.00385422
0.00365845
0.003507
0.00343773
0.00353865
0.0037984
0.00412845
0.0044171
0.00461519
0.00474298
0.00478965
0.00479716
0.00476161
0.00469499
0.00460871
0.0045118
0.00441171
0.00431419
0.0042211
0.00413006
0.00403725
0.00394172
0.00385346
0.00380297
0.00463289
0.00455195
0.00445881
0.00434206
0.00419768
0.00402134
0.00381855
0.00361051
0.0034368
0.00332679
0.00335884
0.00353581
0.00379779
0.00406723
0.00426073
0.00439945
0.00446454
0.00449495
0.00448774
0.00445045
0.00439314
0.00432385
0.00425
0.00417762
0.00410895
0.00404227
0.00397412
0.00390348
0.0038377
0.0037967
0.00451676
0.00443829
0.00435168
0.00424479
0.0041121
0.00394575
0.00375188
0.0035511
0.00337552
0.00325287
0.00324533
0.00335611
0.00355041
0.00377627
0.00395942
0.00408772
0.00415289
0.00419174
0.00419638
0.00417436
0.00413355
0.00408086
0.00402336
0.00396734
0.00391553
0.00386687
0.00381828
0.0037683
0.00372188
0.00369049
0.00432653
0.00426207
0.00419372
0.00411094
0.0040011
0.00386156
0.00369702
0.00352616
0.00337464
0.00326814
0.00324239
0.00330482
0.00343744
0.00360638
0.00376222
0.00386312
0.00391485
0.00394559
0.00394823
0.00392826
0.00389156
0.00384387
0.00379123
0.00373965
0.00369242
0.00364935
0.00360782
0.00356644
0.00352911
0.00350495
0.00411951
0.00407487
0.00403434
0.00398502
0.00391401
0.00381563
0.00369411
0.00356563