/*--------------------------------*- C++ -*----------------------------------*\
  =========                 |
  \\      /  F ield         | OpenFOAM: The Open Source CFD Toolbox
   \\    /   O peration     | Website:  https://openfoam.org
    \\  /    A nd           | Version:  12
     \\/     M anipulation  |
\*---------------------------------------------------------------------------*/
FoamFile
{
    format      ascii;
    class       volScalarField;
    location    "1100/air";
    object      p_rgh;
}
// * * * * * * * * * * * * * * * * * * * * * * * * * * * * * * * * * * * * * //

dimensions      [1 -1 -2 0 0 0 0];

internalField   nonuniform List<scalar> 
243000
(
29.5264
29.5303
29.5555
29.5488
29.528
29.4916
29.4541
29.4187
29.3858
29.362
29.3516
29.3573
29.3776
29.4213
29.4859
29.5773
29.6743
29.7798
29.8725
29.9484
30.0032
30.0401
30.0604
30.0706
30.0763
30.0792
30.0895
30.0973
30.1803
30.1903
29.5181
29.5193
29.5493
29.5395
29.5234
29.4933
29.4557
29.4201
29.387
29.3635
29.3542
29.3618
29.3841
29.4301
29.4928
29.5811
29.6799
29.786
29.8795
29.9555
30.0103
30.047
30.0685
30.0794
30.0849
30.0861
30.0952
30.0992
30.1833
30.1657
29.5143
29.5099
29.5402
29.5291
29.5137
29.4845
29.4465
29.4094
29.3774
29.3561
29.3487
29.3565
29.3774
29.4224
29.4851
29.5771
29.6809
29.7898
29.8844
29.9615
30.0169
30.0542
30.0769
30.0883
30.0936
30.0929
30.0998
30.0983
30.1732
30.1455
29.4989
29.4942
29.5258
29.5162
29.5016
29.4732
29.438
29.402
29.37
29.35
29.3436
29.3519
29.3719
29.4148
29.4761
29.5679
29.6716
29.7824
29.8805
29.9605
30.0171
30.0552
30.0787
30.091
30.0974
30.0958
30.1014
30.0954
30.1607
30.1262
29.4672
29.4661
29.5023
29.4972
29.4846
29.4581
29.4249
29.3918
29.3619
29.3427
29.3367
29.3448
29.3637
29.4042
29.4617
29.5519
29.6547
29.7658
29.8647
29.9463
30.0045
30.045
30.0716
30.087
30.096
30.0947
30.1003
30.091
30.1478
30.1084
29.4205
29.423
29.4648
29.4667
29.4585
29.436
29.4065
29.3767
29.3508
29.3342
29.3291
29.3367
29.3544
29.3927
29.4459
29.5326
29.6336
29.7443
29.8436
29.9263
29.9858
30.0285
30.0584
30.0775
30.0901
30.0901
30.0965
30.0846
30.1347
30.092
29.3623
29.3681
29.414
29.4226
29.4208
29.4047
29.381
29.3557
29.3344
29.3223
29.3195
29.3272
29.3439
29.3799
29.4287
29.5099
29.6079
29.7173
29.8162
29.8992
29.9593
30.0042
30.0376
30.061
30.078
30.0808
30.089
30.075
30.1212
30.0769
29.2966
29.3037
29.3535
29.369
29.3741
29.365
29.3477
29.3279
29.3121
29.3053
29.3065
29.3158
29.3318
29.3657
29.4097
29.4845
29.5777
29.6847
29.7824
29.8646
29.9249
29.9718
30.009
30.0372
30.0595
30.0663
30.0777
30.0634
30.1068
30.0636
29.2277
29.2321
29.2847
29.3074
29.3196
29.319
29.3092
29.296
29.2853
29.2831
29.2883
29.3012
29.3179
29.3497
29.3888
29.457
29.5434
29.6466
29.7421
29.8224
29.8825
29.9315
29.9726
30.0061
30.0343
30.0462
30.0621
30.0492
30.091
30.0509
29.1593
29.1586
29.2115
29.2403
29.2587
29.266
29.2656
29.2603
29.2554
29.2573
29.2654
29.2826
29.3013
29.3314
29.3661
29.4271
29.5053
29.6035
29.6953
29.7731
29.8325
29.8835
29.9287
29.9676
30.0024
30.0206
30.0422
30.0322
30.0735
30.0373
29.0932
29.0855
29.137
29.1706
29.1951
29.2093
29.2171
29.2201
29.2223
29.2288
29.24
29.2597
29.2813
29.3109
29.341
29.3944
29.4637
29.5555
29.6424
29.7168
29.7751
29.8281
29.8774
29.9222
29.9639
29.9894
30.0176
30.012
30.054
30.0221
29.0314
29.0165
29.065
29.1011
29.1307
29.1513
29.1659
29.1766
29.1856
29.1973
29.2124
29.234
29.2583
29.288
29.3133
29.3589
29.4188
29.5031
29.5836
29.654
29.711
29.7657
29.8193
29.87
29.9191
29.9525
29.9881
29.9885
30.0325
30.0054
28.9737
28.952
28.9975
29.0346
29.0672
29.0934
29.1136
29.131
29.1462
29.1633
29.1823
29.2063
29.2324
29.2621
29.2829
29.3207
29.3707
29.4466
29.5194
29.5852
29.6407
29.6971
29.7548
29.8116
29.8682
29.91
29.9533
29.962
30.0088
29.9872
28.9189
28.8922
28.9341
28.9714
29.0059
29.0361
29.0613
29.084
29.1049
29.1269
29.1498
29.1763
29.2033
29.2328
29.2496
29.2799
29.3197
29.3862
29.4505
29.5113
29.5648
29.6227
29.6845
29.7474
29.8114
29.8618
29.9135
29.9317
29.9829
29.9671
28.8656
28.836
28.8747
28.9116
28.947
28.9798
29.0091
29.0359
29.0615
29.088
29.1146
29.144
29.1712
29.2002
29.2133
29.2364
29.2659
29.3222
29.3775
29.4327
29.4842
29.5432
29.6089
29.6777
29.749
29.8082
29.8687
29.8975
29.9544
29.9457
28.8122
28.7821
28.8182
28.8546
28.8903
28.9249
28.957
28.9871
29.0163
29.0463
29.0764
29.1088
29.1365
29.1644
29.1736
29.19
29.2095
29.255
29.301
29.3503
29.3996
29.4595
29.5284
29.6028
29.6813
29.7495
29.8188
29.859
29.9227
29.9227
28.7588
28.7288
28.7631
28.7995
28.8355
28.8711
28.9053
28.9378
28.9696
29.0022
29.0352
29.0699
29.0986
29.125
29.1307
29.1406
29.1506
29.1853
29.2219
29.2651
29.3115
29.3715
29.4435
29.5233
29.6086
29.6856
29.7638
29.8154
29.8858
29.8982
28.7046
28.6762
28.7084
28.7445
28.7808
28.8175
28.8533
28.8876
28.9212
28.9556
28.9911
29.0273
29.0569
29.0817
29.0843
29.088
29.0895
29.1136
29.1408
29.1767
29.2201
29.2806
29.3555
29.4395
29.531
29.6165
29.7033
29.7664
29.844
29.8706
28.6456
28.6221
28.653
28.6892
28.7256
28.7629
28.7998
28.8354
28.8703
28.9064
28.9439
28.9812
29.011
29.0341
29.0341
29.032
29.0267
29.0402
29.0576
29.0868
29.1277
29.1882
29.2642
29.3515
29.4486
29.542
29.6373
29.7119
29.7966
29.8384
28.5791
28.5628
28.5931
28.6302
28.6677
28.7061
28.7443
28.7809
28.8163
28.8548
28.8931
28.9315
28.9608
28.9824
28.9797
28.973
28.9615
28.9653
28.9744
28.9981
29.0355
29.0942
29.1701
29.2599
29.3617
29.4621
29.5654
29.6514
29.743
29.8001
28.5002
28.4934
28.524
28.5631
28.6026
28.6431
28.6833
28.7212
28.7599
28.8009
28.8394
28.878
28.9061
28.9264
28.9215
28.9113
28.8943
28.891
28.8932
28.9105
28.9432
28.9988
29.0738
29.1651
29.2702
29.3765
29.4868
29.5836
29.682
29.7538
28.4029
28.4063
28.4392
28.4822
28.5255
28.5688
28.6117
28.6554
28.6993
28.7419
28.7812
28.8197
28.8468
28.866
28.8597
28.8477
28.8271
28.8183
28.8141
28.8245
28.8518
28.9037
28.9766
29.0675
29.1743
29.2848
29.4007
29.5071
29.6125
29.6974
28.2809
28.2946
28.3323
28.3806
28.429
28.4801
28.5315
28.583
28.6307
28.6757
28.7166
28.7556
28.7823
28.8011
28.7944
28.7824
28.7599
28.7468
28.7382
28.7422
28.7637
28.8111
28.88
28.9685
29.0744
29.187
29.3066
29.4206
29.5329
29.63
28.1194
28.1429
28.1889
28.2497
28.3125
28.3769
28.4392
28.4969
28.55
28.5996
28.6441
28.6849
28.7128
28.7323
28.7266
28.7163
28.6941
28.6791
28.667
28.6661
28.6813
28.7222
28.7855
28.8695
28.972
29.0837
29.2038
29.322
29.4395
29.5468
27.9219
27.9628
28.0266
28.105
28.1834
28.2587
28.3297
28.3961
28.4571
28.5135
28.5633
28.6079
28.6391
28.661
28.6593
28.6533
28.6342
28.6202
28.606
28.602
28.6119
28.6458
28.702
28.7785
28.8732
28.979
29.0946
29.213
29.3326
29.4474
27.6596
27.7237
27.8127
27.9143
28.0143
28.1096
28.1984
28.2805
28.3543
28.4213
28.4798
28.5311
28.5674
28.5949
28.5992
28.6004
28.5864
28.5756
28.5618
28.5558
28.5606
28.5863
28.6318
28.6967
28.7787
28.8732
28.9783
29.0887
29.2023
29.3176
27.3992
27.4956
27.6136
27.7412
27.8648
27.9796
28.0845
28.18
28.2643
28.3397
28.4053
28.4637
28.5071
28.5436
28.5571
28.5681
28.5624
28.5563
28.5447
28.538
28.5386
28.5562
28.5903
28.6419
28.7104
28.7925
28.8846
28.9853
29.092
29.2072
26.9056
27.0739
27.2652
27.46
27.6396
27.7974
27.9354
28.0576
28.1621
28.2539
28.333
28.4039
28.4588
28.5055
28.5286
28.5486
28.5502
28.5484
28.5365
28.5261
28.5198
28.5251
28.5412
28.5701
28.6147
28.6718
28.7373
28.8131
28.8939
28.9909
26.8895
27.1088
27.333
27.5432
27.7276
27.8823
28.0107
28.122
28.2177
28.3029
28.3778
28.4473
28.5034
28.5532
28.582
28.6115
28.6258
28.6396
28.6429
28.6463
28.6507
28.6636
28.6843
28.7173
28.7658
28.8262
28.8931
28.9707
29.0507
29.1619
25.5385
25.8784
26.2615
26.6284
26.9434
27.1965
27.3949
27.5561
27.6916
27.8111
27.913
28.0063
28.081
28.1454
28.1819
28.2129
28.2248
28.232
28.223
28.2069
28.1824
28.1536
28.1243
28.0998
28.0817
28.0701
28.0587
28.0595
28.0666
28.1212
29.3214
29.3913
29.4463
29.4549
29.4566
29.4465
29.425
29.3971
29.3706
29.3514
29.3403
29.3402
29.3477
29.3703
29.3973
29.4488
29.5072
29.5819
29.6524
29.7218
29.7854
29.8442
29.8943
29.9352
29.9697
29.9934
30.0206
30.0299
30.0998
30.1086
29.3166
29.3823
29.4448
29.4634
29.4674
29.4539
29.4306
29.4021
29.3755
29.3573
29.3473
29.3479
29.356
29.3792
29.4066
29.4579
29.5157
29.5903
29.6607
29.7308
29.7951
29.8542
29.9041
29.9445
29.9785
30.0012
30.0274
30.0329
30.1025
30.0751
29.2911
29.3518
29.4171
29.4407
29.4513
29.4435
29.4247
29.4009
29.3762
29.3584
29.3487
29.3507
29.3588
29.3813
29.4076
29.4583
29.516
29.5905
29.6601
29.7286
29.7915
29.8509
29.9024
29.9445
29.9791
30.0014
30.0273
30.0264
30.0935
30.0636
29.2571
29.3112
29.3744
29.4025
29.4202
29.4197
29.4075
29.3893
29.3692
29.3551
29.3482
29.352
29.3607
29.3823
29.4069
29.4556
29.5101
29.5821
29.649
29.7155
29.7771
29.8366
29.8908
29.9361
29.9743
29.9976
30.0238
30.0199
30.0838
30.0474
29.2185
29.2693
29.3307
29.3609
29.383
29.3875
29.3813
29.3688
29.3546
29.3462
29.3433
29.3499
29.3593
29.38
29.402
29.4473
29.4969
29.5648
29.6282
29.6923
29.7526
29.8129
29.8694
29.918
29.9603
29.986
30.0149
30.0088
30.0716
30.0309
29.1755
29.225
29.2879
29.3205
29.3454
29.3534
29.3517
29.3439
29.335
29.3321
29.3336
29.344
29.3549
29.3749
29.3939
29.4346
29.478
29.5403
29.5994
29.6604
29.7193
29.7812
29.8405
29.8934
29.9406
29.9699
30.0023
29.9948
30.0573
30.0155
29.1321
29.1801
29.2451
29.2803
29.3079
29.3188
29.3207
29.3168
29.3123
29.3142
29.32
29.334
29.3474
29.3669
29.3827
29.4181
29.4541
29.5096
29.5633
29.6208
29.6785
29.742
29.8049
29.8627
29.9157
29.9496
29.9865
29.9793
30.0415
30.0005
29.0898
29.1366
29.2042
29.2411
29.2708
29.2843
29.289
29.2887
29.2879
29.2934
29.303
29.3204
29.336
29.356
29.3685
29.3983
29.4257
29.4734
29.5207
29.5744
29.6309
29.6962
29.7633
29.8264
29.8857
29.9251
29.9675
29.9622
30.0247
29.9853
29.0468
29.0897
29.1614
29.2015
29.2334
29.2493
29.2565
29.2594
29.2621
29.2706
29.2831
29.3037
29.3207
29.3418
29.3511
29.3752
29.3934
29.4322
29.4723
29.522
29.5774
29.6448
29.7162
29.7849
29.8507
29.8966
29.9452
29.9433
30.0067
29.9694
29.0037
29.0355
29.1088
29.154
29.1909
29.2115
29.2228
29.2288
29.2345
29.2462
29.2611
29.2842
29.3022
29.3241
29.3305
29.3488
29.3574
29.3866
29.419
29.4644
29.5185
29.588
29.664
29.7386
29.8112
29.864
29.9196
29.9229
29.9876
29.9532
28.9635
28.9799
29.0494
29.0966
29.1386
29.1659
29.1846
29.1962
29.2055
29.2197
29.2372
29.2624
29.281
29.3029
29.3065
29.319
29.3178
29.3373
29.3615
29.4022
29.455
29.5267
29.6072
29.6878
29.7673
29.8275
29.8904
29.9007
29.9673
29.9369
28.9244
28.9256
28.9916
29.038
29.0817
29.114
29.1392
29.1584
29.1742
29.1917
29.2111
29.238
29.257
29.2783
29.279
29.2856
29.275
29.285
29.3004
29.3362
29.3876
29.4613
29.5464
29.6331
29.7195
29.7874
29.8579
29.8765
29.9458
29.9202
28.8872
28.8696
28.933
28.9805
29.0258
29.0617
29.0911
29.1158
29.1386
29.1622
29.1829
29.2112
29.23
29.2506
29.2479
29.2486
29.2291
29.2299
29.2365
29.2672
29.3169
29.3925
29.482
29.5747
29.6682
29.7436
29.8219
29.8502
29.9229
29.9028
28.8522
28.8185
28.8771
28.9233
28.9708
29.0099
29.0435
29.0722
29.0992
29.1298
29.1533
29.182
29.2002
29.2198
29.2134
29.2083
29.1798
29.1725
29.1708
29.1961
29.2438
29.321
29.4148
29.5133
29.6133
29.6964
29.7829
29.8217
29.8983
29.8845
28.8179
28.7718
28.8269
28.8704
28.9175
28.9594
28.9966
29.0295
29.0594
29.0938
29.1227
29.1509
29.1683
29.1865
29.1757
29.165
29.1279
29.113
29.1043
29.1235
29.1693
29.2478
29.3448
29.4489
29.5555
29.6468
29.7408
29.7906
29.8717
29.8653
28.7835
28.7289
28.7812
28.8229
28.8682
28.9115
28.9512
28.9877
29.0209
29.0565
29.0905
29.1184
29.1348
29.1507
29.1353
29.1192
29.0739
29.052
29.0372
29.0509
29.0934
29.1725
29.2727
29.3823
29.4957
29.5948
29.6956
29.7572
29.8427
29.8457
28.7456
28.6893
28.7393
28.7796
28.8236
28.867
28.9087
28.9478
28.9838
29.0205
29.0565
29.0849
29.0998
29.1127
29.0927
29.0714
29.0187
28.9909
28.9703
28.9766
29.0162
29.0965
29.201
29.3149
29.434
29.5403
29.6471
29.7195
29.8097
29.8259
28.7012
28.6482
28.6985
28.7394
28.7829
28.8264
28.8695
28.9107
28.9486
28.9867
29.0214
29.051
29.0635
29.0738
29.0488
29.0224
28.9635
28.9288
28.9021
28.9028
28.9423
29.0236
29.1295
29.2465
29.3703
29.4834
29.5948
29.6774
29.7724
29.8042
28.6506
28.6031
28.6542
28.6975
28.7428
28.7881
28.833
28.8766
28.9163
28.9553
28.9876
29.0181
29.0272
29.0346
29.0044
28.9735
28.9071
28.8662
28.8362
28.8368
28.8733
28.9522
29.0578
29.1776
29.3052
29.424
29.5404
29.6322
29.7314
29.7799
28.5917
28.5539
28.6056
28.6513
28.6989
28.7477
28.7962
28.8431
28.8854
28.9263
28.9575
28.9868
28.9921
28.996
28.9609
28.9251
28.8516
28.8091
28.7778
28.775
28.8066
28.883
28.9878
29.1094
29.2392
29.363
29.4841
29.5842
29.6879
29.751
28.5217
28.4972
28.5512
28.6006
28.6515
28.7038
28.7563
28.8074
28.8532
28.8975
28.9297
28.9568
28.9594
28.9594
28.9198
28.8796
28.8048
28.7594
28.7229
28.7155
28.7441
28.8184
28.9213
29.043
29.1737
29.3012
29.4263
29.5337
29.6417
29.7178
28.4369
28.429
28.4874
28.5429
28.5993
28.658
28.7155
28.772
28.8225
28.8698
28.9033
28.9295
28.9308
28.9274
28.884
28.8409
28.7652
28.7145
28.6726
28.6628
28.6896
28.7623
28.8622
28.9829
29.1128
29.2419
29.3687
29.4818
29.5928
29.6804
28.3352
28.3462
28.4113
28.4754
28.5411
28.6086
28.674
28.7378
28.7939
28.8435
28.8796
28.907
28.9079
28.9036
28.8569
28.8116
28.7334
28.6792
28.6334
28.6226
28.6494
28.7188
28.8133
28.9294
29.0563
29.1848
29.3119
29.4281
29.5406
29.6374
28.2112
28.2442
28.3191
28.3937
28.4698
28.5466
28.6229
28.6966
28.7617
28.8185
28.859
28.89
28.8932
28.8901
28.8416
28.7955
28.7166
28.6598
28.611
28.5977
28.6197
28.6807
28.7679
28.8769
28.9998
29.1263
29.2528
29.3713
29.4839
29.5876
28.0631
28.1231
28.2111
28.3004
28.3912
28.4825
28.5712
28.6546
28.7286
28.7952
28.8426
28.8793
28.8876
28.8864
28.8391
28.794
28.7145
28.6562
28.6026
28.5825
28.596
28.6461
28.7278
28.8299
28.9477
29.0705
29.1946
29.3138
29.4259
29.5345
27.8905
27.9849
28.0922
28.2003
28.3107
28.4215
28.5257
28.6202
28.7018
28.7751
28.8289
28.8727
28.8883
28.8917
28.8492
28.808
28.7295
28.6704
28.6125
28.5888
28.5988
28.6419
28.7153
28.8063
28.9122
29.0261
29.144
29.2608
29.3687
29.4802
27.7194
27.8558
27.9824
28.1105
28.2419
28.3716
28.4903
28.5952
28.6845
28.7648
28.8254
28.8793
28.9022
28.9107
28.8748
28.8411
28.7671
28.7102
28.6524
28.6296
28.6382
28.6747
28.7366
28.8207
28.9189
29.0221
29.1242
29.2297
29.3282
29.4404
27.5377
27.7128
27.8662
28.0271
28.1909
28.3451
28.4812
28.6024
28.7105
28.8014
28.8703
28.9316
28.9599
28.9755
28.9487
28.9224
28.8518
28.7951
28.7354
28.709
28.7137
28.7441
28.7956
28.8671
28.9493
29.0386
29.128
29.2134
29.2915
29.3931
27.5964
27.8074
27.9876
28.1769
28.3648
28.5374
28.6852
28.8139
28.9267
29.0233
29.0969
29.1605
29.1913
29.2139
29.1941
29.172
29.1019
29.0457
28.9834
28.9517
28.9497
28.9718
29.0129
29.0717
29.1425
29.2213
29.2985
29.3728
29.4393
29.5295
28.3499
28.5286
28.6744
28.8412
29.0134
29.1707
29.3002
29.408
29.4971
29.5718
29.6253
29.6718
29.6902
29.7062
29.6847
29.6634
29.5987
29.5518
29.4998
29.4801
29.489
29.5236
29.5782
29.6515
29.7388
29.8323
29.9202
30.0056
30.0803
30.1795
29.1276
29.0803
29.0936
29.0886
29.0967
29.1096
29.1209
29.1321
29.1443
29.1639
29.186
29.2194
29.2486
29.2903
29.3185
29.3663
29.3987
29.4436
29.4775
29.5252
29.5829
29.6542
29.7289
29.8004
29.8661
29.9142
29.9545
29.9597
29.9998
29.9998
29.1124
29.065
29.0874
29.0912
29.1063
29.1219
29.1342
29.1458
29.1582
29.1778
29.1998
29.2331
29.262
29.3038
29.3322
29.3811
29.4144
29.4609
29.4957
29.5432
29.5992
29.6692
29.7432
29.8133
29.8774
29.9235
29.9621
29.9638
30.0037
29.968
29.0887
29.0513
29.0772
29.0865
29.1045
29.1216
29.137
29.1503
29.1639
29.1846
29.2073
29.2411
29.2697
29.3118
29.3393
29.3884
29.42
29.4653
29.4986
29.5451
29.6006
29.6711
29.7458
29.8163
29.8806
29.926
29.9641
29.9634
30.0019
29.9676
29.054
29.0324
29.0604
29.0763
29.0993
29.119
29.1365
29.153
29.169
29.1908
29.2142
29.2485
29.2765
29.3185
29.3445
29.393
29.4218
29.466
29.4948
29.5376
29.5911
29.6631
29.7414
29.815
29.8808
29.9262
29.9643
29.9614
29.9981
29.96
29.018
29.012
29.0414
29.0631
29.0907
29.1131
29.1327
29.151
29.1685
29.1924
29.217
29.2527
29.2798
29.3214
29.3442
29.3909
29.4152
29.4553
29.4795
29.5185
29.5683
29.6394
29.7191
29.7988
29.8697
29.9181
29.9585
29.9548
29.9923
29.9518
28.9899
28.994
29.0241
29.0498
29.0803
29.1051
29.1267
29.1468
29.1658
29.1912
29.2164
29.253
29.2791
29.3208
29.3398
29.3836
29.4016
29.4365
29.4549
29.4896
29.5361
29.607
29.6887
29.7721
29.8487
29.9023
29.9475
29.9447
29.9845
29.9437
28.971
28.9809
29.012
29.0394
29.0715
29.0977
29.1205
29.1416
29.1617
29.1884
29.2143
29.2518
29.277
29.3181
29.3317
29.3715
29.3819
29.4102
29.4221
29.4522
29.4957
29.5669
29.6515
29.7392
29.8213
29.8805
29.9324
29.932
29.9747
29.9351
28.9511
28.9662
28.9998
29.0288
29.0624
29.0899
29.1141
29.1365
29.1574
29.1848
29.211
29.2492
29.2731
29.3128
29.3201
29.3552
29.3565
29.3773
29.382
29.4074
29.4479
29.5199
29.608
29.7006
29.7888
29.8542
29.9131
29.9168
29.9632
29.9259
28.9245
28.9448
28.9843
29.0162
29.0517
29.0808
29.1061
29.13
29.1524
29.1809
29.2068
29.2452
29.2672
29.3048
29.3051
29.3347
29.3262
29.3385
29.3358
29.3562
29.3937
29.467
29.5589
29.6568
29.7517
29.8237
29.8899
29.8992
29.95
29.9159
28.8944
28.915
28.9625
28.9995
29.0383
29.0703
29.097
29.1218
29.1459
29.1761
29.2021
29.2394
29.2592
29.2945
29.2867
29.3104
29.2912
29.2946
29.2845
29.2995
29.334
29.4087
29.5049
29.6085
29.7102
29.7893
29.8631
29.8791
29.9351
29.9044
28.8656
28.8817
28.935
28.9767
29.0198
29.0552
29.0854
29.1124
29.1376
29.1696
29.1961
29.232
29.2489
29.2815
29.265
29.2826
29.2518
29.2465
29.2286
29.2381
29.2695
29.3459
29.4465
29.5561
29.6649
29.7513
29.8329
29.8567
29.9184
29.8912
28.8389
28.8478
28.9041
28.9485
28.9963
29.0352
29.0691
29.0999
29.128
29.1611
29.1877
29.2226
29.2362
29.2656
29.2403
29.2516
29.2083
29.1948
29.169
29.173
29.2012
29.2793
29.3845
29.5002
29.6162
29.7101
29.7994
29.8319
29.8997
29.8767
28.8149
28.8144
28.8713
28.9162
28.9673
29.0109
29.0489
29.0834
29.1154
29.1508
29.1769
29.211
29.2208
29.247
29.2127
29.2176
29.1617
29.1399
29.1059
29.1048
29.1299
29.2096
29.3194
29.4415
29.5645
29.666
29.7629
29.8053
29.879
29.8613
28.7921
28.78
28.8373
28.8823
28.935
28.9824
29.0247
29.0636
29.0989
29.1373
29.1637
29.1968
29.2026
29.2257
29.1823
29.1811
29.1123
29.0828
29.0404
29.0348
29.0566
29.1377
29.252
29.3804
29.51
29.6193
29.7235
29.777
29.8564
29.8453
28.7685
28.7453
28.8028
28.8476
28.901
28.9514
28.9975
29.0407
29.0794
29.1199
29.1474
29.1799
29.1815
29.2017
29.1495
29.1426
29.0611
29.0233
28.9736
28.9635
28.9821
29.0646
29.183
29.3174
29.4536
29.5706
29.6811
29.7463
29.8314
29.8286
28.743
28.7106
28.7687
28.8136
28.8669
28.919
28.9685
29.0156
29.0576
29.0996
29.1279
29.1606
29.1576
29.1754
29.1148
29.1027
29.0088
28.9629
28.9062
28.8919
28.9074
28.9908
29.1135
29.253
29.3956
29.5197
29.6362
29.7139
29.8037
29.8128
28.7146
28.6763
28.7349
28.7806
28.834
28.8866
28.9391
28.9893
29.034
29.0777
29.1059
29.1392
29.1316
29.1474
29.0789
29.0623
28.9561
28.9034
28.839
28.8207
28.8338
28.9183
29.0436
29.1873
29.336
29.4674
29.5912
29.6799
29.7735
29.798
28.6819
28.6417
28.7012
28.748
28.8021
28.8553
28.9101
28.9633
29.01
29.0554
29.0826
29.1163
29.1046
29.1186
29.0429
29.0225
28.9047
28.8447
28.773
28.7523
28.763
28.847
28.9723
29.1207
29.2754
29.4151
29.5447
29.6415
29.7394
29.7814
28.6424
28.6065
28.667
28.7155
28.7709
28.8256
28.8824
28.9391
28.9875
29.0341
29.0601
29.0938
29.0782
29.0906
29.008
28.9845
28.8564
28.7892
28.7107
28.6869
28.6945
28.775
28.9021
29.0546
29.2142
29.3601
29.4939
29.5997
29.7034
29.7609
28.5947
28.5676
28.6308
28.6822
28.7401
28.798
28.8572
28.917
28.9677
29.0155
29.0404
29.0735
29.0546
29.0652
28.9762
28.9502
28.8131
28.7389
28.6521
28.6239
28.6278
28.7063
28.8363
28.9908
29.1533
29.3049
29.4443
29.5583
29.6669
29.7376
28.5385
28.5239
28.5907
28.6467
28.7089
28.7716
28.835
28.8982
28.9519
29.0011
29.0258
29.0582
29.0364
29.045
28.95
28.9222
28.7772
28.6949
28.5982
28.5663
28.5655
28.6451
28.7744
28.9295
29.0934
29.2504
29.3959
29.5174
29.6293
29.7106
28.4724
28.4736
28.5455
28.6082
28.6765
28.7459
28.8148
28.8827
28.9405
28.9924
29.0183
29.0507
29.0264
29.0333
28.9329
28.9036
28.7508
28.6603
28.5544
28.5159
28.5118
28.5894
28.7148
28.8692
29.0339
29.1946
29.345
29.4742
29.5896
29.6795
28.3944
28.4135
28.4939
28.5657
28.642
28.72
28.796
28.8696
28.9321
28.9882
29.0177
29.053
29.027
29.0334
28.9277
28.898
28.737
28.6387
28.522
28.4735
28.4688
28.541
28.6621
28.8138
28.9775
29.1404
29.2926
29.4266
29.5461
29.645
28.3009
28.3447
28.4366
28.5205
28.6074
28.6942
28.7777
28.8579
28.9264
28.9888
29.0281
29.0661
29.04
29.0442
28.9358
28.9066
28.7355
28.6313
28.5053
28.4481
28.4421
28.5083
28.6222
28.7687
28.9303
29.0921
29.2439
29.3799
29.4997
29.6076
28.1928
28.2697
28.3766
28.475
28.5741
28.6701
28.7616
28.8487
28.9245
28.9997
29.0462
29.0887
29.065
29.069
28.9594
28.9321
28.7569
28.6474
28.5086
28.4453
28.4347
28.4961
28.6033
28.743
28.8996
29.057
29.2048
29.339
29.4567
29.5701
28.0733
28.1937
28.317
28.4323
28.5443
28.65
28.7503
28.845
28.9325
29.0188
29.0732
29.122
29.102
29.11
29.001
28.9777
28.7996
28.686
28.5378
28.4632
28.4456
28.5032
28.608
28.744
28.8939
29.0445
29.1855
29.3142
29.4258
29.5382
27.9673
28.1321
28.272
28.4023
28.5259
28.6415
28.7514
28.8629
28.9606
29.0532
29.1154
29.1715
29.1569
29.1731
29.0668
29.0527
28.876
28.7618
28.6063
28.521
28.4929
28.5376
28.6295
28.7606
28.9068
29.0536
29.1908
29.3159
29.4204
29.529
27.8964
28.0923
28.2436
28.3869
28.5232
28.658
28.7852
28.9049
29.0091
29.1069
29.1757
29.239
29.2308
29.2578
29.1578
29.1567
28.9817
28.8672
28.7053
28.6098
28.571
28.6064
28.6838
28.8003
28.9381
29.0824
29.2166
29.3385
29.4382
29.5452
27.9017
28.1276
28.2939
28.4509
28.5954
28.7349
28.8648
28.9846
29.0889
29.1872
29.2594
29.3294
29.3305
29.3717
29.2798
29.2973
29.1271
29.0172
28.8524
28.7499
28.6993
28.7238
28.79
28.8914
29.0153
29.1472
29.2734
29.3915
29.488
29.5994
28.0208
28.228
28.3938
28.5545
28.7018
28.8407
28.9669
29.082
29.1826
29.2781
29.3509
29.4247
29.437
29.4939
29.4184
29.4691
29.3162
29.2234
29.0658
28.9643
28.9051
28.9189
28.9732
29.0629
29.1775
29.3071
29.4357
29.5596
29.6638
29.7737
29.2294
29.0123
28.9748
28.915
28.8941
28.9026
28.9247
28.9558
28.9912
29.0357
29.0781
29.132
29.168
29.2149
29.2218
29.2427
29.2177
29.211
29.1912
29.2125
29.269
29.3682
29.4881
29.6118
29.7292
29.8222
29.8937
29.9093
29.9284
29.9425
29.1756
28.9549
28.9448
28.9034
28.898
28.9158
28.9419
28.9746
29.0106
29.055
29.0969
29.1499
29.1847
29.2309
29.2374
29.2596
29.2357
29.2311
29.2124
29.2316
29.284
29.383
29.5021
29.6245
29.7406
29.8316
29.9014
29.9152
29.9342
29.9156
29.1149
28.9176
28.917
28.8891
28.8954
28.918
28.9494
28.9853
29.0227
29.0678
29.1099
29.1627
29.1961
29.2418
29.2459
29.2666
29.2393
29.2329
29.2116
29.2272
29.2814
29.384
29.505
29.628
29.7441
29.8343
29.9037
29.917
29.9342
29.9134
29.0397
28.8737
28.8817
28.8698
28.8884
28.9161
28.9523
28.9931
29.0334
29.0795
29.1218
29.1745
29.2062
29.2511
29.2517
29.2704
29.2377
29.2276
29.2021
29.2116
29.2609
29.3673
29.4958
29.6235
29.7416
29.8323
29.9023
29.9167
29.9331
29.9069
28.9632
28.8351
28.8481
28.8501
28.8788
28.9116
28.9508
28.9942
29.0376
29.0867
29.13
29.1827
29.2121
29.256
29.2516
29.2668
29.2261
29.2098
29.1781
29.1823
29.227
29.3326
29.4671
29.603
29.726
29.8202
29.8944
29.91
29.9303
29.8997
28.8908
28.8021
28.8191
28.8324
28.8686
28.9062
28.9483
28.9934
29.0385
29.0902
29.1341
29.1884
29.2141
29.2575
29.2465
29.2566
29.2052
29.1808
29.1425
29.1414
29.1824
29.2883
29.4253
29.57
29.6998
29.7995
29.8801
29.8987
29.925
29.8923
28.829
28.7757
28.7957
28.8179
28.8588
28.9005
28.9452
28.9922
29.0384
29.0921
29.1354
29.1911
29.2131
29.2558
29.2369
29.2404
29.1751
29.1416
29.0964
29.0903
29.1284
29.2361
29.3767
29.5273
29.665
29.7716
29.8595
29.8836
29.9172
29.8844
28.7851
28.7596
28.7813
28.8077
28.8512
28.8952
28.9418
28.9904
29.0377
29.0927
29.1354
29.1912
29.2106
29.2513
29.2231
29.2184
29.1371
29.0936
29.0402
29.0301
29.0662
29.1767
29.3221
29.4776
29.6235
29.7378
29.8332
29.8647
29.9065
29.8758
28.7556
28.7499
28.7721
28.8011
28.8462
28.8919
28.9395
28.9891
29.0367
29.0924
29.1347
29.1904
29.2065
29.2441
29.2055
29.1913
29.0925
29.0371
28.975
28.9618
28.9966
29.1112
29.2623
29.4233
29.5767
29.6992
29.8023
29.8423
29.8935
29.8659
28.733
28.7401
28.7642
28.7958
28.8424
28.8894
28.9379
28.9883
29.0362
29.0921
29.1333
29.1889
29.2004
29.2346
29.1844
29.1594
29.041
28.9727
28.9027
28.8864
28.9207
29.0403
29.1978
29.3653
29.5258
29.6564
29.7675
29.8168
29.878
29.8548
28.7149
28.7293
28.7567
28.7912
28.8391
28.8875
28.9367
28.9876
29.0357
29.0918
29.1312
29.1865
29.1926
29.2231
29.16
29.1231
28.9832
28.9022
28.8241
28.8046
28.8395
28.9649
29.1297
29.3043
29.4714
29.6102
29.7296
29.7896
29.8599
29.8423
28.7011
28.7175
28.7488
28.7861
28.8354
28.8854
28.9355
28.9871
29.0351
29.0913
29.1286
29.1832
29.1831
29.2096
29.1327
29.0827
28.9199
28.8262
28.7389
28.7176
28.7541
28.8858
29.0589
29.241
29.4145
29.5614
29.6886
29.7602
29.8395
29.8287
28.6879
28.7039
28.7399
28.7797
28.8307
28.8823
28.9336
28.9861
29.034
29.0903
29.1253
29.1785
29.172
29.1945
29.1026
29.0388
28.8517
28.7452
28.6486
28.6263
28.6655
28.8044
28.9861
29.1758
29.356
29.5103
29.645
29.7292
29.8168
29.8146
28.6732
28.6866
28.7287
28.7711
28.8244
28.8779
28.9305
28.9839
29.0323
29.0886
29.121
29.1725
29.1595
29.1781
29.0703
28.9916
28.7792
28.6589
28.5553
28.5321
28.5751
28.7215
28.912
29.1091
29.2966
29.4585
29.6005
29.6965
29.7914
29.8009
28.6585
28.6672
28.715
28.76
28.8159
28.872
28.9264
28.9807
29.0295
29.0854
29.1156
29.1659
29.1465
29.1609
29.0363
28.9418
28.7033
28.5693
28.4594
28.4362
28.484
28.6384
28.8369
29.0418
29.2376
29.4076
29.5569
29.6631
29.7645
29.7871
28.6424
28.6462
28.6995
28.7473
28.8059
28.8644
28.9209
28.9765
29.0252
29.081
29.1094
29.1589
29.1335
29.1434
29.0011
28.89
28.6244
28.4801
28.3619
28.3398
28.3934
28.5557
28.7617
28.9764
29.1814
29.3594
29.5153
29.6302
29.7366
29.7721
28.6234
28.6237
28.6829
28.7338
28.795
28.8563
28.915
28.9717
29.0201
29.0762
29.1032
29.1516
29.1207
29.1261
28.9656
28.8371
28.5444
28.3907
28.2649
28.2446
28.3044
28.4742
28.69
28.9142
29.1299
29.3154
29.4766
29.5986
29.7088
29.7558
28.6014
28.5999
28.665
28.7196
28.7838
28.848
28.9094
28.9672
29.0153
29.0721
29.0979
29.1456
29.109
29.1097
28.9306
28.7843
28.4666
28.3025
28.1701
28.1525
28.2185
28.3991
28.6222
28.8542
29.0808
29.2744
29.4405
29.5683
29.6813
29.738
28.5753
28.5755
28.6461
28.705
28.7726
28.8402
28.9047
28.9638
29.0119
29.0694
29.0945
29.1423
29.0999
29.0952
28.8975
28.7334
28.3924
28.2197
28.0809
28.0659
28.1426
28.3307
28.5534
28.7949
29.03
29.2335
29.4047
29.5372
29.6525
29.7185
28.5447
28.5495
28.626
28.6903
28.7619
28.8334
28.9011
28.9622
29.0108
29.0692
29.094
29.1429
29.0943
29.0841
28.868
28.6869
28.3246
28.1461
28.0019
27.9913
28.0775
28.2594
28.4829
28.7341
28.9761
29.1885
29.3673
29.5054
29.6231
29.698
28.5084
28.5215
28.6045
28.6753
28.7514
28.8274
28.8991
28.9635
29.0162
29.0786
29.1021
29.1493
29.0948
29.0791
28.8442
28.649
28.2694
28.0911
27.9388
27.9277
28.0094
28.1857
28.4145
28.674
28.9236
29.1428
29.3287
29.4749
29.5959
29.678
28.4644
28.4904
28.5808
28.6592
28.7411
28.8225
28.8984
28.9697
29.0304
29.0951
29.1175
29.1627
29.1014
29.0821
28.8289
28.6256
28.2356
28.0555
27.8875
27.872
27.9418
28.1186
28.3533
28.6196
28.8763
29.1021
29.2928
29.445
29.5707
29.6588
28.411
28.4554
28.5548
28.6418
28.7304
28.8179
28.8996
28.9801
29.0497
29.1185
29.1419
29.1847
29.1174
29.093
28.8249
28.6192
28.2203
28.0341
27.849
27.8277
27.8905
28.0639
28.2992
28.5712
28.8335
29.0658
29.2612
29.4184
29.5464
29.6429
28.3466
28.4178
28.5266
28.6231
28.7193
28.8134
28.9026
28.9939
29.0729
29.1474
29.1748
29.2165
29.1451
29.1168
28.8352
28.6321
28.2163
28.0276
27.833
27.802
27.8598
28.0272
28.2595
28.531
28.7977
29.0348
29.2346
29.3964
29.5268
29.6318
28.2705
28.3773
28.4969
28.6039
28.7081
28.8097
28.9073
29.0098
29.0994
29.1814
29.2147
29.2582
29.1861
29.155
28.8628
28.6688
28.2451
28.0553
27.8451
27.8065
27.8624
28.023
28.2433
28.505
28.7729
29.0131
29.2161
29.3818
29.5132
29.6232
28.1891
28.3347
28.4665
28.5855
28.6986
28.8076
28.9157
29.0302
29.1298
29.2205
29.2614
29.3096
29.2399
29.2096
28.9093
28.7302
28.2959
28.1046
27.8804
27.8323
27.8783
28.0351
28.2515
28.5065
28.763
29.0057
29.211
29.3797
29.5114
29.6242
28.1166
28.2967
28.4401
28.5705
28.692
28.81
28.9321
29.0591
29.1667
29.2664
29.3172
29.3717
29.3059
29.281
28.9744
28.8138
28.3686
28.1785
27.9412
27.8827
27.9177
28.0625
28.2705
28.5186
28.7727
29.0105
29.2167
29.3873
29.5188
29.6351
28.0606
28.2671
28.4222
28.564
28.6977
28.8325
28.9659
29.0989
29.213
29.3198
29.3794
29.442
29.3809
29.3652
29.056
28.9307
28.483
28.3008
28.0525
27.9829
28.0018
28.1219
28.3096
28.5481
28.7924
29.0245
29.2288
29.4007
29.5355
29.6586
28.0447
28.2583
28.4213
28.579
28.7261
28.8693
29.0064
29.1413
29.2588
29.3699
29.4352
29.5064
29.4511
29.4508
29.146
29.0665
28.6208
28.4541
28.2009
28.1246
28.129
28.2275
28.3899
28.6057
28.8378
29.0642
29.2645
29.4357
29.574
29.7063
28.0823
28.2865
28.4533
28.6152
28.7651
28.9095
29.0461
29.1793
29.2971
29.4102
29.4778
29.5553
29.505
29.5266
29.235
29.2158
28.7847
28.6403
28.3897
28.3107
28.2988
28.378
28.5136
28.703
28.9135
29.126
29.3211
29.4947
29.6408
29.7803
29.3851
29.0036
28.9215
28.7926
28.719
28.7031
28.7199
28.7587
28.8083
28.8757
28.9416
29.0314
29.0966
29.1944
29.227
29.2821
29.2302
29.1752
29.0834
29.0572
29.0827
29.1803
29.3167
29.4688
29.6226
29.7563
29.8682
29.9095
29.917
29.94
29.2983
28.9025
28.8629
28.7566
28.7093
28.7082
28.7337
28.7767
28.8285
28.8969
28.9629
29.0524
29.1164
29.2145
29.2462
29.3036
29.2533
29.2026
29.1105
29.0795
29.0956
29.1911
29.3275
29.48
29.634
29.7668
29.8758
29.9154
29.9194
29.9208
29.2006
28.841
28.8149
28.7258
28.699
28.7082
28.7416
28.7893
28.8437
28.9132
28.9794
29.0695
29.1319
29.2314
29.2602
29.3195
29.2654
29.2138
29.1149
29.0804
29.0947
29.1928
29.3309
29.4842
29.6383
29.7701
29.8771
29.9181
29.9188
29.9125
29.0839
28.7731
28.7593
28.6914
28.6853
28.7053
28.7448
28.7985
28.8561
28.9282
28.9943
29.0854
29.1456
29.2477
29.2728
29.3348
29.274
29.214
29.1088
29.0688
29.0741
29.1725
29.3193
29.4782
29.6338
29.7658
29.8716
29.9176