/*--------------------------------*- C++ -*----------------------------------*\
  =========                 |
  \\      /  F ield         | OpenFOAM: The Open Source CFD Toolbox
   \\    /   O peration     | Website:  https://openfoam.org
    \\  /    A nd           | Version:  12
     \\/     M anipulation  |
\*---------------------------------------------------------------------------*/
FoamFile
{
    format      ascii;
    class       volScalarField;
    location    "1100/air";
    object      T;
}
// * * * * * * * * * * * * * * * * * * * * * * * * * * * * * * * * * * * * * //

dimensions      [0 0 0 1 0 0 0];

internalField   nonuniform List<scalar> 
243000
(
301.02
300.938
300.802
300.704
300.639
300.599
300.565
300.532
300.499
300.462
300.423
300.382
300.342
300.304
300.27
300.239
300.212
300.189
300.171
300.155
300.143
300.134
300.126
300.12
300.115
300.111
300.108
300.107
300.105
300.103
301.034
300.968
300.906
300.856
300.802
300.744
300.689
300.636
300.583
300.529
300.475
300.421
300.37
300.323
300.281
300.245
300.214
300.188
300.168
300.152
300.139
300.13
300.122
300.116
300.112
300.108
300.105
300.103
300.103
300.102
301.05
300.982
300.93
300.888
300.85
300.812
300.771
300.726
300.676
300.614
300.548
300.479
300.413
300.352
300.299
300.254
300.218
300.188
300.166
300.149
300.137
300.127
300.12
300.114
300.109
300.106
300.103
300.101
300.101
300.1
301.045
300.983
300.935
300.896
300.862
300.83
300.8
300.765
300.725
300.676
300.613
300.538
300.46
300.386
300.321
300.266
300.223
300.19
300.166
300.148
300.135
300.125
300.118
300.112
300.108
300.104
300.101
300.099
300.099
300.098
301.026
300.972
300.929
300.893
300.862
300.833
300.807
300.78
300.749
300.711
300.66
300.593
300.51
300.424
300.346
300.281
300.23
300.193
300.166
300.147
300.134
300.124
300.117
300.111
300.107
300.103
300.1
300.098
300.097
300.097
301.005
300.957
300.917
300.884
300.854
300.828
300.804
300.781
300.757
300.728
300.688
300.633
300.557
300.464
300.374
300.298
300.239
300.197
300.167
300.147
300.133
300.123
300.116
300.11
300.106
300.102
300.099
300.097
300.096
300.095
300.985
300.942
300.905
300.873
300.845
300.82
300.797
300.776
300.756
300.733
300.703
300.658
300.593
300.502
300.404
300.316
300.249
300.202
300.169
300.147
300.133
300.122
300.115
300.109
300.105
300.101
300.098
300.096
300.095
300.094
300.966
300.927
300.893
300.863
300.836
300.811
300.789
300.768
300.75
300.732
300.708
300.673
300.618
300.536
300.432
300.335
300.26
300.207
300.172
300.148
300.133
300.122
300.114
300.108
300.104
300.101
300.098
300.096
300.094
300.093
300.949
300.913
300.881
300.853
300.826
300.802
300.781
300.761
300.743
300.726
300.708
300.68
300.635
300.562
300.459
300.355
300.272
300.214
300.175
300.15
300.133
300.122
300.114
300.108
300.104
300.1
300.097
300.095
300.094
300.093
300.934
300.901
300.871
300.843
300.818
300.794
300.773
300.753
300.736
300.72
300.704
300.681
300.644
300.581
300.482
300.373
300.284
300.221
300.179
300.152
300.134
300.122
300.114
300.108
300.103
300.1
300.097
300.095
300.093
300.092
300.921
300.889
300.86
300.834
300.809
300.786
300.765
300.746
300.729
300.714
300.699
300.68
300.649
300.594
300.501
300.39
300.296
300.228
300.183
300.154
300.135
300.123
300.114
300.108
300.103
300.099
300.097
300.094
300.093
300.091
300.909
300.878
300.85
300.825
300.801
300.779
300.758
300.739
300.723
300.708
300.693
300.676
300.65
300.601
300.515
300.405
300.307
300.236
300.188
300.157
300.137
300.123
300.114
300.108
300.103
300.099
300.096
300.094
300.092
300.091
300.897
300.868
300.841
300.816
300.793
300.771
300.751
300.733
300.716
300.702
300.688
300.672
300.648
300.605
300.526
300.418
300.319
300.244
300.194
300.16
300.139
300.124
300.115
300.108
300.103
300.099
300.096
300.094
300.092
300.091
300.887
300.859
300.833
300.808
300.785
300.764
300.744
300.727
300.71
300.696
300.682
300.667
300.645
300.607
300.534
300.43
300.329
300.252
300.199
300.164
300.141
300.126
300.115
300.108
300.103
300.099
300.096
300.094
300.092
300.091
300.877
300.85
300.824
300.801
300.778
300.757
300.738
300.721
300.705
300.69
300.677
300.662
300.641
300.606
300.539
300.439
300.339
300.261
300.205
300.168
300.144
300.128
300.117
300.109
300.103
300.099
300.096
300.094
300.092
300.09
300.867
300.841
300.816
300.793
300.771
300.751
300.732
300.715
300.699
300.685
300.672
300.657
300.637
300.604
300.542
300.447
300.349
300.269
300.212
300.173
300.147
300.13
300.118
300.11
300.104
300.1
300.096
300.094
300.092
300.09
300.857
300.832
300.808
300.786
300.765
300.745
300.726
300.709
300.694
300.68
300.666
300.651
300.631
300.601
300.543
300.454
300.358
300.278
300.219
300.178
300.151
300.132
300.12
300.111
300.105
300.1
300.097
300.094
300.092
300.09
300.847
300.822
300.8
300.778
300.758
300.738
300.72
300.703
300.688
300.674
300.66
300.645
300.626
300.597
300.543
300.459
300.366
300.286
300.226
300.184
300.155
300.135
300.122
300.112
300.106
300.101
300.097
300.094
300.092
300.091
300.837
300.813
300.791
300.77
300.75
300.732
300.714
300.697
300.682
300.668
300.654
300.639
300.62
300.591
300.541
300.463
300.375
300.295
300.234
300.19
300.16
300.139
300.124
300.114
300.107
300.102
300.098
300.095
300.092
300.091
300.827
300.805
300.783
300.763
300.744
300.725
300.707
300.69
300.675
300.66
300.645
300.63
300.612
300.585
300.538
300.466
300.382
300.304
300.242
300.197
300.165
300.143
300.127
300.116
300.108
300.103
300.098
300.095
300.093
300.091
300.817
300.796
300.776
300.756
300.738
300.719
300.701
300.684
300.667
300.651
300.636
300.621
300.603
300.577
300.535
300.469
300.39
300.314
300.251
300.205
300.171
300.147
300.131
300.119
300.11
300.104
300.099
300.096
300.093
300.091
300.807
300.787
300.768
300.75
300.732
300.714
300.696
300.678
300.66
300.642
300.626
300.611
300.593
300.569
300.531
300.471
300.397
300.324
300.261
300.213
300.178
300.153
300.135
300.122
300.113
300.106
300.101
300.097
300.094
300.092
300.796
300.778
300.761
300.743
300.726
300.708
300.69
300.671
300.653
300.635
300.618
300.602
300.585
300.562
300.527
300.473
300.405
300.334
300.272
300.223
300.186
300.159
300.14
300.126
300.115
300.108
300.102
300.098
300.095
300.093
300.785
300.768
300.752
300.736
300.719
300.702
300.684
300.665
300.647
300.629
300.612
300.595
300.577
300.555
300.524
300.475
300.413
300.345
300.284
300.234
300.195
300.167
300.146
300.13
300.119
300.111
300.104
300.1
300.096
300.094
300.772
300.757
300.742
300.727
300.712
300.695
300.678
300.661
300.643
300.625
300.608
300.59
300.572
300.551
300.522
300.479
300.421
300.358
300.297
300.246
300.206
300.176
300.153
300.136
300.123
300.114
300.107
300.102
300.098
300.095
300.758
300.746
300.733
300.72
300.706
300.691
300.675
300.659
300.642
300.625
300.607
300.588
300.57
300.549
300.521
300.482
300.429
300.369
300.311
300.26
300.218
300.186
300.161
300.143
300.129
300.118
300.11
300.104
300.1
300.096
300.745
300.735
300.725
300.713
300.701
300.687
300.672
300.656
300.638
300.62
300.602
300.583
300.564
300.543
300.517
300.481
300.434
300.379
300.323
300.273
300.23
300.197
300.17
300.15
300.135
300.123
300.114
300.108
300.102
300.098
300.72
300.712
300.703
300.693
300.682
300.669
300.654
300.638
300.619
300.6
300.581
300.561
300.542
300.522
300.498
300.467
300.426
300.377
300.327
300.28
300.239
300.205
300.178
300.157
300.141
300.128
300.118
300.111
300.105
300.1
300.648
300.64
300.631
300.622
300.61
300.596
300.579
300.56
300.54
300.519
300.498
300.479
300.461
300.443
300.424
300.4
300.369
300.332
300.293
300.256
300.222
300.193
300.169
300.15
300.135
300.123
300.114
300.107
300.101
300.097
300.313
300.309
300.31
300.308
300.303
300.294
300.283
300.271
300.259
300.247
300.235
300.225
300.216
300.208
300.199
300.189
300.177
300.162
300.145
300.129
300.113
300.1
300.089
300.08
300.072
300.067
300.062
300.059
300.056
300.054
300.295
300.222
300.205
300.195
300.188
300.183
300.178
300.175
300.171
300.167
300.163
300.159
300.154
300.149
300.144
300.138
300.132
300.127
300.122
300.117
300.112
300.108
300.103
300.099
300.095
300.092
300.09
300.089
300.092
300.096
300.363
300.275
300.243
300.224
300.212
300.204
300.197
300.191
300.184
300.178
300.173
300.167
300.16
300.154
300.147
300.14
300.132
300.125
300.12
300.115
300.11
300.106
300.102
300.098
300.095
300.092
300.09
300.088
300.09
300.094
300.445
300.348
300.306
300.282
300.265
300.252
300.239
300.226
300.212
300.201
300.191
300.182
300.173
300.163
300.153
300.143
300.133
300.125
300.118
300.113
300.108
300.104
300.101
300.097
300.094
300.091
300.089
300.088
300.088
300.091
300.539
300.433
300.381
300.35
300.328
300.311
300.295
300.278
300.258
300.238
300.219
300.204
300.189
300.176
300.162
300.148
300.135
300.125
300.117
300.111
300.107
300.103
300.099
300.096
300.093
300.091
300.089
300.087
300.087
300.089
300.629
300.526
300.465
300.427
300.399
300.377
300.357
300.336
300.313
300.287
300.259
300.233
300.212
300.192
300.172
300.153
300.138
300.125
300.116
300.11
300.105
300.101
300.098
300.095
300.093
300.09
300.088
300.087
300.086
300.088
300.7
300.605
300.541
300.498
300.466
300.441
300.418
300.395
300.37
300.34
300.307
300.272
300.24
300.211
300.184
300.16
300.141
300.126
300.116
300.109
300.104
300.1
300.097
300.094
300.092
300.09
300.088
300.086
300.086
300.087
300.756
300.674
300.61
300.564
300.528
300.498
300.472
300.447
300.421
300.391
300.356
300.315
300.273
300.233
300.198
300.168
300.144
300.127
300.116
300.108
300.103
300.099
300.096
300.094
300.091
300.089
300.088
300.086
300.086
300.086
300.794
300.731
300.671
300.624
300.585
300.552
300.522
300.494
300.466
300.435
300.4
300.358
300.308
300.257
300.213
300.176
300.148
300.129
300.116
300.108
300.103
300.099
300.095
300.093
300.091
300.089
300.087
300.086
300.085
300.085
300.809
300.769
300.721
300.676
300.636
300.6
300.567
300.536
300.506
300.474
300.439
300.396
300.342
300.281
300.227
300.184
300.152
300.131
300.117
300.108
300.102
300.098
300.095
300.092
300.09
300.089
300.087
300.086
300.085
300.085
300.797
300.781
300.749
300.713
300.677
300.641
300.607
300.574
300.541
300.508
300.472
300.429
300.373
300.304
300.241
300.192
300.157
300.133
300.118
300.108
300.102
300.097
300.094
300.092
300.09
300.088
300.087
300.086
300.085
300.084
300.765
300.765
300.751
300.727
300.698
300.668
300.636
300.604
300.571
300.537
300.499
300.456
300.399
300.324
300.253
300.199
300.161
300.135
300.119
300.108
300.102
300.097
300.094
300.092
300.09
300.088
300.087
300.085
300.085
300.084
300.727
300.73
300.728
300.718
300.701
300.678
300.652
300.623
300.592
300.559
300.522
300.477
300.419
300.34
300.264
300.206
300.165
300.138
300.12
300.109
300.102
300.097
300.094
300.091
300.089
300.088
300.086
300.085
300.085
300.084
300.697
300.699
300.698
300.694
300.686
300.673
300.655
300.631
300.604
300.573
300.537
300.493
300.434
300.352
300.273
300.212
300.169
300.141
300.122
300.11
300.102
300.097
300.094
300.091
300.089
300.088
300.086
300.085
300.084
300.084
300.677
300.676
300.673
300.67
300.665
300.657
300.645
300.629
300.607
300.58
300.546
300.502
300.442
300.36
300.279
300.217
300.173
300.143
300.124
300.111
300.103
300.097
300.094
300.091
300.089
300.087
300.086
300.085
300.084
300.084
300.663
300.659
300.654
300.649
300.644
300.638
300.63
300.618
300.602
300.58
300.549
300.506
300.447
300.364
300.284
300.222
300.177
300.146
300.126
300.112
300.104
300.098
300.094
300.091
300.089
300.087
300.086
300.085
300.084
300.084
300.655
300.648
300.64
300.633
300.626
300.619
300.612
300.603
300.59
300.573
300.546
300.506
300.448
300.366
300.288
300.226
300.181
300.15
300.128
300.114
300.105
300.099
300.094
300.091
300.089
300.087
300.086
300.085
300.084
300.084
300.651
300.641
300.631
300.621
300.612
300.604
300.596
300.587
300.576
300.561
300.538
300.501
300.445
300.367
300.291
300.23
300.185
300.153
300.131
300.116
300.106
300.1
300.095
300.092
300.089
300.088
300.086
300.085
300.085
300.084
300.65
300.638
300.625
300.614
300.602
300.592
300.582
300.572
300.561
300.548
300.526
300.492
300.439
300.365
300.292
300.233
300.189
300.157
300.134
300.119
300.108
300.101
300.096
300.092
300.09
300.088
300.087
300.086
300.085
300.084
300.65
300.636
300.623
300.609
300.596
300.584
300.571
300.559
300.548
300.534
300.513
300.481
300.431
300.362
300.294
300.237
300.193
300.161
300.138
300.122
300.111
300.103
300.097
300.093
300.091
300.089
300.087
300.086
300.085
300.084
300.65
300.635
300.621
300.607
300.592
300.578
300.564
300.55
300.536
300.521
300.5
300.469
300.423
300.359
300.295
300.241
300.198
300.166
300.142
300.125
300.114
300.105
300.099
300.095
300.092
300.089
300.088
300.086
300.085
300.085
300.649
300.635
300.62
300.605
300.59
300.575
300.559
300.543
300.527
300.51
300.489
300.459
300.415
300.356
300.297
300.245
300.203
300.171
300.147
300.13
300.117
300.108
300.101
300.096
300.093
300.09
300.088
300.087
300.086
300.085
300.647
300.633
300.618
300.603
300.588
300.572
300.554
300.537
300.519
300.501
300.479
300.45
300.408
300.355
300.3
300.25
300.21
300.178
300.153
300.135
300.121
300.111
300.104
300.098
300.094
300.092
300.089
300.088
300.087
300.086
300.644
300.63
300.615
300.6
300.585
300.568
300.55
300.531
300.512
300.493
300.47
300.442
300.403
300.355
300.304
300.257
300.218
300.186
300.16
300.141
300.126
300.115
300.107
300.101
300.097
300.093
300.091
300.089
300.087
300.086
300.638
300.624
300.609
300.594
300.578
300.561
300.544
300.525
300.505
300.485
300.462
300.435
300.399
300.355
300.308
300.265
300.226
300.195
300.169
300.148
300.132
300.12
300.111
300.104
300.099
300.095
300.092
300.09
300.088
300.087
300.627
300.613
300.6
300.585
300.569
300.553
300.535
300.517
300.497
300.477
300.454
300.428
300.395
300.356
300.314
300.273
300.237
300.205
300.179
300.157
300.14
300.127
300.116
300.108
300.102
300.098
300.094
300.092
300.09
300.088
300.61
300.597
300.584
300.57
300.555
300.54
300.523
300.505
300.486
300.466
300.444
300.42
300.391
300.357
300.321
300.284
300.25
300.219
300.192
300.169
300.15
300.135
300.123
300.114
300.107
300.101
300.097
300.093
300.091
300.089
300.583
300.57
300.558
300.546
300.534
300.52
300.505
300.489
300.471
300.451
300.431
300.409
300.384
300.356
300.326
300.295
300.263
300.234
300.206
300.182
300.161
300.144
300.13
300.12
300.111
300.104
300.099
300.095
300.092
300.09
300.54
300.529
300.519
300.51
300.499
300.487
300.473
300.457
300.439
300.421
300.402
300.382
300.362
300.341
300.317
300.292
300.265
300.238
300.212
300.188
300.166
300.149
300.134
300.122
300.112
300.105
300.099
300.094
300.091
300.088
300.449
300.439
300.432
300.426
300.418
300.408
300.394
300.379
300.363
300.346
300.33
300.315
300.3
300.285
300.269
300.251
300.232
300.21
300.189
300.168
300.149
300.133
300.12
300.109
300.1
300.093
300.088
300.084
300.081
300.078
300.254
300.251
300.252
300.252
300.25
300.246
300.239
300.23
300.221
300.212
300.203
300.194
300.186
300.178
300.169
300.158
300.147
300.133
300.119
300.106
300.093
300.082
300.073
300.066
300.06
300.056
300.052
300.049
300.047
300.046
300.197
300.185
300.178
300.172
300.167
300.163
300.159
300.156
300.152
300.149
300.145
300.142
300.138
300.134
300.13
300.126
300.122
300.118
300.115
300.111
300.106
300.101
300.096
300.092
300.088
300.084
300.082
300.081
300.085
300.092
300.215
300.198
300.187
300.178
300.172
300.167
300.162
300.157
300.153
300.149
300.145
300.141
300.137
300.132
300.128
300.123
300.118
300.114
300.111
300.107
300.103
300.099
300.095
300.091
300.087
300.085
300.082
300.081
300.083
300.089
300.238
300.215
300.2
300.189
300.18
300.173
300.167
300.162
300.157
300.152
300.147
300.143
300.138
300.132
300.126
300.121
300.115
300.111
300.108
300.104
300.101
300.097
300.094
300.09
300.087
300.084
300.082
300.081
300.082
300.087
300.271
300.241
300.22
300.205
300.194
300.185
300.177
300.17
300.164
300.158
300.152
300.146
300.14
300.134
300.126
300.119
300.113
300.109
300.105
300.102
300.099
300.096
300.093
300.09
300.087
300.084
300.082
300.081
300.081
300.085
300.322
300.283
300.253
300.231
300.215
300.203
300.193
300.184
300.175
300.168
300.161
300.153
300.145
300.137
300.128
300.119
300.112
300.107
300.103
300.1
300.097
300.094
300.092
300.089
300.086
300.084
300.082
300.081
300.081
300.083
300.397
300.35
300.308
300.276
300.253
300.234
300.219
300.206
300.194
300.183
300.173
300.163
300.153
300.142
300.13
300.12
300.112
300.106
300.102
300.098
300.096
300.093
300.091
300.088
300.086
300.084
300.082
300.081
300.081
300.082
300.477
300.425
300.375
300.335
300.304
300.279
300.258
300.239
300.222
300.206
300.191
300.177
300.163
300.148
300.134
300.121
300.112
300.105
300.1
300.097
300.094
300.092
300.09
300.088
300.086
300.084
300.082
300.081
300.081
300.082
300.544
300.497
300.444
300.399
300.362
300.331
300.304
300.28
300.258
300.237
300.215
300.194
300.175
300.156
300.138
300.123
300.112
300.105
300.099
300.096
300.093
300.091
300.089
300.087
300.085
300.084
300.082
300.081
300.081
300.081
300.595
300.559
300.51
300.463
300.421
300.385
300.354
300.325
300.298
300.271
300.244
300.216
300.189
300.164
300.142
300.125
300.113
300.104
300.099
300.095
300.092
300.09
300.088
300.087
300.085
300.084
300.082
300.081
300.081
300.081
300.626
300.605
300.564
300.52
300.478
300.439
300.403
300.37
300.338
300.307
300.275
300.239
300.204
300.173
300.147
300.128
300.114
300.105
300.099
300.095
300.092
300.09
300.088
300.086
300.085
300.084
300.082
300.082
300.081
300.081
300.638
300.63
300.602
300.565
300.525
300.486
300.449
300.412
300.377
300.341
300.304
300.262
300.218
300.182
300.152
300.13
300.115
300.105
300.098
300.094
300.091
300.089
300.087
300.086
300.085
300.083
300.082
300.082
300.081
300.081
300.634
300.637
300.619
300.592
300.559
300.523
300.486
300.449
300.411
300.372
300.33
300.283
300.232
300.19
300.157
300.133
300.117
300.106
300.099
300.094
300.091
300.089
300.087
300.086
300.084
300.083
300.082
300.082
300.081
300.081
300.62
300.629
300.622
300.603
300.577
300.547
300.514
300.477
300.439
300.398
300.352
300.301
300.244
300.197
300.161
300.136
300.118
300.107
300.099
300.094
300.091
300.089
300.087
300.086
300.084
300.083
300.083
300.082
300.081
300.081
300.6
300.612
300.612
300.602
300.583
300.558
300.529
300.496
300.459
300.417
300.369
300.313
300.253
300.203
300.165
300.138
300.12
300.108
300.1
300.094
300.091
300.089
300.087
300.085
300.084
300.083
300.083
300.082
300.082
300.082
300.578
300.591
300.595
300.59
300.578
300.559
300.535
300.505
300.47
300.429
300.379
300.321
300.259
300.207
300.169
300.141
300.122
300.109
300.101
300.095
300.091
300.089
300.087
300.085
300.084
300.083
300.083
300.082
300.082
300.082
300.559
300.57
300.575
300.574
300.566
300.552
300.533
300.507
300.475
300.434
300.385
300.326
300.264
300.211
300.172
300.144
300.124
300.111
300.102
300.096
300.092
300.089
300.087
300.086
300.084
300.084
300.083
300.082
300.082
300.082
300.545
300.553
300.557
300.557
300.552
300.541
300.525
300.503
300.475
300.436
300.387
300.329
300.267
300.215
300.175
300.146
300.127
300.113
300.104
300.097
300.093
300.09
300.088
300.086
300.085
300.084
300.083
300.083
300.082
300.082
300.536
300.54
300.542
300.542
300.537
300.528
300.514
300.495
300.469
300.433
300.386
300.329
300.269
300.218
300.178
300.149
300.129
300.115
300.106
300.099
300.094
300.091
300.088
300.087
300.085
300.084
300.083
300.083
300.082
300.082
300.531
300.532
300.531
300.529
300.524
300.515
300.503
300.485
300.46
300.427
300.382
300.328
300.27
300.22
300.182
300.153
300.133
300.118
300.108
300.101
300.096
300.092
300.089
300.087
300.086
300.085
300.084
300.083
300.083
300.083
300.531
300.527
300.524
300.519
300.513
300.504
300.491
300.474
300.451
300.419
300.376
300.326
300.272
300.224
300.186
300.157
300.137
300.122
300.111
300.103
300.098
300.094
300.091
300.088
300.087
300.085
300.084
300.084
300.083
300.083
300.533
300.526
300.52
300.513
300.504
300.494
300.481
300.464
300.442
300.411
300.371
300.323
300.274
300.227
300.191
300.162
300.142
300.126
300.115
300.107
300.1
300.096
300.092
300.089
300.088
300.086
300.085
300.084
300.084
300.083
300.535
300.526
300.517
300.508
300.498
300.487
300.473
300.456
300.433
300.404
300.366
300.322
300.276
300.232
300.197
300.169
300.148
300.132
300.12
300.11
300.103
300.098
300.094
300.091
300.089
300.087
300.086
300.085
300.084
300.084
300.536
300.526
300.516
300.505
300.493
300.481
300.466
300.449
300.427
300.398
300.363
300.323
300.279
300.238
300.204
300.176
300.155
300.138
300.125
300.115
300.107
300.101
300.097
300.093
300.09
300.088
300.087
300.086
300.085
300.084
300.535
300.525
300.514
300.502
300.489
300.475
300.46
300.443
300.421
300.395
300.362
300.325
300.284
300.246
300.213
300.186
300.164
300.147
300.133
300.122
300.113
300.105
300.1
300.096
300.092
300.09
300.088
300.086
300.085
300.085
300.53
300.519
300.508
300.496
300.483
300.469
300.454
300.437
300.416
300.392
300.362
300.328
300.291
300.255
300.224
300.198
300.176
300.157
300.142
300.129
300.119
300.111
300.104
300.099
300.095
300.092
300.089
300.087
300.086
300.085
300.518
300.508
300.497
300.485
300.473
300.459
300.444
300.427
300.408
300.385
300.359
300.329
300.296
300.264
300.235
300.209
300.187
300.168
300.152
300.138
300.126
300.116
300.108
300.102
300.097
300.093
300.09
300.088
300.087
300.085
300.494
300.484
300.474
300.464
300.453
300.44
300.426
300.41
300.392
300.371
300.348
300.322
300.294
300.267
300.241
300.217
300.196
300.176
300.159
300.144
300.131
300.12
300.111
300.104
300.098
300.094
300.09
300.088
300.086
300.084
300.448
300.439
300.43
300.422
300.413
300.403
300.39
300.374
300.358
300.339
300.32
300.299
300.277
300.255
300.233
300.212
300.192
300.174
300.157
300.142
300.129
300.117
300.108
300.101
300.095
300.09
300.087
300.084
300.081
300.08
300.361
300.356
300.351
300.347
300.341
300.334
300.323
300.31
300.296
300.281
300.266
300.251
300.235
300.218
300.202
300.184
300.168
300.152
300.137
300.123
300.111
300.101
300.092
300.085
300.08
300.076
300.072
300.07
300.068
300.066
300.219
300.22
300.222
300.223
300.224
300.222
300.217
300.21
300.202
300.194
300.185
300.176
300.167
300.157
300.145
300.133
300.12
300.108
300.096
300.085
300.076
300.068
300.061
300.056
300.052
300.049
300.046
300.044
300.042
300.041
300.186
300.177
300.172
300.167
300.163
300.159
300.155
300.152
300.149
300.145
300.142
300.138
300.134
300.131
300.127
300.123
300.119
300.116
300.113
300.108
300.102
300.096
300.09
300.086
300.082
300.079
300.077
300.078
300.083
300.091
300.192
300.182
300.175
300.169
300.164
300.159
300.155
300.151
300.147
300.143
300.139
300.135
300.13
300.126
300.122
300.118
300.114
300.111
300.108
300.104
300.099
300.094
300.089
300.085
300.082
300.079
300.077
300.078
300.081
300.088
300.198
300.189
300.181
300.174
300.167
300.162
300.156
300.151
300.147
300.142
300.137
300.133
300.128
300.123
300.118
300.113
300.11
300.107
300.104
300.101
300.097
300.093
300.088
300.085
300.082
300.08
300.078
300.077
300.08
300.086
300.207
300.198
300.189
300.181
300.173
300.166
300.16
300.154
300.148
300.143
300.138
300.132
300.127
300.121
300.115
300.11
300.107
300.104
300.101
300.098
300.095
300.091
300.088
300.085
300.082
300.08
300.078
300.078
300.08
300.084
300.221
300.213
300.203
300.193
300.183
300.174
300.166
300.159
300.152
300.146
300.14
300.133
300.127
300.12
300.113
300.108
300.104
300.101
300.099
300.096
300.093
300.09
300.087
300.084
300.082
300.08
300.078
300.078
300.079
300.082
300.243
300.237
300.225
300.211
300.198
300.186
300.176
300.167
300.159
300.151
300.144
300.136
300.128
300.12
300.113
300.107
300.102
300.099
300.097
300.094
300.092
300.089
300.086
300.084
300.082
300.08
300.078
300.078
300.079
300.081
300.28
300.276
300.26
300.24
300.221
300.205
300.191
300.18
300.169
300.16
300.15
300.14
300.13
300.121
300.112
300.105
300.101
300.097
300.095
300.093
300.09
300.088
300.086
300.084
300.082
300.08
300.079
300.078
300.079
300.081
300.331
300.329
300.306
300.279
300.254
300.232
300.214
300.198
300.184
300.171
300.159
300.146
300.134
300.122
300.112
300.105
300.1
300.096
300.093
300.091
300.089
300.087
300.085
300.083
300.082
300.08
300.079
300.078
300.079
300.08
300.381
300.383
300.358
300.325
300.294
300.267
300.243
300.223
300.204
300.187
300.17
300.154
300.138
300.125
300.113
300.105
300.099
300.095
300.092
300.09
300.088
300.086
300.084
300.083
300.081
300.08
300.079
300.079
300.079
300.08
300.424
300.433
300.409
300.374
300.338
300.306
300.277
300.252
300.229
300.206
300.184
300.163
300.144
300.127
300.114
300.105
300.099
300.094
300.091
300.089
300.087
300.085
300.084
300.083
300.081
300.08
300.079
300.079
300.079
300.08
300.458
300.474
300.454
300.42
300.383
300.347
300.314
300.283
300.255
300.227
300.199
300.173
300.149
300.13
300.116
300.105
300.098
300.094
300.091
300.088
300.086
300.085
300.083
300.082
300.081
300.08
300.08
300.079
300.079
300.08
300.482
300.503
300.49
300.46
300.423
300.386
300.349
300.315
300.282
300.249
300.215
300.182
300.155
300.133
300.117
300.106
300.099
300.094
300.09
300.088
300.086
300.084
300.083
300.082
300.081
300.081
300.08
300.08
300.08
300.08
300.494
300.52
300.514
300.489
300.456
300.419
300.381
300.344
300.306
300.268
300.23
300.192
300.16
300.136
300.119
300.107
300.099
300.094
300.09
300.087
300.085
300.084
300.083
300.082
300.081
300.081
300.08
300.08
300.08
300.081
300.497
300.524
300.524
300.507
300.478
300.444
300.406
300.367
300.327
300.285
300.242
300.2
300.165
300.139
300.121
300.108
300.1
300.094
300.09
300.087
300.085
300.084
300.083
300.082
300.081
300.081
300.08
300.08
300.08
300.081
300.493
300.518
300.525
300.513
300.49
300.459
300.424
300.385
300.343
300.298
300.252
300.206
300.169
300.142
300.123
300.109
300.101
300.095
300.09
300.088
300.085
300.084
300.083
300.082
300.081
300.081
300.081
300.08
300.081
300.081
300.486
300.508
300.517
300.512
300.493
300.467
300.434
300.396
300.354
300.307
300.259
300.212
300.173
300.145
300.125
300.111
300.102
300.095
300.091
300.088
300.086
300.084
300.083
300.082
300.082
300.081
300.081
300.081
300.081
300.081
300.478
300.496
300.505
300.504
300.491
300.469
300.438
300.402
300.36
300.313
300.264
300.216
300.177
300.147
300.127
300.113
300.103
300.097
300.092
300.089
300.087
300.085
300.084
300.083
300.082
300.082
300.081
300.081
300.081
300.082
300.472
300.485
300.492
300.493
300.483
300.465
300.439
300.404
300.363
300.317
300.268
300.22
300.18
300.15
300.129
300.115
300.105
300.099
300.094
300.09
300.088
300.086
300.084
300.083
300.082
300.082
300.081
300.081
300.081
300.082
300.468
300.476
300.481
300.481
300.474
300.458
300.435
300.404
300.364
300.318
300.27
300.224
300.184
300.154
300.133
300.118
300.108
300.101
300.096
300.092
300.089
300.087
300.085
300.084
300.083
300.082
300.082
300.082
300.082
300.082
300.467
300.471
300.473
300.471
300.464
300.45
300.429
300.401
300.363
300.319
300.273
300.227
300.188
300.158
300.136
300.121
300.111
300.104
300.098
300.094
300.091
300.088
300.086
300.085
300.084
300.083
300.082
300.082
300.082
300.083
300.469
300.468
300.467
300.464
300.456
300.443
300.423
300.397
300.362
300.32
300.275
300.231
300.192
300.162
300.141
300.126
300.115
300.107
300.101
300.096
300.092
300.09
300.087
300.086
300.084
300.083
300.083
300.083
300.083
300.083
300.471
300.468
300.464
300.458
300.449
300.436
300.418
300.393
300.36
300.321
300.278
300.236
300.198
300.169
300.147
300.131
300.12
300.112
300.105
300.099
300.095
300.092
300.089
300.087
300.085
300.084
300.083
300.083
300.083
300.083
300.473
300.468
300.462
300.454
300.444
300.431
300.413
300.39
300.359
300.322
300.282
300.241
300.205
300.176
300.154
300.138
300.126
300.117
300.109
300.103
300.098
300.094
300.091
300.088
300.086
300.085
300.084
300.083
300.083
300.083
300.474
300.467
300.459
300.45
300.439
300.426
300.409
300.387
300.359
300.324
300.286
300.248
300.213
300.185
300.163
300.147
300.134
300.124
300.115
300.108
300.102
300.097
300.093
300.09
300.088
300.086
300.085
300.084
300.083
300.083
300.469
300.462
300.453
300.444
300.432
300.419
300.403
300.383
300.357
300.326
300.29
300.255
300.222
300.195
300.173
300.156
300.142
300.131
300.121
300.113
300.106
300.1
300.095
300.091
300.089
300.086
300.085
300.084
300.083
300.083
300.456
300.449
300.441
300.432
300.421
300.408
300.392
300.373
300.35
300.323
300.292
300.259
300.229
300.203
300.182
300.164
300.149
300.137
300.126
300.117
300.109
300.102
300.096
300.092
300.089
300.086
300.085
300.083
300.083
300.082
300.43
300.424
300.416
300.408
300.398
300.387
300.373
300.356
300.335
300.312
300.285
300.258
300.231
300.207
300.186
300.168
300.152
300.138
300.126
300.116
300.108
300.101
300.095
300.09
300.087
300.084
300.082
300.081
300.08
300.079
300.383
300.378
300.373
300.367
300.359
300.35
300.338
300.323
300.306
300.286
300.265
300.243
300.221
300.199
300.18
300.162
300.146
300.132
300.12
300.109
300.101
300.094
300.088
300.083
300.08
300.078
300.076
300.075
300.073
300.072
300.304
300.304
300.302
300.3
300.296
300.29
300.282
300.271
300.257
300.243
300.227
300.211
300.194
300.177
300.16
300.143
300.128
300.114
300.103
300.093
300.085
300.078
300.073
300.069
300.066
300.063
300.062
300.061
300.059
300.058
300.194
300.197
300.201
300.204
300.206
300.206
300.202
300.197
300.19
300.181
300.172
300.162
300.151
300.138
300.125
300.11
300.098
300.086
300.076
300.068
300.061
300.055
300.051
300.047
300.045
300.043
300.041
300.04
300.039
300.038
300.18
300.173
300.168
300.164
300.16
300.157
300.153
300.15
300.147
300.143
300.14
300.136
300.133
300.129
300.125
300.122
300.119
300.116
300.111
300.105
300.097
300.09
300.084
300.08
300.078
300.075
300.074
300.077
300.086
300.09
300.184
300.176
300.169
300.164
300.159
300.155
300.151
300.147
300.143
300.139
300.135
300.131
300.127
300.123
300.119
300.116
300.113
300.11
300.106
300.101
300.095
300.089
300.084
300.08
300.078
300.076
300.074
300.076
300.084
300.088
300.187
300.179
300.172
300.166
300.161
300.155
300.151
300.146
300.141
300.137
300.132
300.127
300.123
300.118
300.114
300.111
300.108
300.106
300.103
300.098
300.093
300.088
300.083
300.08
300.078
300.076
300.075
300.076
300.082
300.086
300.192
300.184
300.177
300.17
300.164
300.158
300.152
300.147
300.141
300.136
300.13
300.125
300.12
300.115
300.111
300.107
300.105
300.102
300.099
300.095
300.091
300.087