/*--------------------------------*- C++ -*----------------------------------*\
  =========                 |
  \\      /  F ield         | OpenFOAM: The Open Source CFD Toolbox
   \\    /   O peration     | Website:  https://openfoam.org
    \\  /    A nd           | Version:  12
     \\/     M anipulation  |
\*---------------------------------------------------------------------------*/
FoamFile
{
    format      ascii;
    class       volScalarField;
    location    "950/air";
    object      alphat;
}
// * * * * * * * * * * * * * * * * * * * * * * * * * * * * * * * * * * * * * //

dimensions      [1 -1 -1 0 0 0 0];

internalField   nonuniform List<scalar> 
243000
(
0.00010135
0.000106737
0.000115549
0.000118278
0.000118598
0.00011773
0.00011619
0.000114196
0.000111816
0.000109171
0.000106304
0.000103364
0.000100536
9.82523e-05
9.68441e-05
9.67079e-05
9.76086e-05
9.90454e-05
0.000100527
0.000101856
0.000102951
0.000103826
0.000104521
0.000105134
0.000105826
0.000106695
0.00010688
0.000104224
9.74777e-05
9.62549e-05
0.000374074
0.000352032
0.000407311
0.000420524
0.000422728
0.000420096
0.000414761
0.000407652
0.000399731
0.000391754
0.000384092
0.000377531
0.000372387
0.000369737
0.00036982
0.000372722
0.000376129
0.000378335
0.000378576
0.000377646
0.000376056
0.00037427
0.000372461
0.000370755
0.000369553
0.000369692
0.000370548
0.00036671
0.000353637
0.000335066
0.000481907
0.000485501
0.000506628
0.000550319
0.000592063
0.000622088
0.000645258
0.000661064
0.000672993
0.000681917
0.000688593
0.000694384
0.00069965
0.00070624
0.000714049
0.000722366
0.000726426
0.000723394
0.000712859
0.000697213
0.000678215
0.000657287
0.000635185
0.000612378
0.000589633
0.000567936
0.000546953
0.000522273
0.0004894
0.000446805
0.000513992
0.000516668
0.000517495
0.000539484
0.000570731
0.00060653
0.000642132
0.000672374
0.000697226
0.000716827
0.000732641
0.000746051
0.000757583
0.000769271
0.000780918
0.000791553
0.000796237
0.000792391
0.000780042
0.000761954
0.000740229
0.000716498
0.000691639
0.00066614
0.000640562
0.000615652
0.000591317
0.000564741
0.000532327
0.00049123
0.000548381
0.000549343
0.000544778
0.000544605
0.000560466
0.000588886
0.000622327
0.000660252
0.000698376
0.00073333
0.000761403
0.000784425
0.000803259
0.000820434
0.000835908
0.00084873
0.000854088
0.000849781
0.000836215
0.0008164
0.000792677
0.000766851
0.000739915
0.000712387
0.000684696
0.000657416
0.000630632
0.000602124
0.000569751
0.000530894
0.00058328
0.000584306
0.000578631
0.000571793
0.000568249
0.000580245
0.000606865
0.000643594
0.000686449
0.000735632
0.000778666
0.000813156
0.000840177
0.000863092
0.000882313
0.000897138
0.000903136
0.000898576
0.000884187
0.000863143
0.000837956
0.000810554
0.000782049
0.000752982
0.000723722
0.000694733
0.000666201
0.000636217
0.000603622
0.000566642
0.000617717
0.000619378
0.00061416
0.0006051
0.000594596
0.000588522
0.000599788
0.000630183
0.000673695
0.000728734
0.00078757
0.000834483
0.00087043
0.000899268
0.000922126
0.000938782
0.000945374
0.000940693
0.000925766
0.000903856
0.000877602
0.000849026
0.000819338
0.000789121
0.00075871
0.000728482
0.000698679
0.000667755
0.000634789
0.000599181
0.000651395
0.000653622
0.000649116
0.000639606
0.000626215
0.000612355
0.000604993
0.000622527
0.000662936
0.000718799
0.000789655
0.000849958
0.000895386
0.000930295
0.000956643
0.000975004
0.000982134
0.000977446
0.00096219
0.000939702
0.000912688
0.000883258
0.000852685
0.000821619
0.00079038
0.00075927
0.000728556
0.000697024
0.000663668
0.000629037
0.000684265
0.000686856
0.000682876
0.000673372
0.000658782
0.000640998
0.000624968
0.000623035
0.000655281
0.000711267
0.000787177
0.000860948
0.000916083
0.000957062
0.000986772
0.00100674
0.00101437
0.00100975
0.000994341
0.000971501
0.000943976
0.000913931
0.000882724
0.000851055
0.00081925
0.000787547
0.000756203
0.000724287
0.000690578
0.000656641
0.00071647
0.000719094
0.000715426
0.000705966
0.000690738
0.000670796
0.00064946
0.00063527
0.000652683
0.000705468
0.000782349
0.00086882
0.000933338
0.000980264
0.0010132
0.00103466
0.00104278
0.00103829
0.00102287
0.00099986
0.000972015
0.000941555
0.000909913
0.000877849
0.00084569
0.000813623
0.000781872
0.000749744
0.000716087
0.000682429
0.000748079
0.000750388
0.000746761
0.000737288
0.000721677
0.000700318
0.00067555
0.000654318
0.000655036
0.000701602
0.000777528
0.000873793
0.000947688
0.00100042
0.00103642
0.0010593
0.00106789
0.00106362
0.0010483
0.00102526
0.000997263
0.00096655
0.000934635
0.000902324
0.000869966
0.000837707
0.000805734
0.000773526
0.000740181
0.000706625
0.000779161
0.000780822
0.000776933
0.000767312
0.000751433
0.000729168
0.000701969
0.000675663
0.000664659
0.000700474
0.000775004
0.000877076
0.000959628
0.00101792
0.00105684
0.00108103
0.00109011
0.00108612
0.00107101
0.00104807
0.00102007
0.000989255
0.000957197
0.000924756
0.000892302
0.000859968
0.000827923
0.000795752
0.00076278
0.000729302
0.000809787
0.00081054
0.000806143
0.000796196
0.00078002
0.000757131
0.000728215
0.000697948
0.000678085
0.000701897
0.000773819
0.000879163
0.000969549
0.00103307
0.00107473
0.00110018
0.00110975
0.00110611
0.00109131
0.00106859
0.00104071
0.00100993
0.000977846
0.000945373
0.000912916
0.000880611
0.000848626
0.000816591
0.000784006
0.000750593
0.000840048
0.000839715
0.000834602
0.000824166
0.00080761
0.000784211
0.000754088
0.000720734
0.000694536
0.000706658
0.000773811
0.000880433
0.000977824
0.00104611
0.00109032
0.00111698
0.00112705
0.00112382
0.00110943
0.00108703
0.00105939
0.00102877
0.000996778
0.000964374
0.000932004
0.000899837
0.000868033
0.000836226
0.000804047
0.000770769
0.000870106
0.000868525
0.000862521
0.000851449
0.000834414
0.000810509
0.000779483
0.000743792
0.000713171
0.00071419
0.000774848
0.000881173
0.000984622
0.00105723
0.00110378
0.00113157
0.00114221
0.00113944
0.00112552
0.00110356
0.00107629
0.00104594
0.00101417
0.000981942
0.000949776
0.000917864
0.000886344
0.000854849
0.000823106
0.000790435
0.000900092
0.000897134
0.000890096
0.000878255
0.000860637
0.000836186
0.000804385
0.000766925
0.000732959
0.000724726
0.000777293
0.000881536
0.000989963
0.00106653
0.00111523
0.00114409
0.00115538
0.00115311
0.00113974
0.00111832
0.00109152
0.00106159
0.00103015
0.000998244
0.000966398
0.000934858
0.00090372
0.000872627
0.000841361
0.000809381
0.000930162
0.000925736
0.000917532
0.000904787
0.00088647
0.000861402
0.000828846
0.000789945
0.000752753
0.000737071
0.000780986
0.000881635
0.000993927
0.00107406
0.00112477
0.00115467
0.00116664
0.00116495
0.00115218
0.00113139
0.0011052
0.00107582
0.00104487
0.00101341
0.000982008
0.000950951
0.000920299
0.000889701
0.000858966
0.000827753
0.000960709
0.000954598
0.000945055
0.000931258
0.000912108
0.00088632
0.000852977
0.000812847
0.00077325
0.000751006
0.000785872
0.000881614
0.000996569
0.00107987
0.00113245
0.00116338
0.00117609
0.00117503
0.00116294
0.00114286
0.00111741
0.00108872
0.0010584
0.00102753
0.000996715
0.000966256
0.000936192
0.00090619
0.000876083
0.00084571
0.000992035
0.000983987
0.000972939
0.000957929
0.000937786
0.000911136
0.000876919
0.000835678
0.000793687
0.000765983
0.000791829
0.000881514
0.000997828
0.00108403
0.00113829
0.00117027
0.00118378
0.00118342
0.00117209
0.00115288
0.00112828
0.0011004
0.00107084
0.00104069
0.00101059
0.000980853
0.000951501
0.000922215
0.000892841
0.000863398
0.00102321
0.00101425
0.00100165
0.000985224
0.000963863
0.000936127
0.000900881
0.000858524
0.000814029
0.000781587
0.000798709
0.000881364
0.000997598
0.00108632
0.00114225
0.00117534
0.00118974
0.00119019
0.00117977
0.00116154
0.0011379
0.00111094
0.00108227
0.00105297
0.00102372
0.000994833
0.000966324
0.000937891
0.000909377
0.000880965
0.00105383
0.0010442
0.00103129
0.0010139
0.000990916
0.000961727
0.000925192
0.000881696
0.000834569
0.000797627
0.000806377
0.000881277
0.000996109
0.00108637
0.00114425
0.00117855
0.00119399
0.0011954
0.00118604
0.00116891
0.00114634
0.00112044
0.00109279
0.00106448
0.0010362
0.0010083
0.00098077
0.000953341
0.000925845
0.000898613
0.00108376
0.00107351
0.00106045
0.00104317
0.00101987
0.000988629
0.000950466
0.000906159
0.000855478
0.000814263
0.000815048
0.000881846
0.000993374
0.00108455
0.00114405
0.00117976
0.00119643
0.00119901
0.00119089
0.00117502
0.00115368
0.00112897
0.00110249
0.00107532
0.00104815
0.00102136
0.00099496
0.000968698
0.00094242
0.000916544
0.00111295
0.00110218
0.00108904
0.0010721
0.00104938
0.00101823
0.000978566
0.000930416
0.000876233
0.00083105
0.000824675
0.000883027
0.000989309
0.00108074
0.00114161
0.00117873
0.00119681
0.00120083
0.00119418
0.00117979
0.00115987
0.00113654
0.00111142
0.00108557
0.00105969
0.00103416
0.00100902
0.000984097
0.000959246
0.000934933
0.00114146
0.00113032
0.0011173
0.00110093
0.00107977
0.00104996
0.00100658
0.00095423
0.000896852
0.000847969
0.00083543
0.000885261
0.000983786
0.00107432
0.00113621
0.00117475
0.00119441
0.00120018
0.00119532
0.00118281
0.00116462
0.00114292
0.0011194
0.00109515
0.00107082
0.0010468
0.00102315
0.000999748
0.000976518
0.000953967
0.00116907
0.00115829
0.00114635
0.00113118
0.00110908
0.0010765
0.00103084
0.000976977
0.000917934
0.000866251
0.000848331
0.00088975
0.000977349
0.00106476
0.00112677
0.00116646
0.00118775
0.00119558
0.00119293
0.00118248
0.00116658
0.00114702
0.00112557
0.00110332
0.00108097
0.00105892
0.00103717
0.00101565
0.000994281
0.000973634
0.00119569
0.00118461
0.00117113
0.00115351
0.00112928
0.00109517
0.00105233
0.00100059
0.000942158
0.000889386
0.000867001
0.000900888
0.000977387
0.00105689
0.00111588
0.00115508
0.00117784
0.001188
0.00118826
0.00118082
0.00116761
0.00115046
0.00113081
0.00110974
0.00108901
0.00106925
0.00104991
0.00103076
0.00101157
0.000992941
0.00121137
0.00119736
0.00118302
0.00116657
0.00114566
0.00111724
0.00107961
0.00103201
0.000976961
0.00092624
0.000901309
0.000927782
0.000993954
0.00106451
0.00111933
0.00115699
0.00118007
0.00119158
0.00119405
0.00118909
0.00117833
0.00116334
0.00114543
0.00112566
0.00110534
0.00108524
0.00106535
0.00104561
0.00102597
0.00100791
0.00124626
0.0012322
0.00121747
0.00120143
0.0011826
0.0011587
0.00112753
0.00108796
0.00104207
0.0009998
0.000977685
0.000997121
0.00105098
0.00110986
0.00115722
0.00119049
0.0012112
0.0012221
0.0012251
0.00122134
0.00121207
0.00119863
0.00118215
0.00116359
0.00114392
0.00112385
0.00110358
0.0010832
0.00106271
0.00104289
0.00131764
0.00130574
0.00129495
0.00128506
0.00127467
0.00126184
0.00124472
0.00122239
0.00119675
0.00117422
0.00116297
0.00117646
0.00121161
0.00125068
0.00128299
0.00130518
0.00131829
0.00132445
0.00132488
0.00132
0.0013108
0.00129817
0.00128296
0.00126586
0.00124752
0.00122835
0.00120799
0.00118669
0.00116474
0.00114287
0.00156254
0.00155935
0.0015642
0.00156896
0.00157208
0.00157256
0.00157024
0.0015655
0.00155987
0.00155484
0.00155057
0.0015523
0.00156012
0.00156978
0.00157778
0.001583
0.00158493
0.00158535
0.00158432
0.00158203
0.00157869
0.00157476
0.00157048
0.00156606
0.00156163
0.00155704
0.00154702
0.00153366
0.00151926
0.00150394
0.000155251
0.000167066
0.00016689
0.000165138
0.000162253
0.000158853
0.000155236
0.000151567
0.000147902
0.000144427
0.000141171
0.000138292
0.000135823
0.000133989
0.000132745
0.000132049
0.000131291
0.000130017
0.000128074
0.000125585
0.000122464
0.000118575
0.000113669
0.000107676
0.000101459
9.66849e-05
9.35315e-05
8.86627e-05
9.03097e-05
0.000105109
0.000612753
0.000718538
0.000707974
0.000696252
0.000682772
0.000671505
0.000659813
0.000646705
0.000632119
0.000618312
0.000605142
0.000594643
0.000584905
0.000575294
0.000561202
0.000540494
0.000507045
0.000466134
0.000425227
0.000391998
0.000366328
0.000346179
0.000327117
0.000308346
0.00029171
0.000280094
0.000273107
0.000263839
0.000286684
0.000370776
0.00072089
0.000923068
0.00102509
0.00108617
0.0011149
0.00114101
0.00115918
0.001172
0.00117915
0.00118386
0.00118492
0.00118429
0.00117764
0.00116392
0.00113658
0.00109261
0.00102104
0.000933548
0.000845137
0.000770141
0.000709849
0.000662636
0.000621979
0.000581797
0.000545609
0.000519999
0.000502554
0.000478878
0.000469497
0.000534404
0.000756745
0.00094136
0.00111509
0.00124668
0.00134955
0.0014394
0.00150946
0.00157355
0.00162702
0.00167346
0.00170914
0.00173419
0.00174102
0.0017289
0.00169205
0.00162852
0.00152416
0.00139674
0.00126675
0.00115245
0.00105753
0.000980828
0.000914247
0.000850226
0.000791796
0.000749569
0.000722334
0.000687218
0.000645504
0.000653963
0.00078404
0.000945917
0.00111819
0.00127707
0.00142253
0.00157176
0.0017107
0.00185151
0.00197202
0.00207922
0.00216432
0.00222461
0.0022502
0.00224356
0.00219979
0.00212041
0.00198862
0.00182786
0.00166286
0.0015144
0.00138822
0.00128416
0.00119371
0.00110782
0.00102836
0.000968297
0.000929604
0.000888216
0.000822811
0.00078428
0.000801077
0.000956588
0.00110397
0.00126161
0.00142432
0.00160449
0.00179555
0.00199502
0.00222593
0.0024117
0.00255946
0.00266023
0.00270744
0.00270795
0.00265911
0.00256661
0.00241193
0.00222328
0.00202865
0.00185095
0.00169749
0.00156912
0.00145769
0.00135284
0.00125501
0.00117785
0.00112643
0.00108003
0.00100313
0.000932383
0.000816177
0.000959271
0.00109101
0.00123363
0.00139449
0.00158764
0.00181677
0.00207412
0.00237377
0.0026795
0.00290168
0.00304713
0.00311787
0.0031263
0.00307391
0.00297027
0.00279655
0.00258444
0.00236479
0.00216215
0.00198517
0.00183564
0.00170611
0.0015853
0.00147209
0.0013795
0.00131488
0.00126106
0.00118373
0.00109516
0.000867636
0.000964392
0.00108363
0.00120866
0.00135747
0.00155025
0.00179988
0.00210503
0.00247068
0.0029025
0.00319557
0.00338948
0.00348596
0.00350309
0.00344833
0.00333511
0.00314554
0.00291377
0.00267296
0.00244921
0.00225215
0.00208445
0.00193944
0.00180557
0.00167982
0.00157386
0.00149651
0.00143406
0.00136184
0.00126679
0.000961033
0.00101795
0.00108956
0.00119533
0.00132901
0.00151158
0.00176871
0.00210844
0.00253615
0.00305047
0.00344234
0.00369037
0.00381553
0.00384214
0.00378597
0.00366447
0.00346176
0.00321356
0.00295511
0.00271362
0.00249963
0.00231644
0.00215835
0.00201391
0.00187825
0.00176116
0.00167221
0.0016014
0.0015351
0.00144135
0.00111886
0.00114141
0.00116815
0.00121812
0.00131209
0.00148447
0.00174093
0.00210358
0.00257887
0.00315116
0.00365684
0.00395557
0.00411004
0.00414659
0.00408994
0.00396124
0.00374758
0.00348599
0.00321304
0.00295691
0.00272885
0.00253263
0.00236353
0.00221059
0.00206737
0.00194143
0.00184234
0.00176332
0.00169904
0.00161364
0.00132176
0.0013252
0.00132156
0.00132119
0.00135223
0.00146515
0.0017103
0.00208862
0.00260334
0.00322635
0.00384531
0.00419034
0.0043715
0.00441891
0.00436274
0.00422774
0.00400509
0.00373295
0.00344852
0.00318059
0.00294112
0.00273407
0.00255576
0.00239596
0.00224724
0.00211464
0.00200717
0.00192037
0.00185374
0.00178081
0.0015539
0.00154576
0.00152106
0.00148532
0.00146276
0.0015014
0.00169315
0.00206997
0.00261504
0.00328884
0.00399125
0.00439648
0.00460289
0.00466069
0.00460623
0.00446583
0.00423615
0.00395628
0.00366324
0.00338622
0.00313775
0.00292192
0.00273595
0.00257059
0.00241795
0.00228082
0.00216693
0.00207331
0.00200209
0.0019428
0.00180624
0.0017922
0.0017529
0.00168976
0.00162407
0.00159915
0.00170354
0.00206091
0.00262645
0.00334231
0.00410603
0.00457649
0.00480704
0.00487404
0.00482164
0.00467732
0.00444199
0.00415759
0.00385896
0.00357536
0.00332012
0.00309735
0.00290508
0.00273519
0.00257986
0.00244011
0.00232187
0.00222285
0.00214651
0.00210057
0.00207272
0.00205543
0.00200587
0.00192248
0.00182165
0.00174519
0.00177175
0.00206653
0.00263972
0.0033886
0.00419812
0.00473365
0.00498535
0.0050605
0.00500978
0.00486295
0.00462415
0.00433742
0.00403706
0.00374946
0.0034896
0.00326154
0.00306423
0.00289076
0.00273356
0.00259266
0.00247214
0.00236948
0.0022887
0.00225479
0.0023484
0.00232902
0.00227193
0.00217294
0.00204486
0.00192349
0.00188705
0.00209487
0.00265489
0.00342798
0.00427343
0.00487253
0.00513831
0.00522039
0.00517113
0.0050231
0.00478364
0.00449693
0.00419745
0.00390954
0.00364728
0.00341549
0.00321439
0.00303819
0.00288021
0.00273923
0.00261811
0.00251364
0.0024304
0.00240279
0.00262747
0.00260661
0.0025437
0.00243295
0.0022838
0.00212631
0.00203769
0.00216584
0.00269048
0.00346679
0.004336
0.00498598
0.00526477
0.00535292
0.00530521
0.00515767
0.00492066
0.00463673
0.0043409
0.00405506
0.00379336
0.00356
0.00335635
0.00317831
0.0030203
0.00288042
0.00276002
0.00265563
0.00257183
0.00254823
0.00290226
0.00288003
0.00281303
0.00269435
0.00252999
0.0023442
0.00220917
0.00226057
0.00273853
0.00351516
0.00438941
0.0050734
0.0053627
0.005456
0.00541046
0.00526557
0.00503438
0.00475643
0.0044672
0.00418598
0.00392695
0.00369478
0.00349054
0.00331156
0.00315429
0.00301666
0.00289827
0.00279553
0.00271296
0.00269292
0.0031615
0.0031389
0.00307049
0.00294814
0.00277456
0.00256837
0.00239465
0.0023816
0.0027967
0.00356576
0.00443429
0.00513304
0.00542858
0.00552603
0.0054838
0.00534441
0.00512268
0.00485429
0.0045749
0.00430102
0.00404772
0.00381835
0.00361562
0.00343766
0.00328202
0.0031476
0.00303254
0.00293283
0.00285312
0.00283685
0.00339155
0.00337169
0.00330557
0.00318447
0.00300798
0.00278986
0.00258609
0.00252605
0.00287153
0.00361177
0.00446056
0.00515738
0.00545645
0.00555749
0.0055202
0.00538985
0.00518154
0.0049267
0.0046606
0.0043985
0.00415292
0.00392868
0.00372941
0.00355456
0.00340195
0.00327189
0.00316142
0.00306596
0.0029906
0.00297829
0.00359186
0.00356548
0.00350594
0.00339206
0.00322012
0.00299826
0.00277279
0.00267785
0.00294247
0.0036369
0.00445727
0.0051273
0.00543744
0.00554226
0.00551189
0.00539471
0.00520435
0.00496764
0.00471947
0.00447243
0.00423781
0.00402157
0.00382821
0.00365835
0.00351082
0.00338666
0.00328147
0.00319161
0.00312205
0.00311393
0.00376158
0.00372243
0.00365954
0.003557
0.00339898
0.00318172
0.00294243
0.00281609
0.00300283
0.00364236
0.00439933
0.00504161
0.00536079
0.0054687
0.00544736
0.00534767
0.00518073
0.00496779
0.00474148
0.00451334
0.00429384
0.00408942
0.00390515
0.00374257
0.00360249
0.00348516
0.00338673
0.00330392
0.00324176
0.00323831
0.00389438
0.00384112
0.00377263
0.00367465
0.00352999
0.00332601
0.00307971
0.00292363
0.00304094
0.0036377
0.00431057
0.0049073
0.00521086
0.00532013
0.00531028
0.00523185
0.00509489
0.00491074
0.00471128
0.00450712
0.00430766
0.00411946
0.00394797
0.00379648
0.00366645
0.00355789
0.00346784
0.00339376
0.00334097
0.00334292
0.00397852
0.00391512
0.00384302
0.00374903
0.00361112
0.00341262
0.00316736
0.00298285
0.00303414
0.00356045
0.00415961
0.00468082
0.00496292
0.00507509
0.00508004
0.0050263
0.00492398
0.00477422
0.00460653
0.00443158
0.00425794
0.0040922
0.00393954
0.00380369
0.00368675
0.00358935
0.00350994
0.00344707
0.00340714
0.00341538
0.00399982
0.00393489
0.00386527
0.00377524
0.00363801
0.00343895
0.00319158
0.00297748
0.00296125
0.00336712
0.00388353
0.00433001
0.00459542
0.00471607
0.00474017
0.00471368
0.0046475
0.00453511
0.00440282
0.00426064
0.00411718
0.00397934
0.00385167
0.00373754
0.00363906
0.00355742
0.00349258
0.00344488
0.0034203
0.00343712
0.00394544
0.00389299
0.00383384
0.00374088
0.00360669
0.00340757
0.00315127
0.00290594
0.00281778
0.00307063
0.00348541
0.00386439
0.00411938
0.00425824
0.0043075
0.00430876
0.00427496
0.00419815
0.00409838
0.00398647
0.00387333
0.00376392
0.00366321
0.00357418
0.00349825
0.00343674
0.00339086
0.00336214
0.00335575
0.00338589
0.00381889
0.00379053
0.00374294
0.00365725
0.00352848
0.00333274
0.00307046
0.00280938
0.0026657
0.00277891
0.0030803
0.00339156
0.00363045
0.00378922
0.00387157
0.00389864
0.00388927
0.00384148
0.00376796
0.00367926
0.00358614
0.0034957
0.00341437
0.00334573
0.00328873
0.00324406
0.00321453
0.00320266
0.00321278
0.00325741
0.00366154
0.00365563
0.00362816
0.00355556
0.00343082
0.00324825
0.00301492
0.0027801
0.00262609
0.0026543
0.0028539
0.00309297
0.00330202
0.00346027
0.00356118
0.0036037
0.00360916
0.00358153
0.00352751
0.00345617
0.00337635
0.00329594
0.00322231
0.00315988
0.00311015
0.00307397
0.00305264
0.00304855
0.00306459
0.00311036
0.00351913
0.00352434
0.00351903
0.0034743
0.00337503
0.00322994
0.00305436
0.00288123
0.00275295
0.00275557
0.00287568
0.00304234
0.00320477
0.00333714
0.00342694
0.00346915
0.00348011
0.00346528
0.00342813
0.00337567
0.00331422
0.00325017
0.00319017
0.00313866
0.00309746
0.00306571
0.00304349
0.00303169
0.00303179
0.00305224
0.0033922
0.00339679
0.00340114
0.00338065
0.00332235
0.00323176
0.00312416
0.00301405
0.00293604
0.00293139
0.00299685
0.00310074
0.00320824
0.00329787
0.00335164
0.00337678
0.0033813
0.0033682
0.00334166
0.00330682
0.00326803
0.00322935
0.00319482
0.0031675
0.00314929
0.00313455
0.00312344
0.00311451
0.00310688
0.00309383
0.0032937
0.00330312
0.00331367
0.0033075
0.00328023
0.0032362
0.00317401
0.00311402
0.00306537
0.00305023
0.00307165
0.00311886
0.00317122
0.00321352
0.00323572
0.00324277
0.00323837
0.00322471
0.00320609
0.00318635
0.00316918
0.00315734
0.00315227
0.0031544
0.0031621
0.00317539
0.00318698
0.00319733
0.00320417
0.00319557
0.000186768
0.000195408
0.000196778
0.000195177
0.000191933
0.000187923
0.000183626
0.000179272
0.000174928
0.000170736
0.000166687
0.000162951
0.000159499
0.000156523
0.000153881
0.000151406
0.000148366
0.00014459
0.000140549
0.000136571
0.000132114
0.00012614
0.000117416
0.00010534
9.16592e-05
8.49522e-05
0.000369831
8.75291e-05
9.76841e-05
0.000111863
0.000812244
0.000902956
0.000914639
0.000906849
0.000898549
0.00089261
0.00088743
0.000879677
0.00086706
0.000849898
0.00082759
0.000803186
0.000774318
0.000742872
0.000703993
0.000656039
0.000594334
0.000536535
0.000496171
0.0004745
0.000465072
0.000456564
0.000433155
0.00039206
0.000356653
0.000357401
0.000391448
0.000289922
0.000332287
0.000467696
0.00129869
0.00142368
0.00151318
0.00155793
0.00159942
0.00163328
0.00166077
0.00167977
0.0016874
0.00168296
0.001664
0.00163328
0.00158636
0.00152632
0.001447
0.001345
0.00121295
0.00108702
0.000991628
0.000929794
0.000891594
0.000861624
0.000812488
0.000727582
0.000643708
0.000633336
0.000646463
0.000528586
0.000550411
0.000741828
0.00145549
0.0017178
0.00191249
0.00201183
0.0021164
0.00220054
0.00227789
0.00234348
0.00239241
0.00242098
0.00242373
0.00240171
0.0023486
0.00226858
0.00215651
0.00200767
0.00181533
0.00163091
0.0014839
0.00137798
0.00130532
0.00124677
0.00116861
0.00104674
0.000916303
0.000875174
0.000883984
0.000778252
0.000747124
0.000916745
0.00146949
0.00177769
0.00202473
0.0022444
0.00244364
0.00259263
0.00273811
0.00286772
0.00297479
0.00305346
0.00308951
0.00308476
0.00303382
0.00293971
0.00280107
0.00261296
0.00237025
0.00213545
0.00194241
0.0017964
0.00168975
0.00160318
0.00150078
0.00135093
0.00118251
0.00110442
0.00110463
0.00102519
0.000957007
0.00108485
0.00141934
0.00175473
0.00204333
0.00231926
0.00257407
0.00280822
0.00305532
0.00327025
0.00345756
0.00359656
0.00367814
0.00369615
0.00364973
0.00354479
0.00338415
0.00316234
0.00287756
0.00259946
0.00236495
0.00218224
0.00204421
0.00193191
0.00180987
0.00164053
0.00144407
0.00133024
0.00131575
0.00126203
0.001181
0.00126872
0.00136499
0.00168806
0.0019985
0.00230762
0.00261127
0.00291614
0.0032276
0.00356254
0.00385376
0.00406933
0.00420279
0.00424653
0.00420558
0.00409185
0.00391267
0.00366145
0.0033419
0.00302524
0.00275324
0.00253723
0.00237086
0.00223572
0.00209783
0.00191581
0.00170091
0.00155647
0.00152226
0.00148683
0.00141168
0.00147868
0.00132709
0.00161947
0.00193261
0.00225761
0.00259591
0.0029582
0.00334389
0.00374758
0.00418138
0.00448107
0.00467126
0.00474529
0.00470937
0.00458756
0.00439287
0.00411589
0.00376722
0.00341558
0.0031096
0.00286381
0.00267232
0.0025173
0.00236667
0.00217776
0.00195304
0.00178356
0.00172677
0.0016997
0.00164135
0.00170166
0.00131678
0.0015815
0.00187624
0.00220021
0.00255909
0.00296465
0.00341544
0.00390098
0.00443149
0.00483868
0.00509296
0.00519781
0.00516768
0.00503796
0.00482958
0.00453027
0.00415634
0.0037728
0.0034365
0.00316455
0.00295125
0.00277917
0.00261846
0.00242704
0.00219896
0.00201206
0.00193186
0.00190285
0.00186562
0.00192751
0.00133503
0.00157265
0.00185649
0.00216615
0.00252659
0.00296071
0.00346459
0.00403089
0.00463268
0.00515591
0.00547057
0.00560736
0.00558539
0.00544757
0.00522686
0.00490804
0.00451124
0.00409913
0.00373635
0.0034421
0.00321031
0.00302389
0.00285534
0.00266415
0.00243791
0.0022411
0.00213919
0.0021018
0.00208272
0.00215085
0.00137722
0.00159597
0.00186085
0.00216904
0.00252491
0.00296823
0.0035144
0.0041435
0.00481509
0.00544755
0.0058025
0.00597562
0.00596518
0.00581997
0.00558778
0.00525167
0.00483339
0.0043968
0.0040119
0.00369933
0.00345234
0.00325401
0.00307931
0.00288991
0.00266971
0.00246884
0.00235031
0.00230079
0.00229387
0.00236919
0.00150642
0.00168845
0.00189993
0.0021879
0.00253806
0.00298453
0.00355698
0.00424125
0.00497877
0.00568315
0.00609191
0.00630377
0.00630768
0.00615794
0.00591439
0.00556276
0.00512395
0.00466851
0.00426609
0.00393942
0.00368021
0.00347226
0.00329228
0.00310561
0.00289399
0.00269431
0.00256461
0.00250244
0.00250148
0.00258253
0.00171207
0.00188005
0.00204908
0.00225167
0.00256326
0.00300298
0.00359326
0.00432514
0.00511867
0.00587048
0.00634748
0.00659498
0.00661376
0.00646235
0.00620737
0.00584188
0.00538514
0.00491652
0.00450217
0.00416549
0.00389689
0.00368122
0.0034963
0.00331275
0.00311109
0.00291688
0.00278101
0.00270803
0.00270811
0.00279243
0.00200159
0.00214469
0.00228037
0.00243315
0.00264149
0.00303513
0.00362441
0.00438818
0.00523004
0.00602384
0.00657657
0.00685045
0.00688302
0.00673248
0.00646594
0.00608887
0.00561899
0.00514348
0.00472324
0.00438053
0.00410525
0.00388286
0.00369348
0.00351294
0.0033217
0.00313611
0.00299758
0.00291707
0.00291525
0.00300044
0.00237108
0.00248927
0.00258507
0.00267114
0.00280803
0.00309992
0.00366867
0.00444905
0.00532976
0.00615441
0.00677667
0.00706889
0.00711228
0.00696585
0.00668802
0.00630252
0.00582752
0.00535177
0.00493192
0.00458689
0.00430728
0.00407899
0.00388564
0.00370683
0.00352609
0.00335073
0.00321338
0.00312883
0.00312303
0.00320706
0.00279455
0.00288379
0.00293592
0.00295898
0.00301881
0.0032311
0.0037197
0.00450889
0.00541734
0.00626873
0.00694394
0.00724487
0.00729678
0.00715741
0.00687025
0.00648161
0.00601104
0.0055425
0.00512952
0.00478561
0.00450358
0.00427064
0.00407396
0.00389628
0.00372338
0.00355912
0.00342776
0.00334228
0.00333212
0.003412
0.0032358
0.00328395
0.00329015
0.0032657
0.00326167
0.00338327
0.00381771
0.00456204
0.00548894
0.00636679
0.00707344
0.00737401
0.00743071
0.00729871
0.00700837
0.00662356
0.00616805
0.00571478
0.00531463
0.00497543
0.00469308
0.00445733
0.00425841
0.00408228
0.00391678
0.00376417
0.00363934
0.00355562
0.0035413
0.00361326
0.00364828
0.00364951
0.00361744
0.00355569
0.00350601
0.00355417
0.00391839
0.00463831
0.00554944
0.00644922
0.00714455
0.00744426
0.0075055
0.00737922
0.00709485
0.00672364
0.00629395
0.00586434
0.00548227
0.00515207
0.00487216
0.00463623
0.00443674
0.00426278
0.00410496
0.00396292
0.00384521
0.00376506
0.00374664
0.00380712
0.00401151
0.00397366
0.0039067
0.00381219
0.00372705
0.00373206
0.00400923
0.00469147
0.00560453
0.00648041
0.0071236
0.00744136
0.0075081
0.00738797
0.00711964
0.00677382
0.00637994
0.00598207
0.00562311
0.00530705
0.00503409
0.00480115
0.00460315
0.00443251
0.00428221
0.00414979
0.00403991
0.00396389
0.00394124
0.00398724
0.00431834
0.00424496
0.00414697
0.00402513
0.00391138
0.00388334
0.00406525
0.00471447
0.00556831
0.0063962
0.00702015
0.00735159
0.00742336
0.00731316
0.00707023
0.00676203
0.00641261
0.00605309
0.00572306
0.00542631
0.00516542
0.00493999
0.00474732
0.00458258
0.00443986
0.00431623
0.00421411
0.00414146
0.00411443
0.00414407
0.00455815
0.00445422
0.00433061
0.0041869
0.00404903
0.00398264
0.00409778
0.00469586
0.00545645
0.00622784
0.00684605
0.00715847
0.00723576
0.00714293
0.00693372
0.00667258
0.0063748
0.00605901
0.00576223
0.0054895
0.00524637
0.00503389
0.0048511
0.00469489
0.0045609
0.00444622
0.00435148
0.00428219
0.00425154
0.00426511
0.00471991
0.00459386
0.00445267
0.00429303
0.00413397
0.004028
0.00409013
0.00457289
0.00530408
0.00600236
0.00654981
0.00684356
0.00693397
0.00686888
0.00670102
0.0064918
0.00624977
0.00597952
0.00571845
0.00547372
0.00525211
0.00505627
0.0048871
0.00474318
0.00462083
0.00451698
0.00443112
0.00436712
0.00433515
0.00433597
0.00479447
0.00465817
0.00450967
0.00434138
0.00416398
0.00401792
0.00402024
0.0043473
0.00500696
0.00563095
0.00611885
0.00640592
0.00651846
0.00649556
0.00637378
0.00621639
0.00603018
0.00580417
0.00557894
0.00536223
0.00516384
0.00498825
0.00483647
0.0047078
0.00459959
0.00450883
0.00443424
0.0043784
0.00434807
0.00434305
0.00477982
0.00464753
0.00450337
0.00433529
0.00414407
0.00396087
0.00389191
0.00405659
0.00457997
0.00513282
0.00558077
0.00587201
0.0060181
0.00604821
0.00597742
0.00586839
0.0057344
0.00554924
0.00535915
0.00517101
0.00499564
0.00483904
0.0047034
0.00458895
0.0044941
0.00441627
0.00435353
0.00430713
0.00428267
0.00427941
0.0046888
0.00457511
0.00444734
0.00428891
0.00409443
0.00388496
0.00374521
0.0037734
0.0041298
0.00459602
0.00501727
0.00532016
0.00550225
0.00558745
0.00557159
0.00550512
0.00541316
0.00526536
0.00510677
0.0049452
0.00479051
0.00464953
0.00452564
0.00442041
0.00433364
0.00426371
0.004209
0.00417034
0.00415222
0.00415521
0.00455595
0.00447236
0.00437115
0.00423265
0.00405061
0.00383919
0.00366113
0.00359612
0.00380305
0.00417129
0.00455201
0.0048568
0.00506631
0.00519217
0.00522321
0.00518892
0.00512371
0.0050061
0.00487392
0.00473593
0.0046005
0.00447391
0.00436003
0.00426141
0.00417879
0.0041116
0.00405895
0.00402205
0.00400458
0.00401036
0.00443603
0.00438828
0.00432026
0.00420884
0.0040512
0.003868
0.00369848
0.00359208
0.00369775
0.00396426
0.00428099
0.00456015
0.00477055
0.00490893
0.00496209
0.00494173
0.00488681
0.00478802
0.00467576
0.00455985
0.00444668
0.00433914
0.00424203
0.00415756
0.00408608
0.00402672
0.00397849
0.00394211
0.00392035
0.00391985
0.00436586
0.00435043
0.0043128
0.00423306
0.00411102
0.00396389
0.00381648
0.00372587
0.00377243
0.00394958
0.00418788
0.00441277
0.0045927
0.004712