/*--------------------------------*- C++ -*----------------------------------*\
  =========                 |
  \\      /  F ield         | OpenFOAM: The Open Source CFD Toolbox
   \\    /   O peration     | Website:  https://openfoam.org
    \\  /    A nd           | Version:  12
     \\/     M anipulation  |
\*---------------------------------------------------------------------------*/
FoamFile
{
    format      ascii;
    class       volScalarField;
    location    "950/air";
    object      epsilon;
}
// * * * * * * * * * * * * * * * * * * * * * * * * * * * * * * * * * * * * * //

dimensions      [0 2 -3 0 0 0 0];

internalField   nonuniform List<scalar> 
243000
(
0.793289
1.11188
1.60536
1.97644
2.2802
2.5377
2.75311
2.92163
3.03265
3.08311
3.06834
2.99898
2.89206
2.7868
2.71321
2.70254
2.73306
2.76196
2.74895
2.68152
2.56068
2.39773
2.20679
2.00491
1.80897
1.62702
1.42358
1.14108
0.801674
0.666922
0.484773
0.507421
0.873199
1.1029
1.27952
1.42714
1.54783
1.64117
1.70961
1.75682
1.78427
1.8007
1.80975
1.82692
1.85554
1.89616
1.91293
1.88012
1.79209
1.66755
1.52246
1.37014
1.21847
1.07313
0.94056
0.827048
0.725832
0.609129
0.470158
0.343531
0.527856
0.54853
0.635755
0.825907
1.0222
1.18144
1.31095
1.40466
1.47625
1.53002
1.56987
1.60463
1.63685
1.67947
1.73191
1.78881
1.81457
1.78739
1.70729
1.59508
1.46674
1.33425
1.20367
1.07854
0.963192
0.86156
0.770068
0.670429
0.551081
0.418919
0.636521
0.649241
0.65948
0.766198
0.91271
1.10481
1.30493
1.49052
1.65138
1.78564
1.89699
1.99426
2.08051
2.17151
2.2654
2.35275
2.38834
2.34773
2.23539
2.08052
1.90566
1.72705
1.55283
1.38718
1.23381
1.09622
0.971901
0.846893
0.708917
0.556607
0.771493
0.775569
0.759255
0.771437
0.85537
1.00358
1.18716
1.42164
1.6752
1.92337
2.13776
2.32333
2.48272
2.63516
2.77809
2.89922
2.94628
2.89429
2.75259
2.55792
2.33903
2.11637
1.90031
1.69575
1.50587
1.33374
1.17792
1.02569
0.868817
0.702566
0.928104
0.93159
0.904708
0.876918
0.871411
0.947571
1.09642
1.31483
1.6005
1.95763
2.29744
2.59452
2.84412
3.06875
3.26628
3.4228
3.48205
3.42066
3.25278
3.02185
2.76228
2.49843
2.24307
2.00179
1.77758
1.57313
1.38787
1.20911
1.03274
0.854119
1.10261
1.1095
1.0802
1.03328
0.984524
0.966621
1.04595
1.22975
1.51065
1.91368
2.38768
2.81158
3.16599
3.47175
3.72783
3.92036
3.99216
3.92315
3.7324
3.46898
3.1724
2.87068
2.57889
2.30353
2.04745
1.81301
1.60026
1.39744
1.20081
1.00972
1.29334
1.30439
1.27548
1.21869
1.144
1.07498
1.05473
1.17596
1.43691
1.83862
2.42084
2.97931
3.45004
3.84424
4.16134
4.39016
4.47446
4.39978
4.18939
3.89741
3.56763
3.23154
2.9063
2.59958
2.31422
2.05215
1.81387
1.58888
1.37197
1.16814
1.49966
1.51433
1.48577
1.42224
1.33002
1.22617
1.145
1.16489
1.38188
1.78076
2.40905
3.10491
3.6986
4.18637
4.5659
4.83106
4.92785
4.84914
4.62246
4.30581
3.94667
3.57959
3.22407
2.8888
2.57684
2.28961
2.02776
1.78221
1.54533
1.32854
1.72195
1.73845
1.7094
1.63958
1.5329
1.40244
1.27641
1.21222
1.35431
1.73434
2.37367
3.1982
3.9152
4.49876
4.94134
5.24242
5.35179
5.27076
5.03086
4.69325
4.30839
3.91376
3.53105
3.17015
2.83424
2.5243
2.24088
1.97633
1.72197
1.49078
1.9604
1.97606
1.94481
1.86855
1.74873
1.59495
1.43194
1.311
1.35732
1.70079
2.32967
3.26144
4.10226
4.78233
5.28767
5.62386
5.746
5.66452
5.41447
5.0594
4.6525
4.23356
3.82661
3.44266
3.08524
2.75491
2.45198
2.17001
1.9012
1.65459
2.21531
2.22689
2.19094
2.10713
1.97491
1.80027
1.60433
1.43654
1.39845
1.68421
2.30163
3.3038
4.26253
5.03793
5.60486
5.97516
6.11034
6.03043
5.77319
5.4042
4.97872
4.53876
4.11037
3.70577
3.32893
2.98024
2.65989
2.36213
2.08037
1.81871
2.48712
2.4914
2.4481
2.35498
2.20991
2.01602
1.79001
1.57914
1.47207
1.6856
2.2852
3.33137
4.39881
5.26633
5.89293
6.29645
6.44488
6.36833
6.1069
5.72736
5.28681
4.82912
4.38209
3.95915
3.56494
3.19992
2.86423
2.55233
2.25866
1.98248
2.77655
2.77059
2.71719
2.61273
2.4537
2.24102
1.98752
1.73601
1.57064
1.70749
2.27896
3.34847
4.51414
5.46835
6.15177
6.58729
6.74945
6.67801
6.41529
6.02857
5.57647
5.10437
4.64154
4.2027
3.79325
3.41403
3.06508
2.74065
2.4361
2.14627
3.08533
3.06585
2.99951
2.88153
2.70706
2.47501
2.19543
1.90592
1.6909
1.74998
2.28178
3.3583
4.61085
5.64445
6.38115
6.8471
7.02408
6.95927
6.69787
6.30746
5.84742
5.36429
4.88873
4.43662
4.01442
3.62333
3.26305
2.92766
2.61328
2.31365
3.41534
3.37899
3.29679
3.16286
2.97111
2.71862
2.41327
2.08811
1.82902
1.81388
2.29478
3.36228
4.68766
5.79451
6.5807
7.07555
7.26837
7.21188
6.95434
6.56351
6.0992
5.60867
5.12368
4.66138
4.22899
3.82838
3.4587
3.11402
2.79091
2.48367
3.76887
3.71244
3.61123
3.45861
3.24734
2.97283
2.64095
2.28128
1.97945
1.89647
2.31816
3.36188
4.74513
5.91809
6.75004
7.27241
7.48188
7.43548
7.18412
6.79618
6.33132
5.83736
5.34659
4.87724
4.43743
4.02964
3.65261
3.30036
2.96972
2.65658
4.15155
4.0701
3.94587
3.77124
3.53768
3.23894
2.87904
2.48517
2.14184
1.99538
2.35172
3.35867
4.78357
6.01471
6.8886
7.43739
7.6642
7.62957
7.38705
7.00516
6.54378
6.05021
5.5573
5.08425
4.64007
4.2276
3.8453
3.48734
3.15085
2.8333
4.56971
4.45691
4.3049
4.10431
3.84494
3.51896
3.12878
2.70032
2.31371
2.10795
2.39487
3.35311
4.80174
6.08461
6.99546
7.56984
7.81493
7.79388
7.56302
7.19122
6.73691
6.24738
5.75588
5.2825
4.83698
4.42245
4.03731
3.67585
3.3353
3.01498
5.01478
4.87976
4.69531
4.46394
4.17392
3.81625
3.39248
2.92785
2.49456
2.23175
2.44689
3.34543
4.79798
6.12377
7.06889
7.66863
7.93348
7.92844
7.71301
7.35499
6.91121
6.42924
5.94273
5.47231
5.02845
4.61475
4.2294
3.86687
3.5244
3.20317
5.47929
5.32606
5.12523
4.86256
4.53344
4.13679
3.67409
3.17179
2.68637
2.36532
2.50703
3.33673
4.77548
6.1257
7.10681
7.73204
8.0189
8.03359
7.83724
7.49664
7.06711
6.59641
6.11851
5.65438
5.21533
4.80535
4.42254
4.0617
3.71993
3.4002
5.96038
5.7889
5.5743
5.29774
4.93946
4.49139
3.98197
3.44071
2.89073
2.50946
2.5772
3.33102
4.73424
6.09587
7.10424
7.75697
8.06902
8.10764
7.93493
7.61594
7.20483
6.74938
6.28396
5.82982
5.39881
4.99546
4.61808
4.26196
3.92418
3.60877
6.45606
6.26667
6.03959
5.75327
5.38273
4.902
4.34265
3.72241
3.10374
2.66232
2.65931
3.33277
4.67343
6.03289
7.0606
7.73822
8.07805
8.14603
8.0025
7.71065
7.32304
6.88756
6.43929
5.99946
5.58023
5.18668
4.81776
4.46953
4.13932
3.83168
6.96584
6.76035
6.52399
6.23232
5.86642
5.37569
4.72064
4.01334
3.32559
2.82423
2.75439
3.34567
4.59174
5.92696
6.96294
7.66232
8.03156
8.13468
8.02755
7.7723
7.41536
7.00604
6.58082
6.16146
5.75954
5.38058
5.02419
4.68754
4.36839
4.07206
7.4841
7.27553
7.04718
6.76272
6.35997
5.7956
5.07218
4.30715
3.56379
3.00674
2.87403
3.38345
4.49666
5.77018
6.79291
7.50353
7.90054
8.04388
7.98181
7.76825
7.45533
7.08424
6.69258
6.30249
5.92679
5.57132
5.23513
4.91622
4.61256
4.33054
8.00786
7.78421
7.51601
7.17265
6.71527
6.10699
5.40423
4.62898
3.85247
3.25002
3.05747
3.4975
4.48558
5.63759
6.59616
7.28613
7.70523
7.8932
7.88988
7.73694
7.47659
7.14993
6.78816
6.41493
6.06206
5.73788
5.43205
5.14021
4.85849
4.59398
8.32672
8.03986
7.75087
7.4252
7.0213
6.49547
5.84197
5.08249
4.29702
3.66839
3.42281
3.80248
4.69976
5.74974
6.65213
7.32015
7.74881
7.96536
8.00691
7.90224
7.68619
7.39455
7.05701
6.69724
6.34086
6.00103
5.67713
5.36756
5.07066
4.80472
9.07028
8.76463
8.45039
8.11401
7.7277
7.25289
6.66339
5.9648
5.22609
4.62047
4.35907
4.69322
5.52598
6.49386
7.3368
7.9664
8.37382
8.5914
8.64781
8.56343
8.36703
8.08991
7.75978
7.39954
7.03055
6.66701
6.31279
5.96941
5.63678
5.32542
10.7224
10.4331
10.1735
9.93635
9.68738
9.3837
8.98934
8.49674
7.96247
7.52774
7.34523
7.66455
8.40421
9.2403
9.96106
10.4726
10.7806
10.9248
10.93
10.8058
10.5792
10.2747
9.91703
9.52547
9.1173
8.70349
8.27751
7.8468
7.41886
7.00695
17.8857
17.7786
17.9434
18.1027
18.2034
18.2107
18.1199
17.9487
17.7546
17.591
17.4615
17.5433
17.8282
18.1633
18.4429
18.6214
18.686
18.6983
18.6599
18.5769
18.458
18.3189
18.1683
18.0147
17.8622
17.7048
17.3594
16.9118
16.4389
15.9455
2.84298
4.09023
4.73719
5.30184
5.777
6.18409
6.52632
6.80091
6.99746
7.12498
7.17914
7.17894
7.12734
7.05883
6.96888
6.85042
6.61225
6.20405
5.63998
4.98104
4.26631
3.53016
2.8007
2.12089
1.57102
1.19686
0.943681
0.69675
0.644248
0.86693
3.43234
4.01222
3.92004
3.95316
3.98083
3.9913
3.9821
3.95992
3.93461
3.91714
3.91246
3.92063
3.93244
3.94434
3.94791
3.92086
3.81046
3.59231
3.28122
2.94171
2.57142
2.18582
1.79874
1.41644
1.06461
0.808419
0.651643
0.556654
0.576467
0.482207
2.46524
3.44066
3.67027
3.77044
3.76555
3.72368
3.65539
3.5764
3.50532
3.46019
3.44838
3.4674
3.50233
3.54243
3.57308
3.57152
3.48815
3.30521
3.03883
2.75287
2.44281
2.11722
1.78265
1.4485
1.12638
0.873904
0.716725
0.616113
0.594996
0.52566
1.65263
2.35335
2.92507
3.29736
3.4565
3.50257
3.47566
3.42145
3.36736
3.33999
3.35141
3.39759
3.46165
3.52974
3.5838
3.60079
3.53102
3.35882
3.10544
2.82971
2.53304
2.22314
1.9053
1.58444
1.26757
1.00468
0.832271
0.720294
0.669435
0.575164
1.24516
1.68528
2.2029
2.62167
2.88144
3.07342
3.18684
3.23542
3.25114
3.27581
3.33148
3.41741
3.51761
3.61592
3.6937
3.72709
3.66731
3.50005
3.25121
2.97544
2.67912
2.37093
2.05597
1.7382
1.42222
1.14893
0.95959
0.834834
0.762962
0.651321
1.02401
1.33927
1.70793
2.05429
2.32961
2.57906
2.78076
2.95978
3.0959
3.20412
3.32097
3.45799
3.59954
3.73072
3.83292
3.88201
3.83084
3.66706
3.41992
3.14106
2.84055
2.52874
2.21135
1.89224
1.57596
1.29447
1.08899
0.951514
0.8651
0.744789
0.947085
1.17485
1.42118
1.66957
1.89688
2.14136
2.39687
2.64786
2.89344
3.1099
3.30312
3.49901
3.68528
3.85147
3.97841
4.04307
4.00042
3.8404
3.59459
3.31211
3.00585
2.68827
2.36611
2.04339
1.72582
1.43792
1.21776
1.06744
0.969776
0.846739
0.989198
1.13472
1.28895
1.45135
1.61149
1.81065
2.06463
2.36309
2.67342
2.99597
3.27514
3.53496
3.76733
3.96914
4.12088
4.20105
4.16758
4.01248
3.76865
3.48303
3.17086
2.84676
2.51881
2.19156
1.87146
1.57823
1.34522
1.18115
1.07272
0.950981
1.11351
1.21036
1.28527
1.36535
1.45963
1.59985
1.81449
2.11786
2.4774
2.87008
3.2387
3.5648
3.84291
4.08015
4.25631
4.35182
4.32847
4.17994
3.9393
3.65136
3.33369
3.00293
2.66895
2.33692
2.01337
1.71524
1.47132
1.29275
1.17219
1.0532
1.32288
1.3862
1.41127
1.41578
1.43029
1.49864
1.65561
1.92876
2.30793
2.74701
3.19808
3.58683
3.91112
4.18313
4.38307
4.49372
4.48114
4.341
4.10488
3.81553
3.49295
3.15571
2.81579
2.47919
2.15194
1.849
1.59578
1.40349
1.26969
1.1518
1.57614
1.62065
1.62907
1.58217
1.51796
1.49176
1.58153
1.80275
2.17305
2.64329
3.15729
3.60346
3.97241
4.27791
4.50075
4.62626
4.62471
4.49464
4.26417
3.97411
3.64732
3.30401
2.9585
2.61772
2.28708
1.97973
1.71854
1.51387
1.36863
1.2482
1.83765
1.86433
1.86078
1.79625
1.68767
1.58063
1.56729
1.73384
2.07612
2.55974
3.11845
3.61664
4.02779
4.36514
4.60973
4.74986
4.76006
4.64079
4.41635
4.12583
3.7956
3.44701
3.09652
2.75201
2.41855
2.10766
1.83991
1.62441
1.46803
1.34349
2.09362
2.10071
2.0889
2.01676
1.88836
1.72823
1.6258
1.70945
2.01053
2.49486
3.08417
3.62811
4.07863
4.44612
4.71241
4.86829
4.8888
4.77982
4.56103
4.27002
3.93704
3.58417
3.22959
2.882
2.54645
2.23325
1.96054
1.73609
1.56926
1.43948
2.33675
2.32804
2.30946
2.23472
2.09751
1.91075
1.73792
1.72057
1.97447
2.44797
3.05622
3.63959
4.12651
4.52266
4.80994
4.98228
5.01275
4.91262
4.69844
4.4066
4.0713
3.71512
3.35755
3.00785
2.67139
2.35741
2.08131
1.84979
1.67349
1.53877
2.57122
2.55072
2.52733
2.45297
2.31276
2.10761
1.88693
1.78359
1.9657
2.41825
3.0357
3.65273
4.17338
4.59725
4.90533
5.09387
5.13473
5.04099
4.82961
4.53626
4.19872
3.84011
3.48077
3.13025
2.79406
2.48108
2.20335
1.9667
1.78226
1.64488
2.8062
2.77813
2.75172
2.67894
2.53826
2.31961
2.06151
1.883
1.98368
2.4049
3.02313
3.66894
4.22182
4.67335
5.00274
5.20744
5.25854
5.16797
4.95688
4.66066
4.3206
3.95986
3.60039
3.2504
2.91598
2.60561
2.32811
2.08828
1.89765
1.75977
3.05281
3.02181
2.99435
2.92302
2.78138
2.5506
2.25964
2.01588
2.034
2.40619
3.01846
3.68992
4.27547
4.75599
5.10809
5.32892
5.38906
5.29844
5.08434
4.78338
4.4392
4.07839
3.71864
3.37019
3.03907
2.7326
2.45715
2.21632
2.02185
1.88584
3.32375
3.29338
3.26655
3.19603
3.0511
2.80713
2.48389
2.17971
2.11222
2.42821
3.02345
3.71932
4.34025
4.85281
5.2301
5.46715
5.53457
5.44049
5.21945
4.90932
4.56343
4.19972
3.83943
3.49294
3.16608
2.86477
2.59289
2.35331
2.15751
2.02607
3.63155
3.60447
3.57979
3.50962
3.35883
3.09845
2.73968
2.3758
2.21759
2.47449
3.04896
3.76612
4.42635
4.97588
5.38239
5.63623
5.70848
5.60779
5.37358
5.05647
4.70182
4.3325
3.96986
3.62456
3.30206
3.0065
2.73946
2.50322
2.30848
2.18447
3.98599
3.96791
3.94785
3.87856
3.72126
3.4397
3.03898
2.60768
2.35861
2.5579
3.10874
3.85236
4.55153
5.14525
5.5874
5.85972
5.93472
5.82286
5.57707
5.24317
4.87253
4.49189
4.12264
3.77578
3.45599
3.16543
2.90431
2.67262
2.48072
2.3668
4.39973
4.39617
4.38727
4.32263
4.16007
3.85512
3.40474
2.89424
2.55324
2.68673
3.23567
3.99943
4.74611
5.39624
5.88454
6.17923
6.25687
6.13264
5.86405
5.50367
5.10697
4.70547
4.3212
3.96615
3.64443
3.35646
3.09956
2.872
2.68364
2.58234
4.89475
4.91438
4.92366
4.86976
4.70793
4.38589
3.87851
3.27483
2.83923
2.90115
3.45881
4.25463
5.0683
5.79571
6.34817
6.67372
6.75462
6.61283
6.30818
5.90524
5.46451
5.02551
4.61088
4.23438
3.89991
3.60622
3.34766
3.12038
2.93397
2.84725
5.52501
5.57606
5.61181
5.57533
5.42694
5.10804
4.538
3.82797
3.29099
3.28197
3.87119
4.72551
5.63872
6.47982
7.1293
7.50221
7.59054
7.42417
7.06177
6.58861
6.07212
5.56167
5.08569
4.65945
4.2871
3.96665
3.69108
3.45441
3.26703
3.19532
6.41356
6.50251
6.56922
6.56647
6.46719
6.15115
5.53467
4.72098
4.07503
4.02049
4.68422
5.66193
6.72704
7.74877
8.56006
9.01575
9.12419
8.92305
8.46963
7.8785
7.22995
6.58774
5.98831
5.45121
4.98413
4.58783
4.25625
3.98317
3.77558
3.70596
7.8275
7.95551
8.06575
8.16852
8.12899
7.842
7.21705
6.33927
5.61526
5.57078
6.39797
7.62125
8.9946
10.3176
11.4219
12.0423
12.2123
11.9761
11.3827
10.5575
9.65243
8.74153
7.88339
7.1078
6.42748
5.84908
5.36897
4.98074
4.68653
4.56691
10.3717
10.5628
10.8262
11.03
11.0845
10.903
10.3762
9.5853
8.94193
9.08107
10.2259
11.8962
13.8099
15.7025
17.3286
18.2517
18.5156
18.2099
17.3823
16.1792
14.7887
13.3562
11.9862
10.7292
9.60459
8.62743
7.79661
7.10836
6.55958
6.24684
15.4509
15.817
16.1766
16.504
16.7561
16.8478
16.7083
16.385
16.2838
17.0597
18.8199
21.1713
23.8765
26.567
28.8807
30.2051
30.6076
30.2214
29.0699
27.32
25.1929
22.9156
20.6667
18.5425
16.5913
14.8415
13.2881
11.9333
10.7721
9.92858
25.6266
26.0072
26.4198
26.9636
27.6338
28.3127
28.9324
29.5676
30.7508
32.8334
35.5465
38.7738
42.3334
45.6919
48.4518
50.0201
50.5618
50.1571
48.7805
46.585
43.7779
40.6043
37.3166
34.0785
30.9687
28.0264
25.2502
22.659
20.268
18.2725
39.2762
39.3419
40.3862
41.891
43.2901
44.4981
45.7499
47.3065
49.799
53.3511
57.2453
61.3138
65.2073
68.4316
70.49
71.3244
71.4399
70.6908
69.1546
66.9186
64.1014
60.8452
57.3489
53.7907
50.2895
46.7909
43.2991
39.8335
36.3951
33.1671
42.6477
43.0967
44.6603
46.5204
47.9905
48.7742
49.2691
50.2205
52.3237
55.8614
60.2035
64.5353
67.9532
70.1228
70.4517
69.4945
68.3564
66.6121
64.4868
62.0959
59.5893
57.0824
54.6412
52.3233
50.1965
48.276
46.4145
44.6549
42.9788
41.3027
4.86312
6.49695
7.70641
8.69472
9.50581
10.1845
10.7523
11.2091
11.5367
11.7353
11.7868
11.7175
11.5178
11.2298
10.8324
10.3009
9.51424
8.50352
7.42203
6.37333
5.32362
4.21754
3.0556
1.95413
1.14521
0.884229
0.179764
0.67613
0.821203
1.04992
4.39687
4.74817
5.23403
5.60746
5.87347
6.04888
6.14609
6.17459
6.14777
6.08581
6.00406
5.91095
5.80703
5.68424
5.53466
5.31337
4.97409
4.5402
4.11391
3.72321
3.30441
2.79807
2.20103
1.54529
0.930164
0.628041
0.435679
0.460581
0.532472
0.5092
4.48733
4.70862
5.14593
5.47086
5.65851
5.73359
5.71827
5.62894
5.49365
5.34531
5.20704
5.08898
4.98783
4.89154
4.78421
4.62373
4.36294
4.03156
3.71695
3.43687
3.13215
2.73631
2.2392
1.67089
1.08861
0.742697
0.571279
0.487377
0.515176
0.53666
4.18226
4.60419
5.10885
5.46133
5.671
5.7388
5.69128
5.55799
5.38067
5.20132
5.04748
4.92865
4.83886
4.76216
4.67951
4.54784
4.31576
4.0158
3.73256
3.48331
3.20868
2.85122
2.39551
1.85844
1.28361
0.892585
0.705112
0.567354
0.544994
0.554906
3.50419
4.11834
4.76642
5.24004
5.543
5.65858
5.64117
5.52503
5.35552
5.17845
5.03629
4.93398
4.86226
4.8074
4.74619
4.634
4.41884
4.1369
3.8669
3.62269
3.35314
3.00728
2.56813
2.04659
1.47917
1.04979
0.836813
0.669195
0.602078
0.601528
2.72685
3.39593
4.09551
4.66999
5.0886
5.33485
5.4407
5.40978
5.29892
5.16586
5.05348
4.98248
4.93897
4.90955
4.86914
4.77335
4.57166
4.30372
4.04203
3.79573
3.52115
3.1751
2.74167
2.22809
1.66896
1.21034
0.962975
0.779182
0.678501
0.665355
2.08453
2.6793
3.34433
3.94389
4.433
4.79322
5.0457
5.17086
5.18085
5.12378
5.06636
5.03929
5.03102
5.03043
5.01102
4.93079
4.74296
4.48994
4.23577
3.98489
3.70027
3.34764
2.91386
2.40427
1.85256
1.37317
1.08823
0.890081
0.76699
0.744557
1.62809
2.10841
2.69126
3.25171
3.75197
4.18747
4.54725
4.81905
4.9937
5.04714
5.06504
5.09133
5.12434
5.15558
5.15735
5.09333
4.92177
4.68657
4.4404
4.18396
3.88634
3.52295
3.08487
2.57667
2.03
1.53779
1.21683
1.00082
0.861717
0.829358
1.35969
1.71709
2.19013
2.67236
3.14391
3.60456
4.0378
4.42595
4.74824
4.9386
5.04575
5.13451
5.2138
5.27871
5.30276
5.25664
5.10512
4.89096
4.65339
4.39048
4.07758
3.70029
3.2553
2.74673
2.20337
1.70283
1.35052
1.11372
0.959544
0.916479
1.22736
1.49783
1.85953
2.24824
2.65818
3.10116
3.56997
4.04785
4.47939
4.8084
5.01384
5.16991
5.29811
5.39807
5.44588
5.42058
5.29353
5.10319
4.8742
4.60322
4.27284
3.87932
3.42527
2.91551
2.37458
1.86875
1.49063
1.23124
1.06058
1.00526
1.18461
1.4109
1.68369
1.98127
2.31324
2.70879
3.17834
3.70749
4.21967
4.66637
4.9762
5.20092
5.37836
5.51441
5.58806
5.58737
5.48949
5.3244
5.10273
4.82114
4.47113
4.05946
3.59473
3.08353
2.54528
2.03649
1.63704
1.35565
1.16746
1.09744
1.21084
1.40714
1.62584
1.85267
2.10364
2.43142
2.86983
3.41678
3.98602
4.52545
4.93653
5.23074
5.45752
5.63051
5.73263
5.76109
5.6966
5.55665
5.33902
5.04342
4.67146
4.24012
3.76399
3.251
2.71611
2.20636
1.79042
1.48874
1.28285
1.19642
1.31599
1.48347
1.64622
1.82066
2.00763
2.2621
2.64721
3.18195
3.78926
4.40036
4.90003
5.26029
5.53897
5.75099
5.88507
5.94776
5.91906
5.80178
5.58333
5.26943
4.87325
4.42116
3.93367
3.41827
2.8872
2.37918
1.95182
1.63209
1.40931
1.30645
1.48082
1.62668
1.76134
1.87691
1.99149
2.17791
2.50647
3.01007
3.63556
4.29323
4.87048
5.29478
5.62787
5.8822
6.05301
6.15506
6.16204
6.06219
5.83649
5.49955
5.07673
4.60378
4.10489
3.58669
3.0598
2.55598
2.12283
1.78775
1.54965
1.43175
1.71488
1.83427
1.94433
2.01152
2.06074
2.16178
2.42692
2.88659
3.51445
4.20638
4.85085
5.34111
5.73147
6.03312
6.24677
6.39326
6.43224
6.34255
6.10175
5.73635
5.28448
4.79057
4.28012
3.75982
3.2371
2.73967
2.30501
1.95771
1.70687
1.57641
2.0225
2.10651
2.1866
2.20968
2.20064
2.22252
2.39842
2.80885
3.4267
4.14394
4.8433
5.40849
5.85983
6.21625
6.48034
6.67499
6.7406
6.65116
6.38586
5.98621
5.50269
4.9866
4.46393
3.94178
3.42518
2.93546
2.50047
2.14466
1.88397
1.74427
2.4036
2.444
2.48622
2.46872
2.40515
2.35133
2.42584
2.77472
3.37253
4.10705
4.85723
5.50549
6.02705
6.44905
6.77306
7.01818
7.10318
7.00246
6.70244
6.26183
5.74288
5.20142
4.66466
4.13935
3.6285
3.14618
2.71374
2.35288
2.08508
1.93973
2.84566
2.84106
2.84261
2.79004
2.67409
2.54992
2.52904
2.78152
3.35146
4.09715
4.91244
5.65035
6.25438
6.75677
7.15262
7.44944
7.54591
7.42152
7.07594
6.58567
6.02509
5.45281
4.89769
4.3659
3.85742
3.38148
2.9528
2.58998
2.31698
2.16922
3.3617
3.32013
3.28234
3.18761
3.0175
2.81904
2.70502
2.86367
3.37677
4.14344
5.04264
5.87073
6.57427
7.17733
7.66057
8.01063
8.11153
7.95123
7.5484
6.99689
6.38403
5.77298
5.19112
4.64394
4.13316
3.65977
3.23301
2.86907
2.59094
2.44261
3.98251
3.90719
3.82916
3.68712
3.45851
3.17862
2.97063
3.02827
3.50481
4.30332
5.27163
6.20914
7.03842
7.77042
8.36265
8.7705
8.87171
8.66498
8.19261
7.56439
6.8847
6.21902
5.59487
5.02169
4.49581
4.01436
3.58369
3.21297
2.92547
2.77504
4.74502
4.63699
4.51781
4.32676
4.03362
3.66623
3.35631
3.30667
3.75871
4.60518
5.6588
6.73923
7.73333
8.63476
9.36884
9.8468
9.95044
9.69076
9.13653
8.41301
7.64392
6.89681
6.2031
5.58057
5.01784
4.50925
4.05471
3.66027
3.35098
3.19094
5.7049
5.56368
5.4043
5.16586
4.80897
4.35118
3.92718
3.77532
4.20404
5.1332
6.32547
7.59487
8.81127
9.94206
10.8722
11.4484
11.5683
11.2574
10.6132
9.77136
8.88385
8.02223
7.21655
6.48672
5.83176
5.24652
4.7267
4.27628
3.91935
3.73174
6.95672
6.78225
6.58656
6.3096
5.90241
5.36466
4.82596
4.57627
5.00951
6.07361
7.48662
9.02439
10.5561
12.0026
13.2235
13.954
14.1265
13.7824
13.0564
12.0835
11.0053
9.92845
8.90787
7.97403
7.13692
6.39444
5.73983
5.1754
4.7213
4.47195
8.67981
8.47861
8.2603
7.9724
7.55561
6.96778
6.34218
6.01953
6.51126
7.80329
9.55961
11.5184
13.5101
15.397
17.0634
18.0452
18.3458
18.0247
17.1856
15.9633
14.5529
13.1097
11.7195
10.4322
9.2726
8.24576
7.34343
6.56482
5.93057
5.55779
11.2317
11.0292
10.8278
10.5859
10.2246
9.67851
9.06528
8.7629
9.42733
11.0882
13.3573
15.9303
18.5906
21.147
23.46
24.7965
25.2323
24.8948
23.8577
22.2783
20.3836
18.3939
16.4276
14.5694
12.8713
11.3565
10.0217
8.86719
7.91005
7.29974
15.3291
15.1776
15.0675
14.9764
14.8035
14.4904
14.1222
14.0918
15.1566
17.373
20.3312
23.7034
27.2192
30.5837
33.6537
35.376
35.9411
35.5588
34.2781
32.2566
29.7485
27.0434
24.2899
21.6118
19.1026
16.8178
14.7689
12.9717
11.442
10.3721
22.2804
22.223
22.3058
22.5406
22.8336
23.0331
23.2546
23.986
25.7902
28.751
32.4782
36.6804
41.0545
45.1587
48.8181
50.715
51.2667
50.7217
49.1585
46.7054
43.6283
40.2288
36.6776
33.1159
29.6603
26.3921
23.3499
20.5769
18.1129
16.2104
33.5077
33.4494
33.8518
34.5831
35.4713
36.4913
37.7654
39.5887
42.4754
46.3128
50.7017
55.4611
60.2931
64.5895
67.9895
69.1903
69.1268
67.9087
65.8328
63.1066
59.9087
56.3282
52.5698
48.7477
44.9231
41.1323
37.3841
33.7237
30.2144
27.1528
45.7743
45.9394
47.0034
48.4256
49.7979
51.1054
52.7431
55.4016
59.5356
64.5443
69.5239
74.3876
78.7803
81.9927
83.176
81.8522
79.8427
77.1225
74.1556
71.0132
67.8778
64.7766
61.7876
58.9572
56.2506
53.553
50.7506
47.7972
44.6678
41.4777
46.3376
47.424
49.2658
51.2234
52.807
53.9533
55.2348
57.5367
61.4197
66.5468
71.8797
76.5342
79.831
81.1385
79.84
76.3115
72.6995
68.6989
64.8738
61.3188
58.2438
55.6597
53.5402
51.8392
50.5079
49.4366
48.4593
47.5077
46.5089
45.4518
6.49913
9.10332
10.82
12.186
13.2885
14.2119
14.9974
15.6328
16.0701
16.2936
16.2682
16.0305
15.5629
14.9268
14.0852
13.0005
11.5644
10.0325
8.82588
7.97892
7.05127
5.67204
3.8624
2.04193
0.235881
0.198726
0.788453
0.908605
1.10134
1.29796
4.4393
5.40858
6.19557
6.8261
7.30898
7.67191
7.92597
8.06931
8.09972
8.03237
7.89073
7.69092
7.45265
7.16855
6.83798
6.38062
5.80676
5.25098
4.94702
4.82201
4.53449
3.88596
2.9316
1.81468
0.633235
0.359616
0.435254
0.499822
0.572817
0.638749
4.07665
4.96908
5.73472
6.34327
6.78621
7.06979
7.20854
7.22216
7.12175
6.9459
6.73304
6.50544
6.27845
6.04485
5.79263
5.45511
5.01725
4.62317
4.45323
4.42683
4.25533
3.76544
2.96645
2.011
0.917242
0.468246
0.435993
0.464322
0.53631
0.628902
3.83139
4.74469
5.59154
6.28076
6.77174
7.06104
7.17925
7.13735
6.97262
6.7459
6.50335
6.26722
6.04922
5.84012
5.62293
5.33143
4.94124
4.6021
4.46747
4.45114
4.29961
3.85422
3.13216
2.23959
1.18387
0.613896
0.483667
0.492838
0.553091
0.644658
3.59445
4.51851
5.45085
6.21825
6.76652
7.10274
7.22661
7.1701
6.99258
6.75641
6.51136
6.27845
6.07014
5.8819
5.68804
5.42096
5.05913
4.75527
4.63758
4.60946
4.45331
4.02432
3.32865
2.46239
1.44324
0.782866
0.55683
0.538816
0.590113
0.686826
3.28562
4.2136
5.21495
6.05136
6.66182
7.04281
7.2039
7.1788
7.01607
6.79231
6.56681
6.35742
6.17336
6.00804
5.83422
5.58548
5.24866
4.98046
4.87821
4.83438
4.6589
4.22684
3.53908
2.68111
1.69077
0.964138
0.660324
0.595964
0.641511
0.745642
2.85987
3.75942
4.8022
5.70549
6.38443
6.83767
7.06101
7.09923
6.99789
6.81515
6.6302
6.45782
6.30492
6.16494
6.011
5.78041
5.47393
5.24909
5.16525
5.10478
4.90073
4.45216
3.76154
2.90132
1.92847
1.15498
0.783889
0.664994
0.701744
0.811584
2.43252
3.24295
4.25054
5.16242
5.89299
6.43453
6.77165
6.91931
6.91266
6.81262
6.6828
6.55902
6.44393
6.33213
6.19941
5.99158
5.72628
5.55454
5.49174
5.41271
5.17206
4.69648
3.9945
3.12691
2.16253
1.35659
0.921966
0.748246
0.767612
0.879875
2.06053
2.74237
3.65601
4.53395
5.29192
5.9053
6.35286
6.64298
6.76502
6.76802
6.7184
6.65376
6.58251
6.50199
6.39327
6.21702
6.00738
5.89803
5.85575
5.75419
5.46885
4.95718
4.23687
3.36005
2.39929
1.56946
1.07604
0.8463
0.839023
0.947739
1.76159
2.31306
3.10038
3.90841
4.6622
5.32792
5.87627
6.29447
6.56943
6.69304
6.73941
6.74142
6.7193
6.67332
6.5932
6.46099
6.32386
6.284
6.26109
6.12653
5.78751
5.23199
4.488
3.602
2.64313
1.79427
1.24658
0.962392
0.918238
1.01522
1.53222
1.97859
2.63292
3.34955
4.06921
4.76003
5.38856
5.92223
6.33996
6.59785
6.7499
6.82517
6.85697
6.84918
6.8046
6.73206
6.68516
6.71517
6.70402
6.52578
6.12441
5.51851
4.74733
3.8531
2.8965
2.03244
1.4361
1.09894
1.01164
1.08533
1.38079
1.7402
2.27806
2.89597
3.55838
4.24565
4.92739
5.55891
6.09754
6.49456
6.75197
6.90781
6.99999
7.03629
7.03715
7.04326
7.10049
7.19593
7.18284
6.94774
6.47609
5.81476
5.01491
4.11306
3.16034
2.28588
1.6477
1.25948
1.12248
1.16523
1.3019
1.59893
2.03981
2.56599
3.15466
3.81289
4.51952
5.22598
5.86702
6.40144
6.75627
6.99691
7.15571
7.24355
7.30535
7.41028
7.57802
7.73122
7.69533
7.38883
6.84027
6.12065
5.29178
4.38289
3.4355
2.55618
1.88409
1.44759
1.25604
1.2667
1.28762
1.54678
1.91138
2.35852
2.86883
3.47552
4.18146
4.93992
5.67585
6.32164
6.77172
7.10281
7.33549
7.48566
7.62676
7.85001
8.12728
8.31882
8.23876
7.84773
7.21724
6.43899
5.58197
4.66607
3.72467
2.8453
2.14785
1.66581
1.41913
1.39218
1.38786
1.59468
1.88271
2.25642
2.68876
3.23783
3.92509
4.71586
5.5218
6.25885
6.80982
7.23928
7.55519
7.78345
8.02433
8.38311
8.75881
8.96364
8.81536
8.32852
7.61284
6.77782
5.89353
4.97252
4.03564
3.15964
2.44119
1.91714
1.61716
1.54742
1.60818
1.76989
1.9876
2.24811
2.60525
3.08233
3.73434
4.53938
5.40282
6.21872
6.88948
7.42468
7.83706
8.16515
8.52863
9.03595
9.4915
9.67679
9.4367
8.84462
8.04238
7.15268
6.23956
5.31167
4.38263
3.50793
2.77001
2.20575
1.85413
1.73941
1.95971
2.05944
2.2139
2.38246
2.60744
3.00749
3.61012
4.41501
5.32396
6.20783
7.02864
7.6836
8.21221
8.66839
9.18145
9.84298
10.3455
10.4809
10.1294
9.42442
8.53453
7.58623
6.64387
5.7069
4.7819
3.90616
3.14444
2.53803
2.13506
1.97359
2.44114
2.46863
2.55676
2.63507
2.7482
3.00865
3.55363
4.34635
5.29092
6.27154
7.25524
8.0519
8.72462
9.34541
10.0392
10.851
11.3631
11.4203
10.9424
10.1177
9.13423
8.11829
7.15347
6.21018
5.27504
4.37862
3.58038
2.92423
2.46758
2.25822
3.05884
3.01554
3.02896
3.01579
3.0103
3.14978
3.57021
4.33826
5.34156
6.48224
7.61607
8.58237
9.43754
10.2701
11.18
12.1283
12.6177
12.5705
11.9587
11.0042
9.91807
8.87053
7.87526
6.88479
5.90201
4.95595
4.10021
3.38094
2.86458
2.60586
3.83756
3.72591
3.65266
3.54605
3.42528
3.42178
3.75624
4.49218
5.58576
6.86591
8.1747
9.35273
10.4451
11.5488
12.7151
13.7801
14.2231
14.0562
13.3153
12.2155
11.0752
9.99841
8.90024
7.80123
6.71772
5.68032
4.73486
3.93421
3.34757
3.03597
4.8179
4.61596
4.45631
4.25886
4.0238
3.88984
4.11557
4.86484
6.05538
7.50048
9.03366
10.4812
11.8891
13.3387
14.809
15.9695
16.3566
16.0826
15.2441
14.0622
12.8746
11.6365
10.3442
9.04999
7.79385
6.60791
5.53528
4.62821
3.95352
3.58091
6.0379
5.75401
5.51655
5.2376
4.89818
4.63935
4.75271
5.51881
6.85335
8.52851
10.3519
12.1615
13.9877
15.8749
17.7095
18.9527
19.3053
18.9988
18.1796
16.8759
15.5052
13.9539
12.3435
10.7573
9.24649
7.84588
6.5947
5.54135
4.74883
4.29839
7.61682
7.26265
6.96515
6.62728
6.20628
5.83577
5.84559
6.66297
8.19936
10.1912
12.415
14.7023
17.0764
19.5099
21.7929
23.1319
23.5506
23.3101
22.4155
20.9354
19.1685
17.1998
15.1662
13.1742
11.2997
9.58891
8.07976
6.81609
5.8554
5.29465
9.76195
9.36351
9.03969
8.68848
8.23697
7.79454
7.74858
8.66922
10.4954
12.921
15.6837
18.5924
21.6584
24.7537
27.6121
29.1137
29.5877
29.2749
28.204
26.445
24.2369
21.7631
19.2025
16.6905
14.3244
12.1774
10.2934
8.71746
7.50273
6.76952
12.8528
12.4548
12.1578
11.8698
11.4951
11.0947
11.11
12.2258
14.451
17.4385
20.8795
24.5491
28.4311
32.2694
35.7625
37.3085
37.7142
37.2275
35.9035
33.7992
31.1266
28.1251
24.9831
21.8631
18.9003
16.1875
13.7802
11.7415
10.1321
9.10154
17.5447
17.1979
16.9963
16.8812
16.7584
16.6649
16.9748
18.4339
21.1622
24.797
28.9847
33.4697
38.1909
42.7052
46.7045
47.9497
48.0068
46.9507
45.1722
42.7467
39.847
36.5233
32.9542
29.3107
25.7766
22.4672
19.4319
16.7652
14.5592
13.0201
24.7038
24.4217
24.3864
24.5779
24.9
25.4502
26.4835
28.4891
31.797
36.0537
40.8856
46.0306
51.3775
56.2208
60.1719
60.1747
58.8288
56.6656
54.2427
51.4688
48.4694
45.3087
42.0502
38.7261
35.2719
31.7213
28.2315
24.9546
22.0397
19.7726
34.4236
34.2459
34.5465
35.1689
35.9947
37.2068
39.204
42.1786
46.152
50.9258
56.1166
61.493
66.8972
71.2475
73.7539
70.867
67.5787
64.0071
60.8033
57.6941
54.7841
52.0258
49.4446
46.9656
44.4705
41.8316
38.9591
35.8715
32.6709
29.6653
43.0599
43.5429
44.5375
45.724
46.9556
48.4727
50.874
54.5637
59.5183
64.9477
70.2981
75.3455
79.9805
82.4064
81.7719
75.5985
70.1759
65.0221
60.8493
57.4165
54.6194
52.4378
50.7829
49.5086
48.4459
47.364
46.0274
44.3232
42.2399
39.9629
42.1187
43.6046
45.4769
47.3458
49.0228
50.7244
53.1204
56.831
61.9828
67.9441
73.646
78.3679
81.4057
81.5209
77.79
69.1902
62.33
56.2039
51.3928
47.6028
44.8516
42.9929
41.9184
41.4537
41.4203
41.6441
41.8836
41.986
41.8813
41.6505
9.66011
12.968
14.8071
16.3169
17.5308
18.5374
19.3921
20.0791
20.5178
20.6691
20.4741
19.9763
19.1475
18.0731
16.6934
14.9623
12.8437
11.1396
10.8007
11.3838
11.1789
9.28368
6.17249
2.8248
0.234811
0.207022
1.0454
1.25564
1.46195
1.54366
6.06083
7.03268
7.70931
8.32556
8.84087
9.25901
9.57926
9.78371
9.85212
9.78025
9.59063
9.29385
8.9284
8.47414
7.94414
7.22364
6.40341
5.92022
6.23229
6.88573
6.88588
5.96861
4.46936
2.66702
0.555637
0.417407
0.521628
0.592499
0.687098
0.77026
5.56763
6.28518
6.9
7.45663
7.92812
8.28281
8.50626
8.58745
8.52584
8.34418
8.08629
7.77865
7.45517
7.10435
6.71706
6.19109
5.58777
5.3005
5.65928
6.24729
6.2924
5.61071
4.36854
2.90317
0.906191
0.425494
0.46185
0.528083
0.634278
0.757306
5.22504
5.90575
6.61333
7.27634
7.83202