/*--------------------------------*- C++ -*----------------------------------*\
  =========                 |
  \\      /  F ield         | OpenFOAM: The Open Source CFD Toolbox
   \\    /   O peration     | Website:  https://openfoam.org
    \\  /    A nd           | Version:  12
     \\/     M anipulation  |
\*---------------------------------------------------------------------------*/
FoamFile
{
    format      ascii;
    class       volScalarField;
    location    "950/air";
    object      k;
}
// * * * * * * * * * * * * * * * * * * * * * * * * * * * * * * * * * * * * * //

dimensions      [0 2 -2 0 0 0 0];

internalField   nonuniform List<scalar> 
243000
(
0.0277154
0.0336046
0.0420474
0.0472158
0.050792
0.0533928
0.0552529
0.0564342
0.0569008
0.0566969
0.0558206
0.0544242
0.0527139
0.0511568
0.0501137
0.0499788
0.0504934
0.0511336
0.0513957
0.0510984
0.0502031
0.0487868
0.0469612
0.0448926
0.0427817
0.0407381
0.0381405
0.0337236
0.027342
0.0247743
0.0416682
0.0413534
0.0581928
0.0664626
0.0717956
0.0755988
0.0782401
0.0798829
0.0807467
0.0810451
0.0808847
0.0805699
0.0802293
0.0803297
0.0809724
0.0821823
0.0829305
0.0824675
0.0805469
0.0776083
0.0740029
0.070039
0.0658904
0.0616943
0.0576629
0.054078
0.0507186
0.0462221
0.0398819
0.0331843
0.0493766
0.0504828
0.0554204
0.0657674
0.0759071
0.0836608
0.0897672
0.0940777
0.0973324
0.0997629
0.101566
0.103134
0.104574
0.106439
0.108697
0.111125
0.112252
0.111191
0.107889
0.103141
0.0975531
0.0915994
0.0855287
0.0794947
0.0737136
0.0684177
0.0634743
0.057874
0.0507949
0.0423186
0.056018
0.0567047
0.0571611
0.0627759
0.0704492
0.0798495
0.0893172
0.0976943
0.104749
0.11047
0.115142
0.119161
0.122673
0.126312
0.130007
0.133409
0.134832
0.133378
0.129144
0.123147
0.116172
0.108811
0.101374
0.0940324
0.0869614
0.0803564
0.0741497
0.0676426
0.0600868
0.0511482
0.0637081
0.0639272
0.0629724
0.063421
0.0676362
0.0750364
0.0838776
0.0945108
0.105533
0.115925
0.124578
0.131866
0.137978
0.143695
0.148952
0.153353
0.155104
0.153365
0.148381
0.141345
0.133191
0.124617
0.115995
0.107518
0.0993299
0.0915964
0.0843054
0.0768687
0.0688191
0.0597396
0.0720646
0.0722635
0.0708622
0.0693321
0.0688673
0.0724462
0.079636
0.0897602
0.102235
0.117079
0.130565
0.141857
0.151025
0.159044
0.165935
0.171316
0.173397
0.171452
0.165866
0.157969
0.14882
0.139206
0.129563
0.120102
0.110955
0.102265
0.0940588
0.0857928
0.0772308
0.0680506
0.0808304
0.0811934
0.0797768
0.077443
0.0749181
0.073817
0.0773865
0.0859353
0.0984219
0.115187
0.133831
0.149572
0.162175
0.172671
0.181229
0.187557
0.18996
0.187872
0.181807
0.173201
0.163217
0.152719
0.142199
0.131893
0.121927
0.112423
0.103435
0.094493
0.0854023
0.0760852
0.0898942
0.0904334
0.0891196
0.086474
0.082897
0.0794436
0.0781674
0.0835826
0.0952466
0.112153
0.134891
0.155365
0.171692
0.184805
0.19503
0.202274
0.204985
0.20281
0.196372
0.187193
0.176514
0.165269
0.153999
0.14297
0.132306
0.122111
0.112454
0.102944
0.0933407
0.0838514
0.0992075
0.099882
0.0986514
0.0958486
0.0916825
0.0868292
0.0828218
0.0832952
0.0929036
0.109801
0.134324
0.159606
0.179801
0.195606
0.207486
0.215618
0.218627
0.216408
0.209693
0.20006
0.188811
0.176937
0.165033
0.153391
0.142139
0.131364
0.121137
0.111141
0.101052
0.0913651
0.108775
0.109497
0.108303
0.10537
0.100785
0.0950021
0.089168
0.085881
0.0918401
0.107935
0.132905
0.162699
0.186715
0.205215
0.218722
0.22771
0.23101
0.228791
0.221879
0.211895
0.200184
0.187788
0.175351
0.163197
0.151456
0.140198
0.129488
0.119078
0.108628
0.0986672
0.118592
0.119249
0.118019
0.114951
0.110028
0.103519
0.0963354
0.0906854
0.0921786
0.106624
0.131299
0.164754
0.192578
0.213747
0.228839
0.238645
0.242237
0.240062
0.233029
0.222784
0.21071
0.197886
0.185006
0.172422
0.160273
0.148615
0.137503
0.126742
0.116047
0.105775
0.128655
0.12913
0.127766
0.124526
0.119309
0.112222
0.10395
0.0964833
0.0943191
0.106057
0.130308
0.166118
0.197529
0.221294
0.237916
0.248501
0.252388
0.250304
0.24322
0.2328
0.220452
0.207288
0.194044
0.181099
0.168606
0.156614
0.145173
0.134121
0.123232
0.112664
0.13897
0.139155
0.137568
0.134097
0.128583
0.121009
0.111836
0.102827
0.0977845
0.106253
0.129764
0.167001
0.201691
0.227933
0.246013
0.25735
0.261534
0.25958
0.252512
0.241995
0.229458
0.216039
0.202505
0.189264
0.176485
0.16422
0.152519
0.14123
0.13018
0.119333
0.149549
0.14936
0.147465
0.143701
0.137862
0.129841
0.119919
0.109567
0.102262
0.107352
0.129609
0.167546
0.205185
0.233727
0.253179
0.265232
0.269725
0.267939
0.260951
0.250411
0.237767
0.224173
0.210422
0.196948
0.183942
0.171467
0.15957
0.148098
0.136915
0.125828
0.160439
0.159786
0.157503
0.153386
0.147184
0.138717
0.128138
0.116631
0.107551
0.109317
0.12981
0.167862
0.208087
0.23872
0.259446
0.272177
0.277006
0.27542
0.268565
0.25808
0.245409
0.23172
0.217828
0.20419
0.191025
0.178406
0.166371
0.154763
0.143478
0.132298
0.171683
0.170486
0.16774
0.163206
0.156596
0.147665
0.136471
0.123964
0.113395
0.112151
0.130418
0.168003
0.21038
0.242934
0.264838
0.278211
0.283405
0.282054
0.275383
0.265021
0.252405
0.238706
0.224752
0.211028
0.197772
0.185075
0.172957
0.161265
0.14991
0.138707
0.183335
0.181524
0.17824
0.173222
0.16615
0.156723
0.144915
0.131501
0.11956
0.115687
0.131427
0.168012
0.212089
0.246378
0.26937
0.283358
0.288938
0.287862
0.281421
0.271249
0.258769
0.24515
0.231223
0.217493
0.204216
0.191505
0.179363
0.167636
0.156247
0.145073
0.195551
0.193006
0.189087
0.183507
0.175906
0.165934
0.153491
0.139228
0.126049
0.119814
0.132826
0.167945
0.213231
0.249053
0.273051
0.287635
0.293621
0.292856
0.286698
0.276782
0.264525
0.251072
0.237257
0.223602
0.210385
0.197724
0.185615
0.173909
0.162538
0.151437
0.208481
0.205053
0.200395
0.19416
0.185949
0.175361
0.162238
0.147153
0.132745
0.124396
0.134584
0.167816
0.213773
0.25098
0.275871
0.291045
0.297464
0.297049
0.291233
0.28166
0.269702
0.256495
0.242872
0.229374
0.216292
0.20375
0.191741
0.180119
0.168819
0.157842
0.221798
0.217834
0.212354
0.205354
0.196416
0.185105
0.171228
0.155307
0.139595
0.129315
0.136664
0.167633
0.21367
0.252051
0.277797
0.293573
0.300467
0.300458
0.295068
0.285916
0.274329
0.261444
0.248096
0.234831
0.221958
0.20961
0.197771
0.186303
0.175138
0.164339
0.23528
0.230907
0.225115
0.217426
0.207555
0.195341
0.180582
0.163813
0.146683
0.134508
0.13903
0.167438
0.213016
0.252097
0.278785
0.295186
0.302619
0.303104
0.298222
0.289569
0.278432
0.265949
0.252957
0.240005
0.227417
0.215336
0.203741
0.192503
0.181551
0.171004
0.248846
0.24408
0.238058
0.230193
0.219798
0.206372
0.190549
0.172972
0.154061
0.139999
0.141758
0.167396
0.211814
0.251271
0.278708
0.295812
0.303872
0.304956
0.300686
0.292623
0.282028
0.270035
0.257488
0.244935
0.232712
0.220971
0.209696
0.198772
0.188128
0.177918
0.262445
0.257314
0.251105
0.24318
0.232737
0.218812
0.201919
0.182311
0.161567
0.14569
0.144875
0.16759
0.210031
0.24953
0.277552
0.295322
0.304089
0.305907
0.302378
0.295031
0.285092
0.273695
0.261701
0.249653
0.237885
0.226565
0.215688
0.205164
0.194931
0.185157
0.276073
0.270641
0.264338
0.256475
0.246454
0.232678
0.213536
0.191716
0.169203
0.151583
0.148431
0.168165
0.207621
0.246596
0.27497
0.293371
0.302904
0.305606
0.302992
0.296584
0.287466
0.276809
0.265506
0.254111
0.242941
0.232164
0.221793
0.211769
0.202044
0.192806
0.289593
0.284212
0.278275
0.270804
0.260063
0.244623
0.223993
0.200962
0.177208
0.158091
0.152814
0.169582
0.204817
0.242231
0.270459
0.289284
0.29958
0.303308
0.301819
0.296461
0.288476
0.278843
0.268483
0.257955
0.247604
0.237603
0.227944
0.218588
0.20949
0.200867
0.302938
0.297291
0.290464
0.281622
0.269645
0.253272
0.233577
0.210826
0.18666
0.166551
0.159368
0.173531
0.204594
0.238563
0.265229
0.28367
0.294615
0.299499
0.299486
0.295653
0.289012
0.28055
0.271018
0.261
0.251339
0.242298
0.23361
0.225165
0.216862
0.208927
0.310924
0.303749
0.296451
0.288141
0.277692
0.26379
0.245956
0.224341
0.200736
0.180579
0.171955
0.183667
0.211236
0.24182
0.266777
0.284572
0.29573
0.301318
0.302431
0.299835
0.294374
0.286897
0.27811
0.268582
0.25897
0.249632
0.240567
0.23174
0.223114
0.21527
0.329136
0.321712
0.314001
0.305663
0.295968
0.283847
0.26842
0.249505
0.228601
0.21053
0.202119
0.211598
0.235605
0.262462
0.284906
0.301154
0.311462
0.31692
0.318363
0.316329
0.311499
0.304597
0.296262
0.287025
0.277403
0.267755
0.258185
0.248736
0.23941
0.230528
0.367926
0.361285
0.355286
0.349783
0.343986
0.336864
0.327491
0.315552
0.302267
0.291099
0.286093
0.29378
0.312081
0.332449
0.349613
0.361584
0.368716
0.372053
0.372212
0.369416
0.364251
0.357241
0.348908
0.339665
0.329892
0.319833
0.309314
0.298493
0.287544
0.276816
0.517267
0.515183
0.518366
0.521462
0.523438
0.523631
0.521947
0.518696
0.514952
0.511726
0.509097
0.510515
0.515883
0.522296
0.52763
0.531055
0.532301
0.532552
0.531833
0.53027
0.528015
0.525371
0.522498
0.519553
0.516619
0.513582
0.506919
0.498179
0.488854
0.479032
0.0649122
0.080801
0.0869036
0.0914501
0.094618
0.0968603
0.098363
0.0992186
0.0994218
0.0991443
0.0984004
0.0973993
0.0961869
0.0950832
0.0940428
0.0930024
0.0911167
0.087839
0.0831306
0.077369
0.0707157
0.0633032
0.0552121
0.0467683
0.0390718
0.0332742
0.0290608
0.0243178
0.0235798
0.0295195
0.141337
0.165744
0.162516
0.161875
0.16085
0.159728
0.158172
0.156197
0.15398
0.151999
0.150324
0.149207
0.148238
0.147272
0.145557
0.142394
0.136002
0.126644
0.11561
0.105112
0.0950063
0.085155
0.0750971
0.0647001
0.0545471
0.0465452
0.0412515
0.0374669
0.0397304
0.0412897
0.129985
0.173737
0.189023
0.197386
0.199792
0.201002
0.200766
0.199745
0.198431
0.197622
0.197447
0.198009
0.198508
0.198532
0.197084
0.193245
0.184669
0.17193
0.156875
0.142541
0.128913
0.115956
0.10309
0.0898752
0.0767344
0.0659597
0.0587059
0.0531179
0.0516766
0.0517592
0.109121
0.145094
0.175953
0.197535
0.210458
0.218853
0.223298
0.22629
0.228386
0.23079
0.233747
0.237172
0.239958
0.241544
0.240842
0.236901
0.227017
0.212006
0.194159
0.17679
0.160231
0.144563
0.129212
0.11363
0.0980633
0.0849165
0.0758476
0.0688116
0.0642918
0.0599469
0.0964766
0.123171
0.152984
0.1783
0.197247
0.214138
0.227515
0.238569
0.246983
0.254715
0.262228
0.269397
0.275
0.278506
0.278801
0.275032
0.264274
0.247576
0.227616
0.207812
0.188801
0.170822
0.15337
0.13585
0.118378
0.103214
0.0923943
0.0842256
0.0775029
0.0698933
0.088486
0.110499
0.133957
0.156963
0.177513
0.198177
0.217677
0.236789
0.255972
0.271242
0.284683
0.296333
0.305149
0.310804
0.312268
0.308825
0.297469
0.279485
0.257848
0.236053
0.214972
0.195008
0.175764
0.156629
0.137659
0.120834
0.10835
0.0991493
0.0911271
0.081514
0.0859392
0.103711
0.1216
0.140039
0.15858
0.179666
0.203259
0.228285
0.255311
0.281584
0.302272
0.319022
0.331348
0.339324
0.342069
0.339058
0.327329
0.308371
0.28541
0.261978
0.239141
0.217467
0.196688
0.176189
0.156016
0.137827
0.123796
0.113478
0.104811
0.09421
0.0906673
0.102277
0.115493
0.129346
0.144309
0.163322
0.187792
0.217234
0.250361
0.287599
0.315825
0.338183
0.354252
0.36465
0.368749
0.366241
0.354337
0.334684
0.310693
0.285926
0.261608
0.238466
0.216362
0.194723
0.173546
0.154232
0.138814
0.127303
0.118238
0.107389
0.101314
0.108667
0.115749
0.124816
0.135999
0.151682
0.17457
0.205827
0.244169
0.288371
0.325929
0.354364
0.374333
0.387209
0.392694
0.390738
0.378832
0.358738
0.333989
0.308144
0.282588
0.258183
0.234943
0.212354
0.190336
0.170086
0.153465
0.140744
0.131225
0.120553
0.119215
0.123233
0.125722
0.128537
0.133873
0.145556
0.165508
0.196224
0.237649
0.286735
0.333831
0.368011
0.391959
0.407318
0.414201
0.412834
0.401055
0.380761
0.355498
0.328806
0.302224
0.276738
0.252522
0.229147
0.206442
0.185411
0.167761
0.153889
0.143667
0.133391
0.141468
0.143637
0.143776
0.141607
0.14019
0.144395
0.160385
0.189055
0.2317
0.284617
0.340066
0.379659
0.4074
0.425232
0.43351
0.432749
0.421195
0.400924
0.375364
0.348021
0.320609
0.294204
0.269156
0.245128
0.221886
0.200229
0.181718
0.166797
0.155798
0.145875
0.165634
0.16641
0.164908
0.160075
0.153879
0.150672
0.158916
0.184624
0.227003
0.282798
0.344253
0.3896
0.420966
0.441153
0.450815
0.450675
0.439469
0.419392
0.393707
0.365874
0.337808
0.310647
0.284897
0.260329
0.236677
0.214559
0.195367
0.179533
0.167691
0.158074
0.190601
0.190203
0.187591
0.180969
0.171623
0.16278
0.16264
0.182979
0.223904
0.281471
0.347206
0.398134
0.432924
0.455319
0.46635
0.466938
0.456065
0.436313
0.410643
0.382456
0.353893
0.32613
0.299806
0.274796
0.250848
0.228438
0.208757
0.192183
0.179524
0.170136
0.215682
0.214414
0.210997
0.203215
0.191632
0.178912
0.171636
0.183888
0.222482
0.280757
0.349473
0.405569
0.443477
0.467937
0.480261
0.481656
0.471179
0.451789
0.426281
0.397859
0.368936
0.340712
0.313942
0.288599
0.264465
0.241925
0.221943
0.204819
0.19144
0.182236
0.240787
0.238876
0.234889
0.22635
0.213228
0.197358
0.184752
0.188744
0.222676
0.280675
0.351416
0.412246
0.452794
0.479186
0.492751
0.494971
0.485025
0.465983
0.440681
0.412186
0.383025
0.354468
0.327381
0.30182
0.277624
0.255107
0.235002
0.217524
0.203595
0.194483
0.266037
0.263699
0.259309
0.250281
0.236079
0.217746
0.200773
0.197318
0.225305
0.281557
0.353278
0.417947
0.460995
0.489236
0.50403
0.507111
0.497808
0.479082
0.454002
0.425493
0.396238
0.367478
0.340224
0.314563
0.290426
0.268079
0.248022
0.230391
0.216113
0.20715
0.291585
0.28904
0.284419
0.275088
0.260093
0.239769
0.218947
0.208741
0.23025
0.283695
0.355231
0.422813
0.468217
0.498273
0.514333
0.518321
0.509727
0.4913
0.46643
0.43795
0.408639
0.379922
0.352601
0.326944
0.30299
0.280946
0.261103
0.24352
0.229113
0.22044
0.317493
0.314964
0.31031
0.300846
0.285246
0.263294
0.239064
0.223005
0.237268
0.287099
0.357395
0.426998
0.474644
0.506536
0.523946
0.528903
0.521061
0.502923
0.478235
0.449721
0.420629
0.391915
0.364637
0.339117
0.315449
0.293831
0.274357
0.257021
0.242712
0.234511
0.34367
0.341443
0.336991
0.327594
0.311575
0.288282
0.260957
0.239928
0.246458
0.291758
0.360029
0.430708
0.480557
0.514367
0.533268
0.53928
0.5322
0.514375
0.489753
0.461541
0.432462
0.403763
0.376559
0.351265
0.327979
0.306891
0.287933
0.271029
0.257037
0.249496
0.370497
0.368328
0.364376
0.355357
0.339261
0.314846
0.284608
0.258889
0.257382
0.297709
0.363448
0.434342
0.486447
0.522315
0.5429
0.550094
0.543817
0.526302
0.502065
0.473905
0.444708
0.415947
0.388779
0.363709
0.340856
0.32037
0.302045
0.28573
0.272246
0.265544
0.398319
0.396104
0.39239
0.38407
0.368455
0.343306
0.310318
0.279695
0.270641
0.305515
0.368451
0.438845
0.493208
0.531318
0.553852
0.562396
0.557091
0.540109
0.516003
0.487737
0.45827
0.429289
0.402006
0.377026
0.354563
0.334657
0.316998
0.301364
0.288539
0.282856
0.427464
0.425403
0.422026
0.414285
0.399351
0.374313
0.33881
0.303151
0.287303
0.317347
0.377185
0.44655
0.502469
0.543071
0.567939
0.578067
0.573986
0.557605
0.533464
0.504858
0.474794
0.44527
0.41753
0.392359
0.370022
0.350488
0.333366
0.318371
0.306277
0.30177
0.459019
0.457465
0.454712
0.447709
0.433602
0.409081
0.37161
0.331061
0.309087
0.333914
0.391996
0.459592
0.517186
0.560803
0.588634
0.600701
0.598141
0.582529
0.558104
0.528773
0.497594
0.466866
0.438034
0.411975
0.389033
0.369215
0.352173
0.337605
0.326378
0.323134
0.495866
0.495238
0.493373
0.487539
0.475054
0.450586
0.411889
0.367335
0.339906
0.359391
0.416615
0.48381
0.543518
0.591111
0.622996
0.637663
0.637071
0.622405
0.597525
0.566949
0.533911
0.501055
0.469991
0.44172
0.416757
0.395314
0.377249
0.362416
0.351546
0.349112
0.544056
0.544836
0.544441
0.541253
0.530265
0.506399
0.467342
0.420561
0.389361
0.404101
0.461238
0.530231
0.594966
0.648071
0.68595
0.704554
0.706824
0.693722
0.668295
0.634814
0.598349
0.561334
0.525897
0.493251
0.464032
0.438732
0.417497
0.400378
0.387962
0.384657
0.616112
0.619441
0.62321
0.621862
0.612412
0.590491
0.553145
0.508562
0.478126
0.491126
0.548336
0.620647
0.692059
0.754137
0.800957
0.825027
0.830079
0.818225
0.791804
0.754921
0.712599
0.668635
0.626014
0.586299
0.54997
0.517671
0.489841
0.466818
0.449098
0.441252
0.736273
0.744341
0.749985
0.750009
0.742476
0.724621
0.69547
0.661439
0.640624
0.658381
0.716471
0.79096
0.867977
0.937437
0.991729
1.0204
1.02805
1.01773
0.990676
0.950687
0.902362
0.850321
0.798457
0.74895
0.702843
0.660851
0.623108
0.590057
0.562042
0.543563
0.929499
0.937066
0.943818
0.947565
0.945625
0.936572
0.920877
0.904268
0.901248
0.930974
0.988935
1.06202
1.13888
1.20748
1.26017
1.28839
1.29748
1.28961
1.26502
1.22677
1.17838
1.12386
1.0674
1.01177
0.958133
0.90678
0.85755
0.810752
0.766768
0.730491
1.12961
1.13133
1.14704
1.1648
1.17403
1.17408
1.17062
1.1693
1.18388
1.22387
1.2813
1.34848
1.41443
1.46913
1.50327
1.51791
1.52022
1.50938
1.48704
1.4552
1.41587
1.37126
1.32414
1.2769
1.23106
1.18469
1.1376
1.08956
1.04019
0.990934
1.15958
1.16736
1.19028
1.21375
1.22777
1.22951
1.22387
1.22395
1.23942
1.2772
1.33024
1.3876
1.43569
1.46815
1.4767
1.4683
1.45529
1.43361
1.40651
1.37595
1.34426
1.31323
1.2838
1.25669
1.2324
1.2111
1.18969
1.16881
1.14789
1.12381
0.0932025
0.110178
0.120406
0.127363
0.132049
0.135236
0.137349
0.138561
0.13886
0.138368
0.137025
0.135092
0.132519
0.129636
0.126252
0.122134
0.116207
0.108468
0.0999248
0.0912907
0.082075
0.0713955
0.0586452
0.0444401
0.0317766
0.0262266
0.0258523
0.0234543
0.0276938
0.0335063
0.184721
0.202282
0.213676
0.220169
0.22425
0.226803
0.22797
0.227545
0.225483
0.222183
0.217837
0.212985
0.207321
0.200952
0.193075
0.18267
0.168274
0.152774
0.139854
0.130104
0.121339
0.11064
0.0956115
0.0762309
0.056405
0.0460914
0.0411212
0.0355101
0.0410444
0.0476434
0.235942
0.25285
0.272436
0.284971
0.293587
0.298631
0.300759
0.300169
0.297307
0.292982
0.287633
0.281801
0.275023
0.26722
0.257379
0.244016
0.225166
0.20494
0.187959
0.175008
0.16359
0.150314
0.132082
0.107997
0.081945
0.0669852
0.0595042
0.0496489
0.0519949
0.0616051
0.240992
0.274527
0.305093
0.323484
0.338041
0.346758
0.351356
0.352261
0.350317
0.346611
0.341767
0.336288
0.329605
0.321453
0.310764
0.295687
0.273978
0.250545
0.23042
0.214498
0.200354
0.18458
0.163834
0.136606
0.106179
0.0864166
0.0771965
0.0650307
0.0623533
0.0696738
0.221619
0.264147
0.303228
0.334605
0.359022
0.37372
0.383451
0.388469
0.389691
0.38838
0.38542
0.381331
0.375528
0.367673
0.356703
0.340521
0.316789
0.290987
0.268331
0.249763
0.233035
0.214958
0.192225
0.162843
0.129493
0.105316
0.094002
0.0810359
0.0742166
0.0789277
0.192136
0.238303
0.282329
0.3211
0.353048
0.377502
0.397676
0.410398
0.417852
0.420984
0.421255
0.419469
0.415137
0.408024
0.397136
0.380214
0.355036
0.327457
0.30271
0.281777
0.262656
0.242461
0.218094
0.187218
0.152
0.124132
0.110067
0.0969947
0.0875403
0.0898123
0.164761
0.207632
0.252319
0.294331
0.331861
0.364599
0.393605
0.418659
0.43616
0.44595
0.450874
0.452191
0.449784
0.443763
0.433217
0.415826
0.389713
0.360817
0.334345
0.311305
0.289964
0.267816
0.242048
0.210141
0.173794
0.143037
0.125862
0.112504
0.101767
0.10261
0.143614
0.180451
0.222619
0.264372
0.304412
0.343221
0.380285
0.414508
0.446015
0.464436
0.475284
0.480492
0.480382
0.475704
0.465702
0.448093
0.421498
0.391686
0.363796
0.338884
0.315483
0.291517
0.264509
0.231917
0.19493
0.16204
0.141754
0.127531
0.116313
0.1162
0.130785
0.160987
0.197944
0.236653
0.276707
0.3188
0.362146
0.405279
0.447543
0.477369
0.495338
0.505027
0.507621
0.504451
0.495152
0.477594
0.4509
0.420529
0.391492
0.364906
0.339587
0.313908
0.285789
0.252756
0.215471
0.181114
0.157962
0.142336
0.130854
0.130016
0.125168
0.149997
0.181511
0.215468
0.252877
0.295545
0.342973
0.393985
0.444482
0.48627
0.51176
0.526372
0.532018
0.53048
0.522035
0.504806
0.478342
0.447735
0.417771
0.389667
0.362545
0.33525
0.306111
0.272807
0.235506
0.200239
0.174639
0.157285
0.14535
0.143848
0.124945
0.146712
0.172993
0.20249
0.235921
0.276639
0.325971
0.382309
0.439849
0.492354
0.525068
0.545026
0.553982
0.554214
0.54677
0.530155
0.504199
0.473634
0.442916
0.413399
0.384572
0.355741
0.325642
0.292181
0.255133
0.219392
0.191842
0.17268
0.160036
0.157746
0.132208
0.150856
0.171861
0.196727
0.225645
0.262893
0.311669
0.371351
0.434733
0.495202
0.53586
0.561412
0.573859
0.576075
0.569765
0.554048
0.528825
0.49856
0.467166
0.436307
0.405842
0.37555
0.344534
0.310984
0.274383
0.238552
0.209582
0.188731
0.175184
0.171963
0.146984
0.163502
0.17977
0.19807
0.221609
0.25444
0.300926
0.361934
0.429806
0.496276
0.544986
0.57587
0.592002
0.596443
0.591423
0.576897
0.552604
0.522773
0.490752
0.458573
0.426525
0.394838
0.362948
0.329329
0.293293
0.25774
0.227877
0.205578
0.191049
0.186856
0.168616
0.182923
0.196236
0.209145
0.224326
0.25107
0.294165
0.354622
0.42559
0.496563
0.553102
0.588862
0.608773
0.6157
0.612168
0.599129
0.575925
0.546548
0.513902
0.480397
0.446807
0.413783
0.381059
0.347371
0.311969
0.276998
0.246738
0.223316
0.207851
0.202764
0.197502
0.209291
0.219575
0.226972
0.235385
0.253023
0.291307
0.349735
0.42245
0.496848
0.560325
0.600815
0.624501
0.634268
0.632473
0.621212
0.599215
0.570225
0.536908
0.502033
0.466921
0.432608
0.399088
0.365326
0.330592
0.296429
0.266202
0.242031
0.225777
0.219961
0.232846
0.241403
0.248174
0.250452
0.252338
0.262099
0.291705
0.347363
0.420594
0.497761
0.566776
0.612083
0.639592
0.652608
0.652897
0.643683
0.622968
0.594222
0.560135
0.52382
0.487184
0.451608
0.417313
0.383486
0.349433
0.316224
0.286361
0.261827
0.245016
0.23865
0.273125
0.277488
0.280167
0.278137
0.274311
0.275964
0.297322
0.347323
0.420028
0.499459
0.572885
0.623033
0.654575
0.671221
0.674145
0.667184
0.647773
0.619089
0.58409
0.546247
0.508052
0.471194
0.436131
0.402237
0.368861
0.336666
0.307395
0.282865
0.265737
0.258983
0.315552
0.315388
0.314122
0.308555
0.299915
0.294709
0.307787
0.35081
0.421135
0.502148
0.579038
0.634174
0.670144
0.690794
0.697016
0.692519
0.674403
0.645604
0.609514
0.570035
0.530209
0.492023
0.456146
0.422121
0.389336
0.358123
0.329598
0.305402
0.288144
0.281129
0.359628
0.35575
0.35077
0.341496
0.328502
0.317609
0.321982
0.358025
0.424852
0.506216
0.58579
0.646285
0.687168
0.712356
0.722568
0.720769
0.70395
0.674894
0.63755
0.596322
0.554761
0.515181
0.478334
0.443933
0.411616
0.381253
0.353516
0.329832
0.312536
0.305304
0.40611
0.398864
0.390325
0.377387
0.360288
0.344024
0.339876
0.369259
0.43143
0.512513
0.594558
0.660608
0.706958
0.737407
0.752286
0.753483
0.738046
0.70868
0.670062
0.626952
0.583566
0.542389
0.504305
0.469389
0.437131
0.407235
0.38015
0.356798
0.339346
0.33177
0.45542
0.44509
0.433242
0.41693
0.395873
0.374181
0.362872
0.385016
0.442424
0.523239
0.608315
0.679098
0.731572
0.768195
0.788486
0.793036
0.779291
0.7498
0.710016
0.66502
0.619702
0.576591
0.536792
0.500859
0.468082
0.438079
0.410927
0.387277
0.369225
0.360942
0.508141
0.495112
0.480459
0.461287
0.43675
0.409978
0.392248
0.405955
0.461327
0.542337
0.62906
0.704843
0.764384
0.80828
0.83497
0.843395
0.831946
0.802801
0.762322
0.715667
0.668448
0.623251
0.581145
0.542786
0.50795
0.476315
0.447755
0.422773
0.403262
0.393584
0.565536
0.550447
0.533779
0.512642
0.485604
0.454685
0.431155
0.435825
0.489247
0.571343
0.661425
0.743283
0.811135
0.863569
0.898023
0.91112
0.903013
0.875137
0.835137
0.787699
0.73772
0.688691
0.642331
0.599582
0.560662
0.525411
0.493629
0.465746
0.443305
0.431227
0.630721
0.614717
0.597313
0.575811
0.548089
0.514532
0.486356
0.483074
0.533445
0.618258
0.713732
0.803906
0.881649
0.943752
0.987832
1.00665
1.00347
0.978547
0.939056
0.889066
0.834396
0.779448
0.726564
0.677107
0.631722
0.590518
0.553276
0.520306
0.493123
0.477214
0.71057
0.695573
0.679549
0.659905
0.63374
0.600616
0.570525
0.562471
0.609711
0.697425
0.799927
0.899841
0.988851
1.06302
1.11822
1.14289
1.14334
1.12016
1.08002
1.02708
0.96698
0.904979
0.843781
0.785338
0.730867
0.68094
0.635535
0.595033
0.560766
0.538905
0.818203
0.806668
0.794642
0.779674
0.758415
0.730583
0.704215
0.696741
0.742306
0.831929
0.940165
1.0488
1.14814
1.23232
1.29673
1.32527
1.32752
1.30531
1.26465
1.20936
1.14471
1.07632
1.007
0.93907
0.874269
0.813688
0.757596
0.706746
0.662307
0.631044
0.973227
0.966756
0.961086
0.953711
0.941876
0.924458
0.908321
0.908795
0.955351
1.04382
1.1527
1.26439
1.36837
1.45604
1.52224
1.54849
1.54835
1.52457
1.48329
1.42784
1.36279
1.29272
1.22046
1.14808
1.07715
1.00865
0.943019
0.881171
0.824426
0.779895
1.18384
1.18073
1.18276
1.18453
1.18236
1.17771
1.17565
1.18907
1.23868
1.32281
1.42488
1.52965
1.6272
1.7061
1.75814
1.76797
1.75476
1.72205
1.67721
1.62399
1.56569
1.50376
1.44104
1.37882
1.31725
1.25585
1.19384
1.13126
1.06879
1.01219
1.36867
1.37275
1.38687
1.39979
1.40489
1.40455
1.40727
1.42911
1.48386
1.56592
1.65895
1.74792
1.8255
1.87819
1.89444
1.86923
1.83081
1.78075
1.72762
1.67363
1.62218
1.57403
1.53041
1.49179
1.45708
1.42358
1.38858
1.35031
1.30729
1.25997
1.34468
1.36419
1.39122
1.41439
1.42714
1.43072
1.43494
1.45565
1.5037
1.57621
1.65669
1.73172
1.78549
1.80796
1.78952
1.73591
1.67784
1.61299
1.55084
1.49388
1.44596
1.40771
1.37901
1.35916
1.34695
1.34003
1.33503
1.33009
1.32307
1.3122
0.113143
0.13807
0.151113
0.15966
0.16525
0.16903
0.171608
0.173096
0.173314
0.172309
0.169948
0.166554
0.162026
0.156771
0.150457
0.142692
0.132416
0.121177
0.112219
0.106091
0.0990325
0.0870473
0.0686534
0.0459287
0.0296966
0.0262424
0.0254358
0.0288527
0.0336466
0.0385415
0.184835
0.225924
0.247173
0.259853
0.268538
0.2752
0.280078
0.282387
0.281535
0.277837
0.271489
0.263292
0.25303
0.241159
0.226827
0.208784
0.187496
0.170712
0.164219
0.16467
0.163073
0.151235
0.125251
0.0890167
0.0491711
0.0399162
0.0383403
0.0416277
0.0514626
0.0610344
0.222847
0.274555
0.309123
0.33363
0.35151
0.364439
0.372673
0.37577
0.37387
0.368091
0.359136
0.347972
0.334456
0.318962
0.300532
0.277396
0.249793
0.228413
0.219575
0.218874
0.216154
0.202124
0.171719
0.12727
0.0748754
0.0566572
0.0532087
0.0549282
0.0650488
0.0781699
0.239807
0.30304
0.348821
0.384599
0.41146
0.430429
0.44214
0.446613
0.444607
0.437977
0.427829
0.415188
0.399981
0.382409
0.361534
0.335065
0.303413
0.278789
0.26736
0.264216
0.259258
0.243193
0.210275
0.161178
0.101206
0.0737182
0.0674379
0.0676818
0.0760426
0.0898221
0.245643
0.312669
0.373281
0.418418
0.453376
0.478014
0.493916
0.501082
0.500412
0.494341
0.484301
0.471308
0.45539
0.436628
0.414127
0.385195
0.350747
0.323786
0.30996
0.304049
0.296426
0.278305
0.243855
0.192133
0.127932
0.0916378
0.0816757
0.0803503
0.0875027
0.101582
0.240678
0.308107
0.376001
0.433939
0.478315
0.508489
0.529998
0.541682
0.544327
0.540412
0.531765
0.519428
0.503564
0.484238
0.46063
0.429831
0.393557
0.364937
0.348991
0.340293
0.329871
0.309649
0.274108
0.220985
0.154562
0.11071
0.0965002
0.0932412
0.0996811
0.114171
0.226382
0.292207
0.363736
0.427024
0.47885
0.521627
0.551316
0.56977
0.578061
0.57798
0.571978
0.561226
0.546066
0.52671
0.502396
0.470263
0.432986
0.403349
0.385581
0.374168
0.360873
0.338516
0.302072
0.24829
0.180914
0.131006
0.111836
0.106521
0.112362
0.127377
0.20898
0.270184
0.34167
0.408059
0.465711
0.515642
0.556817
0.586409
0.602766
0.608435
0.6062
0.597812
0.583925
0.564998
0.54034
0.507447
0.469917
0.439856
0.420517
0.406474
0.39024
0.365696
0.328401
0.274464
0.20703
0.152605
0.128032
0.120262
0.125274
0.140568
0.191827
0.246515
0.31503
0.382398
0.44456
0.500835
0.550209
0.592627
0.619596
0.632748
0.635445
0.63004
0.617909
0.599834
0.575175
0.542168
0.505095
0.475108
0.454366
0.437754
0.418515
0.391704
0.353538
0.299836
0.233045
0.175488
0.145535
0.134622
0.138372
0.153431
0.176795
0.22457
0.288261
0.35436
0.419105
0.480826
0.538082
0.589417
0.629961
0.651722
0.660541
0.658629
0.648674
0.631809
0.607581
0.575138
0.539171
0.509679
0.487757
0.468416
0.446076
0.416911
0.377812
0.324661
0.259075
0.199552
0.164622
0.149932
0.151923
0.165969
0.164726
0.206586
0.264497
0.327648
0.392899
0.458482
0.522787
0.582812
0.635099
0.666127
0.682064
0.684276
0.67682
0.6615
0.638215
0.60704
0.572764
0.543995
0.520912
0.498748
0.473212
0.441598
0.401497
0.349122
0.285175
0.224695
0.185484
0.166611
0.1664
0.178403
0.157531
0.194156
0.245784
0.304929
0.368781
0.436495
0.506388
0.574333
0.63484
0.676883
0.700591
0.707631
0.702955
0.689514
0.667758
0.638561
0.60647
0.578577
0.554143
0.529013
0.50017
0.466029
0.424858
0.373342
0.311348
0.250833
0.208211
0.185188
0.181868
0.191571
0.155598
0.188435
0.233839
0.288059
0.348842
0.416787
0.490534
0.565197
0.63331
0.685706
0.716759
0.729223
0.727702
0.716522
0.696943
0.670436
0.640886
0.613953
0.587792
0.559472
0.527218
0.490493
0.448203
0.397504
0.337633
0.277886
0.232785
0.205856
0.198778
0.206298
0.161462
0.189657
0.229461
0.278256
0.334415
0.400663
0.47647
0.556408
0.631456
0.692937
0.731103
0.749556
0.751789
0.743292
0.726586
0.70346
0.676611
0.650366
0.622177
0.590446
0.554687
0.515361
0.471926
0.421904
0.364175
0.305804
0.259128
0.228696
0.217487
0.222647
0.17928
0.203135
0.234472
0.275574
0.32618
0.388935
0.464972
0.548712
0.629766
0.698835
0.744343
0.769185
0.776
0.770739
0.757592
0.738516
0.714315
0.68837
0.657749
0.622377
0.583045
0.541138
0.496546
0.447003
0.39131
0.334678
0.28721
0.253757
0.238313
0.240967
0.208257
0.227416
0.252179
0.282171
0.324068
0.382063
0.45659
0.542671
0.628621
0.704082
0.757261
0.788805
0.801109
0.799897
0.79105
0.776579
0.755004
0.728635
0.695127
0.655893
0.612961
0.568506
0.522722
0.473509
0.419644
0.36485
0.317071
0.281049
0.261509
0.261504
0.247554
0.260328
0.277941
0.298903
0.329322
0.379809
0.451606
0.538632
0.628249
0.709516
0.770733
0.809216
0.827967
0.832007
0.828292
0.818725
0.799459
0.771962
0.735149
0.691882
0.645372
0.59831
0.551421
0.502482
0.450236
0.397077
0.348921
0.310578
0.287393
0.284103
0.29462
0.300177
0.310539
0.322436
0.342976
0.38279
0.449934
0.536765
0.629355
0.716069
0.785693
0.831568
0.857735
0.868415
0.870915
0.866245
0.848743
0.819423
0.77901
0.731605
0.681533
0.631805
0.584287
0.535736
0.484411
0.431933
0.383064
0.342399
0.315866
0.309093
0.34739
0.345975
0.348954
0.352245
0.362301
0.392588
0.452157
0.53715
0.633087
0.725374
0.803456
0.857308
0.892009
0.910699
0.920773
0.920648
0.904179
0.872501
0.828459
0.776849
0.723318
0.672807
0.624458
0.574848
0.522996
0.470073
0.419876
0.376724
0.347014
0.336765
0.404561
0.397246
0.392583
0.388222
0.388243
0.409221
0.46047
0.5426
0.641032
0.739781
0.825788
0.888382
0.932884
0.961111
0.979843
0.983715
0.96754