/*--------------------------------*- C++ -*----------------------------------*\
  =========                 |
  \\      /  F ield         | OpenFOAM: The Open Source CFD Toolbox
   \\    /   O peration     | Website:  https://openfoam.org
    \\  /    A nd           | Version:  12
     \\/     M anipulation  |
\*---------------------------------------------------------------------------*/
FoamFile
{
    format      ascii;
    class       volScalarField;
    location    "950/air";
    object      nut;
}
// * * * * * * * * * * * * * * * * * * * * * * * * * * * * * * * * * * * * * //

dimensions      [0 2 -1 0 0 0 0];

internalField   nonuniform List<scalar> 
243000
(
8.71472e-05
9.14074e-05
9.91168e-05
0.000101516
0.000101826
0.000101104
9.97996e-05
9.81077e-05
9.60854e-05
9.38364e-05
9.13962e-05
8.88901e-05
8.6474e-05
8.45168e-05
8.33049e-05
8.31845e-05
8.39581e-05
8.51998e-05
8.64825e-05
8.76346e-05
8.85826e-05
8.93402e-05
8.99412e-05
9.04682e-05
9.106e-05
9.18015e-05
9.19675e-05
8.97e-05
8.39276e-05
8.28267e-05
0.000322339
0.000303317
0.000349034
0.000360462
0.000362569
0.000360418
0.000355941
0.000349942
0.000343238
0.000336487
0.00033
0.00032445
0.000320104
0.000317889
0.000318014
0.000320571
0.000323573
0.000325555
0.000325822
0.000325071
0.000323738
0.000322225
0.000320681
0.000319214
0.000318162
0.000318239
0.000318963
0.000315669
0.000304474
0.000288497
0.00041569
0.000418146
0.000434802
0.000471339
0.00050731
0.00053318
0.000553214
0.000567081
0.000577561
0.000585442
0.000591394
0.000596577
0.00060129
0.000607117
0.000613982
0.000621299
0.000624963
0.000622539
0.000613603
0.000600233
0.000583945
0.000565968
0.000546963
0.00052733
0.000507721
0.000488983
0.000470879
0.000449631
0.000421374
0.000384747
0.000443695
0.000445733
0.000445905
0.000462899
0.000489397
0.000519398
0.000550208
0.000576292
0.000597986
0.00061509
0.000628987
0.00064081
0.000650985
0.00066126
0.00067148
0.000680832
0.000685064
0.000681963
0.000671484
0.00065602
0.000637388
0.000617002
0.000595624
0.000573674
0.00055163
0.000530133
0.000509143
0.000486245
0.000458358
0.000423013
0.000473478
0.000474235
0.000470062
0.000469254
0.000481335
0.000504933
0.000533366
0.00056548
0.000598343
0.00062883
0.000653377
0.00067359
0.00069014
0.000705208
0.000718772
0.000730041
0.000734878
0.000731395
0.000719879
0.000702934
0.000682585
0.000660396
0.000637231
0.000613536
0.000589677
0.000566146
0.000543047
0.000518473
0.000490606
0.000457173
0.000503605
0.000504494
0.000499532
0.000493347
0.000489831
0.000498497
0.000520578
0.000551495
0.000587742
0.000630189
0.00066781
0.000698054
0.000721763
0.000741848
0.000758689
0.000771714
0.00077712
0.000773427
0.00076121
0.00074321
0.000721602
0.000698057
0.000673541
0.000648522
0.000623315
0.000598318
0.000573711
0.00054787
0.000519793
0.000487964
0.000533301
0.000534759
0.000530265
0.000522383
0.000513086
0.000507339
0.000515302
0.000540465
0.000577114
0.000623993
0.000675118
0.000716135
0.000747654
0.000772921
0.000792943
0.000807573
0.000813504
0.000809713
0.000797034
0.00077829
0.000755764
0.000731209
0.000705674
0.000679665
0.00065347
0.000627411
0.000601708
0.000575054
0.000546647
0.000515991
0.000562332
0.000564279
0.00056042
0.000552228
0.000540621
0.000528397
0.000521376
0.000534666
0.000568212
0.00061571
0.000676465
0.000729176
0.000768985
0.000799572
0.000822646
0.000838771
0.000845175
0.000841379
0.000828419
0.000809177
0.000785996
0.000760704
0.000734407
0.000707668
0.000680762
0.000653948
0.000627462
0.000600281
0.00057153
0.00054171
0.000590662
0.000592921
0.000589517
0.000581356
0.000568798
0.00055338
0.000539168
0.000536039
0.000562132
0.00060933
0.000674063
0.000738399
0.000786668
0.000822562
0.000848579
0.000866108
0.000872953
0.000869214
0.000856124
0.000836578
0.000812955
0.000787133
0.000760289
0.000733031
0.000705639
0.000678318
0.000651292
0.000623781
0.000594723
0.000565494
0.000618418
0.000620702
0.000617567
0.000609456
0.000596377
0.000579194
0.00056062
0.000547591
0.000560519
0.000604554
0.00066974
0.00074492
0.000801399
0.000842493
0.00087133
0.000890174
0.000897441
0.000893817
0.000880711
0.000861014
0.000837115
0.000810933
0.000783713
0.000756114
0.00072842
0.000700788
0.000673416
0.000645723
0.000616732
0.000587727
0.000645664
0.000647672
0.00064457
0.000636447
0.000623056
0.0006047
0.000583297
0.000564565
0.000563404
0.000601588
0.000665995
0.000749037
0.000813642
0.000859807
0.000891333
0.000911408
0.00091909
0.000915642
0.000902624
0.000882899
0.000858869
0.000832467
0.00080501
0.000777198
0.000749333
0.00072154
0.000693981
0.000666221
0.000637502
0.000608582
0.000672457
0.000673901
0.000670572
0.000662322
0.000648703
0.000629595
0.00060617
0.000583217
0.000572526
0.000601065
0.000663976
0.000751735
0.000823828
0.000874844
0.000908917
0.000930145
0.000938243
0.000935039
0.000922199
0.000902561
0.00087852
0.000852028
0.000824447
0.000796522
0.000768576
0.00074072
0.000713102
0.000685376
0.00065698
0.000628128
0.000698858
0.000699516
0.000695746
0.000687213
0.000673341
0.000653708
0.000628858
0.000602607
0.000584592
0.000602796
0.000663175
0.000753453
0.000832297
0.000887868
0.000924333
0.000946659
0.000955176
0.00095227
0.000939695
0.000920242
0.000896303
0.000869836
0.000842235
0.000814282
0.000786333
0.000758504
0.00073094
0.000703335
0.000675272
0.000646477
0.000724947
0.000724664
0.000720275
0.00071132
0.000697119
0.000677052
0.000651191
0.00062237
0.000599227
0.000607443
0.000663397
0.000754505
0.000839379
0.000899089
0.000937771
0.000961143
0.0009701
0.000967539
0.000955307
0.000936132
0.000912399
0.000886067
0.000858544
0.00083065
0.000802777
0.000775067
0.000747662
0.000720256
0.000692543
0.000663909
0.000750863
0.000749499
0.00074434
0.000734835
0.000720221
0.000699721
0.000673099
0.000642341
0.000615683
0.000614595
0.000664635
0.000755145
0.000845183
0.000908651
0.000949373
0.000973727
0.000983179
0.000981004
0.00096918
0.000950377
0.000926956
0.000900864
0.000873522
0.000845783
0.000818085
0.000790597
0.000763438
0.000736304
0.000708967
0.00068085
0.000776716
0.000774163
0.000768112
0.000757942
0.000742824
0.000721856
0.000694572
0.000662337
0.000632721
0.000624082
0.000667074
0.000755513
0.000849756
0.000916649
0.000959245
0.000984532
0.000994533
0.000992794
0.000981434
0.000963089
0.000940081
0.00091434
0.000887293
0.000859826
0.000832404
0.000805235
0.000778408
0.000751622
0.000724697
0.000697178
0.000802643
0.000798825
0.000791766
0.000780816
0.000765095
0.000743594
0.000715667
0.000682222
0.000649934
0.000635136
0.000670611
0.000755687
0.00085316
0.000923131
0.000967467
0.000993655
0.00100425
0.001003
0.000992158
0.00097435
0.000951859
0.000926596
0.000899968
0.000872887
0.000845848
0.000819096
0.000792689
0.000766331
0.000739864
0.000713006
0.000828994
0.000823717
0.000815502
0.000803644
0.000787203
0.000765082
0.000736479
0.000702004
0.000667628
0.000647487
0.000675186
0.000755801
0.00085544
0.000928133
0.000974088
0.00100117
0.0010124
0.0010117
0.00100143
0.000984238
0.000962381
0.000937711
0.000911623
0.000885048
0.000858512
0.000832277
0.000806377
0.000780534
0.000754609
0.000728475
0.000856022
0.000849067
0.000839563
0.000826655
0.000809355
0.000786489
0.000757135
0.000721719
0.000685445
0.000660686
0.000680687
0.000755892
0.000856548
0.000931724
0.000979124
0.00100711
0.00101903
0.00101893
0.00100932
0.000992863
0.000971738
0.000947766
0.00092233
0.000896379
0.00087046
0.000844844
0.000819559
0.000794334
0.000769042
0.000743708
0.000882886
0.000875178
0.000864369
0.000850222
0.000831865
0.00080806
0.000777814
0.000741442
0.000703058
0.000674362
0.000686971
0.000755982
0.000856389
0.000933686
0.000982533
0.00101148
0.00102417
0.00102476
0.00101593
0.00100032
0.000980014
0.000956839
0.000932169
0.000906952
0.000881759
0.000856878
0.00083232
0.000807831
0.000783279
0.000758832
0.00090926
0.000900967
0.000889893
0.000874989
0.000855229
0.000830168
0.000798809
0.000761437
0.000720839
0.000688413
0.000693905
0.000756187
0.000855168
0.000933732
0.00098425
0.00101424
0.00102783
0.00102924
0.00102131
0.00100665
0.000987278
0.00096501
0.00094122
0.000916851
0.000892498
0.000868465
0.000844752
0.000821128
0.000797453
0.00077402
0.000935039
0.000926213
0.000914995
0.000900192
0.000880257
0.000853419
0.000820652
0.000782611
0.000738957
0.000702929
0.000701766
0.000757109
0.000852907
0.000932166
0.000984066
0.00101527
0.00102992
0.00103234
0.00102548
0.0010119
0.000993581
0.000972341
0.00094956
0.00092617
0.000902779
0.000879706
0.00085696
0.00083434
0.000811713
0.000789444
0.00096018
0.000950895
0.000939608
0.000925087
0.000905673
0.000879046
0.000844974
0.000803606
0.00075694
0.000717537
0.000710326
0.000758461
0.000849518
0.000928888
0.00098195
0.00101436
0.00103024
0.00103389
0.0010283
0.00101599
0.000998895
0.000978839
0.000957228
0.00093498
0.000912696
0.00089071
0.000869057
0.000847585
0.000826183
0.000805257
0.000984726
0.000975123
0.000963937
0.000949913
0.000931836
0.000906399
0.000869326
0.000824241
0.000774804
0.00073222
0.000719889
0.000760733
0.000844902
0.000923383
0.00097728
0.00101092
0.00102814
0.0010333
0.00102925
0.00101856
0.00100296
0.000984306
0.000964072
0.000943207
0.000922263
0.000901574
0.000881198
0.000861042
0.000841032
0.00082162
0.00100851
0.000999221
0.000988953
0.000975956
0.00095707
0.000929263
0.000890261
0.000843878
0.000793043
0.0007481
0.000731269
0.000764969
0.000839619
0.000915193
0.000969146
0.00100375
0.00102238
0.00102931
0.00102715
0.00101825
0.00100461
0.000987798
0.000969353
0.000950209
0.000930972
0.000911982
0.000893248
0.00087471
0.000856304
0.000838531
0.00103142
0.00102186
0.00101027
0.00099517
0.000974457
0.000945345
0.000908593
0.000864184
0.000813966
0.000768163
0.000747624
0.000774884
0.000839863
0.000908559
0.000959826
0.000993965
0.00101384
0.00102278
0.00102312
0.0010168
0.00100547
0.000990747
0.000973841
0.000955719
0.000937866
0.000920852
0.000904195
0.000887698
0.00087118
0.000855147
0.00104491
0.00103282
0.00102047
0.00100634
0.000988442
0.00096416
0.000931963
0.000891215
0.000843969
0.000800021
0.000777477
0.000798428
0.000854482
0.000915328
0.000962896
0.000995653
0.00101577
0.00102586
0.00102809
0.0010239
0.00101468
0.00100181
0.000986404
0.000969397
0.000951901
0.000934586
0.000917456
0.000900462
0.000883547
0.000868044
0.00107491
0.00106278
0.0010501
0.00103631
0.00102019
0.000999766
0.000973143
0.000939305
0.000899956
0.000863349
0.000843459
0.000858605
0.000904067
0.00095471
0.000995722
0.00102461
0.00104263
0.00105215
0.00105483
0.00105165
0.00104372
0.00103217
0.00101799
0.00100202
0.000985086
0.000967804
0.00095035
0.000932799
0.000915155
0.000898119
0.00113624
0.00112598
0.00111668
0.00110819
0.00109931
0.00108837
0.00107378
0.00105471
0.0010327
0.00101312
0.00100289
0.00101345
0.00104299
0.00107648
0.00110436
0.00112359
0.00113497
0.00114036
0.00114078
0.00113663
0.00112874
0.00111788
0.0011048
0.00109008
0.00107429
0.00105778
0.00104026
0.00102192
0.00100303
0.000984228
0.00134638
0.00134359
0.00134776
0.0013519
0.00135463
0.00135509
0.00135313
0.00134908
0.0013442
0.00133976
0.00133587
0.00133705
0.0013435
0.0013517
0.00135854
0.00136304
0.00136472
0.0013651
0.00136422
0.00136227
0.00135941
0.00135605
0.00135238
0.00134858
0.00134477
0.00134082
0.00133225
0.00132076
0.00130836
0.00129519
0.00013339
0.000143658
0.000143482
0.000141966
0.000139472
0.000136539
0.000133425
0.000130275
0.000127135
0.000124164
0.000121385
0.000118931
0.000116828
0.00011527
0.000114217
0.000113635
0.000113003
0.000111929
0.000110278
0.000108158
0.000105493
0.000102164
9.79591e-05
9.28166e-05
8.74556e-05
8.32558e-05
8.0544e-05
7.63859e-05
7.76727e-05
9.04645e-05
0.000523795
0.00061622
0.00060638
0.000596565
0.000584938
0.000575298
0.000565445
0.000554497
0.000542338
0.00053083
0.000519817
0.000511054
0.000502919
0.00049489
0.00048299
0.000465417
0.000436874
0.000401826
0.000366608
0.000338023
0.000315918
0.000298572
0.000282177
0.000265983
0.000251532
0.000241188
0.000235024
0.000226962
0.000246441
0.000318195
0.000616834
0.000789561
0.000876137
0.00093
0.00095405
0.000976497
0.000992406
0.00100404
0.00101095
0.00101581
0.00101749
0.00101767
0.00101261
0.00100139
0.000978367
0.000941032
0.000879902
0.000804913
0.000728857
0.000664259
0.000612277
0.000571564
0.00053655
0.000501883
0.000470476
0.00044806
0.000432766
0.000412157
0.000403939
0.000458683
0.00064846
0.00080511
0.000952582
0.00106504
0.00115329
0.00123072
0.00129115
0.00134699
0.0013941
0.00143526
0.00146726
0.00149004
0.00149703
0.00148762
0.00145667
0.00140274
0.00131359
0.00120434
0.00109253
0.000994061
0.000912204
0.000846043
0.000788656
0.000733417
0.000682782
0.000645952
0.000622102
0.000591639
0.000555705
0.000562321
0.000672762
0.00081019
0.000956177
0.00109135
0.00121522
0.00134279
0.00146185
0.00158322
0.00168866
0.00178251
0.00185765
0.00191131
0.00193491
0.0019306
0.00189395
0.00182658
0.00171397
0.0015761
0.00143418
0.00130628
0.00119746
0.00110768
0.00102968
0.000955566
0.000886777
0.000834496
0.000800657
0.00076477
0.000708558
0.000675023
0.000688155
0.000820523
0.000945598
0.00107939
0.00121736
0.00137053
0.00153358
0.00170493
0.00190476
0.00206656
0.00219635
0.00228549
0.00232819
0.00233036
0.00228964
0.00221111
0.0020789
0.00191708
0.00174966
0.00159656
0.00146422
0.00135345
0.00125732
0.00116684
0.0010822
0.00101515
0.000970239
0.000929836
0.000863915
0.000802922
0.000701837
0.000823963
0.000936403
0.00105714
0.00119317
0.0013567
0.00155131
0.00177135
0.00202753
0.00229462
0.00248952
0.00261782
0.00268128
0.00269057
0.00264705
0.00255905
0.00241049
0.00222851
0.00203953
0.00186495
0.00171232
0.00158328
0.00147151
0.00136725
0.00126936
0.00118898
0.00113264
0.00108572
0.00101949
0.000943381
0.000747929
0.000829671
0.000931352
0.00103747
0.00116306
0.00132586
0.00153729
0.00179728
0.00211012
0.00248473
0.00274098
0.00291179
0.00299801
0.00301508
0.00296972
0.00287355
0.00271138
0.00251247
0.00230526
0.00211247
0.00194252
0.00179781
0.00167266
0.00155712
0.00144841
0.00135651
0.00128919
0.00123486
0.00117293
0.00109141
0.000829629
0.000878054
0.000938173
0.00102692
0.00114044
0.00129428
0.00151157
0.00180033
0.00216585
0.00260766
0.00295201
0.00317034
0.0032817
0.00330717
0.00326075
0.00315751
0.00298402
0.00277094
0.00254852
0.00234043
0.00215589
0.0019978
0.00186135
0.00173668
0.00161943
0.00151795
0.00144063
0.00137908
0.00132214
0.0012419
0.000966902
0.000985981
0.00100799
0.00105028
0.00112772
0.00127234
0.00148909
0.00179666
0.00220239
0.00269368
0.00313622
0.00339823
0.00353527
0.00356951
0.00352279
0.0034134
0.00323044
0.00300579
0.00277086
0.00255015
0.00235347
0.00218414
0.00203818
0.00190617
0.00178242
0.00167331
0.00158727
0.00151863
0.00146305
0.00139032
0.00114279
0.00114574
0.00114202
0.00114066
0.00116525
0.00125791
0.00146384
0.00178436
0.00222344
0.00275816
0.0032965
0.00360006
0.00376038
0.0038042
0.003758
0.00364321
0.00345244
0.00321863
0.00297381
0.00274292
0.00253641
0.00235774
0.00220383
0.00206589
0.0019374
0.00182259
0.00172933
0.00165399
0.00159618
0.00153433
0.00134363
0.00133683
0.00131532
0.00128387
0.00126274
0.00129263
0.00145021
0.00176934
0.00223385
0.0028119
0.00342025
0.00377725
0.00395976
0.00401257
0.00396793
0.00384848
0.00365163
0.00341107
0.00315883
0.00292008
0.00270584
0.00251962
0.0023591
0.00221635
0.00208448
0.00196578
0.00186703
0.00178582
0.00172395
0.0016739
0.00156168
0.00154993
0.00151617
0.00146149
0.00140381
0.00137989
0.00146429
0.00176275
0.00224418
0.002858
0.00351787
0.00393207
0.00413573
0.00419656
0.00415359
0.00403075
0.00382906
0.00358449
0.00332742
0.00308302
0.00286296
0.00267076
0.00250482
0.00235815
0.00222396
0.00210302
0.00200055
0.0019147
0.00184839
0.00180979
0.00179167
0.0017773
0.00173494
0.00166314
0.0015757
0.0015077
0.00152557
0.00176879
0.00225621
0.002898
0.00359653
0.00406742
0.00428946
0.00435736
0.00431576
0.00419071
0.00398602
0.00373939
0.00348081
0.00323294
0.00300892
0.00281219
0.00264191
0.00249216
0.00235636
0.00223444
0.00213004
0.00204107
0.001971
0.0019424
0.00202941
0.00201338
0.00196474
0.00187981
0.0017693
0.00166328
0.00162803
0.00179761
0.00227023
0.00293191
0.00366123
0.00418734
0.00442135
0.00449524
0.00445481
0.00432867
0.00412337
0.00387674
0.00361892
0.00337079
0.0031447
0.00294478
0.00277123
0.00261914
0.00248268
0.00236072
0.00225581
0.0021653
0.00209318
0.00206952
0.00226991
0.00225271
0.00219924
0.00210443
0.00197615
0.00183962
0.00175981
0.00186092
0.0023031
0.00296672
0.00371552
0.00428493
0.00453038
0.00460947
0.00457033
0.00444452
0.00424133
0.00399707
0.0037424
0.00349607
0.00327047
0.0030692
0.00289349
0.00273981
0.00260333
0.00248233
0.00237804
0.00228763
0.00221507
0.00219461
0.00250653
0.00248823
0.0024314
0.00232999
0.00218896
0.00202855
0.00190933
0.00194532
0.00234581
0.00301034
0.00376253
0.00436036
0.0046148
0.00469826
0.00466093
0.00453733
0.00433916
0.00410004
0.00385106
0.00360875
0.00338546
0.00318524
0.00300903
0.00285454
0.00271869
0.00259964
0.00249709
0.00240813
0.00233665
0.0023191
0.0027295
0.00271096
0.00265305
0.0025487
0.00240007
0.0022226
0.0020708
0.00205339
0.00239873
0.00305507
0.00380222
0.00441196
0.00467157
0.00475849
0.00472396
0.00460504
0.00441505
0.00418415
0.00394367
0.00370772
0.0034894
0.0032916
0.00311671
0.00296312
0.00282865
0.00271237
0.00261272
0.00252638
0.00245738
0.00244294
0.00292707
0.00291097
0.0028551
0.00275205
0.00260124
0.00241399
0.00223707
0.00218069
0.00246518
0.003096
0.0038262
0.00443318
0.00469554
0.0047854
0.00475507
0.0046439
0.00446551
0.0042463
0.00401729
0.00379153
0.00357991
0.00338655
0.00321465
0.00306377
0.00293189
0.00281936
0.00272371
0.00264104
0.00257578
0.00256462
0.00309938
0.00307717
0.00302678
0.00293023
0.00278369
0.00259369
0.00239888
0.00231322
0.0025278
0.00311848
0.00382422
0.00440736
0.00467904
0.00477201
0.00474758
0.00464771
0.00448485
0.00428131
0.00406776
0.00385506
0.00365291
0.00346649
0.00329969
0.00315313
0.00302561
0.00291818
0.00282711
0.00274927
0.00268897
0.00268135
0.00324547
0.00321208
0.00315853
0.00307126
0.00293704
0.00275149
0.00254549
0.00243263
0.00258188
0.00312668
0.00377605
0.00433377
0.0046128
0.00470826
0.00469156
0.00460672
0.00446414
0.00428112
0.00408648
0.00389011
0.00370103
0.00352484
0.00336592
0.00322564
0.00310456
0.00300304
0.0029178
0.00284604
0.00279206
0.00278842
0.00335979
0.00331418
0.00325562
0.00317201
0.00304875
0.00287512
0.00266373
0.00252564
0.00261651
0.0031242
0.00370189
0.00421813
0.00448332
0.00457982
0.00457297
0.00450642
0.00438979
0.00423163
0.00406021
0.00388457
0.00371281
0.00355067
0.00340278
0.00327206
0.00315968
0.00306575
0.00298775
0.0029235
0.00287751
0.00287853
0.00343218
0.00337778
0.00331598
0.00323566
0.00311796
0.00294854
0.00273876
0.00257685
0.00261263
0.00305757
0.00357242
0.00402289
0.00426929
0.00436818
0.00437407
0.00432883
0.00424206
0.00411367
0.00396972
0.00381933
0.00366988
0.00352713
0.00339553
0.00327831
0.00317726
0.00309297
0.00302414
0.00296952
0.00293447
0.00294099
0.00345042
0.00339461
0.00333488
0.00325784
0.00314059
0.00297058
0.00275875
0.00257238
0.0025517
0.00289133
0.00333484
0.00372073
0.00395227
0.00405833
0.00408072
0.00405904
0.00400335
0.00390729
0.00379394
0.00367186
0.0035485
0.00342986
0.00331985
0.0032214
0.00313631
0.00306563
0.00300935
0.00296775
0.00294594
0.00295986
0.00340335
0.00335819
0.0033075
0.00322775
0.00311309
0.00294307
0.00272366
0.00251108
0.00242983
0.00263819
0.00299261
0.00332007
0.00354197
0.0036636
0.00370756
0.0037099
0.00368186
0.00361658
0.0035313
0.00343537
0.00333822
0.00324413
0.00315741
0.00308066
0.00301507
0.00296178
0.00292186
0.00289661
0.00289048
0.00291587
0.00329391
0.00326935
0.00322875
0.00315541
0.0030452
0.00287821
0.00265389
0.00242842
0.00230089
0.00239052
0.00264627
0.00291422
0.00312132
0.00325969
0.00333194
0.00335641
0.00334922
0.00330888
0.00324617
0.00317021
0.00309033
0.00301257
0.00294259
0.00288346
0.00283427
0.00279557
0.00276979
0.0027591
0.00276725
0.00280515
0.00315768
0.00315255
0.0031294
0.00306751
0.00296098
0.00280493
0.00260536
0.00240312
0.00226827
0.00228678
0.00245484
0.00265952
0.0028398
0.00297703
0.00306493
0.00310241
0.00310775
0.00308457
0.00303852
0.0029774
0.00290888
0.00283973
0.00277635
0.00272257
0.00267965
0.00264833
0.00262971
0.00262584
0.00263925
0.00267827
0.00303424
0.00303872
0.00303452
0.00299698
0.00291232
0.00278833
0.00263792
0.00248898
0.00237725
0.00237576
0.00247618
0.00261802
0.00275749
0.00287186
0.0029498
0.00298671
0.00299655
0.0029842
0.0029525
0.00290751
0.0028547
0.00279957
0.00274789
0.00270348
0.00266791
0.00264046
0.00262117
0.00261082
0.00261071
0.00262829
0.00292395
0.00292795
0.002932
0.00291493
0.00286557
0.00278804
0.00269579
0.00260121
0.00253301
0.00252681
0.00258111
0.00266915
0.00276127
0.0028386
0.00288529
0.00290733
0.0029115
0.00290051
0.00287786
0.00284799
0.00281465
0.00278136
0.00275161
0.00272804
0.00271219
0.00269956
0.00268995
0.00268221
0.00267561
0.00266455
0.00283761
0.0028458
0.0028551
0.00285009
0.00282698
0.00278944
0.00273615
0.00268465
0.0026423
0.00262813
0.00264534
0.00268517
0.00272994
0.00276648
0.00278572
0.00279204
0.00278844
0.00277685
0.00276094
0.00274401
0.00272926
0.00271906
0.00271467
0.00271646
0.00272317
0.00273447
0.00274444
0.00275336
0.00275926
0.00275199
0.000160762
0.000168159
0.000169312
0.000167907
0.00016509
0.000161616
0.000157904
0.000154154
0.000150423
0.000146831
0.000143366
0.000140173
0.000137225
0.000134686
0.000132433
0.000130329
0.000127741
0.000124523
0.000121078
0.000117687
0.000113883
0.000108774
0.0001013
9.09577e-05
7.93544e-05
7.00103e-05
0.000334609
7.32248e-05
8.40538e-05
9.62366e-05
0.000698448
0.000775592
0.000785086
0.000778018
0.000770568
0.000765359
0.000761025
0.000754688
0.000744305
0.000730041
0.000711311
0.000690688
0.000666154
0.000639373
0.000606182
0.000565208
0.000512343
0.000462665
0.000427893
0.000409173
0.000401006
0.000393739
0.000373799
0.00033845
0.000307835
0.000304435
0.000349307
0.000246401
0.000284744
0.000401198
0.00111651
0.00122201
0.0012981
0.00133595
0.00137093
0.00139986
0.00142369
0.00144061
0.00144807
0.00144528
0.00142998
0.00140442
0.0013648
0.00131382
0.00124618
0.00115901
0.00104585
0.000937613
0.000855426
0.000802034
0.00076898
0.000743146
0.000701195
0.000628227
0.000555157
0.000543736
0.000557813
0.000455195
0.00047229
0.000636468
0.00124979
0.00147319
0.00163978
0.00172445
0.00181351
0.00188571
0.00195221
0.00200934
0.00205272
0.0020788
0.0020827
0.00206508
0.00202063
0.00195287
0.00185739
0.00173023
0.00156537
0.00140683
0.0012802
0.00118877
0.00112594
0.00107543
0.00100845
0.000903722
0.000790479
0.000752987
0.000760639
0.000670849
0.000642051
0.000787339
0.00126144
0.00152479
0.00173616
0.00192296
0.00209286
0.00222141
0.00234581
0.00245821
0.002552
0.00262154
0.0026546
0.00265246
0.00261029
0.00253078
0.00241274
0.00225203
0.00204396
0.00184211
0.0016758
0.00154977
0.00145758
0.00138286
0.00129493
0.00116614
0.00102028
0.000950887
0.00095036
0.000883172
0.000823363
0.000932064
0.00121842
0.00150503
0.00175164
0.00198704
0.00220451
0.00240414
0.00261606
0.00280203
0.00296551
0.00308767
0.0031604
0.00317831
0.00314044
0.00305192
0.00291521
0.00272569
0.00248149
0.00224237
0.00204031
0.0018826
0.00176333
0.00166636
0.0015614
0.00141581
0.0012459
0.00114578
0.00113225
0.00108668
0.0010165
0.00109109
0.00117205
0.00144814
0.0017133
0.00197693
0.00223593
0.00249601
0.00276339
0.00305071
0.00330471
0.00349321
0.00361125
0.00365189
0.00361905
0.00352321
0.00337075
0.00315608
0.00288193
0.00260961
0.0023752
0.00218876
0.00204502
0.0019283
0.00180957
0.00165303
0.00146737
0.00134096
0.00131011
0.00127981
0.00121524
0.00127269
0.00114013
0.00138997
0.00165733
0.00193447
0.00222284
0.00253185
0.00286228
0.00320883
0.00358525
0.00384635
0.0040139
0.00408116
0.00405302
0.00395037
0.0037847
0.00354795
0.00324872
0.0029462
0.00268248
0.00247034
0.00230491
0.00217102
0.0020412
0.00187866
0.00168463
0.00153671
0.00148622
0.00146258
0.00141298
0.00146524
0.00113219
0.00135842
0.00161011
0.00188613
0.00219186
0.00253763
0.00292324
0.00333998
0.00379646
0.00415285
0.00437643
0.00447068
0.00444803
0.00433864
0.00416119
0.00390528
0.00358424
0.00325418
0.00296428
0.00272956
0.00254532
0.00239668
0.0022581
0.0020933
0.00189641
0.0017337
0.00166283
0.00163719
0.00160601
0.00166002
0.00114883
0.00135191
0.00159458
0.00185851
0.0021651
0.00253493
0.0029655
0.00345126
0.00396947
0.00442584
0.00470116
0.00482331
0.00480812
0.00469183
0.00450373
0.00423103
0.00389022
0.00353544
0.00322268
0.00296872
0.00276853
0.00260751
0.00246209
0.00229741
0.00210214
0.00193102
0.00184144
0.00180831
0.00179277
0.00185255
0.00118606
0.00137302
0.0015997
0.00186253
0.00216549
0.00254269
0.00300885
0.00354807
0.0041264
0.00467539
0.00498627
0.00514039
0.00513552
0.00501301
0.00481495
0.00452732
0.00416788
0.0037919
0.00346005
0.0031903
0.00297701
0.00280571
0.00265494
0.00249172
0.00230165
0.00212716
0.00202334
0.00197961
0.00197441
0.00204068
0.0012992
0.00145555
0.00163502
0.00188006
0.00217832
0.00255823
0.00304631
0.00363242
0.00426726
0.00487692
0.00523507
0.00542304
0.00543071
0.00530461
0.00509659
0.00479549
0.00441825
0.00402592
0.00367894
0.00339704
0.00317324
0.00299364
0.0028383
0.00267734
0.00249465
0.00232129
0.00220799
0.00215333
0.00215306
0.00222448
0.00147749
0.00162185
0.0017668
0.00193932
0.00220159
0.00257573
0.00307873
0.00370516
0.00438767
0.00503734
0.00545525
0.00567391
0.00569456
0.00556721
0.00534917
0.00503599
0.0046432
0.00423943
0.00388216
0.00359166
0.00335979
0.00317354
0.00301393
0.00285559
0.00268145
0.00251292
0.00239444
0.0023305
0.00233091
0.00240528
0.00172798
0.0018513
0.0019677
0.00209746
0.00227418
0.00260491
0.00310714
0.00376008
0.00448387
0.005169
0.00565304
0.00589416
0.00592665
0.00580017
0.00557201
0.00524868
0.00484452
0.00443475
0.00407241
0.00377674
0.00353914
0.00334714
0.00318366
0.00302786
0.00286267
0.0027017
0.00258107
0.0025106
0.00250908
0.00258439
0.00204717
0.00214922
0.00223171
0.00230496
0.00241979
0.00266532
0.00314694
0.0038136
0.00457021
0.0052818
0.00582512
0.00608266
0.0061241
0.00600131
0.0057633
0.00543249
0.00502395
0.00461393
0.00425194
0.00395432
0.00371303
0.00351597
0.00334906
0.00319475
0.00303858
0.00288659
0.0027669
0.00269298
0.00268784
0.00276225
0.00241263
0.0024898
0.00253505
0.00255482
0.00260409
0.00278181
0.00319305
0.00386617
0.00464613
0.00538109
0.00596931
0.00623429
0.00628295
0.00616622
0.00592017
0.00558644
0.00518174
0.00477796
0.00442189
0.00412529
0.00388199
0.00368095
0.00351115
0.00335776
0.00320839
0.00306588
0.00295153
0.00287682
0.00286786
0.00293869
0.00279321
0.0028355
0.00284144
0.00282025
0.0028157
0.00291497
0.00327971
0.00391283
0.00470807
0.00546653
0.0060812
0.00634554
0.00639818
0.00628749
0.006039
0.00570833
0.00531661
0.00492604
0.00458108
0.00428863
0.0040451
0.00384166
0.00366993
0.00351782
0.00337474
0.00324233
0.00313378
0.00306055
0.00304806
0.00311202
0.00314921
0.00315103
0.00312408
0.00307111
0.00302735
0.00306552
0.00337123
0.00398202
0.00476267
0.00553891
0.00614269
0.00640596
0.00646241
0.00635625
0.00611312
0.00579405
0.00542463
0.00505454
0.00472525
0.00444064
0.00419926
0.0039957
0.00382348
0.00367319
0.00353666
0.0034135
0.00331115
0.00324108
0.00322509
0.00327907
0.00346251
0.00343065
0.00337369
0.00329267
0.00321864
0.00322053
0.00344932
0.00402853
0.00481079
0.00556613
0.00612448
0.00640322
0.00646428
0.00636318
0.00613393
0.0058367
0.00549824
0.0051556
0.00484636
0.00457403
0.00433869
0.00413774
0.00396683
0.00381937
0.00368932
0.0035745
0.00347898
0.00341261
0.00339301
0.00343441
0.00372712
0.00366462
0.00358089
0.00347638
0.00337795
0.00335105
0.00349972
0.00405237
0.00477968
0.0054935
0.00603512
0.00632555
0.00639078
0.00629814
0.00609066
0.00582593
0.00552589
0.00521646
0.0049323
0.00467668
0.00445182
0.00425738
0.00409108
0.00394873
0.00382523
0.00371805
0.00362929
0.003566
0.00354269
0.00356982
0.00393395
0.00384505
0.00373918
0.00361581
0.00349672
0.00343705
0.00353092
0.00403468
0.00468685
0.00535052
0.00588538
0.00615882
0.00622859
0.00615085
0.00597234
0.00574822
0.00549287
0.00522127
0.0049659
0.00473109
0.0045216
0.0043384
0.00418066
0.00404572
0.00392979
0.0038304
0.00374811
0.00368785
0.00366146
0.0036745
0.00407345
0.0039654
0.0038443
0.00370717
0.0035699
0.00347661
0.003526
0.00392865
0.00455609
0.00515695
0.00563033
0.00588717
0.00596798
0.00591412
0.00577121
0.00559191
0.00538471
0.00515251
0.00492804
0.00471747
0.00452664
0.00435786
0.00421194
0.00408766
0.00398185
0.00389189
0.00381737
0.00376176
0.00373424
0.00373599
0.00413769
0.00402068
0.00389319
0.00374861
0.00359566
0.00346834
0.00346678
0.00373555
0.00430035
0.00483715
0.00525918
0.00550977
0.00560953
0.00559193
0.00548872
0.00535419
0.00519511
0.00500116
0.00480769
0.00462137
0.00445065
0.00429941
0.00416857
0.00405753
0.003964
0.00388543
0.00382072
0.00377222
0.00374615
0.00374246
0.00412484
0.00401115
0.00388733
0.00374294
0.00357829
0.00341958
0.0033567
0.00348905
0.0039333
0.00440864
0.00479592
0.00504963
0.00517817
0.00520623
0.00514686
0.00505404
0.00493989
0.00478121
0.00461807
0.00445644
0.00430562
0.00417083
0.00405399
0.0039553
0.0038734
0.00380608
0.0037517
0.0037114
0.00369025
0.0036878
0.00404586
0.00394808
0.00383835
0.00370236
0.00353523
0.0033545
0.00323155
0.00324934
0.00354897
0.003948
0.00431145
0.00457456
0.0047338
0.00480926
0.004797
0.00474088
0.00466272
0.00453624
0.00440026
0.00426152
0.00412855
0.00400724
0.00390058
0.00380991
0.00373506
0.00367464
0.00362726
0.00359367
0.00357789
0.00358063
0.0039305
0.00385859
0.00377177
0.00365309
0.00349697
0.00331513
0.00316046
0.00310041
0.00327195
0.00358542
0.0039128
0.00417653
0.00435873
0.00446888
0.00449683
0.00446832
0.00441299
0.00431247
0.00419919
0.00408072
0.0039643
0.00385537
0.00375733
0.00367237
0.00360114
0.00354315
0.00349759
0.00346555
0.0034503
0.00345538
0.00382602
0.00378507
0.00372691
0.0036317
0.00349668
0.00333937
0.00319309
0.00309897
0.00318503
0.00341065
0.003682
0.00392256
0.00410476
0.0042252
0.00427195
0.00425523
0.00420866
0.00412424
0.00402806
0.00392859
0.00383121
0.00373863
0.003655
0.00358222
0.00352059
0.00346936