/*--------------------------------*- C++ -*----------------------------------*\
  =========                 |
  \\      /  F ield         | OpenFOAM: The Open Source CFD Toolbox
   \\    /   O peration     | Website:  https://openfoam.org
    \\  /    A nd           | Version:  12
     \\/     M anipulation  |
\*---------------------------------------------------------------------------*/
FoamFile
{
    format      ascii;
    class       volScalarField;
    location    "950/air";
    object      p_rgh;
}
// * * * * * * * * * * * * * * * * * * * * * * * * * * * * * * * * * * * * * //

dimensions      [1 -1 -2 0 0 0 0];

internalField   nonuniform List<scalar> 
243000
(
29.3134
29.3451
29.395
29.407
29.414
29.4075
29.3928
29.3766
29.368
29.3776
29.4127
29.4813
29.5665
29.6684
29.7603
29.8431
29.8886
29.8967
29.862
29.8031
29.7339
29.6682
29.6061
29.5468
29.4803
29.4462
29.4816
29.5677
29.7843
29.8687
29.3179
29.3388
29.391
29.4036
29.4128
29.4082
29.395
29.3804
29.3755
29.389
29.4272
29.4977
29.5828
29.6833
29.7728
29.8539
29.8986
29.9077
29.8747
29.8181
29.7505
29.6851
29.6232
29.5635
29.4955
29.4524
29.4845
29.5658
29.7729
29.7432
29.3205
29.3378
29.3914
29.398
29.4053
29.3975
29.3836
29.3703
29.3687
29.3852
29.4247
29.4975
29.5886
29.6926
29.7834
29.8666
29.9134
29.9248
29.894
29.8389
29.7716
29.7056
29.6432
29.5835
29.5145
29.4615
29.4854
29.553
29.7507
29.7432
29.3084
29.3329
29.3908
29.4001
29.4017
29.3892
29.3725
29.3576
29.3558
29.3738
29.4153
29.4902
29.5839
29.6912
29.7867
29.8729
29.9221
29.935
29.9058
29.8523
29.786
29.7201
29.6574
29.5972
29.5301
29.4719
29.4865
29.5395
29.7184
29.7155
29.2801
29.3139
29.383
29.4036
29.4048
29.3891
29.3668
29.349
29.3441
29.3603
29.4016
29.4786
29.5748
29.6855
29.7836
29.8729
29.9236
29.9376
29.9086
29.8547
29.7888
29.7241
29.6633
29.6052
29.542
29.483
29.4881
29.5277
29.6879
29.6889
29.2393
29.2778
29.3585
29.393
29.4054
29.3927
29.3674
29.3444
29.336
29.3483
29.3874
29.4648
29.563
29.6767
29.7768
29.8682
29.9202
29.9349
29.9058
29.852
29.7864
29.7227
29.6632
29.609
29.5515
29.495
29.4905
29.5185
29.6596
29.6655
29.1884
29.2305
29.3163
29.3608
29.3873
29.3905
29.3701
29.3432
29.3302
29.3383
29.3728
29.4488
29.5478
29.6636
29.7651
29.858
29.9108
29.9255
29.8972
29.8445
29.7798
29.7174
29.6599
29.6079
29.5566
29.5056
29.493
29.5118
29.6347
29.6435
29.1315
29.1752
29.2646
29.3155
29.3517
29.3685
29.366
29.3437
29.3254
29.3298
29.3587
29.431
29.5294
29.6461
29.7481
29.8418
29.8943
29.9085
29.8807
29.8303
29.7681
29.7078
29.6528
29.6036
29.5563
29.5124
29.4964
29.5078
29.6135
29.623
29.0711
29.1143
29.2062
29.2639
29.307
29.3329
29.3454
29.3389
29.3211
29.3218
29.3453
29.412
29.508
29.6244
29.7257
29.819
29.8706
29.8833
29.8559
29.8075
29.749
29.6929
29.6415
29.596
29.5532
29.5145
29.4999
29.5056
29.596
29.6061
29.0084
29.0501
29.143
29.207
29.2571
29.2913
29.3131
29.3238
29.3159
29.3136
29.3323
29.3921
29.484
29.5985
29.6979
29.7896
29.8393
29.85
29.8227
29.7766
29.7216
29.6703
29.6247
29.5845
29.5469
29.5132
29.5023
29.5045
29.5823
29.5932
28.9452
28.9843
29.0774
29.1464
29.2033
29.2459
29.276
29.2985
29.306
29.3047
29.319
29.3715
29.4577
29.5686
29.6646
29.7534
29.8002
29.8084
29.7811
29.7372
29.686
29.6399
29.6007
29.5676
29.5371
29.5094
29.5021
29.5043
29.5722
29.5837
28.8842
28.9203
29.0116
29.0843
29.147
29.1973
29.2367
29.267
29.2896
29.2945
29.3051
29.3504
29.4291
29.535
29.6261
29.7107
29.7534
29.7585
29.7311
29.6894
29.6421
29.6015
29.5691
29.5439
29.5223
29.5027
29.4998
29.5038
29.5645
29.5769
28.8265
28.8592
28.9478
29.0229
29.0902
29.1469
29.1952
29.2334
29.2676
29.2822
29.2903
29.3285
29.3985
29.4978
29.5826
29.6615
29.699
29.7007
29.6729
29.6332
29.5898
29.5549
29.5297
29.5129
29.501
29.4903
29.4943
29.5026
29.559
29.5724
28.7718
28.8019
28.8869
28.9631
29.0341
29.0963
29.152
29.1989
29.2418
29.267
29.2743
29.3057
29.3663
29.4572
29.5343
29.6063
29.6373
29.6353
29.6069
29.569
29.5295
29.5002
29.4822
29.4743
29.4727
29.4719
29.4852
29.5
29.5543
29.5699
28.7195
28.748
28.8293
28.9058
28.9792
29.0463
29.108
29.1631
29.2129
29.2482
29.2566
29.2816
29.3323
29.4136
29.4817
29.5455
29.5688
29.5628
29.5336
29.4973
29.4613
29.4374
29.4262
29.4271
29.4369
29.4479
29.4718
29.4952
29.5496
29.5689
28.6691
28.6962
28.7742
28.8507
28.9257
28.9969
29.0637
29.1255
29.1816
29.2254
29.237
29.256
29.2967
29.3673
29.4252
29.4795
29.4942
29.484
29.4534
29.4183
29.3857
29.3665
29.3615
29.372
29.3936
29.4175
29.4535
29.4871
29.544
29.5686
28.6194
28.646
28.7203
28.7968
28.8733
28.9478
29.0189
29.0864
29.1484
29.1992
29.2153
29.2286
29.2596
29.3185
29.3654
29.4092
29.4145
29.3997
29.3672
29.333
29.3027
29.2878
29.2885
29.3085
29.3421
29.3798
29.429
29.4748
29.5365
29.5683
28.569
28.596
28.6667
28.7427
28.8203
28.8981
28.9733
29.0455
29.113
29.1697
29.1904
29.1991
29.2206
29.2677
29.3028
29.3352
29.331
29.3108
29.276
29.2411
29.213
29.2016
29.2077
29.2365
29.2819
29.3338
29.3971
29.4568
29.5257
29.5669
28.5169
28.544
28.6122
28.6876
28.7655
28.8458
28.9257
29.0029
29.0752
29.1359
29.1612
29.167
29.1797
29.2153
29.2384
29.2586
29.2448
29.2188
29.1796
29.1438
29.1176
29.1082
29.119
29.1558
29.2124
29.2783
29.3564
29.4312
29.51
29.5631
28.4615
28.4884
28.5539
28.6295
28.708
28.7902
28.8739
28.957
29.0351
29.0979
29.1272
29.1319
29.137
29.1619
29.1731
29.1809
29.1573
29.1236
29.0798
29.0431
29.0165
29.0082
29.0227
29.0661
29.1326
29.2121
29.305
29.3949
29.4865
29.554
28.3985
28.4263
28.4897
28.5652
28.645
28.7298
28.8169
28.9056
28.9924
29.0564
29.0886
29.0936
29.0928
29.1083
29.1084
29.1039
29.07
29.0281
28.9797
28.9392
28.9108
28.9026
28.9191
28.9671
29.0419
29.1338
29.2412
29.3456
29.452
29.5366
28.3191
28.3503
28.4144
28.4918
28.5736
28.6615
28.7529
28.8503
28.9447
29.0119
29.0455
29.0525
29.048
29.056
29.0452
29.0293
28.9847
28.9346
28.8791
28.8331
28.8016
28.792
28.8084
28.8583
28.9387
29.0409
29.1621
29.2818
29.4013
29.5058
28.2154
28.2532
28.3213
28.4041
28.4901
28.5819
28.6837
28.7924
28.8914
28.9633
28.9988
29.0092
29.004
29.0062
28.9851
28.9585
28.9035
28.8439
28.7804
28.7279
28.6917
28.6784
28.6913
28.7394
28.8218
28.9315
29.0648
29.2
29.3339
29.4556
28.0738
28.1211
28.1961
28.2878
28.3878
28.4942
28.6109
28.7285
28.8333
28.9102
28.9491
28.965
28.9633
28.9628
28.9347
28.8988
28.8341
28.7637
28.691
28.6294
28.5852
28.5647
28.57
28.6119
28.6919
28.8049
28.9465
29.0946
29.2432
29.3825
27.8881
27.9538
28.0478
28.1595
28.2788
28.4026
28.5314
28.6583
28.7704
28.8539
28.8985
28.9234
28.9304
28.9322
28.9021
28.8597
28.7862
28.7043
28.6185
28.543
28.4871
28.4565
28.4511
28.481
28.5527
28.6632
28.8075
28.9653
29.128
29.2876
27.6312
27.7273
27.8526
27.996
28.1422
28.2909
28.4393
28.5799
28.7031
28.7963
28.8511
28.8914
28.9129
28.9224
28.8952
28.8494
28.7682
28.6742
28.5735
28.479
28.407
28.3617
28.3419
28.3541
28.4093
28.5073
28.6438
28.8012
28.9708
29.1469
27.3806
27.5175
27.6759
27.8471
28.019
28.1895
28.3532
28.5065
28.6407
28.7449
28.8152
28.8784
28.9203
28.9424
28.921
28.8746
28.7881
28.6843
28.5677
28.4583
28.3668
28.3035
28.2673
28.2608
28.2943
28.3733
28.4964
28.6495
28.8227
29.0136
26.8831
27.1068
27.3466
27.5889
27.8195
28.0354
28.2316
28.4106
28.5685
28.6958
28.7923
28.8807
28.9472
28.9832
28.9668
28.919
28.8254
28.7097
28.5731
28.4446
28.3281
28.2334
28.1651
28.1285
28.1297
28.1771
28.2685
28.3968
28.5513
28.7413
26.8598
27.1346
27.4103
27.6627
27.8929
28.0998
28.282
28.4464
28.5971
28.7299
28.8474
28.9599
29.0455
29.0951
29.0877
29.0459
28.9572
28.8459
28.7134
28.5875
28.4735
28.3781
28.3075
28.267
28.2592
28.2967
28.3794
28.5035
28.6575
28.8615
25.4988
25.9087
26.3549
26.7691
27.1275
27.4318
27.6833
27.9047
28.1053
28.29
28.4627
28.6238
28.7357
28.7966
28.7841
28.7324
28.6242
28.4842
28.3138
28.1405
27.9692
27.8106
27.6701
27.5497
27.4574
27.4102
27.4105
27.4501
27.5249
27.6893
29.1187
29.1762
29.2277
29.2388
29.2485
29.246
29.2358
29.2215
29.2088
29.2076
29.23
29.2831
29.3516
29.4388
29.5131
29.5826
29.6146
29.6204
29.5955
29.5643
29.5326
29.507
29.479
29.4436
29.3789
29.3352
29.3605
29.4587
29.6634
29.8133
29.1466
29.1899
29.2405
29.2475
29.2571
29.2534
29.2426
29.2286
29.2175
29.2193
29.2447
29.2999
29.369
29.4556
29.5283
29.5968
29.6282
29.6353
29.6122
29.5819
29.5503
29.5252
29.4981
29.4645
29.3996
29.3446
29.3648
29.4476
29.6384
29.6742
29.1397
29.1865
29.2481
29.2552
29.2639
29.2581
29.2462
29.2316
29.2208
29.2247
29.2517
29.3079
29.377
29.4629
29.5337
29.6006
29.63
29.6353
29.611
29.5805
29.5488
29.5238
29.4966
29.464
29.4063
29.3505
29.367
29.4337
29.6252
29.6551
29.1051
29.1659
29.2431
29.2604
29.2705
29.2631
29.2501
29.2343
29.2228
29.2275
29.2528
29.3085
29.3769
29.4629
29.5331
29.5983
29.6251
29.629
29.6052
29.5758
29.5445
29.5202
29.4938
29.4625
29.4125
29.3583
29.3697
29.4206
29.5981
29.6337
29.0588
29.1286
29.2208
29.2569
29.2757
29.269
29.255
29.2376
29.2246
29.2274
29.251
29.3056
29.3728
29.4582
29.5248
29.5871
29.6106
29.6127
29.5892
29.5613
29.5316
29.5096
29.486
29.4569
29.4121
29.3643
29.3716
29.4105
29.5706
29.6054
29.0085
29.0826
29.1825
29.2345
29.2709
29.2736
29.2611
29.2421
29.227
29.2273
29.2483
29.3007
29.3659
29.4483
29.5102
29.5689
29.5881
29.5883
29.5649
29.5387
29.5112
29.4926
29.4731
29.4484
29.4095
29.3685
29.3725
29.4033
29.5463
29.5782
28.9566
29.0346
29.1367
29.1967
29.2476
29.2678
29.2651
29.2476
29.2303
29.2275
29.2453
29.2946
29.3561
29.434
29.4903
29.5447
29.5588
29.5568
29.5334
29.5089
29.4844
29.4699
29.4554
29.4368
29.4047
29.3704
29.3728
29.3984
29.5257
29.5524
28.9033
28.9868
29.092
29.1556
29.2121
29.2453
29.26
29.2511
29.2341
29.2284
29.2424
29.2878
29.3438
29.4161
29.4659
29.5149
29.5234
29.519
29.4954
29.4727
29.4516
29.4419
29.4334
29.4218
29.3976
29.3697
29.3731
29.3954
29.5091
29.5292
28.8498
28.9358
29.0468
29.1164
29.1754
29.2131
29.2404
29.2477
29.2362
29.2297
29.2393
29.2803
29.3294
29.3953
29.4375
29.4802
29.4826
29.4755
29.4515
29.4305
29.4131
29.4089
29.4073
29.4033
29.3885
29.3676
29.3734
29.3937
29.4958
29.5096
28.797
28.8791
28.9949
29.0731
29.1387
29.1802
29.2118
29.2328
29.2346
29.2299
29.2361
29.2721
29.3135
29.3718
29.4055
29.4408
29.437
29.4267
29.402
29.3827
29.3689
29.3704
29.3767
29.3812
29.3761
29.3631
29.3733
29.3918
29.4856
29.4948
28.7475
28.8197
28.9358
29.0211
29.0952
29.1463
29.1814
29.209
29.2254
29.2273
29.2323
29.263
29.2961
29.3461
29.3705
29.3977
29.387
29.3727
29.3472
29.3294
29.3189
29.3265
29.3412
29.355
29.3604
29.3557
29.3716
29.3899
29.4779
29.4848
28.7024
28.764
28.8766
28.965
29.0447
29.1054
29.1501
29.1812
29.2089
29.2206
29.2269
29.2526
29.2777
29.3186
29.333
29.3513
29.3328
29.3141
29.2874
29.2704
29.2633
29.2771
29.3005
29.324
29.3407
29.3456
29.3685
29.3883
29.4723
29.4795
28.6618
28.7114
28.8205
28.9093
28.9926
29.0598
29.1151
29.1518
29.1866
29.2099
29.2194
29.241
29.2584
29.2895
29.2929
29.3009
29.2748
29.2513
29.2231
29.2064
29.2024
29.2223
29.2546
29.2881
29.3165
29.3326
29.3636
29.3869
29.4687
29.478
28.6257
28.6635
28.7678
28.8551
28.9402
29.0133
29.0752
29.1221
29.1603
29.1948
29.2093
29.2281
29.2381
29.2594
29.2506
29.2478
29.2137
29.1849
29.1547
29.1382
29.1365
29.1626
29.2034
29.2473
29.2877
29.3162
29.3564
29.385
29.4661
29.4788
28.5932
28.6201
28.7197
28.8039
28.8893
28.9663
29.0332
29.0917
29.1317
29.1755
29.1969
29.2141
29.2168
29.2285
29.2072
29.1932
29.1495
29.1155
29.0828
29.0663
29.0665
29.0977
29.1471
29.2014
29.2542
29.2958
29.3463
29.3822
29.4633
29.481
28.5632
28.5812
28.6756
28.7566
28.8408
28.9203
28.9922
29.0582
29.1014
29.153
29.1824
29.1991
29.1946
29.1965
29.1631
29.1376
29.083
29.0438
29.0082
28.9916
28.9921
29.0283
29.0862
29.1505
29.2158
29.2712
29.3327
29.3777
29.4599
29.4845
28.5346
28.546
28.635
28.7131
28.7956
28.8759
28.9523
29.0217
29.0716
29.1287
29.1661
29.1833
29.172
29.1638
29.1187
29.0816
29.0154
28.9709
28.9325
28.9136
28.9147
28.9561
29.0207
29.0947
29.1724
29.2418
29.3146
29.3704
29.4554
29.4885
28.5059
28.513
28.5968
28.6728
28.7539
28.8345
28.9137
28.9863
29.0444
29.1029
29.1486
29.1668
29.1495
29.1313
29.0747
29.0259
28.948
28.8983
28.8538
28.8331
28.8371
28.8808
28.951
29.0345
29.1235
29.2063
29.2912
29.3592
29.4489
29.4925
28.4737
28.4811
28.5603
28.6351
28.715
28.7964
28.877
28.9533
29.0175
29.0765
29.1303
29.1501
29.1274
29.1
29.0324
28.9721
28.8827
28.8249
28.7746
28.7557
28.7589
28.8026
28.8778
28.9689
29.0683
29.1643
29.2621
29.3434
29.4396
29.4954
28.434
28.4459
28.524
28.5993
28.679
28.7612
28.8432
28.9224
28.9911
29.0533
29.1123
29.1335
29.1067
29.0712
28.9932
28.9216
28.8212
28.7538
28.702
28.6809
28.6803
28.7235
28.8016
28.8989
29.0082
29.116
29.2258
29.3211
29.4257
29.4965
28.3855
28.4024
28.4838
28.5624
28.6449
28.7291
28.8133
28.8951
28.9672
29.0337
29.0945
29.1183
29.0885
29.0461
28.9587
28.8762
28.7659
28.692
28.6335
28.6065
28.6033
28.6447
28.7239
28.8265
28.9436
29.062
29.183
29.2929
29.4075
29.4954
28.3251
28.349
28.4348
28.5204
28.6094
28.699
28.7872
28.8718
28.9452
29.0172
29.0799
29.1062
29.0747
29.0267
28.9311
28.839
28.719
28.6364
28.5679
28.5362
28.529
28.5684
28.6471
28.7533
28.8759
29.0037
29.1368
29.2616
29.3867
29.4903
28.2459
28.283
28.3754
28.471
28.5701
28.6696
28.764
28.8532
28.929
29.006
29.0722
29.1003
29.0679
29.0158
28.9137
28.813
28.684
28.589
28.512
28.4744
28.4637
28.5013
28.5787
28.6842
28.8082
28.9421
29.0835
29.2235
29.3583
29.4756
28.1396
28.1992
28.3034
28.4111
28.5228
28.6358
28.7404
28.8381
28.9207
29.0019
29.0716
29.1046
29.0732
29.0191
28.9124
28.8044
28.6676
28.5611
28.4758
28.43
28.4143
28.4458
28.5171
28.6178
28.7392
28.8754
29.0207
29.167
29.3102
29.444
28.0036
28.092
28.2139
28.34
28.4704
28.5998
28.7159
28.8261
28.9193
29.0168
29.0912
29.1245
29.0931
29.0391
28.9305
28.8176
28.6723
28.5557
28.4608
28.4016
28.3754
28.3963
28.4581
28.5515
28.6671
28.8018
28.9477
29.0993
29.248
29.3965
27.8385
27.9689
28.1135
28.2608
28.4122
28.5604
28.6932
28.8195
28.9359
29.0494
29.1299
29.1632
29.1325
29.0774
28.9667
28.8492
28.6968
28.5711
28.4574
28.3862
28.3495
28.3598
28.4104
28.492
28.5971
28.7271
28.8706
29.0239
29.1762
29.3399
27.6761
27.8527
28.0199
28.1893
28.3635
28.5302
28.6804
28.8252
28.9703
29.0979
29.1851
29.2224
29.1949
29.1403
29.0285
28.9073
28.7501
28.6154
28.4892
28.4057
28.3593
28.3611
28.3975
28.4643
28.5533
28.6731
28.8083
28.9573
29.1071
29.2815
27.4985
27.7196
27.9193
28.1247
28.3274
28.5182
28.6993
28.8761
29.0413
29.1814
29.2772
29.3214
29.2986
29.2497
29.142
29.0217
28.8613
28.717
28.5784
28.4796
28.4184
28.4066
28.4296
28.4797
28.5535
28.6465
28.7607
28.8935
29.0306
29.2033
27.5592
27.8228
28.0524
28.2858
28.5138
28.7247
28.9174
29.1019
29.2734
29.4188
29.5262
29.5781
29.56
29.5171
29.4162
29.2983
29.137
28.9857
28.8386
28.7294
28.655
28.6271
28.635
28.6693
28.728
28.8064
28.9037
29.0211
29.1437
29.3152
28.3149
28.5416
28.735
28.9433
29.1506
29.3443
29.5127
29.6673
29.8099
29.9353
30.0297
30.0751
30.0572
30.0195
29.923
29.8116
29.66
29.5214
29.3849
29.2868
29.2231
29.2069
29.2269
29.2769
29.353
29.4498
29.5617
29.6903
29.8237
30.0036
28.8426
28.9425
29.0022
29.0303
29.0597
29.0806
29.0922
29.0968
29.096
29.1049
29.1247
29.1742
29.2287
29.3078
29.3654
29.4264
29.4365
29.4328
29.407
29.3934
29.388
29.3972
29.3995
29.381
29.2869
29.2318
29.2729
29.334
29.4914
29.7487
28.8508
28.9453
29.008
29.0461
29.0782
29.0992
29.1099
29.1134
29.1124
29.1222
29.1435
29.1944
29.2494
29.3285
29.3854
29.4471
29.4582
29.4563
29.4315
29.4171
29.4097
29.417
29.4176
29.4034
29.3081
29.2399
29.2757
29.3264
29.4501
29.6145
28.8584
28.9508
29.0091
29.0535
29.09
29.111
29.1214
29.1245
29.1235
29.1342
29.1564
29.2078
29.2621
29.3411
29.3962
29.457
29.4658
29.4624
29.4371
29.4217
29.4129
29.4204
29.422
29.4111
29.3283
29.2496
29.275
29.3239
29.4458
29.5535
28.8522
28.944
29.0052
29.0535
29.0943
29.1186
29.1295
29.1327
29.132
29.1434
29.166
29.2173
29.2703
29.3495
29.4024
29.4628
29.4688
29.4643
29.4377
29.4213
29.412
29.4204
29.4219
29.412
29.346
29.2638
29.277
29.3183
29.4327
29.5054
28.8421
28.9276
28.9936
29.0481
29.0927
29.1202
29.1334
29.1373
29.1369
29.1487
29.1692
29.2188
29.2696
29.3494
29.4007
29.46
29.462
29.4558
29.4295
29.4123
29.4023
29.4123
29.4165
29.4085
29.3566
29.2789
29.2813
29.3154
29.4253
29.4767
28.8258
28.9041
28.9751
29.035
29.0854
29.1169
29.133
29.1394
29.1394
29.1501
29.1683
29.2167
29.2659
29.3456
29.3927
29.4503
29.4478
29.4398
29.4126
29.3951
29.385
29.3974
29.4057
29.402
29.3606
29.2933
29.2878
29.3138
29.418
29.4604
28.7993
28.8746
28.9497
29.0145
29.0707
29.1086
29.1292
29.1384
29.1393
29.1494
29.1656
29.2127
29.2596
29.3374
29.3794
29.4346
29.4268
29.4173
29.388
29.3705
29.3607
29.3763
29.3896
29.392
29.3596
29.3062
29.2968
29.3137
29.4099
29.4486
28.7633
28.8411
28.9209
28.9886
29.0492
29.0932
29.1201
29.1334
29.1375
29.1473
29.1618
29.2073
29.2504
29.3256
29.3615
29.4135
29.3997
29.3881
29.3564
29.3391
29.3298
29.3492
29.3684
29.3783
29.3559
29.3149
29.3049
29.3154
29.4027
29.4334
28.7213
28.803
28.8897
28.9617
29.0253
29.0726
29.1056
29.125
29.1328
29.1439
29.1569
29.2004
29.2387
29.3108
29.3397
29.3878
29.3671
29.3525
29.3182
29.3013
29.2926
29.3163
29.3424
29.3608
29.3495
29.3189
29.3112
29.3181
29.3995
29.4185
28.6803
28.762
28.8555
28.9319
29.0006
29.0508
29.0879
29.1137
29.1257
29.1389
29.1509
29.1921
29.2252
29.2936
29.3145
29.3581
29.3297
29.3115
29.2735
29.2573
29.2495
29.2777
29.3116
29.3391
29.34
29.3184
29.3156
29.3214
29.3995
29.4058
28.6425
28.721
28.8207
28.8997
28.9719
29.0274
29.0684
29.0989
29.1162
29.1324
29.1436
29.1826
29.2102
29.2743
29.2866
29.3248
29.2881
29.2655
29.2229
29.2075
29.2008
29.2337
29.2757
29.3126
29.3269
29.3159
29.3178
29.3249
29.4002
29.3979
28.6081
28.6798
28.7854
28.8675
28.9417
29.0003
29.0469
29.0812
29.104
29.1243
29.1354
29.1722
29.194
29.2534
29.2562
29.2886
29.2424
29.2145
29.1677
29.1523
29.1468
29.1844
29.2346
29.2817
29.3094
29.3098
29.3185
29.3286
29.4018
29.3957
28.5784
28.6409
28.7499
28.8334
28.9123
28.9726
29.0233
29.0623
29.0898
29.1146
29.1262
29.161
29.1771
29.2315
29.2237
29.2498
29.1929
29.1599
29.1093
29.0923
29.0881
29.13
29.1884
29.2459
29.2866
29.3001
29.3181
29.3322
29.4038
29.3971
28.5526
28.6045
28.7153
28.7994
28.8807
28.9449
28.9982
29.0427
29.0744
29.104
29.1163
29.1494
29.1595
29.2088
29.1896
29.2089
29.1406
29.1026
29.0479
29.0285
29.0251
29.071
29.1372
29.2051
29.259
29.2864
29.3148
29.335
29.4061
29.4013
28.5317
28.5713
28.6813
28.767
28.8494
28.9158
28.9729
29.0226
29.0585
29.0926
29.1058
29.1374
29.1415
29.1853
29.1544
29.1666
29.0859
29.0425
28.9832
28.9613
28.9583
29.0078
29.0813
29.1594
29.2265
29.2686
29.3084
29.3369
29.4086
29.4082
28.514
28.5416
28.649
28.7348
28.819
28.8882
28.9487
29.0024
29.0424
29.0806
29.095
29.1254
29.1232
29.1614
29.1187
29.1235
29.0299
28.98
28.9153
28.8916
28.8883
28.9407
29.0208
29.1089
29.1889
29.2463
29.2987
29.338
29.4116
29.417
28.4959
28.5138
28.6177
28.7032
28.7891
28.8624
28.9255
28.9827
29.027
29.0685
29.0842
29.1137
29.105
29.1377
29.0829
29.0805
28.9739
28.9166
28.8453
28.8198
28.816
28.8705
28.9561
29.0535
29.147
29.2198
29.2861
29.3381
29.414
29.4271
28.4757
28.4874
28.5873
28.6725
28.7601
28.8371
28.9037
28.9637
29.0125
29.0567
29.0737
29.1026
29.0875
29.1147
29.0481
29.0385
28.9188
28.8533
28.7746
28.7476
28.7425
28.796
28.8872
28.9949
29.1019
29.19
29.2698
29.3355
29.415
29.438
28.4525
28.462
28.5583
28.6436
28.7321
28.8131
28.8837
28.9465
28.9988
29.0464
29.0644
29.0925
29.0718
29.0935
29.0153
28.9987
28.8662
28.7916
28.7055
28.6762
28.6668
28.7182
28.8154
28.9332
29.051
29.1532
29.2488
29.3288
29.4141
29.4485
28.4242
28.4356
28.5295
28.6164
28.7072
28.7918
28.8663
28.9319
28.9875
29.0389
29.0571
29.0846
29.0589
29.0754
28.9861
28.9629
28.8181
28.7347
28.6391
28.6035
28.5881
28.6404
28.7417
28.8663
28.9945
29.1121
29.2237
29.3168
29.4087
29.4571
28.3884
28.4054
28.4999
28.5905
28.6853
28.7745
28.8525
28.921
28.9795
29.0339
29.0532
29.0803
29.0506
29.0621
28.9625
28.9334
28.7768
28.6836
28.5752
28.5283
28.5109
28.5659
28.67
28.7991
28.936
29.068
29.1926
29.298
29.3976
29.4625
28.3432
28.3699
28.4681
28.5646
28.6654
28.7609
28.8422
28.9146
28.9753
29.0325
29.0538
29.0819
29.0492
29.0561
28.9475
28.9133
28.7454
28.6403
28.5175
28.4586
28.4435
28.4969
28.6009
28.7326
28.8755
29.017
29.154
29.2729
29.3808
29.4642
28.2859
28.326
28.4315
28.5352
28.6435
28.7475
28.8365
28.9134
28.9809
29.0438
29.0654
29.0928
29.0582
29.0605
28.9448
28.9069
28.7288
28.6131
28.476
28.4051
28.384
28.4326
28.5329
28.6654
28.8125
28.9613
29.1076
29.2403
29.3584
29.4597
28.2099
28.2725
28.3881
28.5028
28.6209
28.7344
28.8343
28.9262
29.004
29.0687
29.0897
29.1156
29.0798
29.0791
28.9586
28.9179
28.726
28.6019
28.4488
28.3664
28.3337
28.378
28.4727
28.6028
28.7508
28.904
29.0563
29.1992
29.3299
29.4465
28.1169
28.2152
28.3444
28.4717
28.6006
28.7265
28.8412
28.9535
29.041
29.1089
29.1297
29.1531
29.1168
29.1132
28.9892
28.947
28.7448
28.6047
28.4374
28.3459
28.3017
28.3398
28.4266
28.551
28.6961
28.8502
29.0069
29.1578
29.2966
29.4327
28.0113
28.154
28.3012
28.444
28.586
28.7238
28.8595
28.992
29.091
29.164
29.186
29.208
29.1722
29.1663
29.0407
28.9985
28.7879
28.6398
28.4582
28.3459
28.2899
28.3177
28.3958
28.5128
28.6539
28.8081
28.9653
29.1203
29.2641
29.4144
27.9196
28.1064
28.2681
28.4261
28.5804
28.7365
28.8974
29.0435
29.1547
29.2348
29.2605
29.2835
29.2494
29.2452
29.1208
29.0832
28.8715
28.7194
28.5253
28.398
28.3251
28.3401
28.4071
28.5164
28.6497
28.7994
28.9535
29.1083
29.2521
29.4096
27.855
28.0733
28.249
28.4221
28.598
28.7774
28.9516
29.1097
29.2353
29.3264
29.3591
29.3861
29.3555
29.3563
29.2336
29.2043
28.991
28.8344
28.6287
28.4859
28.394
28.3955
28.4472
28.5421
28.668
28.8125
28.9627
29.1157
29.2589
29.4205
27.8815
28.1249
28.3156
28.502
28.6846
28.8681
29.0442
29.2054
29.3382
29.439
29.4809
29.5143
29.4883
29.4958
29.3769
29.3611
29.1508
28.9969
28.7866
28.633
28.5256
28.5118
28.5518
28.6331
28.7463
28.8829
29.0283
29.1796
29.322
29.4891
28.0119
28.2399
28.4318
28.6216
28.8045
28.9845
29.1552
29.3129
29.4466
29.5531
29.6103
29.6566
29.6397
29.6593
29.5501
29.5604
29.3636
29.2231
29.0178
28.8632
28.7462
28.7158
28.7406
28.8077
28.9059
29.0325
29.1729
29.3251
29.4729
29.6423
28.8866
28.7928
28.8093
28.8106
28.8308
28.8564
28.8817
28.9062
28.9254
28.954
28.9822
29.0375
29.0803
29.1481
29.1716
29.2059
29.1681
29.1443
29.1197
29.1377
29.1813
29.2565
29.3195
29.3721
29.3266
29.2601
29.2516
29.3315
29.4995
29.7841
28.8439
28.7664
28.8005
28.8145
28.8462
28.8758
28.9027
28.9272
28.9461
28.9746
29.0031
29.0588
29.1011
29.1689
29.1919
29.2271
29.1903
29.1681
29.1417
29.1558
29.1946
29.2677
29.3283
29.3822
29.3382
29.2712
29.254
29.316
29.4507
29.6717
28.7972
28.7492
28.7903
28.8127
28.8526
28.888
28.9168
28.9422
28.9618
28.9908
29.0197
29.0753
29.116
29.1828
29.2017
29.2344
29.1936
29.1686
29.1408
29.1529
29.1954
29.2706
29.3316
29.3852
29.3442
29.2763
29.256
29.3067
29.4406
29.6043
28.7446
28.7284
28.7744
28.8064
28.8517
28.8932
28.927
28.9538
28.9745
29.0044
29.0336
29.0892
29.1277
29.194
29.2085
29.2382
29.1909
29.1642
29.1328
29.1406
29.1818
29.2642
29.3293
29.382
29.3508
29.2816
29.2577
29.289
29.4129
29.5436
28.6952
28.7082
28.7577
28.7983
28.8479
28.8923
28.9296
28.9604
28.9828
29.0137
29.0431
29.0985
29.1342
29.1993
29.2081
29.2334
29.1769
29.1479
29.113
29.1177
29.1583
29.2442
29.3164
29.3734
29.3512
29.2895
29.26
29.2769
29.3901
29.4935
28.6529
28.6851
28.7381
28.7881
28.8427
28.89
28.9288
28.9621
28.9873
29.0202
29.0488
29.1046
29.1352
29.1992
29.2015
29.2215
29.1551
29.1219
29.0832
29.0853
29.1268
29.2169
29.2958
29.3603
29.3489
29.2956
29.2615
29.2701
29.3694
29.4532
28.6259
28.6652
28.7173
28.7744
28.8341
28.8856
28.9269
28.9615
28.9881
29.0229
29.0506
29.1067
29.1337
29.1966
29.1897
29.2028
29.1253
29.0872
29.0442
29.0444
29.0877
29.1832
29.2703
29.3423
29.3439
29.2974
29.2652
29.2659
29.3511
29.4197
28.6059
28.6483
28.6998
28.7612
28.8241
28.8786
28.9227
28.9597
28.9873
29.0232
29.0503
29.1065
29.1306
29.1911
29.1739
29.1787
29.0876
29.0437
28.9964
28.9955
29.0414
29.1433
29.2393
29.3191
29.3365
29.2971
29.2699
29.2633
29.3369
29.3902
28.5853
28.6301
28.6831
28.7478
28.8134
28.8706
28.917
28.9567
28.9857
29.0228
29.0494
29.1057
29.1265
29.1836
29.1546
29.1497
29.0435
28.9916
28.9405
28.9392
28.9884
29.0973
29.2027
29.2911
29.3242
29.295
29.2751
29.2636
29.3269
29.3648
28.5633
28.6104
28.6666
28.7339
28.8022
28.8616
28.9104
28.9525
28.9832
29.0219
29.0481
29.1047
29.1212
29.1745
29.1324
29.1166
28.9938
28.933
28.8772
28.8757
28.9289
29.0453
29.1607
29.2587
29.3075
29.2908
29.2791
29.2649
29.324
29.3423
28.5396
28.5884
28.6495
28.7187
28.7896
28.8517
28.9026
28.9471
28.9798
29.0206
29.0467
29.1037
29.1156
29.1644
29.108
29.0798
28.9384
28.8688
28.807
28.8055
28.8631
28.9875
29.1131
29.2215
29.286
29.2835
29.2801
29.267
29.3247
29.3252
28.5164
28.5642
28.6316
28.7026
28.7757
28.8402
28.8937
28.9405
28.9756
29.0191
29.0453
29.1029
29.1099
29.1538
29.0818
29.04
28.8773
28.7987
28.7305
28.7292
28.7913
28.9239
29.0599
29.179
29.2582
29.2716
29.2794
29.2696
29.3257
29.3214
28.4954
28.5395
28.6138
28.686
28.7609
28.8276
28.8839
28.933
28.9707
29.0175
29.0442
29.1028
29.1047
29.1431
29.0542
28.9974
28.8117
28.7234
28.6485
28.6471
28.714
28.8548
29.0013
29.1311
29.2246
29.2553
29.2767
29.2722
29.328
29.3238
28.477
28.5152
28.597
28.6695
28.7462
28.8147
28.8731
28.9251
28.9655
29.0161
29.0436
29.1047
29.1004
29.1327
29.0257
28.9523
28.7415
28.6426
28.5612
28.5601
28.6316
28.7806
28.9374
29.0783
29.1864
29.2353
29.272
29.2747
29.3308
29.3289
28.462
28.4928
28.5807
28.6532
28.732
28.8015
28.8617
28.9173
28.9608
29.0152
29.0441
29.1088
29.0974
29.123
28.9967
28.9051
28.6675
28.5569
28.4694
28.4687
28.5443
28.7017
28.8688
29.0215
29.1443
29.2121
29.2649
29.2768
29.3342
29.3371
28.4507
28.4725
28.5639
28.6396
28.718
28.7886
28.8509
28.9101
28.9568
29.0149
29.047
29.1145
29.0959
29.1142
28.9677
28.8563
28.5919
28.468
28.3743
28.3739
28.4532
28.6178
28.7969
28.9621
29.0991
29.1867
29.2549
29.2782
29.3384
29.3477
28.4419
28.4547
28.5484
28.6283
28.7062
28.7773
28.8412
28.9038
28.954
29.017
29.0531
29.1223
29.0963
29.1069
28.9393
28.8067
28.5144
28.3773
28.2771
28.2767
28.3588
28.5324
28.7222
28.9016
29.0522
29.1583
29.2405
29.2783
29.3425
29.3602
28.4322
28.4396
28.5354
28.6167
28.6974
28.7674
28.8331
28.8988
28.9526
29.0224
29.063
29.1325
29.0991
29.1014
28.912
28.757
28.4362
28.2866
28.1793
28.1784
28.265
28.4485
28.6466
28.8394
29.0046
29.1272
29.2224
29.2761
29.3462
29.3748
28.4198
28.4269
28.5243
28.6074
28.69
28.7602
28.8275
28.8958
28.9543
29.0331
29.076
29.1455
29.1049
29.1007
28.8868
28.7087
28.3605
28.1988
28.0831
28.0827
28.1798
28.3642
28.5704
28.7746
28.9544
29.0934
29.201
29.2714
29.3496
29.3913
28.4041
28.4153
28.5141
28.6005
28.6846
28.7569
28.8249
28.8963
28.963
29.0489
29.0926
29.1618
29.1144
29.1028
28.8649
28.6642
28.2909
28.1176
27.9924
28.0015
28.1002
28.2781
28.4915
28.7062
28.8985
29.0537
29.176
29.2652
29.3526
29.4086
28.3831
28.4033
28.5048
28.5957
28.6831
28.7567
28.827
28.9062
28.9804
29.0696
29.1135
29.1821
29.1282
29.1084
28.8479
28.6267
28.2316
28.0502
27.9203
27.9314
28.014
28.1911
28.4092
28.633
28.8381
29.0101
29.1504
29.2581
29.3555
29.4259
28.3551
28.3894
28.495
28.5918
28.6861
28.7659
28.8408
28.9266
29.0055
29.0971
29.1401
29.2072
29.1474
29.119
28.8381
28.6014
28.1908
28.0084
27.8648
27.8579
27.9277
28.1051
28.3272
28.56
28.7792
28.9681
29.1247
29.2501
29.3586
29.443
28.3184
28.3721
28.4835
28.5873
28.6881
28.7813
28.8677
28.957
29.0397
29.1335
29.1743
29.2375
29.1728
29.1377
28.8401
28.5952
28.1749
27.9847
27.814
27.7893
27.8575
28.0291
28.25
28.4914
28.7243
28.9282
29.1
29.2412
29.3618
29.4598
28.2721
28.3521
28.4713
28.5837
28.6951
28.8028
28.9022
28.9983
29.0853
29.1802
29.2191
29.2765
29.2065
29.1662
28.8534
28.6113
28.1721
27.9729
27.7847
27.7482
27.8076
27.9679
28.1829
28.4277
28.6738
28.8922
29.0773
29.2329
29.3647
29.479
28.2173
28.329
28.4577
28.5816
28.7061
28.8296
28.9449
29.0508
29.1432
29.2393
29.2769
29.3286
29.2541
29.2101
28.8849
28.6512
28.2003
27.9934
27.7817
27.7377
27.7847
27.9343
28.1415
28.3821
28.6281
28.8585
29.0577
29.2267
29.3687
29.498
28.1565
28.3037
28.4438
28.5799
28.7197
28.8629
28.9946
29.1134
29.2135
29.3118
29.3488
29.3961
29.3194
29.2736
28.9389
28.7211
28.2543
28.0394
27.808
27.7491
27.788
27.9297
28.1285
28.3658
28.6092
28.839
29.0431
29.2235
29.374
29.5162
28.1022
28.2819
28.4343
28.5853
28.7431
28.9046
29.0521
29.1862
29.2957
29.3974
29.4352
29.4801
29.4027
29.359
29.0172
28.817
28.3329
28.1164
27.867
27.7903
27.8123
27.9437
28.1359
28.368
28.6068
28.8367
29.0445
29.2291
29.3853
29.5382
28.0636
28.2679
28.4333
28.6072
28.7828
28.9577
29.1193
29.2678
29.3877
29.4938
29.5347
29.581
29.5025
29.4639
29.1165
28.9475
28.4587
28.2482
27.9841
27.8921
27.8972
28.0019
28.172
28.3921
28.6233
28.8498
29.0567
29.2437
29.4041
29.5673
28.0689
28.2875
28.4701
28.6559
28.8385
29.02
29.1905
29.3503
29.4819
29.5951
29.6405
29.6911
29.6117
29.5822
29.2341
29.1101
28.6186
28.418
28.1439
28.0396
28.0243
28.1057
28.2483
28.4453
28.6641
28.8841
29.0895
29.28
29.4494
29.6255
28.1275
28.3402
28.5274
28.7165
28.9005
29.083
29.256
29.4195
29.5567
29.6757
29.7293
29.7855
29.7066
29.6912
29.3538
29.2907
28.8094
28.627
28.3504
28.24
28.2036
28.2634
28.3768
28.5464
28.7424
28.9466
29.1449
29.3362
29.5123
29.6946
29.0772
28.7566
28.7165
28.6559
28.6437
28.6608
28.6891
28.7256
28.7593
28.8091
28.8532
28.9335
28.9904
29.0928
29.1252
29.185
29.1146
29.0722
29.0296
29.0538
29.1061
29.2137
29.3267
29.4718
29.4637
29.4095
29.4012
29.4519
29.5746
29.8365
28.9872
28.672
28.6761
28.6408
28.649
28.6763
28.7094
28.7477
28.7823
28.8326
28.877
28.958
29.0144
29.118
29.1499
29.2122
29.1431
29.1009
29.0527
29.0691
29.1158
29.2234
29.3342
29.4802
29.4816
29.4182
29.3962
29.4312
29.5157
29.737
28.8921
28.6267
28.6434
28.6279
28.6487
28.686
28.7243
28.7646
28.8007
28.8521
28.8969
28.9788
29.0336
29.1384
29.1664
29.2299
29.156
29.112
29.0598
29.0729
29.1203
29.2287
29.3373
29.483
29.4776
29.416
29.3902
29.4203
29.4959
29.6668
28.7803
28.5699
28.6024
28.6086
28.6435
28.6869
28.7332
28.7777
28.8157
28.8685
28.9137
28.9972
29.0502
29.1579
29.1817
29.2478
29.1664
29.1181
29.0576
29.0646
29.1115
29.2252
29.3323
29.4686
29.4744
29.4117