/*--------------------------------*- C++ -*----------------------------------*\
  =========                 |
  \\      /  F ield         | OpenFOAM: The Open Source CFD Toolbox
   \\    /   O peration     | Website:  https://openfoam.org
    \\  /    A nd           | Version:  12
     \\/     M anipulation  |
\*---------------------------------------------------------------------------*/
FoamFile
{
    format      ascii;
    class       volScalarField;
    location    "1450/porous";
    object      rho;
}
// * * * * * * * * * * * * * * * * * * * * * * * * * * * * * * * * * * * * * //

dimensions      [1 -3 0 0 0 0 0];

internalField   nonuniform List<scalar> 
140000
(
933.891
933.891
933.891
933.891
933.891
933.891
933.891
933.891
933.892
933.898
934.181
934.403
934.602
934.789
934.968
935.141
935.312
935.478
935.643
935.805
935.965
936.123
936.28
936.435
936.589
936.741
936.892
937.041
937.189
937.335
937.479
937.622
937.763
937.903
938.04
938.177
938.311
938.445
938.577
938.708
938.837
938.966
939.093
939.219
939.344
939.467
939.589
939.71
939.829
939.947
940.064
940.178
940.291
940.402
940.51
940.616
940.719
940.818
940.911
940.977
940.582
940.329
940.135
939.973
939.833
939.71
939.6
939.5
939.409
939.329
933.891
933.891
933.891
933.891
933.891
933.891
933.891
933.891
933.891
933.896
934.112
934.288
934.447
934.597
934.742
934.883
935.022
935.158
935.293
935.426
935.558
935.689
935.819
935.948
936.077
936.204
936.331
936.457
936.582
936.707
936.831
936.954
937.076
937.198
937.319
937.439
937.558
937.677
937.795
937.913
938.03
938.146
938.262
938.377
938.492
938.606
938.719
938.831
938.942
939.052
939.161
939.269
939.376
939.481
939.585
939.686
939.785
939.882
939.975
940.05
939.813
939.658
939.535
939.431
939.34
939.257
939.182
939.113
939.048
938.99
933.891
933.891
933.891
933.891
933.891
933.891
933.891
933.891
933.891
933.895
934.094
934.252
934.393
934.525
934.651
934.774
934.893
935.009
935.124
935.237
935.348
935.458
935.567
935.676
935.783
935.89
935.995
936.1
936.205
936.309
936.412
936.515
936.617
936.719
936.821
936.922
937.022
937.122
937.222
937.321
937.42
937.519
937.618
937.717
937.815
937.912
938.01
938.106
938.202
938.298
938.392
938.486
938.579
938.671
938.761
938.851
938.938
939.023
939.105
939.176
938.986
938.867
938.777
938.702
938.637
938.58
938.529
938.482
938.439
938.4
933.891
933.891
933.891
933.891
933.891
933.891
933.891
933.891
933.891
933.895
934.089
934.243
934.378
934.505
934.624
934.739
934.851
934.959
935.065
935.169
935.271
935.372
935.471
935.569
935.666
935.762
935.857
935.951
936.045
936.137
936.229
936.32
936.411
936.501
936.59
936.679
936.767
936.855
936.943
937.03
937.116
937.203
937.289
937.376
937.461
937.547
937.632
937.716
937.8
937.883
937.966
938.047
938.128
938.208
938.287
938.364
938.44
938.513
938.585
938.646
938.468
938.356
938.272
938.203
938.144
938.092
938.046
938.005
937.967
937.933
933.891
933.891
933.891
933.891
933.891
933.891
933.891
933.891
933.891
933.895
934.088
934.24
934.374
934.499
934.617
934.73
934.839
934.944
935.047
935.148
935.247
935.344
935.439
935.533
935.626
935.717
935.808
935.897
935.986
936.073
936.16
936.246
936.331
936.415
936.499
936.582
936.664
936.746
936.827
936.908
936.989
937.069
937.149
937.228
937.307
937.386
937.464
937.541
937.618
937.694
937.77
937.844
937.918
937.99
938.061
938.131
938.199
938.266
938.329
938.384
938.209
938.097
938.012
937.943
937.884
937.831
937.785
937.743
937.704
937.67
933.891
933.891
933.891
933.891
933.891
933.891
933.891
933.891
933.891
933.895
934.088
934.24
934.374
934.499
934.616
934.729
934.837
934.942
935.044
935.144
935.242
935.338
935.432
935.524
935.615
935.705
935.794
935.882
935.968
936.054
936.138
936.222
936.305
936.387
936.468
936.548
936.628
936.707
936.785
936.863
936.941
937.018
937.095
937.171
937.247
937.322
937.397
937.471
937.545
937.617
937.689
937.76
937.83
937.898
937.965
938.031
938.095
938.157
938.217
938.268
938.093
937.981
937.896
937.825
937.765
937.711
937.663
937.62
937.58
937.545
933.891
933.891
933.891
933.891
933.891
933.891
933.891
933.891
933.891
933.895
934.088
934.24
934.374
934.499
934.616
934.729
934.837
934.943
935.045
935.144
935.242
935.338
935.431
935.524
935.614
935.704
935.792
935.879
935.965
936.05
936.133
936.216
936.298
936.379
936.459
936.539
936.617
936.695
936.773
936.849
936.926
937.002
937.077
937.152
937.227
937.3
937.374
937.446
937.518
937.589
937.659
937.728
937.796
937.863
937.928
937.992
938.054
938.114
938.172
938.22
938.046
937.934
937.848
937.777
937.715
937.661
937.613
937.568
937.528
937.491
933.891
933.891
933.891
933.891
933.891
933.891
933.891
933.891
933.891
933.895
934.088
934.24
934.375
934.499
934.617
934.73
934.839
934.944
935.047
935.147
935.244
935.34
935.434
935.526
935.617
935.706
935.794
935.881
935.967
936.051
936.135
936.218
936.299
936.38
936.46
936.539
936.617
936.695
936.771
936.848
936.923
936.999
937.074
937.148
937.222
937.296
937.368
937.44
937.511
937.582
937.651
937.719
937.787
937.852
937.917
937.98
938.041
938.1
938.156
938.203
938.029
937.917
937.831
937.759
937.697
937.643
937.594
937.549
937.508
937.471
933.891
933.891
933.891
933.891
933.891
933.891
933.891
933.891
933.891
933.895
934.089
934.241
934.375
934.5
934.618
934.731
934.84
934.946
935.048
935.148
935.246
935.342
935.436
935.529
935.62
935.709
935.797
935.884
935.97
936.055
936.138
936.221
936.302
936.383
936.463
936.542
936.62
936.697
936.774
936.85
936.925
937.001
937.075
937.15
937.224
937.297
937.369
937.441
937.512
937.582
937.651
937.719
937.786
937.851
937.915
937.978
938.038
938.096
938.152
938.199
938.025
937.913
937.826
937.755
937.693
937.638
937.589
937.544
937.503
937.465
933.891
933.891
933.891
933.891
933.891
933.891
933.891
933.891
933.891
933.895
934.089
934.241
934.376
934.5
934.619
934.732
934.841
934.947
935.05
935.15
935.248
935.344
935.439
935.531
935.622
935.712
935.8
935.887
935.973
936.058
936.141
936.224
936.306
936.386
936.466
936.545
936.623
936.7
936.777
936.853
936.929
937.004
937.079
937.153
937.227
937.3
937.372
937.444
937.515
937.585
937.654
937.722
937.789
937.854
937.918
937.98
938.04
938.098
938.153
938.2
938.026
937.913
937.827
937.755
937.693
937.639
937.589
937.544
937.503
937.465
933.891
933.891
933.891
933.891
933.891
933.891
933.891
933.891
933.891
933.895
934.089
934.241
934.376
934.501
934.619
934.732
934.842
934.948
935.051
935.151
935.25
935.346
935.441
935.533
935.624
935.714
935.803
935.89
935.976
936.061
936.144
936.227
936.309
936.389
936.469
936.548
936.626
936.703
936.78
936.856
936.932
937.007
937.082
937.156
937.23
937.303
937.376
937.448
937.519
937.589
937.658
937.725
937.792
937.857
937.921
937.983
938.043
938.101
938.156
938.202
938.029
937.916
937.829
937.758
937.696
937.641
937.591
937.546
937.505
937.468
933.891
933.891
933.891
933.891
933.891
933.891
933.891
933.891
933.891
933.895
934.089
934.242
934.376
934.501
934.619
934.733
934.842
934.948
935.052
935.153
935.251
935.347
935.442
935.535
935.626
935.716
935.805
935.892
935.978
936.063
936.147
936.229
936.311
936.392
936.471
936.55
936.628
936.706
936.782
936.859
936.934
937.01
937.085
937.159
937.233
937.307
937.379
937.451
937.522
937.592
937.661
937.729
937.796
937.861
937.924
937.986
938.046
938.104
938.159
938.205
938.031
937.919
937.832
937.76
937.698
937.643
937.594
937.549
937.507
937.47
933.891
933.891
933.891
933.891
933.891
933.891
933.891
933.891
933.891
933.895
934.089
934.241
934.376
934.501
934.619
934.733
934.842
934.949
935.052
935.153
935.252
935.348
935.443
935.536
935.627
935.717
935.806
935.893
935.979
936.064
936.148
936.231
936.313
936.393
936.473
936.552
936.63
936.707
936.784
936.861
936.937
937.012
937.087
937.162
937.236
937.309
937.382
937.453
937.524
937.594
937.664
937.732
937.798
937.863
937.927
937.989
938.049
938.106
938.161
938.207
938.033
937.921
937.834
937.763
937.701
937.646
937.596
937.551
937.51
937.472
933.891
933.891
933.891
933.891
933.891
933.891
933.891
933.891
933.891
933.895
934.089
934.242
934.376
934.501
934.619
934.733
934.842
934.949
935.052
935.153
935.252
935.349
935.444
935.537
935.628
935.718
935.807
935.894
935.981
936.066
936.149
936.232
936.314
936.394
936.474
936.553
936.631
936.709
936.786
936.862
936.938
937.014
937.089
937.164
937.238
937.311
937.384
937.455
937.526
937.597
937.666
937.734
937.8
937.866
937.929
937.991
938.051
938.108
938.163
938.209
938.035
937.923
937.836
937.764
937.702
937.647
937.598
937.553
937.511
937.474
933.891
933.891
933.891
933.891
933.891
933.891
933.891
933.891
933.891
933.895
934.089
934.241
934.376
934.5
934.619
934.732
934.842
934.949
935.052
935.154
935.252
935.349
935.444
935.537
935.629
935.719
935.808
935.895
935.981
936.066
936.15
936.233
936.314
936.395
936.475
936.554
936.632
936.71
936.786
936.863
936.939
937.015
937.09
937.165
937.239
937.312
937.385
937.457
937.528
937.598
937.667
937.735
937.802
937.867
937.931
937.992
938.052
938.11
938.164
938.21
938.036
937.924
937.837
937.765
937.703
937.648
937.599
937.554
937.512
937.475
933.891
933.891
933.891
933.891
933.891
933.891
933.891
933.891
933.891
933.895
934.089
934.241
934.375
934.5
934.618
934.732
934.842
934.948
935.052
935.153
935.252
935.349
935.444
935.538
935.629
935.719
935.808
935.895
935.981
936.066
936.15
936.233
936.315
936.395
936.475
936.554
936.632
936.71
936.787
936.864
936.94
937.016
937.091
937.166
937.24
937.313
937.386
937.458
937.529
937.599
937.668
937.736
937.803
937.868
937.931
937.993
938.053
938.11
938.165
938.211
938.037
937.924
937.838
937.766
937.704
937.649
937.6
937.555
937.513
937.476
933.891
933.891
933.891
933.891
933.891
933.891
933.891
933.891
933.891
933.895
934.089
934.241
934.375
934.5
934.618
934.732
934.842
934.948
935.052
935.153
935.252
935.349
935.444
935.538
935.629
935.719
935.808
935.895
935.981
936.066
936.15
936.233
936.314
936.395
936.475
936.554
936.633
936.71
936.787
936.864
936.94
937.016
937.091
937.166
937.24
937.313
937.386
937.458
937.529
937.6
937.669
937.737
937.803
937.869
937.932
937.994
938.053
938.111
938.165
938.211
938.037
937.925
937.838
937.766
937.704
937.649
937.6
937.555
937.513
937.476
933.891
933.891
933.891
933.891
933.891
933.891
933.891
933.891
933.891
933.895
934.088
934.241
934.375
934.5
934.618
934.731
934.841
934.948
935.052
935.153
935.252
935.349
935.444
935.538
935.629
935.719
935.808
935.895
935.981
936.066
936.15
936.233
936.314
936.395
936.475
936.554
936.633
936.71
936.787
936.864
936.94
937.016
937.091
937.166
937.24
937.314
937.386
937.458
937.53
937.6
937.669
937.737
937.804
937.869
937.932
937.994
938.053
938.111
938.165
938.211
938.037
937.925
937.838
937.766
937.704
937.649
937.6
937.555
937.513
937.476
933.891
933.891
933.891
933.891
933.891
933.891
933.891
933.891
933.891
933.895
934.089
934.241
934.375
934.499
934.617
934.731
934.841
934.947
935.051
935.153
935.252
935.349
935.444
935.537
935.629
935.719
935.808
935.895
935.981
936.066
936.15
936.232
936.314
936.395
936.475
936.554
936.633
936.711
936.787
936.864
936.94
937.016
937.091
937.166
937.24
937.314
937.387
937.458
937.53
937.6
937.669
937.737
937.804
937.869
937.932
937.994
938.053
938.111
938.165
938.211
938.037
937.924
937.838
937.766
937.704
937.649
937.6
937.555
937.513
937.476
933.891
933.891
933.891
933.891
933.891
933.891
933.891
933.891
933.891
933.895
934.088
934.241
934.375
934.499
934.617
934.73
934.84
934.947
935.051
935.152
935.251
935.349
935.444
935.537
935.629
935.719
935.808
935.895
935.981
936.066
936.15
936.232
936.314
936.395
936.475
936.555
936.633
936.711
936.788
936.864
936.941
937.016
937.092
937.166
937.241
937.314
937.387
937.459
937.53
937.6
937.669
937.737
937.804
937.869
937.932
937.994
938.053
938.111
938.165
938.211
938.037
937.924
937.838
937.766
937.704
937.649
937.6
937.555
937.513
937.475
933.891
933.891
933.891
933.891
933.891
933.891
933.891
933.891
933.891
933.895
934.088
934.24
934.374
934.498
934.616
934.73
934.84
934.946
935.05
935.152
935.251
935.348
935.444
935.537
935.629
935.719
935.808
935.895
935.981
936.066
936.149
936.232
936.314
936.395
936.476
936.555
936.634
936.712
936.789
936.865
936.941
937.017
937.092
937.167
937.241
937.314
937.387
937.459
937.53
937.6
937.669
937.737
937.804
937.869
937.933
937.994
938.054
938.111
938.165
938.211
938.037
937.924
937.838
937.766
937.704
937.649
937.6
937.555
937.513
937.476
933.891
933.891
933.891
933.891
933.891
933.891
933.891
933.891
933.891
933.895
934.088
934.24
934.374
934.498
934.616
934.729
934.839
934.946
935.05
935.152
935.251
935.348
935.444
935.537
935.629
935.719
935.808
935.895
935.981
936.066
936.15
936.232
936.315
936.396
936.476
936.556
936.635
936.712
936.79
936.866
936.942
937.018
937.093
937.167
937.241
937.315
937.387
937.459
937.53
937.601
937.67
937.738
937.804
937.869
937.933
937.994
938.054
938.111
938.165
938.211
938.037
937.925
937.838
937.766
937.704
937.649
937.6
937.555
937.513
937.476
933.891
933.891
933.891
933.891
933.891
933.891
933.891
933.891
933.891
933.895
934.088
934.24
934.374
934.498
934.616
934.729
934.839
934.946
935.05
935.151
935.251
935.348
935.443
935.537
935.629
935.719
935.808
935.895
935.981
936.066
936.15
936.233
936.315
936.396
936.477
936.556
936.635
936.713
936.79
936.867
936.943
937.018
937.093
937.168
937.242
937.315
937.388
937.46
937.531
937.601
937.67
937.738
937.805
937.87
937.933
937.995
938.054
938.111
938.166
938.211
938.038
937.925
937.838
937.767
937.705
937.65
937.6
937.555
937.513
937.476
933.891
933.891
933.891
933.891
933.891
933.891
933.891
933.891
933.891
933.895
934.088
934.24
934.373
934.498
934.615
934.729
934.838
934.945
935.049
935.151
935.25
935.348
935.443
935.537
935.629
935.719
935.808
935.895
935.981
936.066
936.15
936.233
936.315
936.397
936.477
936.557
936.636
936.714
936.791
936.867
936.943
937.018
937.093
937.168
937.242
937.315
937.388
937.46
937.531
937.601
937.67
937.738
937.805
937.87
937.933
937.995
938.054
938.111
938.166
938.211
938.038
937.925
937.839
937.767
937.705
937.65
937.6
937.555
937.514
937.476
933.891
933.891
933.891
933.891
933.891
933.891
933.891
933.891
933.891
933.895
934.088
934.24
934.373
934.497
934.615
934.729
934.838
934.945
935.049
935.151
935.25
935.348
935.443
935.537
935.629
935.719
935.808
935.896
935.982
936.066
936.15
936.233
936.316
936.397
936.477
936.557
936.636
936.714
936.791
936.867
936.943
937.019
937.093
937.168
937.242
937.315
937.388
937.459
937.531
937.601
937.67
937.738
937.804
937.87
937.933
937.995
938.054
938.111
938.166
938.211
938.038
937.925
937.839
937.767
937.705
937.65
937.6
937.555
937.514
937.476
933.891
933.891
933.891
933.891
933.891
933.891
933.891
933.891
933.891
933.895
934.088
934.239
934.373
934.497
934.615
934.728
934.838
934.945
935.049
935.15
935.25
935.347
935.443
935.537
935.629
935.719
935.808
935.896
935.982
936.067
936.15
936.233
936.316
936.397
936.477
936.557
936.636
936.714
936.791
936.867
936.943
937.018
937.093
937.168
937.241
937.315
937.387
937.459
937.53
937.6
937.669
937.737
937.804
937.869
937.933
937.995
938.054
938.112
938.166
938.212
938.038
937.926
937.839
937.767
937.705
937.65
937.6
937.555
937.514
937.476
933.891
933.891
933.891
933.891
933.891
933.891
933.891
933.891
933.891
933.895
934.088
934.239
934.373
934.497
934.614
934.728
934.838
934.944
935.048
935.15
935.25
935.347
935.443
935.537
935.629
935.719
935.808
935.896
935.982
936.067
936.15
936.233
936.315
936.397
936.477
936.557
936.636
936.714
936.791
936.867
936.943
937.018
937.093
937.167
937.241
937.314
937.387
937.459
937.53
937.6
937.669
937.737
937.804
937.869
937.932
937.994
938.054
938.111
938.166
938.212
938.038
937.925
937.839
937.767
937.705
937.65
937.6
937.555
937.514
937.476
933.891
933.891
933.891
933.891
933.891
933.891
933.891
933.891
933.891
933.895
934.088
934.239
934.373
934.497
934.614
934.728
934.837
934.944
935.048
935.15
935.249
935.347
935.443
935.536
935.629
935.719
935.808
935.896
935.982
936.067
936.15
936.233
936.315
936.396
936.477
936.556
936.635
936.713
936.79
936.866
936.942
937.017
937.092
937.166
937.24
937.313
937.386
937.458
937.529
937.599
937.668
937.736
937.803
937.868
937.932
937.994
938.054
938.111
938.166
938.212
938.038
937.925
937.839
937.767
937.705
937.65
937.6
937.555
937.514
937.476
933.891
933.891
933.891
933.891
933.891
933.891
933.891
933.891
933.891
933.895
934.088
934.239
934.372
934.496
934.614
934.727
934.837
934.944
935.048
935.15
935.249
935.347
935.442
935.536
935.628
935.719
935.808
935.895
935.982
936.066
936.15
936.233
936.315
936.396
936.476
936.556
936.634
936.712
936.789
936.865
936.941
937.017
937.091
937.166
937.239
937.312
937.385
937.457
937.528
937.598
937.667
937.736
937.802
937.868
937.932
937.993
938.053
938.111
938.166
938.212
938.038
937.925
937.839
937.767
937.705
937.65
937.6
937.555
937.513
937.476
933.891
933.891
933.891
933.891
933.891
933.891
933.891
933.891
933.891
933.895
934.087
934.239
934.372
934.496
934.614
934.727
934.837
934.944
935.048
935.149
935.249
935.346
935.442
935.536
935.628
935.719
935.808
935.895
935.981
936.066
936.15
936.232
936.314
936.395
936.475
936.555
936.634
936.711
936.788
936.864
936.94
937.016
937.09
937.165
937.238
937.311
937.384
937.456
937.527
937.597
937.666
937.735
937.802
937.867
937.931
937.993
938.053
938.111
938.166
938.212
938.038
937.925
937.838
937.767
937.704
937.649
937.6
937.555
937.513
937.476
933.891
933.891
933.891
933.891
933.891
933.891
933.891
933.891
933.891
933.895
934.087
934.239
934.372
934.496
934.614
934.727
934.837
934.943
935.047
935.149
935.249
935.346
935.442
935.535
935.628
935.718
935.807
935.895
935.981
936.066
936.149
936.232
936.313
936.394
936.475
936.554
936.633
936.71
936.787
936.863
936.939
937.015
937.089
937.164
937.237
937.311
937.383
937.455
937.526
937.596
937.666
937.734
937.801
937.867
937.931
937.993
938.053
938.111
938.166
938.212
938.038
937.925
937.839
937.767
937.705
937.649
937.6
937.555
937.513
937.476
933.891
933.891
933.891
933.891
933.891
933.891
933.891
933.891
933.891
933.895
934.087
934.239
934.372
934.496
934.614
934.727
934.836
934.943
935.047
935.149
935.248
935.345
935.441
935.535
935.627
935.718
935.807
935.894
935.98
936.065
936.149
936.231
936.313
936.393
936.474
936.553
936.631
936.709
936.786
936.862
936.938
937.014
937.089
937.163
937.237
937.31
937.382
937.454
937.525
937.596
937.665
937.733
937.8
937.866
937.93
937.993
938.053
938.111
938.166
938.213
938.038
937.925
937.839
937.767
937.705
937.65
937.6
937.555
937.513
937.476
933.891
933.891
933.891
933.891
933.891
933.891
933.891
933.891
933.891
933.895
934.087
934.238
934.372
934.496
934.613
934.726
934.836
934.942
935.046
935.148
935.247
935.345
935.44
935.534
935.626
935.717
935.806
935.893
935.98
936.064
936.148
936.23
936.312
936.392
936.472
936.552
936.63
936.708
936.785
936.861
936.937
937.013
937.088
937.162
937.236
937.309
937.382
937.453
937.525
937.595
937.664
937.733
937.8
937.866
937.93
937.993
938.053
938.111
938.167
938.213
938.039
937.926
937.839
937.767
937.705
937.65
937.6
937.555
937.513
937.476
933.891
933.891
933.891
933.891
933.891
933.891
933.891
933.891
933.891
933.895
934.087
934.239
934.372
934.496
934.613
934.726
934.835
934.942
935.046
935.147
935.247
935.344
935.439
935.533
935.625
935.716
935.805
935.892
935.978
936.063
936.147
936.229
936.311
936.391
936.471
936.55
936.629
936.707
936.784
936.861
936.937
937.012
937.087
937.161
937.235
937.308
937.381
937.453
937.524
937.594
937.664
937.732
937.8
937.866
937.93
937.993
938.053
938.111
938.167
938.214
938.039
937.926
937.839
937.767
937.705
937.65
937.6
937.555
937.514
937.476
933.891
933.891
933.891
933.891
933.891
933.891
933.891
933.891
933.891
933.895
934.087
934.238
934.372
934.495
934.613
934.726
934.835
934.941
935.045
935.147
935.246
935.343
935.438
935.532
935.624
935.715
935.804
935.891
935.977
936.062
936.145
936.228
936.309
936.39
936.47
936.549
936.627
936.705
936.783
936.859
936.936
937.011
937.086
937.16
937.234
937.307
937.38
937.452
937.523
937.593
937.663
937.731
937.799
937.865
937.93
937.993
938.053
938.112
938.167
938.214
938.039
937.926
937.839
937.767
937.705
937.65
937.6
937.555
937.514
937.476
933.891
933.891
933.891
933.891
933.891
933.891
933.891
933.891
933.891
933.895
934.087
934.238
934.371
934.495
934.612
934.725
934.834
934.941
935.044
935.146
935.245
935.342
935.437
935.531
935.623
935.713
935.802
935.889
935.975
936.06
936.144
936.226
936.307
936.388
936.468
936.547
936.626
936.704
936.781
936.858
936.934
937.01
937.085
937.159
937.233
937.306
937.378
937.45
937.522
937.592
937.661
937.73
937.798
937.864
937.929
937.992
938.053
938.111
938.167
938.214
938.039
937.926
937.839
937.767
937.705
937.65
937.6
937.555
937.513
937.476
933.891
933.891
933.891
933.891
933.891
933.891
933.891
933.891
933.891
933.895
934.087
934.238
934.371
934.495
934.612
934.724
934.834
934.94
935.043
935.145
935.244
935.341
935.436
935.529
935.621
935.711
935.8
935.888
935.974
936.058
936.142
936.224
936.305
936.386
936.466
936.545
936.624
936.702
936.779
936.856
936.932
937.008
937.083
937.157
937.231
937.304
937.377
937.449
937.52
937.59
937.66
937.728
937.796
937.863
937.928
937.991
938.052
938.111
938.166
938.214
938.039
937.925
937.838
937.766
937.704
937.649
937.599
937.554
937.512
937.475
933.891
933.891
933.891
933.891
933.891
933.891
933.891
933.891
933.891
933.895
934.087
934.238
934.371
934.494
934.611
934.724
934.833
934.939
935.042
935.143
935.242
935.339
935.434
935.527
935.619
935.709
935.798
935.885
935.971
936.056
936.139
936.221
936.303
936.383
936.463
936.543
936.621
936.699
936.777
936.854
936.93
937.006
937.081
937.155
937.229
937.302
937.374
937.446
937.517
937.588
937.657
937.726
937.794
937.861
937.926
937.989
938.05
938.11
938.165
938.212
938.037
937.924
937.837
937.765
937.703
937.647
937.598
937.553
937.511
937.473
933.891
933.891
933.891
933.891
933.891
933.891
933.891
933.891
933.891
933.895
934.087
934.238
934.371
934.494
934.611
934.723
934.832
934.938
935.041
935.142
935.24
935.337
935.432
935.525
935.617
935.707
935.796
935.883
935.969
936.053
936.136
936.219
936.3
936.381
936.461
936.54
936.619
936.697
936.774
936.851
936.927
937.003
937.078
937.152
937.226
937.299
937.371
937.443
937.514
937.585
937.654
937.723
937.791
937.858
937.923
937.987
938.048
938.107
938.164
938.211
938.036
937.922
937.835
937.763
937.701
937.646
937.596
937.551
937.509
937.471
933.891
933.891
933.891
933.891
933.891
933.891
933.891
933.891
933.891
933.895
934.087
934.237
934.37
934.493
934.61
934.722
934.83
934.936
935.039
935.14
935.238
935.335
935.43
935.523
935.614
935.704
935.793
935.88
935.966
936.05
936.133
936.215
936.297
936.378
936.457
936.537
936.616
936.694
936.771
936.848
936.924
936.999
937.074
937.149
937.222
937.295
937.368
937.44
937.511
937.581
937.651
937.72
937.788
937.855
937.92
937.984
938.046
938.105
938.161
938.209
938.033
937.92
937.833
937.761
937.698
937.643
937.594
937.548
937.507
937.469
933.891
933.891
933.891
933.891
933.891
933.891
933.891
933.891
933.891
933.895
934.086
934.237
934.37
934.492
934.609
934.721
934.829
934.935
935.038
935.138
935.236
935.333
935.427
935.52
935.612
935.702
935.79
935.877
935.962
936.047
936.13
936.212
936.294
936.374
936.454
936.533
936.612
936.69
936.768
936.844
936.92
936.996
937.071
937.145
937.219
937.292
937.364
937.436
937.507
937.578
937.647
937.716
937.784
937.851
937.917
937.981
938.043
938.103
938.159
938.207
938.031
937.918
937.831
937.759
937.696
937.641
937.592
937.547
937.505
937.467
933.891
933.891
933.891
933.891
933.891
933.891
933.891
933.891
933.891
933.895
934.086
934.237
934.369
934.492
934.608
934.72
934.828
934.933
935.036
935.136
935.234
935.33
935.425
935.518
935.609
935.698
935.787
935.873
935.959
936.043
936.126
936.209
936.29
936.371
936.451
936.53
936.609
936.687
936.764
936.841
936.917
936.992
937.067
937.142
937.215
937.288
937.361
937.433
937.504
937.574
937.644
937.713
937.781
937.849
937.915
937.979
938.042
938.101
938.158
938.207
938.031
937.917
937.83
937.758
937.696
937.641
937.592
937.547
937.505
937.468
933.891
933.891
933.891
933.891
933.891
933.891
933.891
933.891
933.891
933.895
934.086
934.236
934.369
934.491
934.607
934.719
934.827
934.931
935.034
935.134
935.232
935.328
935.422
935.515
935.606
935.696
935.784
935.87
935.956
936.04
936.123
936.206
936.287
936.368
936.448
936.527
936.606
936.684
936.762
936.839
936.915
936.991
937.066
937.14
937.214
937.287
937.36
937.432
937.503
937.574
937.644
937.713
937.782
937.85
937.916
937.981
938.044
938.105
938.162
938.211
938.035
937.922
937.835
937.763
937.701
937.646
937.597
937.552
937.511
937.474
933.891
933.891
933.891
933.891
933.891
933.891
933.891
933.891
933.891
933.895
934.086
934.236
934.368
934.49
934.606
934.717
934.825
934.93
935.032
935.132
935.23
935.326
935.42
935.513
935.604
935.693
935.782
935.869
935.954
936.039
936.122
936.205
936.287
936.368
936.448
936.528
936.607
936.686
936.763
936.841
936.917
936.993
937.069
937.144
937.218
937.292
937.365
937.438
937.51
937.581
937.652
937.722
937.792
937.86
937.928
937.994
938.058
938.119
938.178
938.228
938.052
937.939
937.852
937.781
937.719
937.665
937.616
937.571
937.531
937.494
933.891
933.891
933.891
933.891
933.891
933.891
933.891
933.891
933.891
933.895
934.086
934.236
934.368
934.49
934.606
934.717
934.825
934.93
935.032
935.132
935.23
935.326
935.421
935.514
935.606
935.696
935.784
935.872
935.958
936.044
936.128
936.211
936.294
936.376
936.457
936.538
936.618
936.698
936.777
936.855
936.933
937.01
937.087
937.163
937.239
937.314
937.389
937.463
937.537
937.61
937.682
937.754
937.825
937.895
937.965
938.032
938.099
938.163
938.223
938.276
938.099
937.986
937.9
937.83
937.769
937.715
937.667
937.623
937.583
937.547
933.891
933.891
933.891
933.891
933.891
933.891
933.891
933.891
933.891
933.895
934.085
934.236
934.368
934.491
934.607
934.719
934.827
934.933
935.036
935.137
935.236
935.334
935.429
935.524
935.617
935.709
935.799
935.889
935.977
936.064
936.151
936.236
936.321
936.406
936.489
936.573
936.655
936.738
936.819
936.901
936.981
937.062
937.141
937.221
937.299
937.378
937.456
937.533
937.61
937.687
937.763
937.838
937.913
937.987
938.06
938.132
938.202
938.271
938.336
938.391
938.215
938.102
938.017
937.947
937.887
937.835
937.788
937.746
937.707
937.673
933.891
933.891
933.891
933.891
933.891
933.891
933.891
933.891
933.891
933.895
934.087
934.238
934.372
934.497
934.615
934.729
934.84
934.949
935.055
935.159
935.262
935.363
935.463
935.561
935.659
935.755
935.85
935.944
936.037
936.13
936.221
936.312
936.403
936.493
936.582
936.671
936.76
936.848
936.936
937.023
937.11
937.197
937.283
937.369
937.454
937.539
937.624
937.708
937.792
937.876
937.959
938.041
938.123
938.205
938.285
938.365
938.443
938.518
938.591
938.653
938.474
938.361
938.276
938.207
938.148
938.096
938.05
938.008
937.971
937.936
933.891
933.891
933.891
933.891
933.891
933.891
933.891
933.891
933.891
933.895
934.092
934.248
934.387
934.518
934.643
934.764
934.883
935
935.114
935.228
935.34
935.45
935.56
935.669
935.777
935.884
935.99
936.095
936.199
936.303
936.406
936.509
936.611
936.713
936.814
936.915
937.016
937.116
937.216
937.316
937.415
937.514
937.612
937.71
937.808
937.905
938.002
938.099
938.195
938.29
938.385
938.48
938.574
938.667
938.759
938.85
938.94
939.027
939.111
939.183
938.992
938.872
938.781
938.706
938.641
938.584
938.533
938.485
938.443
938.404
933.891
933.891
933.891
933.891
933.891
933.891
933.891
933.891
933.891
933.896
934.11
934.284
934.441
934.59
934.734
934.875
935.013
935.15
935.285
935.418
935.551
935.683
935.813
935.943
936.072
936.2
936.328
936.454
936.579
936.703
936.827
936.95
937.072
937.193
937.314
937.434
937.554
937.673
937.791
937.909
938.025
938.141
938.257
938.372
938.485
938.599
938.711
938.823
938.934
939.044
939.153
939.262
939.369
939.476
939.581
939.685
939.786
939.885
939.98
940.057
939.819
939.663
939.54
939.436
939.344
939.262
939.187
939.117
939.052
938.995
933.891
933.891
933.891
933.891
933.891
933.891
933.891
933.891
933.892
933.898
934.179
934.4
934.596
934.782
934.96
935.133
935.303
935.47
935.635
935.798
935.959
936.118
936.276
936.432
936.587
936.74
936.891
937.04
937.187
937.333
937.477
937.62
937.76
937.9
938.037
938.173
938.308
938.442
938.574
938.704
938.833
938.961
939.087
939.213
939.336
939.459
939.58
939.7
939.819
939.936
940.053
940.168
940.282
940.395
940.505
940.614
940.72
940.822
940.918
940.985
940.589
940.336
940.141
939.979
939.839
939.716
939.606
939.505
939.414
939.334
933.891
933.891
933.891
933.891
933.891
933.891
933.891
933.891
933.891
933.896
934.11
934.312
934.503
934.685
934.862
935.034
935.204
935.37
935.534
935.697
935.857
936.016
936.174
936.329
936.484
936.637
936.788
936.938
937.086
937.233
937.378
937.522
937.664
937.804
937.943
938.08
938.215
938.349
938.482
938.613
938.743
938.872
939
939.126
939.252
939.375
939.498
939.619
939.739
939.857
939.974
940.089
940.202
940.314
940.423
940.53
940.633
940.733
940.829
940.9
940.574
940.333
940.141
939.98
939.841
939.718
939.608
939.507
939.416
939.335
933.891
933.891
933.891
933.891
933.891
933.891
933.891
933.891
933.891
933.894
934.046
934.199
934.346
934.49
934.63
934.768
934.904
935.038
935.171
935.303
935.434
935.564
935.693
935.822
935.949
936.077
936.203
936.329
936.454
936.578
936.702
936.825
936.947
937.068
937.189
937.309
937.429
937.548
937.666
937.784
937.901
938.017
938.133
938.249
938.363
938.477
938.591
938.703
938.815
938.925
939.035
939.143
939.25
939.356
939.46
939.562
939.663
939.761
939.855
939.936
939.77
939.633
939.519
939.42
939.332
939.252
939.178
939.11
939.047
938.99
933.891
933.891
933.891
933.891
933.891
933.891
933.891
933.891
933.891
933.894
934.031
934.166
934.296
934.421
934.543
934.662
934.778
934.893
935.005
935.117
935.227
935.336
935.444
935.551
935.657
935.763
935.868
935.973
936.076
936.18
936.283
936.385
936.487
936.588
936.689
936.79
936.89
936.989
937.089
937.188
937.287
937.385
937.484
937.582
937.68
937.777
937.874
937.971
938.067
938.162
938.257
938.351
938.444
938.536
938.627
938.717
938.805
938.891
938.974
939.05
938.926
938.826
938.744
938.674
938.613
938.559
938.51
938.464
938.423
938.385
933.891
933.891
933.891