/*--------------------------------*- C++ -*----------------------------------*\
  =========                 |
  \\      /  F ield         | OpenFOAM: The Open Source CFD Toolbox
   \\    /   O peration     | Website:  https://openfoam.org
    \\  /    A nd           | Version:  12
     \\/     M anipulation  |
\*---------------------------------------------------------------------------*/
FoamFile
{
    format      ascii;
    class       volScalarField;
    location    "1450/porous";
    object      T;
}
// * * * * * * * * * * * * * * * * * * * * * * * * * * * * * * * * * * * * * //

dimensions      [0 0 0 1 0 0 0];

internalField   nonuniform List<scalar> 
140000
(
400
400
400
400
400
400
400
400
400
399.993
399.689
399.45
399.237
399.036
398.842
398.655
398.471
398.291
398.113
397.937
397.764
397.592
397.421
397.253
397.085
396.919
396.755
396.592
396.431
396.271
396.113
395.956
395.802
395.648
395.497
395.347
395.199
395.052
394.906
394.762
394.619
394.477
394.336
394.197
394.058
393.921
393.786
393.652
393.519
393.388
393.259
393.131
393.006
392.882
392.761
392.643
392.527
392.417
392.312
392.239
392.68
392.962
393.18
393.36
393.515
393.651
393.774
393.885
393.986
394.075
400
400
400
400
400
400
400
400
400
399.995
399.764
399.575
399.404
399.242
399.086
398.934
398.784
398.637
398.492
398.348
398.205
398.063
397.922
397.782
397.642
397.504
397.366
397.229
397.092
396.957
396.822
396.687
396.554
396.421
396.288
396.157
396.026
395.896
395.766
395.637
395.509
395.381
395.253
395.126
395
394.874
394.75
394.626
394.503
394.381
394.26
394.141
394.023
393.906
393.791
393.679
393.568
393.461
393.357
393.273
393.537
393.71
393.846
393.961
394.063
394.154
394.237
394.314
394.386
394.45
400
400
400
400
400
400
400
400
400
399.996
399.783
399.614
399.462
399.32
399.184
399.052
398.924
398.798
398.674
398.552
398.432
398.313
398.194
398.077
397.961
397.845
397.731
397.617
397.503
397.39
397.277
397.166
397.054
396.943
396.833
396.723
396.613
396.503
396.394
396.286
396.177
396.069
395.961
395.853
395.745
395.638
395.531
395.425
395.319
395.214
395.11
395.006
394.904
394.802
394.703
394.604
394.508
394.413
394.323
394.244
394.454
394.586
394.686
394.768
394.839
394.902
394.959
395.011
395.058
395.101
400
400
400
400
400
400
400
400
400
399.996
399.788
399.623
399.477
399.342
399.213
399.089
398.969
398.852
398.737
398.625
398.515
398.406
398.299
398.192
398.087
397.984
397.881
397.779
397.677
397.577
397.477
397.378
397.279
397.181
397.084
396.987
396.891
396.795
396.7
396.604
396.51
396.415
396.32
396.226
396.132
396.039
395.946
395.853
395.761
395.67
395.579
395.489
395.4
395.313
395.226
395.141
395.057
394.976
394.897
394.83
395.026
395.15
395.242
395.318
395.383
395.44
395.49
395.536
395.577
395.615
400
400
400
400
400
400
400
400
400
399.996
399.789
399.626
399.481
399.348
399.221
399.099
398.982
398.868
398.757
398.648
398.541
398.436
398.333
398.232
398.131
398.032
397.934
397.837
397.741
397.646
397.552
397.459
397.366
397.274
397.183
397.093
397.003
396.914
396.825
396.737
396.649
396.562
396.475
396.388
396.301
396.215
396.13
396.045
395.961
395.877
395.794
395.713
395.632
395.552
395.474
395.397
395.322
395.249
395.179
395.119
395.312
395.435
395.528
395.604
395.669
395.727
395.778
395.824
395.866
395.904
400
400
400
400
400
400
400
400
400
399.996
399.789
399.626
399.482
399.348
399.222
399.1
398.984
398.87
398.76
398.652
398.547
398.443
398.341
398.241
398.143
398.045
397.949
397.854
397.76
397.667
397.576
397.485
397.395
397.305
397.217
397.13
397.043
396.957
396.871
396.786
396.701
396.617
396.533
396.45
396.367
396.284
396.203
396.122
396.041
395.962
395.883
395.805
395.729
395.653
395.579
395.507
395.437
395.368
395.303
395.247
395.439
395.562
395.656
395.733
395.8
395.858
395.911
395.958
396.002
396.041
400
400
400
400
400
400
400
400
400
399.996
399.789
399.626
399.482
399.348
399.221
399.1
398.983
398.87
398.76
398.652
398.547
398.443
398.342
398.242
398.144
398.047
397.951
397.857
397.764
397.672
397.581
397.491
397.402
397.313
397.226
397.14
397.054
396.969
396.885
396.801
396.718
396.635
396.553
396.471
396.389
396.308
396.228
396.149
396.07
395.992
395.915
395.84
395.765
395.692
395.62
395.55
395.482
395.416
395.353
395.299
395.491
395.614
395.709
395.787
395.854
395.913
395.967
396.015
396.059
396.1
400
400
400
400
400
400
400
400
400
399.996
399.789
399.625
399.481
399.347
399.22
399.099
398.982
398.868
398.757
398.65
398.544
398.441
398.339
398.239
398.141
398.044
397.949
397.855
397.762
397.67
397.579
397.489
397.4
397.313
397.226
397.14
397.055
396.97
396.886
396.803
396.72
396.638
396.556
396.475
396.394
396.314
396.234
396.156
396.078
396.001
395.924
395.849
395.776
395.704
395.633
395.564
395.497
395.432
395.37
395.318
395.509
395.633
395.727
395.806
395.874
395.933
395.987
396.036
396.081
396.122
400
400
400
400
400
400
400
400
400
399.996
399.788
399.625
399.481
399.346
399.219
399.098
398.98
398.866
398.756
398.648
398.542
398.438
398.336
398.237
398.138
398.041
397.946
397.851
397.758
397.666
397.576
397.486
397.397
397.31
397.223
397.137
397.052
396.968
396.884
396.801
396.718
396.636
396.554
396.473
396.393
396.313
396.233
396.155
396.077
396
395.924
395.85
395.776
395.705
395.634
395.566
395.499
395.435
395.374
395.322
395.514
395.637
395.732
395.811
395.879
395.939
395.993
396.042
396.087
396.128
400
400
400
400
400
400
400
400
400
399.996
399.789
399.625
399.48
399.346
399.219
399.097
398.979
398.865
398.754
398.646
398.54
398.436
398.334
398.234
398.135
398.038
397.942
397.848
397.755
397.663
397.572
397.482
397.393
397.306
397.219
397.133
397.048
396.964
396.88
396.797
396.715
396.633
396.551
396.47
396.389
396.309
396.23
396.151
396.074
395.997
395.921
395.847
395.773
395.702
395.632
395.564
395.498
395.434
395.373
395.322
395.513
395.637
395.731
395.81
395.878
395.938
395.992
396.042
396.087
396.128
400
400
400
400
400
400
400
400
400
399.996
399.788
399.625
399.48
399.346
399.218
399.096
398.978
398.864
398.753
398.644
398.538
398.434
398.332
398.231
398.133
398.036
397.94
397.845
397.752
397.66
397.569
397.479
397.39
397.303
397.216
397.13
397.045
396.961
396.877
396.794
396.711
396.629
396.547
396.466
396.385
396.305
396.226
396.147
396.07
395.993
395.917
395.843
395.77
395.698
395.628
395.56
395.494
395.431
395.37
395.319
395.51
395.634
395.729
395.807
395.875
395.936
395.99
396.039
396.085
396.126
400
400
400
400
400
400
400
400
400
399.996
399.788
399.624
399.48
399.346
399.218
399.096
398.978
398.863
398.752
398.643
398.537
398.432
398.33
398.23
398.131
398.033
397.938
397.843
397.75
397.657
397.566
397.477
397.388
397.3
397.213
397.127
397.042
396.958
396.874
396.791
396.708
396.626
396.544
396.463
396.382
396.302
396.222
396.144
396.066
395.989
395.914
395.839
395.766
395.694
395.625
395.556
395.491
395.427
395.367
395.316
395.507
395.631
395.726
395.805
395.873
395.933
395.987
396.036
396.082
396.123
400
400
400
400
400
400
400
400
400
399.996
399.788
399.625
399.48
399.346
399.218
399.096
398.978
398.863
398.751
398.643
398.536
398.432
398.329
398.228
398.13
398.032
397.936
397.841
397.748
397.656
397.565
397.475
397.386
397.298
397.211
397.125
397.04
396.956
396.872
396.789
396.706
396.624
396.542
396.46
396.379
396.299
396.22
396.141
396.063
395.986
395.911
395.836
395.763
395.691
395.622
395.554
395.488
395.424
395.364
395.314
395.505
395.628
395.723
395.802
395.87
395.93
395.985
396.034
396.079
396.12
400
400
400
400
400
400
400
400
400
399.996
399.788
399.624
399.48
399.346
399.218
399.096
398.978
398.863
398.751
398.642
398.535
398.431
398.328
398.228
398.129
398.031
397.935
397.84
397.747
397.654
397.563
397.474
397.385
397.297
397.21
397.124
397.039
396.955
396.871
396.787
396.704
396.622
396.54
396.458
396.377
396.297
396.217
396.139
396.061
395.984
395.908
395.834
395.761
395.689
395.619
395.551
395.486
395.423
395.362
395.311
395.503
395.626
395.721
395.8
395.868
395.928
395.983
396.032
396.078
396.119
400
400
400
400
400
400
400
400
400
399.996
399.788
399.624
399.48
399.346
399.219
399.096
398.978
398.863
398.751
398.642
398.535
398.431
398.328
398.227
398.128
398.03
397.934
397.84
397.746
397.654
397.563
397.473
397.384
397.296
397.209
397.123
397.038
396.954
396.87
396.786
396.703
396.621
396.538
396.457
396.376
396.296
396.216
396.137
396.059
395.983
395.907
395.832
395.759
395.687
395.618
395.55
395.484
395.421
395.361
395.31
395.501
395.625
395.72
395.799
395.867
395.927
395.982
396.031
396.076
396.117
400
400
400
400
400
400
400
400
400
399.996
399.788
399.625
399.48
399.346
399.219
399.097
398.978
398.863
398.751
398.642
398.535
398.431
398.328
398.227
398.128
398.03
397.934
397.839
397.746
397.654
397.562
397.473
397.384
397.296
397.209
397.123
397.038
396.953
396.869
396.786
396.703
396.62
396.538
396.456
396.375
396.295
396.215
396.136
396.058
395.981
395.906
395.831
395.758
395.686
395.617
395.549
395.483
395.42
395.36
395.31
395.501
395.625
395.719
395.798
395.866
395.927
395.981
396.03
396.076
396.117
400
400
400
400
400
400
400
400
400
399.996
399.788
399.625
399.48
399.347
399.219
399.097
398.979
398.864
398.752
398.642
398.535
398.431
398.328
398.227
398.128
398.03
397.934
397.839
397.746
397.654
397.563
397.473
397.384
397.296
397.209
397.123
397.038
396.953
396.869
396.785
396.702
396.62
396.537
396.456
396.375
396.294
396.215
396.136
396.058
395.981
395.905
395.83
395.757
395.686
395.616
395.548
395.483
395.42
395.36
395.309
395.5
395.624
395.719
395.798
395.866
395.926
395.981
396.03
396.075
396.117
400
400
400
400
400
400
400
400
400
399.996
399.789
399.625
399.481
399.347
399.22
399.098
398.979
398.864
398.752
398.643
398.536
398.431
398.328
398.227
398.128
398.03
397.934
397.839
397.746
397.654
397.563
397.473
397.384
397.296
397.209
397.123
397.038
396.953
396.869
396.785
396.702
396.619
396.537
396.455
396.374
396.294
396.214
396.136
396.058
395.981
395.905
395.83
395.757
395.686
395.616
395.548
395.483
395.42
395.36
395.31
395.501
395.624
395.719
395.798
395.866
395.926
395.981
396.03
396.075
396.117
400
400
400
400
400
400
400
400
400
399.996
399.789
399.625
399.481
399.348
399.22
399.098
398.98
398.865
398.753
398.643
398.536
398.431
398.328
398.227
398.128
398.03
397.934
397.839
397.746
397.654
397.563
397.473
397.385
397.297
397.209
397.123
397.037
396.953
396.869
396.785
396.702
396.619
396.537
396.455
396.374
396.294
396.214
396.135
396.057
395.981
395.905
395.83
395.757
395.685
395.616
395.548
395.483
395.42
395.36
395.31
395.501
395.624
395.719
395.798
395.866
395.926
395.981
396.03
396.076
396.117
400
400
400
400
400
400
400
400
400
399.996
399.789
399.625
399.481
399.348
399.221
399.099
398.98
398.865
398.753
398.643
398.536
398.431
398.328
398.227
398.128
398.03
397.934
397.839
397.746
397.654
397.563
397.474
397.385
397.296
397.209
397.122
397.037
396.952
396.868
396.785
396.702
396.619
396.537
396.455
396.374
396.294
396.214
396.135
396.057
395.98
395.904
395.83
395.757
395.685
395.616
395.548
395.483
395.42
395.36
395.31
395.501
395.624
395.719
395.798
395.866
395.927
395.981
396.03
396.076
396.117
400
400
400
400
400
400
400
400
400
399.996
399.789
399.626
399.482
399.348
399.221
399.099
398.981
398.866
398.753
398.644
398.537
398.431
398.328
398.227
398.128
398.03
397.934
397.839
397.746
397.654
397.563
397.473
397.384
397.296
397.209
397.122
397.036
396.951
396.867
396.784
396.701
396.618
396.536
396.455
396.374
396.293
396.214
396.135
396.057
395.98
395.904
395.83
395.757
395.685
395.615
395.548
395.482
395.42
395.36
395.31
395.501
395.624
395.719
395.798
395.866
395.926
395.981
396.03
396.076
396.117
400
400
400
400
400
400
400
400
400
399.996
399.789
399.626
399.482
399.348
399.222
399.1
398.981
398.866
398.754
398.644
398.537
398.432
398.329
398.227
398.128
398.03
397.934
397.839
397.746
397.654
397.563
397.473
397.384
397.295
397.208
397.121
397.035
396.951
396.867
396.783
396.7
396.618
396.536
396.454
396.373
396.293
396.213
396.135
396.057
395.98
395.904
395.829
395.756
395.685
395.615
395.548
395.482
395.419
395.36
395.309
395.5
395.624
395.719
395.798
395.866
395.926
395.981
396.03
396.075
396.117
400
400
400
400
400
400
400
400
400
399.996
399.789
399.626
399.482
399.349
399.222
399.1
398.981
398.866
398.754
398.644
398.537
398.432
398.329
398.227
398.128
398.03
397.934
397.839
397.746
397.654
397.563
397.473
397.383
397.295
397.207
397.121
397.035
396.95
396.866
396.782
396.7
396.617
396.535
396.454
396.373
396.293
396.213
396.134
396.056
395.979
395.904
395.829
395.756
395.685
395.615
395.547
395.482
395.419
395.359
395.309
395.5
395.624
395.719
395.798
395.866
395.926
395.98
396.03
396.075
396.116
400
400
400
400
400
400
400
400
400
399.996
399.789
399.626
399.483
399.349
399.222
399.1
398.982
398.867
398.755
398.645
398.537
398.432
398.329
398.227
398.128
398.03
397.934
397.839
397.746
397.654
397.563
397.472
397.383
397.295
397.207
397.12
397.034
396.949
396.865
396.782
396.699
396.617
396.535
396.453
396.373
396.292
396.213
396.134
396.056
395.979
395.904
395.829
395.756
395.684
395.615
395.547
395.482
395.419
395.359
395.309
395.5
395.624
395.719
395.797
395.865
395.926
395.98
396.03
396.075
396.116
400
400
400
400
400
400
400
400
400
399.996
399.789
399.626
399.483
399.349
399.222
399.1
398.982
398.867
398.755
398.645
398.538
398.432
398.329
398.228
398.128
398.03
397.934
397.839
397.746
397.653
397.562
397.472
397.383
397.294
397.207
397.12
397.034
396.949
396.865
396.782
396.699
396.617
396.535
396.453
396.373
396.293
396.213
396.134
396.057
395.98
395.904
395.829
395.756
395.685
395.615
395.547
395.482
395.419
395.359
395.309
395.5
395.624
395.719
395.797
395.865
395.926
395.98
396.03
396.075
396.116
400
400
400
400
400
400
400
400
400
399.996
399.789
399.627
399.483
399.35
399.223
399.101
398.983
398.868
398.755
398.645
398.538
398.433
398.329
398.228
398.128
398.03
397.934
397.839
397.746
397.653
397.562
397.472
397.383
397.294
397.207
397.12
397.034
396.949
396.865
396.782
396.699
396.617
396.535
396.454
396.373
396.293
396.213
396.135
396.057
395.98
395.904
395.83
395.756
395.685
395.615
395.547
395.482
395.419
395.359
395.308
395.499
395.623
395.718
395.797
395.865
395.926
395.98
396.029
396.075
396.116
400
400
400
400
400
400
400
400
400
399.996
399.79
399.627
399.483
399.35
399.223
399.101
398.983
398.868
398.755
398.646
398.538
398.433
398.329
398.228
398.128
398.03
397.934
397.839
397.745
397.653
397.562
397.472
397.383
397.294
397.207
397.12
397.034
396.949
396.865
396.782
396.699
396.617
396.535
396.454
396.374
396.293
396.214
396.135
396.058
395.981
395.905
395.83
395.757
395.685
395.616
395.548
395.482
395.419
395.359
395.308
395.5
395.623
395.718
395.797
395.865
395.926
395.98
396.029
396.075
396.116
400
400
400
400
400
400
400
400
400
399.996
399.79
399.627
399.483
399.35
399.223
399.101
398.983
398.868
398.756
398.646
398.538
398.433
398.33
398.228
398.128
398.03
397.934
397.839
397.746
397.653
397.562
397.472
397.383
397.295
397.207
397.121
397.035
396.95
396.866
396.783
396.7
396.618
396.536
396.455
396.374
396.294
396.215
396.136
396.058
395.981
395.906
395.831
395.758
395.686
395.616
395.548
395.482
395.419
395.359
395.308
395.5
395.623
395.718
395.797
395.865
395.926
395.98
396.03
396.075
396.116
400
400
400
400
400
400
400
400
400
399.996
399.79
399.627
399.484
399.35
399.224
399.102
398.984
398.868
398.756
398.646
398.539
398.433
398.33
398.228
398.129
398.031
397.934
397.839
397.746
397.654
397.563
397.473
397.384
397.295
397.208
397.121
397.036
396.951
396.867
396.784
396.701
396.619
396.537
396.456
396.375
396.295
396.216
396.137
396.059
395.982
395.907
395.832
395.758
395.687
395.617
395.549
395.483
395.419
395.359
395.308
395.5
395.624
395.719
395.797
395.866
395.926
395.98
396.03
396.075
396.116
400
400
400
400
400
400
400
400
400
399.996
399.79
399.627
399.484
399.351
399.224
399.102
398.984
398.869
398.756
398.647
398.539
398.434
398.33
398.229
398.129
398.031
397.934
397.839
397.746
397.654
397.563
397.473
397.384
397.296
397.209
397.122
397.037
396.952
396.868
396.785
396.702
396.62
396.538
396.457
396.376
396.296
396.217
396.138
396.06
395.983
395.907
395.833
395.759
395.687
395.617
395.549
395.483
395.42
395.359
395.308
395.5
395.624
395.719
395.798
395.866
395.926
395.981
396.03
396.075
396.117
400
400
400
400
400
400
400
400
400
399.996
399.79
399.627
399.484
399.351
399.224
399.102
398.984
398.869
398.757
398.647
398.539
398.434
398.331
398.229
398.129
398.031
397.935
397.84
397.746
397.654
397.564
397.474
397.385
397.297
397.21
397.123
397.038
396.953
396.869
396.786
396.703
396.621
396.539
396.458
396.377
396.297
396.218
396.139
396.061
395.984
395.908
395.834
395.76
395.688
395.618
395.549
395.483
395.419
395.359
395.308
395.499
395.623
395.719
395.798
395.866
395.926
395.98
396.03
396.075
396.117
400
400
400
400
400
400
400
400
400
399.996
399.79
399.627
399.484
399.351
399.224
399.102
398.984
398.869
398.757
398.647
398.54
398.435
398.331
398.23
398.13
398.032
397.935
397.84
397.747
397.655
397.564
397.475
397.386
397.298
397.211
397.124
397.039
396.954
396.871
396.787
396.704
396.622
396.54
396.459
396.378
396.298
396.219
396.14
396.062
395.985
395.909
395.834
395.761
395.688
395.618
395.549
395.483
395.42
395.359
395.308
395.499
395.623
395.719
395.797
395.866
395.926
395.98
396.03
396.075
396.117
400
400
400
400
400
400
400
400
400
399.996
399.79
399.628
399.484
399.351
399.224
399.103
398.985
398.87
398.758
398.648
398.541
398.435
398.332
398.231
398.131
398.033
397.936
397.841
397.748
397.656
397.565
397.476
397.387
397.299
397.212
397.126
397.04
396.956
396.872
396.788
396.705
396.623
396.541
396.46
396.379
396.299
396.22
396.141
396.063
395.986
395.91
395.835
395.761
395.689
395.618
395.549
395.483
395.419
395.358
395.307
395.499
395.623
395.718
395.797
395.865
395.926
395.98
396.03
396.075
396.116
400
400
400
400
400
400
400
400
400
399.996
399.79
399.627
399.484
399.351
399.225
399.103
398.985
398.87
398.758
398.649
398.541
398.436
398.333
398.232
398.132
398.034
397.937
397.842
397.749
397.657
397.566
397.477
397.388
397.3
397.213
397.127
397.042
396.957
396.873
396.789
396.706
396.624
396.542
396.461
396.38
396.3
396.22
396.142
396.064
395.987
395.911
395.835
395.762
395.689
395.618
395.549
395.483
395.419
395.358
395.306
395.498
395.622
395.718
395.797
395.865
395.926
395.98
396.029
396.075
396.116
400
400
400
400
400
400
400
400
400
399.996
399.79
399.628
399.485
399.352
399.225
399.104
398.986
398.871
398.759
398.65
398.542
398.437
398.334
398.233
398.133
398.035
397.939
397.844
397.75
397.658
397.568
397.478
397.39
397.302
397.215
397.129
397.043
396.958
396.874
396.79
396.707
396.625
396.543
396.462
396.381
396.301
396.222
396.143
396.065
395.988
395.912
395.836
395.762
395.69
395.619
395.55
395.483
395.419
395.358
395.306
395.498
395.623
395.718
395.797
395.865
395.926
395.98
396.03
396.075
396.116
400
400
400
400
400
400
400
400
400
399.996
399.79
399.628
399.485
399.352
399.226
399.104
398.986
398.872
398.76
398.651
398.544
398.439
398.335
398.234
398.135
398.037
397.94
397.846
397.752
397.66
397.57
397.48
397.392
397.304
397.217
397.131
397.045
396.96
396.876
396.792
396.709
396.626
396.544
396.463
396.382
396.302
396.223
396.144
396.066
395.989
395.913
395.838
395.764
395.691
395.619
395.55
395.483
395.419
395.357
395.306
395.498
395.623
395.718
395.797
395.866
395.926
395.98
396.03
396.075
396.117
400
400
400
400
400
400
400
400
400
399.996
399.79
399.628
399.485
399.352
399.226
399.105
398.987
398.873
398.761
398.652
398.545
398.44
398.337
398.236
398.136
398.039
397.942
397.848
397.754
397.662
397.572
397.483
397.394
397.306
397.219
397.133
397.047
396.962
396.878
396.794
396.711
396.628
396.546
396.465
396.384
396.304
396.225
396.146
396.068
395.991
395.915
395.84
395.765
395.692
395.621
395.551
395.484
395.42
395.358
395.306
395.499
395.623
395.719
395.798
395.866
395.927
395.981
396.031
396.076
396.118
400
400
400
400
400
400
400
400
400
399.996
399.79
399.628
399.485
399.353
399.227
399.106
398.988
398.874
398.762
398.653
398.546
398.442
398.339
398.238
398.139
398.041
397.945
397.85
397.757
397.665
397.575
397.485
397.397
397.309
397.222
397.136
397.05
396.965
396.88
396.796
396.713
396.631
396.549
396.468
396.387
396.307
396.228
396.149
396.071
395.994
395.917
395.842
395.768
395.695
395.623
395.553
395.486
395.421
395.36
395.308
395.5
395.625
395.72
395.8
395.868
395.928
395.983
396.032
396.078
396.119
400
400
400
400
400
400
400
400
400
399.996
399.79
399.628
399.486
399.353
399.227
399.106
398.989
398.875
398.764
398.655
398.548
398.444
398.341
398.24
398.141
398.043
397.947
397.853
397.76
397.668
397.578
397.488
397.4
397.312
397.225
397.139
397.053
396.968
396.883
396.799
396.716
396.634
396.552
396.471
396.39
396.31
396.231
396.152
396.074
395.997
395.921
395.845
395.771
395.697
395.626
395.556
395.488
395.423
395.361
395.309
395.502
395.627
395.722
395.802
395.87
395.93
395.985
396.034
396.08
396.121
400
400
400
400
400
400
400
400
400
399.996
399.791
399.629
399.486
399.354
399.228
399.108
398.991
398.877
398.765
398.657
398.55
398.446
398.343
398.243
398.144
398.046
397.95
397.856
397.763
397.671
397.581
397.492
397.403
397.315
397.228
397.142
397.056
396.971
396.887
396.803
396.72
396.637
396.556
396.474
396.394
396.314
396.235
396.156
396.078
396.001
395.925
395.849
395.774
395.701
395.629
395.559
395.491
395.426
395.364
395.312
395.505
395.629
395.725
395.804
395.872
395.933
395.987
396.037
396.082
396.124
400
400
400
400
400
400
400
400
400
399.996
399.791
399.629
399.487
399.355
399.229
399.109
398.992
398.878
398.767
398.659
398.552
398.448
398.346
398.245
398.147
398.049
397.953
397.859
397.766
397.675
397.585
397.495
397.407
397.319
397.232
397.146
397.06
396.975
396.891
396.807
396.724
396.641
396.56
396.478
396.398
396.318
396.239
396.16
396.082
396.005
395.929
395.853
395.778
395.705
395.633
395.562
395.494
395.428
395.366
395.314
395.507
395.632
395.727
395.806
395.875
395.935
395.989
396.039
396.084
396.126
400
400
400
400
400
400
400
400
400
399.996
399.791
399.629
399.487
399.355
399.23
399.11
398.993
398.88
398.769
398.661
398.555
398.451
398.349
398.249
398.15
398.053
397.957
397.863
397.77
397.679
397.588
397.499
397.411
397.323
397.236
397.149
397.064
396.979
396.894
396.811
396.728
396.645
396.563
396.482
396.402
396.322
396.242
396.164
396.086
396.009
395.932
395.856
395.781
395.708
395.635
395.564
395.496
395.43
395.367
395.314
395.507
395.632
395.728
395.807
395.875
395.935
395.99
396.039
396.084
396.125
400
400
400
400
400
400
400
400
400
399.996
399.791
399.63
399.488
399.356
399.231
399.111
398.995
398.882
398.771
398.663
398.557
398.454
398.352
398.251
398.153
398.056
397.96
397.866
397.773
397.682
397.592
397.502
397.414
397.326
397.239
397.152
397.066
396.981
396.897
396.813
396.73
396.647
396.565
396.484
396.403
396.323
396.244
396.165
396.086
396.009
395.932
395.856
395.781
395.707
395.633
395.562
395.493
395.426
395.363
395.309
395.503
395.627
395.723
395.802
395.87
395.93
395.984
396.033
396.078
396.119
400
400
400
400
400
400
400
400
400
399.996
399.792
399.63
399.489
399.357
399.232
399.112
398.996
398.883
398.773
398.665
398.56
398.456
398.354
398.254
398.155
398.058
397.962
397.868
397.775
397.683
397.593
397.503
397.414
397.326
397.238
397.152
397.065
396.98
396.895
396.811
396.727
396.644
396.561
396.48
396.398
396.318
396.237
396.158
396.079
396.001
395.923
395.846
395.77
395.695
395.621
395.548
395.478
395.41
395.345
395.291
395.484
395.608
395.704
395.782
395.85
395.909
395.963
396.012
396.056
396.097
400
400
400
400
400
400
400
400
400
399.996
399.791
399.631
399.489
399.357
399.232
399.113
398.997
398.884
398.773
398.665
398.559
398.455
398.353
398.252
398.153
398.056
397.959
397.864
397.771
397.678
397.587
397.496
397.406
397.317
397.229
397.141
397.053
396.967
396.881
396.795
396.71
396.626
396.542
396.458
396.376
396.293
396.212
396.131
396.05
395.97
395.89
395.812
395.734
395.656
395.58
395.506
395.433
395.362
395.296
395.238
395.432
395.556
395.651
395.729
395.796
395.854
395.907
395.955
395.999
396.038
400
400
400
400
400
400
400
400
400
399.996
399.792
399.631
399.488
399.356
399.231
399.111
398.994
398.88
398.769
398.66
398.553
398.448
398.344
398.242
398.141
398.041
397.943
397.846
397.751
397.656
397.562
397.469
397.377
397.285
397.194
397.103
397.013
396.923
396.834
396.745
396.657
396.57
396.482
396.396
396.31
396.224
396.138
396.054
395.969
395.885
395.802
395.719
395.637
395.556
395.475
395.396
395.319
395.244
395.172
395.111
395.305
395.429
395.523
395.599
395.665
395.723
395.774
395.821
395.863
395.901
400
400
400
400
400
400
400
400
400
399.996
399.791
399.628
399.484
399.35
399.223
399.1
398.98
398.863
398.749
398.636
398.525
398.416
398.308
398.201
398.096
397.992
397.888
397.786
397.685
397.585
397.485
397.386
397.288
397.19
397.093
396.996
396.899
396.803
396.707
396.612
396.517
396.422
396.328
396.234
396.14
396.047
395.954
395.862
395.769
395.678
395.587
395.496
395.406
395.316
395.228
395.14
395.054
394.971
394.891
394.822
395.02
395.144
395.238
395.314
395.379
395.436
395.487
395.532
395.574
395.611
400
400
400
400
400
400
400
400
400
399.996
399.785
399.618
399.467
399.327
399.192
399.062
398.934
398.808
398.684
398.562
398.441
398.321
398.202
398.085
397.968
397.852
397.737
397.623
397.509
397.396
397.284
397.172
397.061
396.95
396.84
396.729
396.619
396.51
396.401
396.292
396.183
396.075
395.967
395.859
395.752
395.645
395.539
395.433
395.327
395.222
395.118
395.013
394.91
394.807
394.705
394.604
394.506
394.409
394.317
394.236
394.448
394.581
394.681
394.764
394.835
394.898
394.955
395.007
395.054
395.097
400
400
400
400
400
400
400
400
400
399.995
399.766
399.578
399.41
399.249
399.095
398.943
398.794
398.646
398.5
398.356
398.212
398.07
397.928
397.787
397.647
397.508
397.37
397.232
397.096
396.961
396.826
396.692
396.558
396.426
396.294
396.162
396.031
395.901
395.771
395.642
395.514
395.386
395.259
395.133
395.007
394.882
394.758
394.635
394.512
394.391
394.27
394.149
394.03
393.912
393.795
393.68
393.567
393.457
393.351
393.265
393.531
393.704
393.84
393.956
394.058
394.149
394.233
394.31
394.381
394.445
400
400
400
400
400
400
400
400
400
399.993
399.691
399.455
399.243
399.043
398.851
398.664
398.48
398.3
398.121
397.945
397.77
397.597
397.426
397.256
397.087
396.921
396.756
396.593
396.432
396.273
396.115
395.959
395.805
395.652
395.5
395.351
395.202
395.055
394.91
394.766
394.623
394.482
394.342
394.204
394.066
393.931
393.796
393.663
393.531
393.4
393.27
393.142
393.015
392.889
392.766
392.645
392.526
392.412
392.304
392.229
392.673
392.955
393.173
393.353
393.509
393.645
393.768
393.879
393.98
394.069
400
400
400
400
400
400
400
400
400
399.995
399.766
399.549
399.344
399.147
398.957
398.771
398.588
398.408
398.23
398.054
397.88
397.708
397.537
397.368
397.2
397.033
396.868
396.705
396.543
396.382
396.223
396.066
395.91
395.757
395.604
395.454
395.305
395.157
395.011
394.866
394.723
394.581
394.439
394.299
394.161
394.023
393.887
393.753
393.62
393.488
393.358
393.23
393.104
392.979
392.858
392.739
392.623
392.511
392.404
392.325
392.689
392.958
393.172
393.351
393.506
393.643
393.766
393.877
393.978
394.068
400
400
400
400
400
400
400
400
400
399.997
399.834
399.67
399.512
399.357
399.206
399.058
398.911
398.767
398.623
398.48
398.339
398.198
398.058
397.919
397.78
397.643
397.505
397.369
397.233
397.097
396.962
396.828
396.695
396.562
396.43
396.299
396.168
396.038
395.908
395.779
395.651
395.523
395.395
395.268
395.142
395.016
394.891
394.767
394.644
394.522
394.401
394.281
394.162
394.045
393.929
393.816
393.704
393.596
393.49
393.4
393.586
393.737
393.864
393.974
394.072
394.16
394.241
394.317
394.387
394.45
400
400
400
400
400
400
400
400
400
399.998
399.85
399.705
399.566
399.431
399.3
399.172
399.047
398.924
398.802
398.682
398.563
398.445
398.328
398.212
398.097
397.983
397.869
397.755
397.643
397.53
397.419
397.307
397.197
397.086
396.976
396.867
396.757
396.648
396.54
396.432
396.324
396.216
396.108
396
395.893
395.786
395.679
395.573
395.468
395.363
395.259
395.155
395.053
394.951
394.851
394.752
394.655
394.559
394.467
394.384
394.52
394.631
394.722
394.799
394.866
394.926
394.98
395.03
395.076
395.118
400
400
400
400
400
400
400
400
400
399.998
399.855
399.714
399.58
399.451
399.327
399.207
399.09
398.975
398.863
398.752
398.643
398.536
398.429
398.324
398.22
398.117
398.015
397.914
397.813
397.713
397.614
397.516
397.418
397.32
397.223
397.127
397.031
396.936
396.841
396.746
396.652
396.557
396.463
396.369
396.276
396.183
396.09
395.998
395.906
395.815
395.724
395.634
395.545
395.457
395.371
395.285
395.201
395.119
395.039
394.967
395.092
395.195
395.279
395.35
395.411
395.466
395.514
395.558
395.598
395.635
400
400
400
400
400
400
400
400
400
399.998
399.856
399.716
399.584
399.457
399.335
399.217
399.102
398.991
398.881
398.774
398.669
398.565
398.463
398.362
398.263
398.164
398.067
397.971
397.875
397.781
397.687
397.594
397.502
397.411
397.32
397.23
397.141
397.052
396.963
396.876
396.788
396.701
396.614
396.528
396.441
396.356
396.27
396.186
396.102
396.018
395.936
395.854
395.773
395.693
395.614
395.537
395.461
395.387
395.316
395.252
395.375
395.477
395.561
395.632
395.694
395.749
395.799
395.844
395.884
395.922
400
400
400
400
400
400
400
400
400
399.998
399.855
399.716
399.584
399.457
399.336
399.218
399.104
398.993
398.884
398.778
398.674
398.572
398.471
398.371
398.273
398.177
398.081
397.987
397.894
397.801
397.71
397.619
397.53
397.441
397.353
397.265
397.179
397.093
397.008
396.923
396.838
396.755
396.671
396.588
396.505
396.423
396.341
396.26
396.18
396.1
396.022
395.944
395.867
395.791
395.717
395.644
395.573
395.504
395.437
395.377
395.499
395.601
395.686
395.759
395.822
395.879
395.929
395.975
396.018
396.056
400
400
400
400
400
400
400
400
400
399.998
399.855
399.716
399.583
399.457
399.335
399.217
399.103
398.992
398.884
398.778
398.674
398.572
398.471
398.372
398.275
398.178
398.083
397.99
397.897
397.805
397.715
397.625
397.536
397.448
397.361
397.275
397.19
397.105
397.021
396.937
396.854
396.772
396.69
396.608
396.527
396.446
396.366
396.287
396.208
396.13
396.053
395.977
395.902
395.829