/*--------------------------------*- C++ -*----------------------------------*\
  =========                 |
  \\      /  F ield         | OpenFOAM: The Open Source CFD Toolbox
   \\    /   O peration     | Website:  https://openfoam.org
    \\  /    A nd           | Version:  12
     \\/     M anipulation  |
\*---------------------------------------------------------------------------*/
FoamFile
{
    format      ascii;
    class       volScalarField;
    location    "1350/air";
    object      alphat;
}
// * * * * * * * * * * * * * * * * * * * * * * * * * * * * * * * * * * * * * //

dimensions      [1 -1 -1 0 0 0 0];

internalField   nonuniform List<scalar> 
243000
(
0.000142435
0.00014559
0.000144692
0.000142034
0.000138071
0.000133263
0.000128004
0.000122592
0.000117237
0.0001121
0.00010729
0.000102934
9.90859e-05
9.57967e-05
9.30437e-05
9.08635e-05
8.93024e-05
8.85538e-05
8.88293e-05
9.02142e-05
9.24288e-05
9.48748e-05
9.68178e-05
9.75408e-05
9.65579e-05
9.34396e-05
8.832e-05
8.21345e-05
0.000360472
0.000325687
0.000521281
0.000526623
0.000516831
0.000499076
0.000477758
0.000455049
0.00043222
0.000410075
0.000389118
0.000369689
0.000352042
0.000336399
0.000322827
0.000311516
0.000302556
0.000296262
0.000293064
0.000293881
0.000299298
0.000309311
0.00032255
0.000336752
0.000349357
0.000358121
0.000361176
0.000357053
0.000345717
0.000323481
0.000303368
0.000271846
0.000635891
0.000679621
0.000698173
0.000701933
0.000697563
0.000687927
0.000674782
0.000659381
0.000642602
0.00062516
0.000607606
0.0005905
0.000574209
0.00055941
0.000546634
0.000536895
0.000531396
0.000531919
0.000538896
0.000551416
0.000566402
0.000579934
0.000588249
0.000588673
0.000579062
0.000558282
0.000527268
0.000484453
0.000437135
0.000377768
0.00061159
0.000669942
0.000698967
0.000710805
0.000711665
0.000705588
0.000695022
0.000681426
0.000665953
0.00064949
0.000632657
0.000616094
0.000600301
0.000586098
0.000574184
0.000565849
0.000562553
0.000566014
0.000576231
0.000591648
0.000608816
0.000623892
0.000633447
0.000635185
0.000627046
0.000607882
0.000578432
0.000537389
0.000489925
0.000430999
0.000566766
0.000634284
0.000674879
0.000696298
0.000704802
0.00070468
0.000698442
0.000688219
0.000675468
0.000661305
0.000646368
0.00063132
0.000616869
0.000603986
0.000593535
0.000587094
0.000586324
0.000592741
0.000605904
0.000623658
0.000642323
0.000658246
0.000668386
0.00067084
0.000663782
0.000646137
0.000618436
0.000579816
0.000534025
0.000477963
0.000531217
0.000585504
0.000631952
0.000663522
0.000681081
0.000688222
0.000688105
0.000682824
0.000674207
0.000663229
0.000650892
0.000638047
0.000625663
0.000614668
0.000606128
0.000601956
0.000603891
0.00061326
0.000629143
0.000648892
0.000668703
0.000685145
0.000695562
0.000698429
0.000692199
0.000675941
0.00065004
0.000614057
0.00057069
0.000518188
0.000522353
0.000550135
0.000590857
0.000624986
0.000647836
0.000660685
0.000666946
0.000667366
0.000663494
0.000656648
0.000647783
0.000637967
0.000627991
0.000619271
0.000612991
0.000611343
0.000616093
0.000628373
0.000646808
0.000668351
0.000689139
0.000705971
0.000716554
0.0007197
0.000714149
0.000699136
0.000675002
0.000641638
0.000601052
0.000552189
0.000540282
0.000537184
0.000559549
0.000589357
0.000614523
0.000631639
0.000641885
0.000646165
0.000646169
0.000643503
0.000638409
0.000631891
0.000624841
0.000618698
0.000614915
0.000615918
0.000623521
0.000638651
0.000659519
0.000682746
0.000704463
0.000721691
0.000732448
0.000735844
0.000730901
0.000717026
0.000694581
0.000663718
0.000626099
0.000580715
0.000576499
0.000552968
0.000549142
0.000563642
0.000584359
0.000602712
0.000615961
0.000623754
0.000627028
0.000627138
0.000624776
0.000621341
0.000617224
0.000613778
0.00061257
0.000616227
0.000626634
0.000644469
0.000667671
0.000692591
0.000715275
0.000732993
0.00074402
0.000747717
0.000743377
0.00073057
0.000709742
0.000681304
0.000646551
0.00060447
0.000615484
0.000591075
0.000567967
0.000559714
0.000566084
0.000578744
0.000591498
0.000601179
0.000607131
0.000609903
0.000609989
0.000608409
0.000606494
0.000605425
0.000606615
0.000612781
0.000625828
0.000646237
0.000671467
0.000698052
0.000721904
0.000740355
0.000751827
0.000755945
0.000752262
0.000740508
0.00072131
0.00069503
0.000662919
0.000624023
0.000654595
0.000633882
0.000607421
0.000584169
0.000571409
0.000569725
0.000575011
0.000582245
0.000588539
0.000592853
0.00059492
0.00059518
0.000594571
0.000594872
0.000597869
0.000606131
0.000621483
0.00064429
0.000671865
0.000699958
0.000724829
0.000744063
0.000756253
0.000760987
0.000758077
0.000747462
0.000729708
0.000705399
0.000675753
0.000640018
0.00069303
0.000675169
0.000654034
0.00062704
0.000602742
0.000585293
0.000576519
0.000574565
0.000576264
0.000579015
0.00058129
0.000582512
0.00058294
0.000583802
0.000587454
0.000597009
0.000614075
0.000638825
0.000668425
0.000698518
0.000724825
0.000744952
0.000757815
0.000763233
0.000761243
0.000751747
0.000735402
0.000712933
0.000685546
0.000652777
0.000730755
0.000715052
0.000696971
0.000675394
0.000648725
0.00062293
0.000601426
0.000586426
0.000577834
0.000573967
0.000572772
0.000572621
0.000572798
0.00057367
0.000576923
0.00058641
0.000604235
0.000630289
0.000661511
0.000693299
0.0007213
0.000742831
0.000756797
0.000763079
0.000761873
0.000753619
0.000738747
0.000718039
0.000692716
0.000662646
0.000767852
0.000753714
0.000737659
0.00071914
0.000696082
0.000669668
0.000642823
0.000618231
0.000598216
0.000583811
0.00057461
0.000569313
0.000566585
0.000565869
0.000567956
0.000575712
0.000592873
0.00061925
0.000651538
0.000684823
0.000714442
0.000737546
0.000752959
0.000760496
0.000760378
0.000753266
0.000739952
0.000721025
0.000697639
0.000670057
0.00080426
0.000791168
0.00077644
0.000759661
0.000740176
0.000715818
0.000689132
0.000661238
0.000634138
0.000610085
0.000590788
0.000576825
0.00056774
0.000562789
0.000561974
0.000567143
0.00058142
0.000606584
0.000639024
0.000673389
0.00070457
0.000729425
0.000746533
0.00075562
0.000756894
0.000751142
0.000739304
0.000722147
0.000700653
0.000675379
0.000839803
0.000827333
0.000813462
0.000797793
0.000779887
0.000758316
0.000733762
0.000706428
0.000677221
0.000647821
0.000620446
0.000597179
0.000579318
0.000567272
0.000561099
0.000561986
0.000572254
0.000593767
0.000624827
0.000659475
0.000691947
0.000718594
0.000737597
0.000748516
0.00075151
0.000747399
0.00073715
0.000721683
0.000702051
0.000678959
0.00087428
0.000862107
0.000848752
0.000833811
0.000816901
0.000797493
0.000774831
0.000749228
0.000720709
0.000689934
0.000658406
0.000628297
0.000601961
0.00058135
0.000567572
0.000562052
0.000566753
0.000583309
0.000610575
0.000644001
0.000677071
0.000705296
0.000726278
0.000739255
0.000744281
0.000742038
0.000733642
0.000720154
0.00070267
0.000681833
0.000907595
0.000895424
0.000882325
0.000867859
0.000851634
0.000833257
0.000812421
0.00078867
0.00076174
0.000731677
0.000699139
0.000665589
0.000633283
0.000604909
0.00058271
0.000569094
0.000566439
0.000576527
0.000598751
0.000629084
0.000661256
0.000690194
0.000712952
0.000728076
0.000735364
0.00073545
0.000729508
0.000718327
0.000703009
0.000684336
0.000939656
0.000927279
0.000914248
0.000900081
0.00088437
0.00086696
0.000847536
0.000825315
0.000799953
0.000771244
0.000739315
0.000704876
0.000669539
0.000635729
0.000606134
0.000584046
0.000572731
0.00057479
0.000590386
0.000616271
0.000646469
0.000675396
0.000699382
0.00071645
0.000726084
0.000728562
0.000724978
0.00071611
0.00070295
0.000686413
0.00097039
0.000957728
0.000944659
0.00093069
0.000915495
0.000899467
0.000881071
0.000860009
0.000835961
0.000808635
0.000777879
0.00074391
0.000707684
0.000670924
0.00063605
0.000606569
0.000586458
0.000579373
0.000586745
0.000606528
0.000633343
0.000661259
0.000685876
0.000704577
0.000716389
0.00072127
0.00071999
0.000713442
0.000702465
0.000688038
0.000999933
0.000987013
0.000973901
0.000960233
0.000946206
0.000931037
0.000913686
0.000893788
0.000870997
0.000844991
0.00081551
0.000782513
0.0007465
0.000708529
0.000670439
0.000635398
0.000607497
0.000591044
0.000589132
0.000601055
0.000622813
0.000648411
0.00067277
0.000692608
0.000706327
0.000713523
0.000714559
0.000710323
0.00070155
0.000689249
0.00102891
0.00101595
0.00100313
0.000990929
0.000978312
0.0009642
0.000948109
0.000929579
0.000908147
0.000883441
0.0008551
0.000822986
0.000787233
0.000748561
0.000708365
0.00066937
0.000635144
0.000610125
0.000598449
0.000601418
0.00061615
0.000637793
0.000660698
0.000680874
0.000696078
0.000705364
0.000708714
0.000706766
0.000700231
0.000690074
0.00105632
0.0010448
0.00103418
0.00102326
0.00101155
0.000998532
0.000983698
0.000966548
0.000946578
0.000923377
0.000896491
0.000865683
0.000830834
0.000792342
0.000750856
0.000708589
0.000668999
0.000636526
0.000615418
0.000608581
0.000615037
0.000630706
0.000650649
0.000670101
0.00068608
0.000697065
0.000702562
0.000702814
0.000698535
0.000690557
0.00108268
0.00107235
0.00106236
0.00105233
0.00104179
0.00103017
0.00101694
0.00100157
0.000983526
0.000962354
0.000937519
0.00090871
0.000875606
0.000838332
0.000796997
0.000753171
0.000709063
0.000670326
0.000640723
0.000623913
0.000620907
0.000629089
0.000643999
0.000661278
0.000677007
0.000689016
0.000696316
0.000698682
0.000696601
0.000690807
0.00110451
0.00109483
0.00108573
0.00107683
0.00106761
0.00105755
0.00104609
0.00103271
0.00101686
0.000998061
0.000975694
0.000949496
0.000918992
0.000884068
0.000844374
0.000800911
0.000754978
0.000712152
0.000675686
0.00064961
0.000636338
0.000635427
0.000643549
0.000656465
0.000670262
0.000682251
0.000690661
0.00069483
0.000694757
0.000691084
0.00112381
0.00111419
0.00110547
0.00109718
0.0010888
0.00107986
0.00106985
0.00105827
0.0010445
0.00102803
0.00100819
0.000985523
0.000959072
0.000928403
0.00089309
0.000853304
0.000809616
0.000765441
0.000724292
0.000690309
0.000666802
0.000655117
0.00065401
0.000660103
0.000669752
0.000679705
0.000687805
0.000692799
0.000694217
0.00069241
0.00114784
0.00113818
0.00112904
0.00112056
0.00111265
0.00110509
0.00109744
0.00108916
0.00107954
0.00106784
0.00105328
0.0010355
0.00101389
0.000988149
0.000957991
0.000922894
0.000882748
0.000839484
0.000796216
0.00075649
0.000723802
0.000700682
0.000687756
0.000683583
0.00068542
0.000690128
0.000695208
0.000698921
0.000700315
0.000699472
0.00118532
0.00117736
0.0011696
0.00116269
0.00115701
0.00115255
0.00114898
0.00114566
0.00114169
0.00113615
0.00112804
0.00111667
0.00110142
0.00108201
0.00105855
0.00102993
0.000995086
0.000955777
0.000913949
0.000872338
0.000833863
0.000801193
0.000776064
0.000758871
0.00074851
0.000742905
0.000739965
0.000737926
0.000735521
0.000732897
0.00126966
0.00126462
0.00126043
0.0012588
0.00126003
0.00126347
0.00126819
0.00127312
0.00127726
0.00127961
0.00127892
0.00127499
0.00126738
0.00125617
0.00124136
0.00122191
0.00119587
0.00116527
0.00113145
0.00109606
0.00106094
0.00102785
0.000998381
0.000973539
0.000952846
0.000935084
0.00091999
0.000907111
0.00089587
0.000886609
0.0015544
0.0015503
0.00155224
0.00156066
0.00157074
0.00157884
0.00158539
0.00159049
0.00159433
0.00159591
0.00159418
0.00159131
0.00158703
0.00158212
0.0015759
0.00156864
0.00155637
0.00154352
0.00153042
0.00151802
0.00150651
0.00149647
0.0014882
0.00148193
0.00147482
0.00146479
0.00145487
0.00144613
0.0014398
0.00143192
0.000177877
0.000183321
0.000181519
0.000176998
0.000170783
0.000163609
0.000156022
0.000148432
0.000141101
0.000134267
0.000128082
0.000122662
0.000118044
0.000114346
0.000111588
0.00010993
0.00010951
0.000110668
0.000113706
0.000118488
0.000124018
0.000128969
0.000132269
0.000133142
0.000131091
0.00012558
0.000116535
0.00010262
8.51643e-05
0.000400626
0.000707789
0.000787635
0.000766169
0.000707703
0.000641743
0.000579889
0.000525064
0.000477292
0.000435813
0.000400625
0.000370547
0.00034527
0.000324291
0.000308169
0.000296392
0.000290174
0.000289863
0.000296451
0.000308351
0.000324175
0.000342434
0.000361625
0.000379105
0.000391029
0.000391662
0.000379413
0.000356068
0.000321909
0.000294467
0.000312177
0.00107742
0.00122055
0.00122901
0.00117549
0.00109678
0.00101342
0.000933219
0.000859538
0.000793442
0.000736096
0.000686427
0.000644573
0.00061015
0.000584676
0.000567804
0.000562295
0.000568162
0.000584249
0.00060369
0.000623431
0.000643643
0.000664982
0.000685397
0.000699186
0.000697446
0.000673994
0.000631162
0.000567173
0.000508324
0.000471791
0.00124717
0.0014339
0.00148977
0.00146523
0.00139868
0.00131996
0.00123623
0.00115438
0.00107824
0.00101075
0.000951566
0.00090174
0.000861788
0.000834308
0.000819884
0.000823419
0.000843281
0.000874779
0.000904303
0.000927607
0.00094672
0.000964502
0.000980502
0.000991999
0.000984279
0.00095081
0.000892523
0.000806832
0.000719656
0.00065371
0.00131393
0.00151298
0.00159844
0.0016074
0.00157216
0.00150635
0.00142996
0.00135146
0.00127614
0.00120944
0.00114912
0.00109834
0.00105936
0.00103582
0.00102955
0.00104826
0.00108744
0.00113655
0.00117781
0.00120532
0.00122401
0.00123808
0.00124966
0.00125639
0.00124366
0.00120304
0.00113448
0.00103504
0.000927706
0.000841505
0.00132206
0.00149049
0.00159014
0.00162629
0.00162132
0.00158486
0.00153001
0.00146817
0.00140424
0.0013394
0.00128299
0.00123635
0.00120396
0.00118906
0.00119537
0.00123353
0.00129495
0.00136485
0.00141935
0.00145251
0.00147116
0.00148167
0.00148841
0.00149188
0.00147506
0.00143027
0.00135536
0.00124818
0.00112842
0.0010278
0.00127229
0.00138132
0.00147494
0.00153697
0.00156825
0.00156998
0.001544
0.0015035
0.00145712
0.00140728
0.00136124
0.00132465
0.00130067
0.00129772
0.00132043
0.00138053
0.00146683
0.0015576
0.00162624
0.00166655
0.00168586
0.00169376
0.00169725
0.00169996
0.00168129
0.0016335
0.00155559
0.00144543
0.00131845
0.00120626
0.0012235
0.00127509
0.00134055
0.00140265
0.00145129
0.00147869
0.00148331
0.0014705
0.00144986
0.00141964
0.00138953
0.00136601
0.00135534
0.00136697
0.00140828
0.00149205
0.00160357
0.00171322
0.00179742
0.00184605
0.00186841
0.0018769
0.00187889
0.00188037
0.00186228
0.00181527
0.00173626
0.00162687
0.00149743
0.00137639
0.00122192
0.00120548
0.00122605
0.00126695
0.00131452
0.00135478
0.00138071
0.00139176
0.00139267
0.00138397
0.00137463
0.00136763
0.00137322
0.00140094
0.00146247
0.00157077
0.0017071
0.0018373
0.00193461
0.00199401
0.00202251
0.00203421
0.00203542
0.00203646
0.00201924
0.00197491
0.00189904
0.00179378
0.00166627
0.00153693
0.00126268
0.00119498
0.00115747
0.00116237
0.00119054
0.00122667
0.0012611
0.00128785
0.00130641
0.00131728
0.00132464
0.00133533
0.00135873
0.00140393
0.00148646
0.00161931
0.00178122
0.00192928
0.0020414
0.00211294
0.00215189
0.00216682
0.00216915
0.00217057
0.00215421
0.00211362
0.00204537
0.00194386
0.00181906
0.0016862
0.00134468
0.00123838
0.0011599
0.00111908
0.00111285
0.0011282
0.00115475
0.00118397
0.00121159
0.00123539
0.00125693
0.00128119
0.00131763
0.00138063
0.00148385
0.00164032
0.00182525
0.00200063
0.00212572
0.00220825
0.00225515
0.00227637
0.00228231
0.00228502
0.00227087
0.00223534
0.00217048
0.00207672
0.00195638
0.00182514
0.00147703
0.0013495
0.00123884
0.00115771
0.00110967
0.00109009
0.00109352
0.00110984
0.00113305
0.00115918
0.00118722
0.00121985
0.00126411
0.001337
0.00145893
0.00163707
0.00184318
0.00203877
0.00219288
0.00229072
0.0023452
0.00237034
0.00237827
0.00238189
0.00237125
0.00233847
0.00227765
0.00219119
0.0020778
0.001953
0.00165959
0.00152829
0.00140044
0.00128809
0.00120025
0.0011402
0.0011067
0.00109469
0.00109856
0.0011129
0.00113591
0.0011674
0.00121278
0.00128607
0.00141725
0.00161337
0.00183824
0.00205185
0.00222403
0.00234436
0.00241461
0.00244935
0.00246161
0.00246235
0.00245048
0.00242307
0.00236869
0.00228961
0.00218549
0.00206805
0.00189151
0.00176839
0.00163567
0.0015042
0.00138613
0.00128851
0.00121455
0.00116388
0.00113412
0.00112205
0.00112498
0.00114261
0.00117905
0.00124524
0.00136944
0.00157484
0.00181405
0.00204416
0.002234
0.00237173
0.00245735
0.00250526
0.00252634
0.00252981
0.00251826
0.00249176
0.00244582
0.00237455
0.00227982
0.00217306
0.00216182
0.00205354
0.0019259
0.00178842
0.00165294
0.00152746
0.00141757
0.00132677
0.00125636
0.00120609
0.00117583
0.00116603
0.00117984
0.00122831
0.00133506
0.00152898
0.00177526
0.00201796
0.00222402
0.00237875
0.00248123
0.00254386
0.00257537
0.00258502
0.00257742
0.00255363
0.00251363
0.00245145
0.00236846
0.00227245
0.00245776
0.00236713
0.00225192
0.00211839
0.00197699
0.00183542
0.00169969
0.00157487
0.00146495
0.00137288
0.001301
0.00125266
0.00123199
0.00124956
0.00132791
0.00149228
0.00172757
0.00197735
0.00219655
0.00236736
0.00248746
0.00256575
0.00260985
0.00262887
0.0026276
0.00260995
0.0025773
0.00252523
0.00245264
0.00236668
0.00276273
0.0026931
0.00259378
0.00247116
0.00233297
0.00218575
0.00203526
0.00188659
0.0017447
0.00161445
0.00150042
0.00140838
0.00134471
0.00132166
0.00135904
0.00148314
0.00168671
0.00192735
0.00215476
0.00233993
0.00247717
0.00257247
0.00263144
0.00266272
0.00267234
0.00266437
0.00263948
0.00259563
0.00253046
0.00245281
0.00306149
0.00301341
0.00293379
0.00282696
0.00269851
0.0025536
0.00239765
0.00223525
0.00207127
0.00191108
0.00176034
0.00162632
0.00151744
0.00144758
0.0014371
0.00151074
0.00166968
0.00188315
0.00210438
0.00229919
0.00245221
0.00256644
0.00264285
0.00268965
0.00271243
0.00271408
0.00269621
0.00265845
0.00260054
0.00253095
0.00334981
0.0033193
0.0032598
0.00317017
0.00305467
0.00291711
0.00276212
0.00259388
0.00241678
0.00223582
0.00205677
0.00188732
0.00173708
0.00162149
0.00155994
0.00157748
0.00168326
0.00185823
0.00206091
0.00225503
0.00241719
0.00254528
0.00263892
0.00270193
0.00273876
0.00275241
0.00274491
0.00271479
0.0026651
0.0026042
0.00362167
0.00360405
0.00356075
0.00348655
0.00338396
0.00325545
0.00310464
0.00293539
0.00275145
0.00255727
0.00235824
0.00216192
0.00197827
0.00182364
0.00171439
0.00167569
0.00172651
0.00185327
0.00202712
0.00221198
0.00237468
0.0025128
0.00261998
0.00269869
0.00275075
0.00277936
0.00278417
0.00276444
0.00272562
0.00267609
0.00386776
0.00385714
0.00382375
0.00376049
0.00366749
0.00354626
0.00339959
0.00323077
0.00304294
0.00284011
0.00262751
0.00241262
0.0022054
0.00202197
0.00187427
0.0017876
0.00178048
0.00186114
0.00199717
0.00216178
0.00231817
0.00246769
0.00258707
0.0026786
0.00274529
0.00279059
0.00281126
0.00280614
0.00278422
0.0027502
0.00407304
0.00406258
0.00403154
0.00397122
0.00388134
0.00376271
0.00361723
0.00344722
0.00325544
0.0030458
0.00282416
0.00259813
0.00237785
0.00217713
0.0020048
0.00188159
0.00182537
0.00185436
0.00195552
0.00209595
0.00225305
0.00239625
0.00252129
0.00262795
0.00271349
0.00277869
0.00281867
0.00283817
0.00283393
0.0028154
0.00423006
0.00420834
0.00416799
0.00410201
0.00400947
0.00388989
0.0037433
0.00357051
0.00337391
0.00315811
0.00293021
0.00269849
0.00247281
0.00226413
0.00208026
0.00193367
0.00183918
0.00181644
0.00187145
0.00198664
0.00213129
0.002281
0.00242483
0.00255201
0.0026569
0.00273874
0.00279406
0.00283613
0.00285528
0.00286075
0.00431649
0.0042768
0.00422102
0.00414471
0.00404593
0.00392243
0.00377228
0.00359516
0.00339427
0.0031762
0.00294955
0.0027227
0.00250393
0.00229924
0.00211841
0.00195979
0.00183426
0.00176232
0.00175832
0.00182204
0.00194038
0.00208618
0.00223948
0.00238575
0.00251582
0.00262479
0.00271098
0.00278224
0.00283238
0.00286746
0.00429288
0.00423379
0.00416352
0.0040789
0.00397635
0.00385146
0.00370109
0.00352592
0.00333186
0.00312771
0.00292178
0.0027203
0.0025283
0.00234662
0.00218316
0.00202904
0.00188366
0.00176853
0.00170016
0.00168921
0.00173822
0.00183726
0.00197163
0.00212149
0.00227047
0.00240861
0.00253034
0.00263795
0.002725
0.00279571
0.00410694
0.00404322
0.0039732
0.0038941
0.00380143
0.0036902
0.00355827
0.00340902
0.00324985
0.00308858
0.00292955
0.00277325
0.00262174
0.00247794
0.00234431
0.00220928
0.00206419
0.00192823
0.00181338
0.00173213
0.00169403
0.00170318
0.00175862
0.00185218
0.00197173
0.00210456
0.00223937
0.00236956
0.00248709
0.00259179
0.00376248
0.0037211
0.00368206
0.00363965
0.00358566
0.00351508
0.00342799
0.00332951
0.00322522
0.00312019
0.00301643
0.00291238
0.00280342
0.00269701
0.00259809
0.00249181
0.00236725
0.00223879
0.00211368
0.0020011
0.00190934
0.00184505
0.00181308
0.00181524
0.00184939
0.00191053
0.00199176
0.00208601
0.00218499
0.00228931
0.00345245
0.00345311
0.00346461
0.00347321
0.00346581
0.00344085
0.00340048
0.00334908
0.00328887
0.00322425
0.00315768
0.00308802
0.00301215
0.0029343
0.00286204
0.00278368
0.00269111
0.00259215
0.00249027
0.00239173
0.00230188
0.00222419
0.00216183
0.00211789
0.00209228
0.00208418
0.0020924
0.00211497
0.00214948
0.00220814
0.00330761
0.00332155
0.00335194
0.00338248
0.0034
0.00340216
0.00338861
0.00336114
0.0033238
0.00328115
0.00323442
0.00318225
0.00312514
0.00306735
0.00301275
0.00295369
0.00289127
0.00282536
0.00276055
0.00270054
0.00264922
0.00260645
0.00257333
0.00255189
0.00253746
0.00252908
0.00252734
0.00253138
0.00254268
0.00257448
0.00324417
0.00326729
0.00329515
0.00331844
0.00332967
0.00332892
0.00331772
0.00329762
0.0032717
0.00324124
0.00320714
0.00316896
0.00312672
0.00308521
0.00304299
0.00300298
0.0029658
0.00293052
0.00290126
0.00288078
0.00287031
0.00287231
0.00288428
0.00290053
0.00291958
0.00293871
0.00296086
0.0029827
0.00300344
0.00301245
0.000211059
0.00021568
0.000211118
0.000204566
0.000196604
0.000187737
0.000178491
0.000169316
0.000160529
0.000152408
0.000145083
0.000138691
0.000133282
0.00012905
0.000126049
0.000124586
0.000124925
0.000127806
0.00013398
0.000142878
0.000152155
0.000159617
0.000164134
0.000165206
0.000162595
0.000155841
0.000144753
0.000128045
0.000108262
9.23772e-05
0.000919946
0.00103366
0.00103383
0.000970952
0.000888292
0.00080676
0.00073337
0.000669313
0.000613858
0.000566538
0.000525782
0.000491807
0.000463518
0.000442124
0.000425977
0.000417669
0.000416612
0.000426219
0.000445003
0.000472741
0.000506758
0.000541682
0.000571236
0.000588335
0.000585514
0.000557832
0.000511898
0.000451448
0.000399285
0.000341379
0.00143806
0.00165333
0.00169902
0.00164503
0.00154945
0.0014409
0.00133359
0.00123449
0.00114572
0.00106808
0.00100052
0.000944222
0.000898514
0.000866326
0.000846031
0.00084275
0.000852566
0.000873162
0.000895883
0.00092405
0.000961421
0.00100367
0.00104279
0.00106637
0.00105399
0.00100639
0.000926019
0.000815211
0.000706424
0.000608359
0.00178843
0.00204485
0.00211633
0.00208511
0.00200147
0.00189401
0.00177867
0.00166716
0.0015639
0.00147107
0.00138985
0.00132289
0.00127092
0.00123866
0.00122591
0.00124076
0.00127198
0.0013071
0.00133212
0.00135859
0.0013903
0.00142625
0.00146402
0.00148868
0.00147249
0.00141128
0.00130662
0.00116157
0.00100941
0.000875261
0.00201072
0.00224184
0.00234234
0.00234516
0.0022812
0.0021872
0.00207685
0.00196866
0.00186461
0.00176751
0.00168311
0.00161505
0.00156567
0.00154149
0.00154486
0.00158639
0.00164333
0.00169238
0.00171601
0.00173316
0.00176276
0.0017926
0.0018248
0.00184913
0.00183333
0.00176558
0.00164861
0.00148332
0.00130254
0.00113803
0.00214151
0.00235186
0.00244866
0.00246683
0.00242919
0.00235746
0.00226896
0.0021645
0.00206376
0.00196875
0.00189068
0.00182992
0.00179012
0.0017811
0.00180788
0.00188188
0.00196551
0.00202567
0.0020487
0.00205792
0.00207752
0.00210199
0.00212962
0.00215333
0.0021403
0.00207513
0.00195414
0.00178046
0.00158252
0.00139444
0.00224416
0.00238224
0.00245188
0.00247372
0.00245759
0.00241046
0.00234379
0.00226246
0.00217756
0.0021011
0.00202972
0.00197773
0.00195298
0.00196464
0.00202217
0.00213158
0.00224254
0.00231075
0.00233218
0.00233614
0.0023454
0.00236248
0.00238651
0.00240952
0.0023999
0.002342
0.00222661
0.00205371
0.00184984
0.00164229
0.00227692
0.0023219
0.00236108
0.0023818
0.00238447
0.00236643
0.00232966
0.00227681
0.00221418
0.0021554
0.00210281
0.00206819
0.00206294
0.00209968
0.00219322
0.00233966
0.00247731
0.00255275
0.00257292
0.00257303
0.00257264
0.00258388
0.0026039
0.00262529
0.00261935
0.00257011
0.00246913
0.002306
0.00210164
0.00187921
0.00226517
0.00224019
0.00224204
0.00225221
0.00226175
0.00226176
0.00224884
0.00222187
0.00218494
0.00215102
0.00212114
0.00210891
0.00212842
0.00219314
0.00232582
0.00251012
0.00267262
0.0027566
0.00277781
0.0027739
0.00276623
0.00277191
0.00278908
0.00280818
0.0028053
0.00276643
0.00267879
0.00252946
0.00232893
0.00210232
0.00227039
0.00218442
0.00214033
0.00212379
0.00212495
0.00213125
0.00213406
0.0021287
0.00211584
0.00210221
0.00209478
0.00210889
0.00215454
0.00225134
0.00242458
0.00264588
0.00283084
0.00292576
0.00294937
0.00294197
0.00293216
0.00293318
0.00294843
0.00296496
0.00296518
0.00293172
0.00285284
0.00272018
0.00253213
0.00231442
0.00232916
0.00220619
0.00209322
0.00203856
0.00201234
0.00200891
0.0020149
0.00202199
0.00202693
0.00203215
0.0020438
0.00207671
0.00214944
0.00228024
0.00249414
0.00274964
0.00294903
0.00305762
0.00308744
0.00308253
0.00307623
0.00307392
0.0030873
0.00310163
0.00310087
0.00307053
0.00299925
0.00288181
0.00271293
0.00250909
0.00242439
0.0022817
0.0021501
0.00203849
0.00195826
0.00193276
0.00192617
0.00193212
0.00194411
0.00196091
0.00198661
0.00203349
0.00212291
0.0022877
0.00253979
0.00282837
0.00304117
0.00315283
0.00319447
0.00320375
0.00320033
0.00319807
0.00320932
0.0032177
0.00321486
0.00318896
0.00312475
0.00302078
0.00287324
0.00268948
0.00256802
0.00241245
0.00225225
0.00211234
0.00200917
0.00194201
0.00190422
0.00189357
0.00189798
0.00191412
0.00194412
0.00199794
0.00209449
0.00228323
0.0025678
0.00288153
0.00311498
0.00323563
0.00328996
0.0033079
0.00330953
0.00331054
0.00331646
0.00332036
0.00331596
0.00329273
0.00323592
0.00314737
0.00302052
0.00285615
0.00276459
0.00261613
0.00245322
0.00229379
0.00215694
0.00205216
0.00198004
0.00193803
0.00191949
0.00191964
0.00194001
0.0019893
0.00208483
0.00227979
0.00258568
0.002917
0.00316682
0.00331423
0.00338214
0.00340879
0.00341329
0.00341356
0.0034163
0.0034184
0.00341406
0.00339189
0.0033431
0.00326823
0.00315743
0.0030095
0.00303849
0.00290037
0.00274021
0.00257213
0.00241258
0.002275
0.00216505
0.00208417
0.00202966
0.00199973
0.00199505
0.00202592
0.00211037
0.00229455
0.00260105
0.00294058
0.00319917
0.00336089
0.00344828
0.0034855
0.0035012
0.00350659
0.00350998
0.00351405
0.00351264
0.00349214
0.00345152
0.00338468
0.00328366
0.00315052
0.00336374
0.00324173
0.00309317
0.00292643
0.00275586
0.00259411
0.0024499
0.00232884
0.00223262
0.00216276
0.00212229
0.00212063
0.00217903
0.00234094
0.00262505
0.00295853
0.00322005
0.00339497
0.00349938
0.00355028
0.00357841
0.0035911
0.00359905
0.00360776
0.00361239
0.00359666
0.00355953
0.00349777
0.00340474
0.0032839
0.00372033
0.00361866
0.00348586
0.00332664
0.00315296
0.00297601
0.00280548
0.00264912
0.00251205
0.00239896
0.00231571
0.00227425
0.00229289
0.00242007
0.00266443
0.002974
0.00323231
0.0034174
0.00353693
0.003603
0.00364406
0.00366655
0.00368367
0.00369969
0.00370948
0.00369783
0.00366563
0.00360985
0.00352424
0.00341375
0.00409318
0.00400904
0.00389143
0.00374164
0.00356927
0.0033838
0.00319463
0.00301013
0.00283723
0.0026828
0.00255531
0.00246865
0.00244315
0.00252075
0.00271671
0.00298822
0.00323419
0.00342531
0.00355766
0.00364059
0.00369478
0.00372936
0.00375723
0.00378134
0.00379833
0.00379284
0.00376901
0.00372148
0.0036443
0.00354312
0.00446279
0.00439098
0.0042849
0.00414321
0.00397337
0.00378313
0.00358081
0.00337447
0.00317159
0.00298006
0.00281023
0.00267723
0.00260466
0.0026241
0.00276593
0.00299087
0.00321955
0.00340911
0.00355016
0.00365349
0.00372022
0.00376883
0.00380935
0.00384574
0.00387189
0.00387964
0.00386854
0.00383271
0.00376689
0.00367375
0.00480987
0.00474346
0.0046433
0.00450633
0.00433798
0.0041441
0.00393159
0.00370749
0.00347902
0.0032546
0.00304574
0.00286821
0.00274673
0.00270969
0.00278734
0.00296146
0.00316569
0.00335482
0.00350905
0.00362001
0.00370594
0.00377195
0.0038282
0.00387695
0.00392201
0.00395475
0.00396417
0.0039413
0.00388507
0.0038048
0.00511282
0.00504438
0.00494409
0.00480771
0.00463856
0.00444049
0.00421868
0.00397875
0.00372753
0.00347395
0.0032307
0.00301373
0.00284721
0.00275743
0.00276757
0.00288339
0.00305114
0.00322699
0.00338685
0.00351738
0.00362402
0.00371244
0.00378931
0.00385733
0.0039229
0.00397722
0.00401215
0.00401533
0.00398286
0.00392507
0.00534565
0.0052692
0.00516375
0.00502427
0.004852
0.00464877
0.00441791
0.0041636
0.00389282
0.00361586
0.00334697
0.00310195
0.00290249
0.00276952
0.00272149
0.00276909
0.00288027
0.0030242
0.00317578
0.00331752
0.0034451
0.00355923
0.0036636
0.00376045
0.00385371
0.00393519
0.003996
0.00402644
0.00402389
0.00399519
0.00547951
0.0053914
0.00527789
0.00513342
0.00495739
0.00474971
0.00451232
0.00424815
0.00396581
0.00367823
0.00340118
0.00314923
0.00293914
0.00278418
0.00269698
0.00267996
0.00272145
0.00280473
0.00291525
0.00303966
0.0031692
0.00329939
0.00342937
0.00355823
0.00368435
0.00379996
0.00389552
0.00396316
0.00399456
0.0040039
0.00548364
0.00538402
0.00526366
0.00511671
0.00494087
0.00473487
0.0045005
0.00423903
0.00396316
0.00368871
0.003431
0.00320087
0.00300773
0.00285738
0.00275612
0.00269864
0.00267444
0.0026818
0.00271875
0.00278316
0.00287191
0.00298138
0.00310903
0.00325117
0.00340139
0.00354924
0.00368259
0.0037921
0.0038686
0.00391413
0.00533396
0.00522919
0.00511103
0.00497233
0.00480978
0.00462012
0.0044052
0.00417155
0.00393214
0.00370282
0.0034944
0.00331065
0.00315474
0.00302745
0.00292994
0.00285717
0.00278933
0.00273427
0.00269651
0.00268199
0.00269554
0.00273978
0.00281652
0.00292523
0.0030603
0.00321052
0.00336106
0.00349913
0.00361273
0.00369479
0.00504324
0.00494217
0.00484293
0.00473389
0.00460878
0.00446214
0.00429628
0.00411948
0.00394325
0.00377814
0.0036299
0.00349835
0.00338312
0.00328229
0.00319535
0.00312033
0.00303233
0.00294366
0.0028595
0.00278705
0.00273346
0.00270427
0.00270489
0.00274029
0.00281087
0.00291085
0.00302797
0.00314931
0.00326251
0.00335951
0.00468429
0.00461477
0.00456037
0.00450999
0.0044465
0.00436107
0.00425786
0.00414472
0.00403035
0.00392165
0.00382139
0.00372815
0.00364089
0.00355785
0.00347982
0.00340252
0.00330872
0.00321158
0.00311553
0.00302528
0.00294575
0.00287988
0.00283173
0.00280732