/*--------------------------------*- C++ -*----------------------------------*\
  =========                 |
  \\      /  F ield         | OpenFOAM: The Open Source CFD Toolbox
   \\    /   O peration     | Website:  https://openfoam.org
    \\  /    A nd           | Version:  12
     \\/     M anipulation  |
\*---------------------------------------------------------------------------*/
FoamFile
{
    format      ascii;
    class       volScalarField;
    location    "1350/air";
    object      epsilon;
}
// * * * * * * * * * * * * * * * * * * * * * * * * * * * * * * * * * * * * * //

dimensions      [0 2 -3 0 0 0 0];

internalField   nonuniform List<scalar> 
243000
(
2.14039
2.66219
3.03147
3.31074
3.49088
3.5779
3.58488
3.52705
3.41849
3.27231
3.1004
2.9177
2.73223
2.55146
2.37724
2.21481
2.06922
1.95416
1.88057
1.85002
1.84198
1.81958
1.74452
1.59207
1.36531
1.08481
0.798378
0.156968
0.133816
0.103159
1.28848
1.54586
1.69476
1.76171
1.77379
1.74686
1.69212
1.61823
1.53168
1.43795
1.34169
1.24727
1.15699
1.07431
1.00091
0.940281
0.896094
0.875581
0.882353
0.91503
0.960799
0.998756
1.00624
0.967381
0.877294
0.743165
0.587628
0.423615
0.297004
0.183213
1.20233
1.46781
1.59189
1.6179
1.58794
1.52307
1.43736
1.34115
1.24133
1.14297
1.0494
0.963322
0.88591
0.819392
0.764857
0.725218
0.703913
0.706938
0.736131
0.78948
0.856064
0.918894
0.958642
0.960183
0.913322
0.817971
0.688835
0.534621
0.392374
0.253238
1.06768
1.40402
1.59511
1.67824
1.68456
1.64214
1.56934
1.47915
1.38075
1.2809
1.18396
1.09353
1.01178
0.941969
0.88615
0.848829
0.835114
0.851897
0.900214
0.975514
1.0635
1.14449
1.19746
1.20667
1.1601
1.05627
0.909633
0.729173
0.552348
0.376083
0.848375
1.18908
1.43325
1.57502
1.63404
1.63353
1.59106
1.52236
1.43958
1.35091
1.26165
1.17585
1.09724
1.03035
0.978403
0.947833
0.945434
0.978439
1.04676
1.14285
1.24928
1.34456
1.40719
1.42197
1.37663
1.2689
1.11199
0.916011
0.715433
0.512927
0.701634
0.936275
1.17469
1.36027
1.47197
1.51938
1.51917
1.48485
1.4296
1.36141
1.28712
1.2129
1.144
1.08529
1.04147
1.0213
1.03281
1.08363
1.17205
1.28753
1.40997
1.51665
1.58641
1.60525
1.56164
1.45319
1.29171
1.08834
0.873324
0.653714
0.670845
0.778974
0.961528
1.13696
1.26624
1.34262
1.38121
1.38421
1.36065
1.31953
1.26728
1.211
1.1557
1.10896
1.07656
1.06935
1.09643
1.16568
1.2737
1.40713
1.54359
1.65966
1.73495
1.75702
1.71555
1.60854
1.44676
1.24204
1.02051
0.791179
0.747501
0.72963
0.819538
0.954666
1.08094
1.17321
1.23088
1.25571
1.25533
1.24025
1.21153
1.17535
1.13716
1.10484
1.08587
1.09287
1.13618
1.22368
1.35036
1.50027
1.64926
1.77351
1.85357
1.87857
1.8398
1.73583
1.57689
1.37516
1.15381
0.920461
0.91035
0.801661
0.780215
0.838981
0.931334
1.02003
1.08777
1.12919
1.14678
1.1475
1.13446
1.11626
1.09486
1.07754
1.07251
1.09377
1.15276
1.25715
1.40104
1.56633
1.72676
1.85867
1.94345
1.97169
1.93636
1.83677
1.68304
1.4879
1.27103
1.0384
1.10898
0.984798
0.871331
0.828836
0.851934
0.90631
0.964961
1.01169
1.04129
1.05533
1.05563
1.04761
1.03784
1.03309
1.04048
1.0746
1.14765
1.26722
1.42497
1.60383
1.7756
1.91581
2.00595
2.03826
2.00742
1.91352
1.76737
1.58026
1.37053
1.14284
1.33459
1.21438
1.07164
0.951143
0.885426
0.871874
0.891591
0.92222
0.950329
0.970172
0.979712
0.980763
0.977679
0.979296
0.995182
1.03905
1.12313
1.25525
1.42734
1.6171
1.79761
1.94529
2.0423
2.08013
2.05518
1.96877
1.83061
1.65274
1.45226
1.2334
1.58412
1.46739
1.33675
1.18056
1.04772
0.955449
0.907684
0.893193
0.896881
0.906846
0.915696
0.920386
0.921823
0.925725
0.94353
0.992009
1.08261
1.22296
1.40523
1.60716
1.79785
1.95272
2.05558
2.09943
2.08193
2.00373
1.87466
1.70703
1.51698
1.30918
1.85758
1.74304
1.617
1.47577
1.3094
1.15911
1.04034
0.959646
0.912676
0.889595
0.880278
0.876917
0.876058
0.879145
0.893979
0.939646
1.03063
1.17388
1.36163
1.57136
1.77209
1.93673
2.04813
2.09897
2.08817
2.01984
1.90133
1.74483
1.56582
1.37008
2.15562
2.04135
1.91636
1.77869
1.61829
1.44258
1.27614
1.13317
1.02251
0.945145
0.895888
0.86687
0.851186
0.845746
0.853999
0.889527
0.973123
1.11259
1.30043
1.51423
1.7222
1.89619
2.01786
2.07859
2.07678
2.01799
1.91175
1.76765
1.60028
1.41726
2.47761
2.36106
2.23417
2.09515
1.94123
1.7594
1.57251
1.39013
1.22484
1.08722
0.982332
0.908924
0.861786
0.835662
0.829521
0.851541
0.917914
1.04521
1.22636
1.43933
1.65186
1.83467
1.96735
2.03977
2.04933
2.00198
1.90775
1.77698
1.62203
1.45209
2.82147
2.69994
2.56872
2.42553
2.26855
2.09047
1.89617
1.69419
1.49368
1.30664
1.14494
1.01628
0.922459
0.861096
0.829301
0.830731
0.876367
0.980362
1.146
1.35159
1.56462
1.7545
1.89822
1.98367
2.00691
1.97327
1.89218
1.77455
1.63272
1.47615
3.18415
3.05505
2.9173
2.76805
2.60532
2.42674
2.22856
2.01772
1.79839
1.57896
1.37165
1.18927
1.04152
0.932982
0.863226
0.8344
0.853382
0.93043
1.06948
1.25842
1.46576
1.65914
1.81277
1.91182
1.95055
1.93215
1.86636
1.76404
1.63764
1.49545
3.56305
3.42332
3.277
3.12027
2.95044
2.76558
2.56573
2.34989
2.11999
1.881
1.64216
1.41625
1.21726
1.05664
0.93952
0.87047
0.854914
0.899971
1.00919
1.1731
1.36539
1.55498
1.71532
1.82719
1.88226
1.88192
1.83568
1.75144
1.64073
1.51261
3.95508
3.80219
3.64557
3.48018
3.30264
3.11215
2.91012
2.68959
2.45172
2.1996
1.93951
1.68169
1.44034
1.23025
1.06215
0.945477
0.887362
0.894439
0.968796
1.10341
1.27605
1.4573
1.61956
1.74157
1.81256
1.83036
1.80255
1.73615
1.64121
1.52718
4.35714
4.18989
4.02177
3.84709
3.66273
3.4744
3.26716
3.04049
2.79479
2.53195
2.25609
1.97477
1.70041
1.44766
1.23052
1.06314
0.956558
0.91894
0.952868
1.05292
1.20045
1.36812
1.52802
1.65705
1.74169
1.77687
1.76657
1.7178
1.63875
1.53895
4.76923
4.58754
4.40787
4.22557
4.04284
3.85297
3.64312
3.412
3.15949
2.88689
2.59717
2.2962
1.99445
1.705
1.44269
1.22494
1.06668
0.978715
0.96687
1.02619
1.14248
1.29058
1.44275
1.5748
1.67024
1.72127
1.72793
1.69644
1.63341
1.5481
5.19806
5.00548
4.81953
4.64617
4.47255
4.28327
4.0738
3.84095
3.58283
3.29991
2.99408
2.67081
2.33869
2.01086
1.70233
1.43393
1.22171
1.07948
1.01595
1.0298
1.10738
1.22912
1.36733
1.49702
1.59962
1.66406
1.68708
1.67232
1.62539
1.55477
5.62544
5.44364
5.27991
5.11594
4.94384
4.75697
4.54955
4.31708
4.05636
3.76678
3.44876
3.10675
2.7476
2.38366
2.02781
1.70256
1.42966
1.22815
1.10718
1.06895
1.10286
1.18968
1.30687
1.42813
1.53281
1.60724
1.64484
1.64575
1.61489
1.55926
6.05754
5.88648
5.72423
5.56461
5.39995
5.2224
5.02487
4.80169
4.54805
4.26194
3.94183
3.59089
3.21378
2.82136
2.42421
2.04486
1.7039
1.43617
1.25137
1.15353
1.13616
1.18175
1.26825
1.37356
1.47402
1.55352
1.60275
1.61828
1.60287
1.56225
6.43245
6.26509
6.11057
5.96192
5.81069
5.64862
5.46771
5.26146
5.02395
4.75155
4.4405
4.09343
3.71257
3.30607
2.8808
2.45798
2.0562
1.72275
1.46877
1.30329
1.22411
1.21883
1.26658
1.34483
1.43157
1.50951
1.56543
1.5931
1.59165
1.56551
6.77408
6.60233
6.44889
6.30515
6.16201
6.01187
5.84658
5.65927
5.44197
5.18942
4.8958
4.57172
4.21335
3.82213
3.40239
2.96715
2.53272
2.13793
1.80893
1.56427
1.40894
1.33613
1.32989
1.36801
1.42924
1.49387
1.54743
1.58057
1.58931
1.57588
7.21393
7.03297
6.86468
6.71098
6.56989
6.43681
6.30413
6.1626
6.00089
5.80821
5.57406
5.29579
4.97043
4.60098
4.19188
3.74699
3.27755
2.81671
2.40099
2.05746
1.80119
1.63402
1.54594
1.51893
1.53195
1.56406
1.59869
1.62383
1.63269
1.62571
7.9392
7.77903
7.62524
7.4901
7.37999
7.29427
7.22598
7.16272
7.08769
6.98414
6.83481
6.62896
6.35966
6.02807
5.64307
5.19606
4.68463
4.14885
3.62523
3.15023
2.75026
2.43924
2.21751
2.07458
1.992
1.94851
1.92588
1.90987
1.89069
1.86958
9.73702
9.61883
9.52155
9.48283
9.50851
9.58456
9.6899
9.80065
9.89377
9.94589
9.92675
9.83269
9.65475
9.39829
9.06741
8.64569
8.10268
7.49413
6.85775
6.23159
5.64946
5.13573
4.70626
4.36403
4.09234
3.86853
3.68485
3.53251
3.40261
3.2974
17.7166
17.5743
17.6407
17.9291
18.277
18.5585
18.787
18.9651
19.0991
19.1531
19.0864
18.9799
18.8239
18.6467
18.425
18.1696
17.7461
17.309
16.8706
16.4613
16.0872
15.7653
15.503
15.3049
15.0824
14.7744
14.4744
14.2139
14.0263
13.7947
4.16976
5.31632
5.98764
6.41018
6.61053
6.62569
6.49681
6.26563
5.96488
5.62779
5.27995
4.94256
4.62482
4.34446
4.10647
3.92849
3.82288
3.82199
3.952
4.1979
4.4538
4.5728
4.44877
4.04853
3.41526
2.63164
1.83049
1.08262
0.595618
0.52247
2.76388
3.15463
3.37773
3.50352
3.52807
3.46225
3.32722
3.14716
2.94273
2.73016
2.52429
2.33506
2.16843
2.03062
1.92852
1.87268
1.87706
1.964
2.15483
2.4386
2.73887
2.94972
2.993
2.84738
2.53902
2.10598
1.61642
1.10798
0.705046
0.404872
2.44555
2.72204
2.86268
2.92466
2.91663
2.84622
2.72595
2.57166
2.39863
2.22082
2.04967
1.89342
1.75736
1.64757
1.57077
1.53958
1.56809
1.67757
1.88551
2.17923
2.49191
2.73175
2.82666
2.75524
2.52826
2.18148
1.76695
1.31355
0.919806
0.580125
2.21026
2.42956
2.54833
2.6011
2.59674
2.5413
2.44339
2.31503
2.16891
2.01729
1.87036
1.73593
1.61924
1.52693
1.46618
1.4516
1.49807
1.62434
1.84325
2.13762
2.44728
2.69334
2.81232
2.77586
2.59651
2.29792
1.92709
1.50374
1.11866
0.764828
1.96566
2.13001
2.2407
2.30325
2.31815
2.28753
2.21706
2.11662
1.99736
1.87103
1.7471
1.63324
1.53506
1.4598
1.41536
1.41812
1.4832
1.62868
1.85925
2.15418
2.45589
2.6972
2.82184
2.80759
2.65882
2.39605
2.05892
1.66301
1.29071
0.937172
1.66594
1.78702
1.89956
1.97964
2.02204
2.02421
1.98702
1.91841
1.82853
1.72799
1.62731
1.53455
1.45562
1.39833
1.3715
1.39287
1.47812
1.64113
1.88207
2.17583
2.46833
2.70123
2.82602
2.82236
2.69629
2.46283
2.15569
1.78905
1.43335
1.08997
1.36251
1.41253
1.51747
1.62036
1.69874
1.739
1.7387
1.70438
1.64645
1.57402
1.49776
1.42665
1.36767
1.32919
1.32102
1.36194
1.46769
1.64889
1.89893
2.19016
2.47335
2.69604
2.81629
2.81569
2.70524
2.49835
2.21885
1.8823
1.54763
1.22118
1.1538
1.13731
1.20599
1.30247
1.39435
1.45738
1.48459
1.47915
1.4528
1.40863
1.3572
1.30782
1.26866
1.24935
1.25992
1.32072
1.44681
1.64763
1.90535
2.19364
2.46625
2.67606
2.78967
2.7919
2.69206
2.50527
2.25266
1.94595
1.63436
1.3276
1.0805
0.985429
0.994573
1.05597
1.13766
1.20919
1.2555
1.27296
1.26724
1.24256
1.21165
1.18179
1.16098
1.15979
1.18816
1.26821
1.41341
1.6297
1.89667
2.1814
2.44248
2.639
2.74699
2.75131
2.66144
2.49194
2.2618
1.9843
1.69665
1.41041
1.09505
0.955544
0.894417
0.9019
0.948794
1.00543
1.05544
1.08722
1.09912
1.09313
1.07537
1.05675
1.05033
1.06383
1.10782
1.20517
1.3673
1.59572
1.86802
2.14943
2.39935
2.58633
2.68931
2.69615
2.6169
2.46341
2.25302
2.00227
1.73793
1.4719
1.16718
1.00595
0.906125
0.85928
0.857141
0.878201
0.909541
0.937834
0.956316
0.962097
0.957166
0.947324
0.945625
0.967528
1.02261
1.13362
1.30936
1.547
1.82106
2.0974
2.33866
2.5184
2.61788
2.62831
2.55955
2.42209
2.23138
2.00294
1.76152
1.51497
1.29353
1.12783
1.01082
0.9288
0.877197
0.84923
0.845137
0.850427
0.858236
0.862622
0.861776
0.857363
0.857717
0.878597
0.937978
1.05689
1.24103
1.48401
1.7578
2.02836
2.26236
2.43601
2.53396
2.54946
2.49177
2.37028
2.1993
1.99249
1.77139
1.54322
1.48236
1.32345
1.20118
1.09747
1.00711
0.934226
0.881807
0.848172
0.827487
0.813813
0.803173
0.794515
0.791882
0.806327
0.860694
0.979463
1.16515
1.40791
1.67828
1.94273
2.17086
2.34028
2.43883
2.46105
2.41514
2.31076
2.15895
1.97314
1.76996
1.55977
1.73772
1.58891
1.46292
1.34133
1.22501
1.11645
1.02111
0.941818
0.879358
0.832378
0.797086
0.771424
0.756171
0.759228
0.798824
0.907265
1.08584
1.3218
1.58486
1.8422
2.06502
2.23215
2.33345
2.36434
2.33118
2.24373
2.11184
1.94687
1.76216
1.56937
2.04986
1.90356
1.77169
1.63871
1.50519
1.37117
1.24143
1.12139
1.01549
0.925788
0.853975
0.798434
0.759871
0.743197
0.762254
0.847873
1.00883
1.23012
1.48099
1.72931
1.94676
2.11312
2.21908
2.26059
2.24146
2.17163
2.05992
1.91684
1.75188
1.57618
2.3972
2.2491
2.11337
1.97221
1.82612
1.67447
1.51951
1.36641
1.22141
1.08981
0.975797
0.882095
0.810303
0.764902
0.756635
0.809603
0.941465
1.13906
1.37167
1.60783
1.81914
1.98553
2.09766
2.15146
2.14786
2.09642
2.00738
1.88576
1.73979
1.58063
2.75312
2.61021
2.47254
2.32627
2.17123
2.00666
1.83362
1.65592
1.47965
1.31123
1.1571
1.02245
0.911531
0.829933
0.787086
0.802717
0.893801
1.05713
1.26415
1.48355
1.68696
1.85346
1.97269
2.03973
2.05469
2.02231
1.95553
1.85451
1.72679
1.58349
3.10794
2.97306
2.83846
2.69132
2.53125
2.35745
2.17138
1.97591
1.77625
1.57851
1.38969
1.21629
1.06479
0.942688
0.859495
0.832642
0.878285
0.997418
1.16965
1.36612
1.55923
1.72567
1.85277
1.93395
1.967
1.95421
1.90615
1.8244
1.71405
1.58572
3.46568
3.33803
3.21073
3.06647
2.90508
2.72595
2.53094
2.32302
2.10681
1.88736
1.67089
1.46348
1.27299
1.10878
0.981174
0.905983
0.903349
0.974333
1.10615
1.27342
1.44999
1.61193
1.74356
1.83611
1.88551
1.89115
1.86057
1.79691
1.70285
1.58872
3.82927
3.71173
3.59463
3.4572
3.29897
3.1193
2.92013
2.70533
2.47935
2.24603
2.00964
1.77441
1.54817
1.34138
1.16628
1.04009
0.981181
0.999245
1.08413
1.21414
1.3679
1.51848
1.64991
1.75048
1.81363
1.83606
1.82135
1.77426
1.69505
1.59429
4.20715
4.10454
4.00129
3.87673
3.72767
3.55366
3.35762
3.14445
2.91844
2.68164
2.43546
2.18071
1.92349
1.67318
1.44704
1.2627
1.13882
1.0935
1.12342
1.20964
1.32845
1.45731
1.58149
1.68516
1.75798
1.79419
1.79336
1.76021
1.69302
1.60526
4.61885
4.53774
4.45611
4.35053
4.21849
4.06034
3.88064
3.68504
3.47693
3.25532
3.01707
2.75724
2.47748
2.18056
1.89894
1.64445
1.43771
1.30944
1.26406
1.28816
1.36031
1.46006
1.56535
1.66049
1.7332
1.77587
1.78555
1.76133
1.70542
1.62945
5.10307
5.05236
5.00211
4.92703
4.82685
4.70491
4.56747
4.42119
4.26753
4.10015
3.90733
3.67372
3.39235
3.06074
2.71391
2.36483
2.03881
1.78196
1.61497
1.53601
1.53029
1.57293
1.64047
1.71166
1.77013
1.80672
1.81695
1.79763
1.74751
1.67836
5.74484
5.74411
5.73874
5.71551
5.67776
5.6339
5.59458
5.5671
5.54781
5.52052
5.45812
5.32534
5.09696
4.76165
4.35202
3.87517
3.35311
2.86545
2.46924
2.19019
2.0232
1.94333
1.92194
1.92846
1.9401
1.94481
1.93376
1.90168
1.84474
1.77645
6.73574
6.81267
6.89379
6.97606
7.07337
7.20408
7.38628
7.62873
7.9175
8.21669
8.47187
8.60821
8.56397
8.31122
7.8829
7.25619
6.40773
5.48997
4.63507
3.92361
3.38223
2.99817
2.73965
2.56301
2.43815
2.3419
2.25663
2.17117
2.07659
1.99025
8.54034
8.77145
9.04104
9.36197
9.76612
10.2882
10.9566
11.7751
12.7045
13.6757
14.5857
15.2947
15.6909
15.7049
15.376
14.6255
13.3566
11.7833
10.112
8.52455
7.13231
5.98508
5.08368
4.39428
3.87254
3.4747
3.16252
2.90852
2.68981
2.52996
12.4008
12.9763
13.6658
14.5029
15.5503
16.8608
18.464
20.3317
22.3557
24.408
26.3226
27.9017
28.9992
29.5478
29.5135
28.7927
27.1815
24.8964
22.1841
19.304
16.4754
13.8692
11.5912
9.68427
8.13931
6.91138
5.94452
5.18604
4.58489
4.18075
21.6831
22.8531
24.1667
25.7994
27.8613
30.3634
33.2884
36.4816
39.7056
42.7875
45.5432
47.783
49.4391
50.4635
50.754
50.1758
48.6041
46.1081
42.8224
38.9796
34.8375
30.636
26.5885
22.8747
19.6009
16.7934
14.4405
12.5035
10.934
9.86805
38.5872
39.4255
41.1771
43.6891
46.6405
50.0663
53.7445
57.2345
60.273
62.854
64.9811
66.4847
67.5578
68.2031
68.1497
67.2701
65.901
63.8521
61.1378
57.8804
54.2737
50.5071
46.7418
43.0761
39.6061
36.3398
33.2838
30.4572
27.9522
26.1742
47.1332
46.715
47.8728
50.0113
52.512
54.9383
57.0245
58.693
59.9837
60.9377
61.5456
61.8779
61.9315
61.7963
60.9959
59.2713
57.6217
55.7356
53.7801
51.7587
49.8362
48.1643
46.8713
46.0131
45.4445
45.0633
44.8181
44.5205
44.0873
43.3508
6.96652
8.65808
9.42197
9.90008
10.0903
10.0165
9.73369
9.30642
8.79022
8.23745
7.67998
7.15017
6.66272
6.25082
5.92466
5.72471
5.68179
5.8929
6.46936
7.36093
8.22205
8.66419
8.49595
7.7301
6.51285
5.02539
3.50408
2.09687
1.08786
0.578882
4.21745
4.70479
4.91859
5.05012
5.0685
4.96865
4.76962
4.50256
4.19829
3.88253
3.57569
3.29085
3.03988
2.83334
2.68816
2.6232
2.67337
2.89987
3.37783
4.07637
4.76871
5.20641
5.26936
4.97896
4.41902
3.68912
2.86204
1.98859
1.25833
0.714644
3.82201
4.10645
4.23688
4.29158
4.2644
4.15775
3.98086
3.7525
3.49462
3.2278
2.96788
2.7267
2.51449
2.34201
2.22427
2.18309
2.24754
2.47042
2.91211
3.54143
4.17828
4.61877
4.7526
4.59003
4.20693
3.64057
2.96769
2.22553
1.55936
0.97444
3.62383
3.79461
3.88326
3.92018
3.89462
3.80537
3.65677
3.46192
3.23852
3.00443
2.77422
2.55944
2.37042
2.21901
2.12116
2.10089
2.18526
2.41951
2.84393
3.41572
3.99967
4.42683
4.58561
4.48132
4.17362
3.69812
3.11477
2.44913
1.82323
1.23123
3.42926
3.48866
3.54881
3.58588
3.57857
3.51775
3.40308
3.24415
3.05537
2.85295
2.65138
2.46227
2.29657
2.16784
2.09319
2.09939
2.21121
2.46642
2.88856
3.42811
3.94951
4.33979
4.50001
4.42307
4.15794
3.7448
3.22713
2.62468
2.03885
1.46368
3.19875
3.15425
3.18389
3.22424
3.24028
3.2136
3.13749
3.01717
2.8652
2.69654
2.52598
2.36517
2.22603
2.12315
2.07621
2.11439
2.25972
2.54113
2.96162
3.46862
3.944
4.28935
4.43335
4.36655
4.12819
3.75578
3.29289
2.74806
2.20593
1.66022
2.93221
2.78655
2.77954
2.82051
2.86003
2.86948
2.83534
2.75783
2.64609
2.51469
2.3781
2.24859
2.13927
2.06617
2.05134
2.12612
2.30951
2.61964
3.04031
3.51378
3.94467
4.24664
4.36574
4.29847
4.07798
3.7364
3.31575
2.82501
2.32681
1.81729
2.63501
2.37456
2.32236
2.36331
2.42876
2.47752
2.49052
2.46193
2.39326
2.30244
2.20302
2.10782
2.03121
1.99156
2.01215
2.12756
2.35149
2.6906
3.1105
3.55179
3.9398
4.19692
4.28935
4.21672
4.00793
3.69289
3.30484
2.86277
2.40722
1.93622
2.34104
2.01808
1.91966
1.94291
2.01342
2.08357
2.12767
2.13622
2.10913
2.06296
2.00314
1.94433
1.90258
1.89877
1.95698
2.11547
2.38038
2.74683
3.16325
3.57586
3.92199
4.13726
4.20176
4.12158
3.92197
3.62958
3.27176
2.86725
2.45312
2.02082
2.13563
1.77101
1.6157
1.59753
1.64958
1.72227
1.78424
1.82015
1.82669
1.8115
1.78532
1.76359
1.75738
1.78897
1.88647
2.08899
2.3939
2.78271
3.19656
3.58345
3.88664
4.06398
4.1021
4.01441
3.82312
3.55075
3.22104
2.85098
2.47255
2.07674
2.02135
1.633
1.43067
1.36023
1.3734
1.42536
1.48557
1.53424
1.56295
1.57296
1.57201
1.5746
1.60095
1.6662
1.80239
2.04783
2.39426
2.79997
3.20924
3.56942
3.82999
3.97419
3.99012
3.89676
3.71361
3.46009
3.15738
2.81989
2.47137
2.10977
1.99951
1.62342
1.38071
1.25103
1.21115
1.22333
1.26091
1.30335
1.33855
1.36249
1.37889
1.39784
1.4419
1.53641
1.70782
1.99235
2.37036
2.79687
3.19723
3.52431
3.75249
3.8677
3.86639
3.77023
3.59654
3.36208
3.08552
2.77911
2.46194
2.13217
2.05287
1.69594
1.44018
1.27221
1.17693
1.13727
1.13596
1.15354
1.17671
1.19896
1.22043
1.2472
1.29754
1.40771
1.60738
1.92398
2.32583
2.75762
3.14565
3.44984
3.65214
3.74449
3.73189
3.63676
3.47496
3.26107
3.01055
2.73613
2.44867
2.14636
2.18616
1.84822
1.58984
1.39753
1.26085
1.17327
1.12574
1.10467
1.09859
1.10211
1.11337
1.13563
1.18346
1.29164
1.5075
1.84562
2.26111
2.69073
3.06476
3.34871
3.52952
3.60592
3.58811
3.49866
3.35189
3.16057
2.93956
2.69468
2.43263
2.15337
2.40127
2.08633
1.83166
1.62296
1.45438
1.32495
1.23047
1.16348
1.11694
1.08716
1.07309
1.07693
1.1105
1.20398
1.41608
1.76238
2.17917
2.59921
2.95624
3.22263
3.38721
3.4545
3.43766
3.35898
3.23121
3.06768
2.87565
2.6554
2.41438
2.15496
2.70661
2.40942
2.15799
1.93666
1.74381
1.57849
1.43946
1.32504
1.23261
1.16072
1.10999
1.08293
1.09045
1.16019
1.34692
1.68305
2.08693
2.48896
2.82628
3.0767
3.23023
3.29498
3.28581
3.22361
3.12238
2.98664
2.81848
2.61969
2.39735
2.15494
3.09204
2.80804
2.55832
2.32568
2.11087
1.91394
1.73575
1.57729
1.43925
1.3223
1.22891
1.16279
1.13443
1.17021
1.31635
1.62028
1.99607
2.37122
2.68579
2.92044
3.06786
3.13653
3.14475
3.10622
3.02799
2.91556
2.76934
2.58995
2.38388
2.15629
3.54294
3.27026
3.02172
2.77884
2.54429
2.31948
2.10715
1.90993
1.73044
1.57061
1.43415
1.32529
1.25599
1.24864
1.3468
1.59786
1.92511
2.26608
2.55299
2.77073
2.91876
2.99972
3.02447
3.00503
2.94816
2.85794
2.73082
2.56819
2.37577
2.16126
4.04942
3.78776
3.54126
3.29039
3.03943
2.79139
2.55082
2.3219
2.10831
1.91223
1.73751
1.58771
1.47568
1.42241
1.46696
1.6512
1.92261
2.20885
2.46137
2.66262
2.80793
2.89529
2.93323
2.92962
2.89072
2.81866
2.70604
2.55646
2.37422
2.17213
4.60829
4.35963
4.11782
3.86341
3.60203
3.33825
3.07854
2.82864
2.59288
2.3729
2.17115
1.98901
1.83877
1.74095
1.72873
1.84581
2.04497
2.26986
2.47808
2.64758
2.7709
2.85107
2.89181
2.89762
2.86904
2.80328
2.69857
2.55815
2.38546
2.19329
5.23001
4.99783
4.76575
4.5157
4.25434
3.98787
3.72478
3.47245
3.23556
3.01424
2.80795
2.61354
2.44018
2.30535
2.24033
2.28707
2.40227
2.54389
2.67806
2.78797
2.86795
2.91888
2.94212
2.93963
2.90754
2.84179
2.73585
2.59445
2.42116
2.23318
5.94704
5.73651
5.52301
5.29085
5.04778
4.80192
4.56396
4.34331
4.14458
3.96523
3.79956
3.6361
3.47628
3.3297
3.2263
3.19916
3.20657
3.22216
3.23044
3.22848
3.21692
3.19506
3.16175
3.11579
3.05136
2.96206
2.84111
2.68812
2.50498
2.31355
6.82926
6.65141
6.47342
6.2831
6.0908
5.90771
5.74723
5.62234
5.53699
5.48451
5.4497
5.40663
5.34146
5.2474
5.14861
5.05859
4.91394
4.71938
4.49632
4.27263
4.06622
3.87819
3.70735
3.54943
3.39579
3.23698
3.06384
2.87302
2.66219
2.4535
8.03074
7.90647
7.79505
7.69129
7.60974
7.5672
7.58114
7.67333
7.84376
8.0782
8.34466
8.59101
8.77661
8.86607
8.87222
8.76268
8.41312
7.87711
7.23635
6.57783
5.9628
5.41132
4.92881
4.51178
4.14931
3.82674
3.52822
3.24385
2.96491
2.71899
9.87651
9.85564
9.87247
9.94141
10.0846
10.3313
10.7068
11.2327
11.9026
12.6849
13.5181
14.3085
14.9799
15.4576
15.7447
15.698
15.1184
14.1095
12.814
11.4039
10.0214
8.74106
7.6005
6.61953
5.79588
5.11009
4.53335
4.03957
3.60707
3.27334
13.088
13.3041
13.5765
13.983
14.5543
15.3419
16.3714
17.6554
19.1576
20.811
22.5029
24.0881
25.4678
26.5286
27.2666
27.3494
26.567
25.0484
22.9631
20.5472
18.0182
15.5418
13.236
11.1879
9.44633
8.01187
6.84899
5.90474
5.13368
4.59636
19.2681
19.9222
20.7235
21.6958
22.9629
24.6127
26.6186
28.9549
31.5183
34.1864
36.7972
39.1714
41.2311
42.8332
43.9258
43.9977
43.0002
41.0772
38.3776
35.1054
31.452
27.6646
23.9376
20.425
17.2804
14.5914
12.3822
10.5777
9.1201
8.14109
31.0904
32.0871
33.4666
35.3151
37.584
40.2103
43.1679
46.3611
49.6028
52.7492
55.6502
58.1526
60.1487
61.4595
62.0127
61.1142
59.5155
57.2625
54.5588
51.4234
47.9308
44.0605
39.9123
35.7405
31.7147
27.958
24.6691
21.8021
19.3672
17.6506
47.5536
47.9712
49.519
51.9172
54.8165
57.9584
61.1044
64.0318
66.62
68.8424
70.6705
72.0212
72.889
73.0722
72.2751
69.8612
67.3785
64.6421
61.9361
59.1938
56.5057
53.944
51.5874
49.5112
47.6616
45.8007
43.6043
41.3303
39.0791
37.1564
52.164
52.3869
53.9247
56.3467
59.1188
61.8154
64.1583
66.0165
67.3921
68.3322
68.8436
68.9558
68.5692
67.5082
65.2618
61.6804
58.5242
55.4397
52.7882
50.5088
48.7299
47.4804
46.8394
46.7944
47.2473
48.0002
48.9074
49.6707
50.0884
49.98
10.2785
12.5733
13.4055
13.782
13.895
13.7009
13.2433
12.6036
11.8552
11.0623
10.2619
9.50281
8.80328
8.21705
7.75917
7.50648
7.53732
8.14974
9.7032
11.9622
13.9427
14.8472
14.4977
13.1101
11.0459
8.62226
6.16576
3.89311
2.23739
1.17447
5.93939
6.49796
6.69327
6.75756
6.73671
6.59256
6.32779
5.97545
5.57295
5.15117
4.73456
4.341
3.99048
3.69795
3.49385
3.39968
3.49348
3.94292
4.96136
6.3976
7.674
8.33836
8.31043
7.75246
6.85668
5.76689
4.58341
3.32353
2.21319
1.36634
5.40626
5.65375
5.73523
5.73854
5.66773
5.51672
5.28567
4.99064
4.65692
4.30652
3.95811
3.62721
3.33094
3.08505
2.91577
2.85274
2.95158
3.34942
4.2151
5.42153
6.51774
7.14898
7.22957
6.88157
6.25811
5.46444
4.52894
3.49023
2.52869
1.68547
5.21277
5.27943
5.30471
5.29205
5.22403
5.09377
4.89831
4.64662
4.35771
4.04984
3.74008
3.44318
3.17662
2.95888
2.81615
2.78114
2.90667
3.31591
4.12453
5.17107
6.14219
6.7318
6.84607
6.58546
6.0833
5.40446
4.60222
3.69148
2.81228
1.99405
5.02634
4.94812
4.92587
4.91038
4.86485
4.77074
4.6185
4.41166
4.16558
3.897
3.62289
3.35732
3.12118
2.93339
2.82293
2.82628
2.99353
3.43721
4.22134
5.18686
6.01331
6.53792
6.64579
6.42152
5.97707
5.36874
4.65801
3.84319
3.03385
2.24919
4.79584
4.58383
4.50947
4.49396
4.47918
4.42924
4.32592
4.16753
3.96748
3.7413
3.5061
3.27627
3.07507
2.92277
2.85297
2.90553
3.12873
3.62108
4.3903
5.27234
6.00024
6.43155
6.50631
6.29044
5.87538
5.31532
4.66347
3.93261
3.19082
2.44936
4.52516
4.18423
4.04931
4.02906
4.04258
4.03856
3.98731
3.88126
3.73105
3.55093
3.35916
3.17078
3.01041
2.90097
2.88107
2.99354
3.28449
3.83248
4.59097
5.38741
6.01539
6.35772
6.38564
6.16187
5.76194
5.23724
4.63257
3.96682
3.28827
2.59488
4.2234
3.75616
3.55974
3.52676
3.56194
3.59762
3.59688
3.54463
3.44786
3.31776
3.17396
3.03181
2.91899
2.86009
2.89874
3.08109
3.44881
4.05306
4.79752
5.50868
6.03514
6.29102
6.26667
6.02642
5.63413
5.13708
4.57211
3.95582
3.33458
2.69242
3.90717
3.32365
3.06209
3.00779
3.05399
3.12021
3.16117
3.16279
3.12233
3.044
2.95138
2.85966
2.79997
2.79852
2.90352
3.16448
3.61457
4.27025
4.99043
5.62066
6.04745
6.21757
6.14125
5.88185
5.4944
5.02008
4.48956
3.91917
3.34325
2.75097
3.57818
2.95143
2.63832
2.54589
2.58227
2.66015
2.72908
2.7663
2.76809
2.73835
2.69843
2.65967
2.65728
2.71691
2.89544
3.24181
3.77587
4.473
5.16068
5.70676
6.04459
6.12924
6.00532
5.72911
5.34677
4.89286
4.39384
3.86661
3.33482
2.78835
3.33279
2.66884
2.31311
2.17184
2.17816
2.24607
2.32482
2.3856
2.41975
2.42806
2.42743
2.4412
2.49517
2.61953
2.87614
3.31148
3.92595
4.65024
5.29756
5.75894
6.00476
6.01946
5.85756
5.57028
5.19603
4.76278
4.29489
3.8109
3.31828
2.80849
3.16653
2.51044
2.10538
1.91371
1.87093
1.90858
1.97662
2.04434
2.09817
2.13474
2.16681
2.21535
2.32204
2.5125
2.84812
3.3717
4.05679
4.79057
5.38688
5.77413
5.93345
5.88909
5.6994
5.40836
5.0476
4.63812
4.20499
3.75719
3.29328
2.80913
3.09492
2.47475
2.04599
1.78952
1.6859
1.67553
1.71329
1.76903
1.82617
1.87754
1.93194
2.00635
2.14916
2.40368
2.81485
3.42081
4.1602
4.88296
5.42552
5.73751
5.8266
5.73908
5.53362
5.24801
4.90853
4.52951
4.12866
3.70521
3.26299
2.80079
3.12215
2.53676
2.10458
1.81188
1.64018
1.56625
1.55861
1.58481
1.62747
1.67746
1.7406
1.83072
1.99323
2.30293
2.78129
3.4581
4.22938
4.92522
5.41814
5.65583
5.68818
5.57395
5.36624
5.09731
4.78963
4.44324
4.06344
3.65743
3.23237
2.7884
3.23805
2.68948
2.25773
1.93532
1.71772
1.58867
1.52686
1.50984
1.52213
1.5542
1.61091
1.70365
1.87883
2.22267
2.75488
3.48566
4.26383
4.92886
5.35086
5.53461
5.52854
5.40408
5.20893
4.97382
4.69952
4.37456
4.00959
3.61688
3.20462
2.77546
3.45778
2.93741
2.51231
2.17293
1.91667
1.73612
1.61944
1.55206
1.52254
1.52271
1.55874
1.64134
1.82115
2.17723
2.74514
3.51085
4.2765
4.88802
5.25127
5.39126
5.36759
5.2505
5.09052
4.88932
4.63175
4.32173
3.96844
3.58535
3.18194
2.76464
3.78415
3.29135
2.87289
2.51819
2.22811
2.00074
1.83125
1.7115
1.63459
1.59514
1.59847
1.6606
1.83104
2.18126
2.77411
3.55203
4.28611
4.83235
5.14712
5.26118
5.24385
5.15793
5.01926
4.83075
4.58496
4.28573
3.94065
3.56389
3.16602
2.75819
4.2308
3.75275
3.33446
2.96353
2.64296
2.37386
2.15614
1.98663
1.86236
1.78084
1.74932
1.78299
1.94225
2.28444
2.87423
3.64469
4.32753
4.82197
5.09288
5.20512
5.20529
5.12592
4.98992
4.80362
4.56202
4.26781
3.92676
3.55313
3.15801
2.7576
4.78728
4.31479
3.89174
3.50426
3.15694
2.85268
2.59441
2.38262
2.21755
2.09881
2.03705
2.04488
2.19134
2.53203
3.10664
3.85369
4.48042
4.91957
5.18187
5.2863
5.27644
5.18362
5.04205
4.83876
4.57983
4.27695
3.93132
3.55582
3.16062
2.76828
5.4462
4.9754
4.54598
4.14453
3.77714
3.44785
3.16182
2.9221
2.73138
2.59069
2.51346
2.51103
2.65917
3.00964
3.58748
4.29627
4.88031
5.29007
5.52046
5.58206
5.51679
5.38282
5.2112
4.97748
4.68888
4.34907
3.97806
3.58758
3.18465
2.79597
6.21806
5.74793
5.31445
4.90666
4.5318
4.19484
3.90276
3.66069
3.47326
3.34231
3.28251
3.30703
3.49315
3.88185
4.50689
5.21163
5.75643
6.11487
6.26307
6.21211
6.04597
5.8466
5.57768
5.26177
4.90882
4.51799
4.09666
3.66846
3.2446
2.85211
7.14152
6.67369
6.24517
5.84709
5.48777
5.17338
4.91281
4.71353
4.58193
4.52057
4.54536
4.67071
4.96601
5.45389
6.19125
6.93102
7.4372
7.6958
7.66683
7.43028
7.11479
6.73186
6.27446
5.79432
5.31087
4.82488
4.32973
3.84298
3.37627
2.96797
8.29864
7.84617
7.44384
7.08615
6.78356
6.54446
6.38031
6.30275
6.31915
6.43811
6.67294
7.02579
7.55465
8.25031
9.19732
10.0109
10.4674
10.5522
10.2428
9.73314
9.10797
8.3462
7.54194
6.76274
6.03915
5.37313
4.74951
4.16595
3.63425
3.18941
9.87619
9.4664
9.12976
8.8676
8.69352
8.61956
8.66131
8.84237
9.17033
9.64658
10.2809
11.0513
11.9955
13.0493
14.34
15.2454
15.6288
15.5013
14.8399
13.8434
12.5923
11.2058
9.81229
8.51937
7.37516
6.38628
5.52613
4.77265
4.11847
3.6068
12.247
11.9491
11.7463
11.6716
11.745
11.9912
12.426
13.0689
13.9292
14.9953
16.2588
17.6566
19.2089
20.7655
22.5092
23.4521
23.7087
23.2924
22.1371
20.4454
18.3628
16.0964
13.8125
11.7072
9.87755
8.33735
7.05779
5.99152
5.11087
4.47789
16.1471
16.0786
16.1495
16.4189
16.9326
17.701
18.7481
20.0821
21.6918
23.5413
25.5837
27.7135
29.9506
32.0203
34.1126
34.8231
34.6268
33.5537
31.8666
29.6413
26.9416
23.8066
20.5005
17.3567
14.5759
12.2044
10.2406
8.6274
7.3316
6.46292
22.8605
23.1574
23.7274
24.5695
25.6863
27.1347
28.9337
31.0461
33.4186
35.9891
38.6647
41.3211
43.9945
46.2229
47.9427
47.0805
45.6919
43.747
41.5828
39.0857
36.2706
33.1768
29.898
26.4281
22.8866
19.6463
16.8473
14.4458
12.4931
11.2081
33.7275
34.2522
35.2925
36.8095
38.6999
40.8678
43.2387
45.8037
48.4777
51.1921
53.7611
56.0669
58.3541
59.6058
60.0075
56.9338
54.1178
51.2391
48.7112
46.2791
43.8883
41.5136
39.1467
36.7961
34.4181
31.7606
28.8636
26.0265
23.5358
21.7667
46.092
46.5078
47.8652
49.869
52.2335
54.7331
57.1948
59.5142
61.6326
63.5561
65.2256
66.5771
67.5241
67.1968
65.5045
60.1043
55.9685
52.2941
49.4898
47.2245
45.503
44.2846
43.5377
43.1583
43.0336
42.8944
42.4551
41.6653
40.3331
38.9322
47.8016
48.737
50.5636
53.0069
55.6623
58.2222
60.4667
62.3016
63.7242
64.7814
65.4529
65.7098
65.2958
63.4491
59.744
52.9386
48.1896
44.2201
41.3479
39.2122
37.9285
37.4659
37.7865
38.8206
40.3842
42.2364
44.1345
45.7708
46.9376
47.4384
14.2298
17.1898
18.0255
18.2423
18.1872
17.8233
17.1549
16.2704
15.2528
14.1742
13.0766
12.0217
11.0258
10.1676
9.47514
9.0943
9.21317
10.6088
14.1726
18.9911
22.6672
23.9902
23.0805
20.6271
17.3534
13.7352
10.1389
6.78019
4.22598
2.41337
7.92851
8.54863
8.6898
8.66024
8.55238
8.34212
8.00436
7.56175
7.05713
6.5211
5.98528
5.46655
4.995
4.58002
4.27627
4.1145
4.24547
5.05551
7.06534
9.71999
11.7442
12.5342
12.225
11.2222
9.87624
8.37976
6.82748
5.19652
3.71562
2.49139
7.22097
7.41581
7.40523
7.32007
7.17311
6.95711
6.66324
6.29971
5.88969
5.45256
5.01142
4.58206
4.1899
3.85076
3.60681
3.49368
3.6257