/*--------------------------------*- C++ -*----------------------------------*\
  =========                 |
  \\      /  F ield         | OpenFOAM: The Open Source CFD Toolbox
   \\    /   O peration     | Website:  https://openfoam.org
    \\  /    A nd           | Version:  12
     \\/     M anipulation  |
\*---------------------------------------------------------------------------*/
FoamFile
{
    format      ascii;
    class       volScalarField;
    location    "1350/air";
    object      k;
}
// * * * * * * * * * * * * * * * * * * * * * * * * * * * * * * * * * * * * * //

dimensions      [0 2 -2 0 0 0 0];

internalField   nonuniform List<scalar> 
243000
(
0.0540611
0.0609524
0.0648401
0.067135
0.0679681
0.0676011
0.066318
0.0643749
0.0619763
0.0592926
0.0564614
0.0536481
0.0509344
0.0483956
0.0460369
0.0439111
0.0420753
0.0407148
0.0400005
0.0399797
0.0403771
0.0406567
0.0402137
0.0385589
0.0355264
0.0311506
0.0259859
0.0238562
0.0215221
0.0178728
0.0802507
0.0883452
0.091634
0.0918049
0.0901284
0.0872886
0.0837264
0.079752
0.0755803
0.0713788
0.0672814
0.063412
0.0598281
0.0566305
0.0538681
0.0516627
0.0501582
0.0496459
0.0502904
0.0520587
0.0544712
0.0567443
0.0580117
0.0575891
0.0550752
0.0503982
0.0441008
0.0365075
0.0293901
0.0218433
0.0856382
0.0978081
0.103229
0.104344
0.103048
0.100219
0.096422
0.0920682
0.0874403
0.0827568
0.0781744
0.0738363
0.0698223
0.0662771
0.0632957
0.0610789
0.0598617
0.0600142
0.0616351
0.0645612
0.0681321
0.0714239
0.0734724
0.0735577
0.0711523
0.066116
0.0589663
0.0498128
0.0405229
0.0302623
0.0791705
0.0949942
0.103408
0.106953
0.107213
0.105397
0.102257
0.0982969
0.0938844
0.0892996
0.0847324
0.0803575
0.0762963
0.0727385
0.0698267
0.0678385
0.0670863
0.0679583
0.0704793
0.0743362
0.0787296
0.0826747
0.0852102
0.0856542
0.0834456
0.078398
0.0709702
0.0612466
0.0508957
0.0393895
0.0679661
0.0850889
0.0963377
0.102565
0.105095
0.105063
0.103223
0.100225
0.0965516
0.092543
0.0884153
0.0843537
0.0805449
0.077229
0.0745991
0.07302
0.0728727
0.0745301
0.077931
0.0826061
0.0876445
0.0920424
0.0948831
0.0955546
0.0935235
0.088589
0.0811345
0.0713021
0.0604742
0.048442
0.0598487
0.0725596
0.0844202
0.0930662
0.0980704
0.100149
0.100126
0.0986031
0.0961349
0.0930432
0.0896203
0.0861321
0.0828309
0.0799621
0.0777806
0.076752
0.0772991
0.07978
0.0840287
0.0894342
0.0950019
0.099731
0.10277
0.103591
0.101718
0.0969645
0.0896504
0.0799812
0.06907
0.0569419
0.0580335
0.0641677
0.0738667
0.0825911
0.0887238
0.0922556
0.0940053
0.0941299
0.0930491
0.0911533
0.0887211
0.0860654
0.0834132
0.0811354
0.0795295
0.0791487
0.080446
0.0837591
0.0888174
0.0948863
0.100908
0.105899
0.109082
0.110013
0.108288
0.10375
0.0966817
0.0873389
0.0766233
0.0646656
0.0622957
0.0613708
0.0663751
0.0735064
0.0798538
0.0843316
0.0870673
0.0882266
0.0882102
0.0874925
0.0861254
0.0843912
0.0825393
0.080952
0.0800018
0.0803164
0.0823854
0.0865174
0.0923454
0.0990251
0.105456
0.110682
0.11399
0.115022
0.113447
0.109145
0.102388
0.093467
0.0831531
0.0715274
0.071015
0.0652622
0.0641593
0.0673963
0.0722924
0.0768239
0.0801905
0.0822093
0.0830586
0.0830861
0.0824537
0.0815595
0.0805008
0.0796326
0.079361
0.0803733
0.0831935
0.0880923
0.0946424
0.101908
0.108729
0.11419
0.117638
0.118783
0.117373
0.113327
0.106924
0.098501
0.0886877
0.0775092
0.0809877
0.0747742
0.068943
0.0667514
0.0680569
0.0709691
0.074023
0.0764032
0.0778883
0.0785836
0.0785957
0.07819
0.0776979
0.0774461
0.0777915
0.0794472
0.0829589
0.0885675
0.0957188
0.103526
0.110765
0.116511
0.120138
0.121432
0.120217
0.116452
0.110458
0.102528
0.0932506
0.082617
0.0916259
0.0859952
0.0790606
0.07304
0.0696976
0.0690609
0.0701571
0.0717944
0.0732669
0.0742921
0.0747807
0.0748317
0.0746713
0.0747478
0.0755343
0.0777022
0.0817867
0.0880185
0.0958282
0.104096
0.111675
0.117696
0.121576
0.123079
0.122105
0.118672
0.113067
0.10563
0.096914
0.08692
0.102715
0.0975643
0.091637
0.084308
0.0778583
0.0732635
0.0708716
0.0701847
0.0704306
0.070986
0.0714668
0.0717199
0.0717977
0.0719983
0.0729092
0.0753543
0.0798224
0.0865132
0.0948414
0.103669
0.111682
0.117991
0.122095
0.123829
0.123152
0.120062
0.114862
0.10792
0.0997632
0.0904368
0.114218
0.109433
0.104048
0.097827
0.0902982
0.0832421
0.0774837
0.073483
0.071136
0.0699956
0.0695542
0.0694096
0.0693831
0.0695543
0.0703325
0.0726892
0.0772611
0.0841956
0.0928775
0.102126
0.110608
0.117338
0.12179
0.123801
0.123384
0.12069
0.115937
0.109496
0.101883
0.0932112
0.126127
0.121591
0.116536
0.11084
0.103992
0.0962905
0.0887197
0.0819788
0.0765989
0.0727523
0.0702722
0.0688065
0.068017
0.0677549
0.0682067
0.0700782
0.07437
0.0812518
0.0900833
0.09964
0.108521
0.115689
0.120579
0.122988
0.122924
0.120605
0.116346
0.110436
0.103361
0.0953293
0.13839
0.13398
0.1291
0.123648
0.117468
0.109959
0.101982
0.09391
0.0863135
0.0797567
0.0746019
0.0709091
0.0685022
0.0671624
0.0668659
0.0680542
0.0715322
0.0779486
0.0866405
0.096333
0.105547
0.113169
0.11855
0.121441
0.121827
0.119953
0.11617
0.110811
0.104283
0.0968737
0.150912
0.146514
0.141695
0.136345
0.130358
0.123373
0.115569
0.107171
0.0985112
0.0901017
0.0825327
0.0762825
0.0715823
0.0684405
0.0668006
0.0669098
0.0693421
0.074694
0.082823
0.092385
0.1018
0.109844
0.115748
0.119193
0.120128
0.11879
0.115524
0.110697
0.104728
0.0979291
0.163578
0.159097
0.154249
0.148912
0.142984
0.136335
0.128766
0.120466
0.111528
0.10223
0.0930648
0.0846422
0.0775279
0.0721107
0.0685385
0.0670574
0.0680957
0.0721248
0.0790958
0.088096
0.0974694
0.105826
0.112242
0.116288
0.117856
0.117121
0.114457
0.11025
0.10493
0.0987748
0.176305
0.17164
0.166688
0.161304
0.155369
0.14878
0.141488
0.133398
0.124506
0.114924
0.104947
0.0950788
0.0859695
0.078277
0.0724445
0.0689138
0.0681355
0.0705215
0.0760896
0.0840699
0.0929713
0.10135
0.108177
0.112821
0.115077
0.115073
0.113191
0.109714
0.105053
0.0995203
0.189005
0.184081
0.178968
0.173491
0.167516
0.160999
0.153918
0.146005
0.137225
0.127609
0.117303
0.106636
0.0961668
0.0865925
0.078559
0.0727549
0.0697974
0.0701967
0.0740302
0.0807035
0.0888713
0.0970601
0.104111
0.109264
0.112211
0.112952
0.111815
0.109064
0.105062
0.100148
0.201597
0.196386
0.191078
0.185486
0.179494
0.173271
0.166287
0.158475
0.149785
0.140203
0.129788
0.118729
0.10744
0.0965091
0.086623
0.078623
0.0733288
0.0714336
0.0731935
0.0782128
0.0853223
0.0930568
0.100146
0.105693
0.109259
0.11073
0.11031
0.108281
0.104944
0.10065
0.214099
0.20861
0.203112
0.197457
0.191718
0.185645
0.178818
0.171146
0.162566
0.153044
0.142593
0.131321
0.119522
0.107645
0.0963067
0.0863816
0.0788127
0.0744592
0.0738803
0.0768669
0.0825454
0.0895021
0.0963801
0.102159
0.10624
0.108396
0.108683
0.107368
0.104703
0.101035
0.226725
0.221069
0.215539
0.210328
0.205031
0.199182
0.192611
0.185177
0.176762
0.167304
0.156773
0.145248
0.132917
0.120169
0.107544
0.095935
0.086249
0.0794534
0.076331
0.0770289
0.0808355
0.0866306
0.0929839
0.0987581
0.103213
0.105967
0.106949
0.106333
0.104345
0.101311
0.238977
0.233789
0.229064
0.224273
0.219191
0.213608
0.20733
0.200183
0.192017
0.182743
0.172282
0.16067
0.148012
0.134615
0.120853
0.107562
0.0957629
0.086568
0.0808106
0.0789496
0.0806023
0.084759
0.0902147
0.095695
0.100307
0.103527
0.10514
0.105187
0.103879
0.101489
0.251054
0.246289
0.241727
0.237195
0.232475
0.227331
0.221541
0.214911
0.207253
0.198445
0.188356
0.17698
0.164339
0.150652
0.136147
0.121541
0.107637
0.0960741
0.0876671
0.0830467
0.0822056
0.0843735
0.0884214
0.0932323
0.0977135
0.101193
0.103323
0.103997
0.103346
0.101602
0.261289
0.256726
0.252476
0.248352
0.244121
0.239546
0.234387
0.228437
0.22149
0.213389
0.203949
0.193158
0.180962
0.167479
0.152773
0.137423
0.122025
0.108469
0.0975451
0.090082
0.086391
0.0861257
0.088339
0.091921
0.0958187
0.0992605
0.101698
0.102899
0.102845
0.101727
0.27046
0.265856
0.261711
0.257798
0.253872
0.24972
0.245109
0.239831
0.233636
0.226332
0.217693
0.20798
0.196956
0.184555
0.170771
0.15587
0.140262
0.12529
0.112094
0.101749
0.0948894
0.0915732
0.0912631
0.0929745
0.0957105
0.098564
0.100904
0.102344
0.102729
0.102159
0.28206
0.277322
0.272877
0.268785
0.264998
0.261401
0.257788
0.253905
0.249432
0.244052
0.237435
0.229463
0.219962
0.208916
0.196336
0.182182
0.166629
0.150626
0.135421
0.122176
0.111798
0.104749
0.10092
0.0997105
0.100253
0.101632
0.103118
0.104195
0.104579
0.10429
0.300666
0.296618
0.292702
0.289237
0.286397
0.284174
0.282396
0.280742
0.278774
0.276047
0.272093
0.2666
0.259331
0.250236
0.239465
0.226647
0.211522
0.195075
0.178301
0.162364
0.148303
0.136879
0.128421
0.122805
0.119489
0.117714
0.116781
0.116123
0.115342
0.114487
0.344554
0.341777
0.339483
0.338572
0.339191
0.341004
0.343503
0.346119
0.348311
0.349534
0.349087
0.346882
0.342689
0.336598
0.328656
0.31839
0.304918
0.289457
0.272833
0.255962
0.239755
0.224974
0.212223
0.201773
0.193275
0.18613
0.180163
0.175142
0.170809
0.167266
0.513794
0.511047
0.512337
0.517908
0.52459
0.529968
0.534313
0.537689
0.54022
0.541233
0.539984
0.537977
0.53503
0.531672
0.527455
0.522572
0.514416
0.505929
0.497349
0.48927
0.481825
0.475369
0.470071
0.466049
0.461516
0.455202
0.449009
0.443591
0.439675
0.434823
0.0843206
0.09665
0.102063
0.104277
0.104017
0.101925
0.0985598
0.0944058
0.0898075
0.085093
0.0804992
0.0762176
0.0723238
0.0689887
0.0662561
0.0643183
0.0633226
0.063645
0.0655964
0.0690095
0.0727189
0.0751385
0.0750532
0.0718326
0.0654654
0.0562455
0.0451881
0.0326276
0.0220642
0.0199789
0.136969
0.154361
0.157528
0.154187
0.147334
0.138736
0.129409
0.119992
0.11087
0.102386
0.0946801
0.0878991
0.0820882
0.0774325
0.0739985
0.072141
0.0721747
0.0746488
0.0797344
0.0869654
0.0947231
0.101022
0.104195
0.103221
0.0975569
0.0874536
0.0742254
0.0584358
0.0445322
0.0332673
0.158984
0.178515
0.183698
0.18158
0.175147
0.166308
0.156176
0.145574
0.135073
0.125181
0.116129
0.108154
0.10137
0.0960748
0.0924356
0.0910531
0.0923527
0.0968466
0.104352
0.113996
0.123859
0.131819
0.13614
0.135764
0.1299
0.118626
0.10332
0.0844532
0.0668841
0.0510929
0.162668
0.18285
0.190855
0.19121
0.186652
0.179367
0.170199
0.160081
0.149744
0.139817
0.130623
0.122496
0.11565
0.110491
0.107317
0.106991
0.10997
0.116607
0.126277
0.137717
0.148861
0.157629
0.162411
0.16231
0.156379
0.144601
0.128307
0.107771
0.0877901
0.0691905
0.157499
0.175902
0.185417
0.188492
0.186999
0.181816
0.174388
0.165637
0.156351
0.147312
0.138747
0.131143
0.124855
0.120383
0.11816
0.119319
0.124256
0.133089
0.144734
0.157588
0.169557
0.178712
0.183655
0.183696
0.177869
0.166085
0.149518
0.128362
0.107068
0.0869003
0.145496
0.159985
0.170329
0.175821
0.177402
0.175472
0.170801
0.164391
0.156945
0.148997
0.141507
0.134882
0.129626
0.126245
0.125337
0.12828
0.135363
0.146398
0.159853
0.173858
0.186355
0.195643
0.200572
0.200691
0.195065
0.183592
0.167217
0.146198
0.124434
0.103567
0.129136
0.136993
0.14669
0.154705
0.159979
0.161923
0.160539
0.156834
0.151734
0.145787
0.139856
0.13464
0.130612
0.128597
0.12929
0.134195
0.143556
0.156759
0.171867
0.186834
0.199685
0.20897
0.213806
0.213967
0.208594
0.197605
0.181743
0.161369
0.139758
0.118755
0.116552
0.118135
0.124709
0.132542
0.139469
0.143902
0.145442
0.144532
0.142209
0.138548
0.134532
0.130927
0.128429
0.12797
0.130405
0.137386
0.149025
0.164339
0.180986
0.196787
0.209911
0.219155
0.223883
0.224073
0.218988
0.208591
0.193457
0.174062
0.153052
0.132259
0.112717
0.106931
0.108329
0.113452
0.119929
0.1255
0.129077
0.130472
0.130204
0.128511
0.126457
0.124555
0.123684
0.124835
0.12906
0.138136
0.151975
0.169257
0.187335
0.203946
0.217335
0.226564
0.231226
0.231477
0.226719
0.21698
0.202727
0.184559
0.164492
0.144046
0.115342
0.104827
0.0998159
0.100441
0.104249
0.108916
0.113131
0.116016
0.117472
0.117622
0.116973
0.11641
0.117041
0.119703
0.125649
0.136729
0.152686
0.171621
0.190975
0.208391
0.222185
0.231479
0.236173
0.236559
0.232194
0.223171
0.209973
0.192984
0.173939
0.154125
0.122871
0.109479
0.100562
0.0961872
0.0957986
0.097626
0.100505
0.103329
0.105541
0.106881
0.107518
0.107977
0.109385
0.113224
0.120626
0.133472
0.151252
0.172077
0.192414
0.210442
0.224553
0.234113
0.239008
0.23963
0.235761
0.227562
0.215246
0.199496
0.181597
0.162673
0.135528
0.120971
0.10973
0.101682
0.0967471
0.0943488
0.0942669
0.0952623
0.096688
0.0980391
0.0991597
0.100244
0.102051
0.106195
0.114566
0.128755
0.147976
0.170125
0.19199
0.210776
0.225225
0.234957
0.240035
0.240945
0.237688
0.230233
0.218892
0.204372
0.187663
0.169827
0.153746
0.139405
0.127129
0.11654
0.107766
0.101165
0.0968344
0.094456
0.0934632
0.093294
0.0936306
0.0944028
0.0960498
0.0997851
0.108181
0.123058
0.143192
0.166236
0.188919
0.208661
0.223843
0.23408
0.239559
0.24069
0.237861
0.231375
0.22115
0.20788
0.192374
0.175682
0.177673
0.164261
0.151576
0.139177
0.127672
0.117512
0.109111
0.102586
0.097858
0.0947085
0.0928077
0.0920156
0.0925401
0.0952785
0.102456
0.117024
0.137324
0.16077
0.183992
0.204365
0.220232
0.231191
0.237375
0.239111
0.236893
0.231191
0.22224
0.210272
0.196037
0.180631
0.206265
0.19371
0.180962
0.167697
0.154499
0.141744
0.129926
0.119466
0.110635
0.103513
0.098175
0.0945428
0.0927811
0.0936178
0.0988179
0.111476
0.130946
0.154097
0.177457
0.198288
0.214859
0.226656
0.233706
0.23633
0.234987
0.23024
0.222494
0.211982
0.199216
0.185105
0.237814
0.226043
0.213696
0.200202
0.186085
0.171677
0.157366
0.14364
0.130982
0.119783
0.110352
0.102967
0.0978819
0.095778
0.0981831
0.107617
0.124795
0.146786
0.16972
0.190729
0.207946
0.220636
0.228724
0.232488
0.232245
0.228685
0.222387
0.213382
0.20201
0.189158
0.27021
0.259735
0.248063
0.234834
0.220415
0.205083
0.189156
0.173055
0.15731
0.142455
0.12902
0.117516
0.108436
0.102586
0.101297
0.106827
0.120151
0.139613
0.161375
0.182138
0.199823
0.213437
0.222706
0.227808
0.229067
0.226927
0.222117
0.214517
0.204402
0.192724
0.302232
0.29324
0.282683
0.270173
0.255967
0.240276
0.223427
0.205773
0.187798
0.17005
0.153139
0.137716
0.124479
0.114405
0.108838
0.109803
0.118503
0.134053
0.153402
0.173249
0.19113
0.205693
0.216284
0.222926
0.225785
0.225124
0.221621
0.215309
0.206427
0.195887
0.333861
0.326129
0.316935
0.305418
0.291779
0.276178
0.258927
0.240372
0.220947
0.201135
0.181513
0.162732
0.145615
0.131305
0.121146
0.117036
0.120672
0.131616
0.147633
0.165651
0.182983
0.197966
0.209641
0.217691
0.222109
0.223003
0.220903
0.215913
0.208268
0.198867
0.364926
0.358378
0.350524
0.340126
0.327298
0.312132
0.294901
0.275982
0.255777
0.234688
0.213176
0.191794
0.171376
0.15316
0.138462
0.129246
0.127373
0.133115
0.144957
0.1602
0.176153
0.190902
0.203187
0.21241
0.218291
0.220786
0.220102
0.216479
0.210112
0.201919
0.395324
0.38991
0.383278
0.3741
0.362244
0.347766
0.330949
0.312197
0.291878
0.27029
0.24775
0.224641
0.201712
0.180132
0.16127
0.147094
0.139361
0.139558
0.14647
0.158077
0.171515
0.185327
0.197663
0.207614
0.214683
0.218676
0.219455
0.217217
0.212204
0.205379
0.425104
0.420794
0.415373
0.407315
0.396493
0.382973
0.367069
0.34917
0.329582
0.308455
0.285936
0.262175
0.237745
0.213414
0.191089
0.172239
0.158569
0.152454
0.153753
0.160632
0.171101
0.182785
0.194128
0.204121
0.21191
0.21707
0.219245
0.218512
0.214866
0.209348
0.455383
0.451934
0.4475
0.440576
0.431102
0.419202
0.405152
0.389283
0.371762
0.35254
0.331491
0.308451
0.283731
0.257873
0.232735
0.209421
0.189578
0.176054
0.170034
0.170785
0.176513
0.185103
0.194891
0.204226
0.211913
0.217373
0.22019
0.220661
0.218309
0.214161
0.488089
0.485793
0.482371
0.477001
0.4697
0.460661
0.450155
0.438356
0.425174
0.410261
0.3931
0.373048
0.349982
0.324141
0.297431
0.269918
0.242846
0.219957
0.20385
0.19534
0.193672
0.196771
0.202727
0.209589
0.215878
0.220781
0.223747
0.224784
0.223393
0.220586
0.527048
0.526374
0.525069
0.522776
0.519725
0.516176
0.512331
0.508174
0.50323
0.496675
0.487425
0.474071
0.455845
0.432618
0.406365
0.375836
0.340235
0.305068
0.274729
0.251832
0.23707
0.229397
0.227111
0.227845
0.229896
0.232074
0.233507
0.233869
0.232478
0.230544
0.580425
0.583631
0.58736
0.591691
0.597066
0.603754
0.611786
0.62075
0.62952
0.636698
0.640362
0.63798
0.628268
0.611045
0.588066
0.556748
0.514241
0.466759
0.419217
0.376059
0.340038
0.312203
0.292275
0.278803
0.270011
0.264234
0.26004
0.256539
0.252768
0.250271
0.669339
0.680898
0.695058
0.71187
0.731614
0.754253
0.779425
0.806029
0.831822
0.854864
0.872843
0.882972
0.883142
0.874347
0.85764
0.829574
0.785595
0.731112
0.670498
0.608468
0.548951
0.494964
0.448407
0.409981
0.379281
0.355169
0.336287
0.321438
0.309329
0.302372
0.847665
0.870302
0.896437
0.92735
0.962645
1.00129
1.04221
1.08274
1.11934
1.15046
1.17457
1.18972
1.19516
1.19174
1.18032
1.15738
1.11998
1.07056
1.01117
0.945371
0.876677
0.80799
0.741951
0.681013
0.626444
0.578613
0.537524
0.502808
0.473978
0.45638
1.10652
1.1208
1.15064
1.1906
1.23333
1.27821
1.32166
1.35829
1.38608
1.40629
1.41962
1.42428
1.42274
1.4162
1.40296
1.38011
1.35146
1.315
1.27186
1.22393
1.1738
1.12306
1.07339
1.02603
0.98095
0.937978
0.897278
0.858946
0.82464
0.802929
1.21045
1.20935
1.22946
1.26106
1.29439
1.3238
1.34642
1.36182
1.37125
1.37563
1.37515
1.3706
1.362
1.35143
1.33341
1.30573
1.27942
1.25078
1.22246
1.19499
1.17041
1.15097
1.13774
1.13038
1.127
1.12589
1.127
1.12735
1.12571
1.11792
0.118716
0.133781
0.13807
0.139313
0.137878
0.134238
0.129028
0.122878
0.116279
0.109678
0.103323
0.0974724
0.0922358
0.0879062
0.0845775
0.0826498
0.082446
0.0849205
0.0910964
0.100342
0.109435
0.115058
0.115534
0.110562
0.10068
0.0865839
0.0696832
0.0507018
0.033586
0.0226285
0.192886
0.21594
0.220795
0.216819
0.207758
0.196029
0.183113
0.16996
0.157167
0.145194
0.134229
0.124537
0.116194
0.109549
0.104727
0.102423
0.103249
0.108749
0.119918
0.135777
0.152052
0.164268
0.169714
0.167431
0.157367
0.140355
0.118434
0.0927159
0.069369
0.0483518
0.229591
0.255164
0.262728
0.26018
0.251702
0.239664
0.225602
0.210733
0.195908
0.181784
0.168702
0.157079
0.147136
0.139419
0.13425
0.132718
0.135419
0.143657
0.157973
0.176922
0.196024
0.210589
0.217754
0.216419
0.206002
0.187271
0.162203
0.131805
0.102716
0.0753695
0.249339
0.2728
0.280736
0.27998
0.273404
0.262889
0.249727
0.235235
0.220352
0.205835
0.192246
0.18014
0.169907
0.162273
0.157811
0.15797
0.163094
0.17394
0.19036
0.210678
0.230624
0.245755
0.253428
0.252651
0.242514
0.223505
0.197385
0.165044
0.132762
0.101613
0.257219
0.273937
0.282398
0.284016
0.279818
0.271639
0.260342
0.247471
0.23372
0.219874
0.206831
0.195233
0.185627
0.178928
0.17598
0.178553
0.186468
0.199825
0.217737
0.238381
0.258047
0.272784
0.280273
0.279735
0.270083
0.251556
0.225674
0.193068
0.159475
0.126322
0.256396
0.26682
0.273521
0.276252
0.2748
0.269586
0.261307
0.250268
0.23813
0.225619
0.213984
0.203687
0.195421
0.190341
0.189595
0.195158
0.206147
0.221897
0.240894
0.26128
0.279941
0.29366
0.300517
0.299923
0.290764
0.27311
0.248181
0.216431
0.182833
0.148913
0.251331
0.252446
0.255783
0.258789
0.259726
0.257632
0.252509
0.24466
0.235096
0.225112
0.215141
0.206484
0.200109
0.197211
0.199308
0.208271
0.222599
0.240623
0.260407
0.280182
0.297454
0.309762
0.315681
0.314769
0.306003
0.289379
0.26583
0.235672
0.203008
0.169066
0.240048
0.230135
0.229499
0.23251
0.235819
0.237251
0.235993
0.231935
0.22549
0.218197
0.210791
0.204454
0.200415
0.200166
0.20557
0.218263
0.236068
0.256303
0.276652
0.295623
0.31133
0.32204
0.326837
0.325408
0.316918
0.301362
0.27946
0.251381
0.220083
0.186663
0.225721
0.208434
0.203373
0.205053
0.209163
0.212755
0.214356
0.21347
0.210321
0.206363
0.201902
0.19831
0.197033
0.199755
0.208768
0.225422
0.24669
0.269102
0.289873
0.307974
0.322091
0.331161
0.334774
0.33272
0.324422
0.309956
0.289609
0.263477
0.233868
0.20169
0.215854
0.192836
0.182329
0.180596
0.183551
0.18781
0.191262
0.19291
0.192647
0.191202
0.189453
0.188889
0.190541
0.196455
0.209276
0.229975
0.254592
0.279025
0.300244
0.317487
0.330104
0.337616
0.340085
0.337393
0.329296
0.315582
0.296529
0.272438
0.244811
0.214518
0.212695
0.186085
0.169684
0.163285
0.163009
0.165911
0.169612
0.172648
0.174444
0.175202
0.175623
0.177141
0.181666
0.190813
0.207469
0.232108
0.259855
0.286106
0.307779
0.324336
0.335629
0.341768
0.343202
0.33997
0.331867
0.318799
0.301006
0.278866
0.253325
0.225113
0.215824
0.188691
0.168933
0.156585
0.151015
0.150775
0.152798
0.15557
0.158124
0.160196
0.162183
0.165174
0.171358
0.183537
0.20379
0.232196
0.262561
0.290353
0.312473
0.328543
0.338835
0.343883
0.34443
0.340571
0.332505
0.320229
0.303703
0.283421
0.260189
0.234285
0.225047
0.19829
0.176569
0.160724
0.150767
0.145713
0.144196
0.144888
0.146491
0.148479
0.150949
0.154661
0.161473
0.175517
0.19879
0.230302
0.263227
0.292081
0.314544
0.330291
0.339933
0.344258
0.343984
0.339774
0.331926
0.320441
0.305259
0.287035
0.266038
0.242221
0.240943
0.215511
0.193569
0.175498
0.161652
0.152105
0.146348
0.143419
0.14233
0.142553
0.144021
0.147264
0.153858
0.168001
0.193181
0.226938
0.261658
0.291989
0.314799
0.330338
0.339352
0.343026
0.342317
0.338136
0.330769
0.320177
0.306578
0.290253
0.271088
0.249025
0.264681
0.241048
0.219538
0.200219
0.183566
0.170138
0.15995
0.152599
0.147546
0.144484
0.14337
0.144715
0.149944
0.162723
0.187785
0.22265
0.258175
0.288972
0.312144
0.327662
0.336681
0.340274
0.33961
0.335901
0.329401
0.320055
0.308088
0.293198
0.275394
0.254867
0.295638
0.273826
0.253135
0.233247
0.21478
0.198255
0.183985
0.172103
0.162528
0.155231
0.150371
0.148456
0.150974
0.16134
0.183984
0.218241
0.25347
0.284194
0.307446
0.323101
0.332375
0.336289
0.336195
0.333402
0.328356
0.320471
0.309727
0.296023
0.279412
0.260183
0.332298
0.312302
0.292562
0.272491
0.252726
0.233792
0.216167
0.200238
0.186262
0.174472
0.165253
0.15929
0.15795
0.164744
0.183243
0.214691
0.248359
0.278296
0.3013
0.317103
0.326855
0.331515
0.332728
0.331401
0.327657
0.321038
0.311536
0.298993
0.283448
0.265335
0.373096
0.354733
0.335934
0.315877
0.295197
0.274425
0.25414
0.234861
0.217038
0.201067
0.187512
0.177161
0.171547
0.173674
0.187162
0.213712
0.243975
0.272367
0.29461
0.310463
0.321011
0.326953
0.329528
0.329517
0.327153
0.321891
0.313669
0.302276
0.287716
0.270602
0.4165
0.399548
0.381616
0.361703
0.340423
0.31832
0.296038
0.274179
0.253286
0.233824
0.216438
0.201929
0.191987
0.189129
0.197101
0.217351
0.243263
0.268267
0.288971
0.304879
0.315926
0.322893
0.326745
0.328102
0.327039
0.323268
0.316304
0.306022
0.29239
0.27621
0.461283
0.44554
0.428393
0.408766
0.387238
0.36435
0.340792
0.317214
0.294198
0.27221
0.251881
0.233937
0.220078
0.212634
0.2148
0.228682
0.248783
0.269774
0.288248
0.302605
0.313221
0.320532
0.325216
0.32762
0.327887
0.325462
0.319714
0.310407
0.297623
0.282433
0.50668
0.491961
0.475585
0.456492
0.435203
0.412244
0.388324
0.364114
0.340192
0.316981
0.295028
0.274889
0.258134
0.246845
0.243684
0.251196
0.264729
0.280101
0.294389
0.306085
0.315108
0.32175
0.326353
0.329135
0.330103
0.328611
0.323859
0.315521
0.30358
0.289448
0.55249
0.53871
0.523255
0.505155
0.484863
0.46288
0.439903
0.416593
0.393488
0.370929
0.349325
0.328962
0.311095
0.297335
0.290027
0.291182
0.297196
0.305186
0.313091
0.319878
0.325375
0.329591
0.332642
0.334557
0.33516
0.333706
0.329356
0.321602
0.310373
0.297227
0.599443
0.586792
0.57274
0.55646
0.53838
0.518981
0.49891
0.478783
0.459065
0.439997
0.421742
0.40419
0.388068
0.374283
0.364784
0.360295
0.357698
0.355749
0.35393
0.352246
0.350849
0.349595
0.348474
0.347323
0.345698
0.342788
0.337683
0.329846
0.318789
0.306411
0.650295
0.639336
0.627656
0.614676
0.600785
0.586456
0.572263
0.558738
0.5462
0.534748
0.524146
0.513653
0.503217
0.492898
0.484154
0.475977
0.464136
0.449575
0.433729
0.41829
0.404482
0.392553
0.382558
0.374285
0.367141
0.36018
0.352308
0.342824
0.331067
0.318921
0.711241
0.703457
0.69603
0.688884
0.682362
0.676871
0.672816
0.67059
0.670169
0.671341
0.673225
0.674138
0.673287
0.669932
0.665061
0.655664
0.635627
0.60781
0.575066
0.54089
0.508192
0.47839
0.452217
0.430048
0.411573
0.395836
0.381492
0.367468
0.352862
0.339968
0.796068
0.794505
0.794466
0.797113
0.802379
0.810555
0.821566
0.835403
0.851368
0.868538
0.885223
0.899087
0.909078
0.913828
0.914027
0.90452
0.878725
0.84055
0.793074
0.740475
0.686548
0.634055
0.585057
0.541285
0.503662
0.471986
0.445077
0.421473
0.40002
0.384127
0.930758
0.939347
0.952361
0.969019
0.989834
1.01485
1.0428
1.07301
1.10391
1.13404
1.16137
1.18349
1.19987
1.20887
1.21063
1.19801
1.16784
1.12446
1.0704
1.00869
0.941986
0.873363
0.805423
0.740615
0.681364
0.629165
0.584382
0.545616
0.512141
0.48998
1.14846
1.16405
1.18855
1.22083
1.25731
1.29515
1.33321
1.37026
1.40436
1.43457
1.45963
1.47783
1.48846
1.48939
1.48104
1.45331
1.41533
1.36987
1.32004
1.26638
1.20991
1.14977
1.08687
1.02428
0.96337
0.905099
0.851672
0.802787
0.759383
0.730666
1.39405
1.40313
1.43071
1.46926
1.51106
1.55108
1.58597
1.61373
1.63423
1.64854
1.65674
1.65777
1.65237
1.63893
1.61223
1.56536
1.51813
1.46933
1.42333
1.37983
1.34029
1.30508
1.27567
1.25316
1.23516
1.21749
1.19462
1.16967
1.14381
1.12329
1.42121
1.43194
1.46039
1.49824
1.53685
1.57036
1.59557
1.61153
1.61929
1.62059
1.61527
1.60376
1.58533
1.55806
1.51486
1.45511
1.40133
1.35045
1.30746
1.27241
1.24741
1.23283
1.22922
1.2371
1.2534
1.27471
1.29875
1.32062
1.33683
1.34368
0.15384
0.171542
0.174643
0.173672
0.170641
0.165391
0.158407
0.15039
0.14192
0.13348
0.125325
0.117805
0.111041
0.105469
0.101221
0.0989937
0.0995187
0.105397
0.119362
0.138709
0.155636
0.164776
0.164988
0.15724
0.143185
0.124091
0.101565
0.076591
0.0542997
0.0362698
0.252901
0.279431
0.281601
0.275831
0.264346
0.24964
0.233493
0.217061
0.201071
0.186014
0.172101
0.159676
0.148786
0.139967
0.133413
0.13032
0.132226
0.143684
0.167536
0.199553
0.229122
0.248238
0.254424
0.248325
0.231715
0.206476
0.175019
0.13867
0.105025
0.0760114
0.304986
0.332843
0.338222
0.33396
0.322901
0.307712
0.29019
0.271694
0.253227
0.235491
0.218873
0.203921
0.190896
0.180591
0.173525
0.171509
0.175836
0.190767
0.218888
0.255263
0.288798
0.311146
0.319685
0.314786
0.297729
0.270266
0.234799
0.192343
0.150858
0.11305
0.337111
0.360009
0.366549
0.363692
0.354366
0.340733
0.324216
0.306034
0.287359
0.269059
0.251704
0.23602
0.222548
0.212308
0.206197
0.206328
0.213519
0.231152
0.260978
0.298008
0.33185
0.354663
0.364025
0.360177
0.343869
0.316602
0.280261
0.235662
0.190176
0.147193
0.356125
0.371141
0.376349
0.374724
0.367505
0.356491
0.342244
0.325635
0.308089
0.290582
0.273768
0.258586
0.245886
0.2369
0.232903
0.236147
0.246448
0.266426
0.296659
0.332262
0.364354
0.386008
0.395127
0.39188
0.376644
0.350566
0.315089
0.270721
0.223874
0.177776
0.364818
0.369862
0.372447
0.371757
0.367758
0.359411
0.347644
0.333283
0.317907
0.3023
0.286964
0.273299
0.262394
0.255678
0.254853
0.262007
0.275685
0.297653
0.327493
0.3606
0.389633
0.40905
0.41713
0.413974
0.39972
0.375219
0.341567
0.298913
0.252632
0.204798
0.365952
0.360758
0.35851
0.357474
0.355579
0.350794
0.342722
0.332191
0.319403
0.305698
0.292463
0.281248
0.273034
0.269484
0.272897
0.284567
0.301847
0.325517
0.354396
0.384355
0.409663
0.426126
0.432571
0.429022
0.415526
0.392713
0.361429
0.321478
0.276618
0.228235
0.362109
0.344769
0.336673
0.334447
0.334334
0.332902
0.328639
0.321646
0.312435
0.30194
0.291922
0.283357
0.278554
0.279069
0.287582
0.304212
0.325292
0.350355
0.377832
0.404277
0.425598
0.43874
0.443157
0.438835
0.425871
0.404802
0.375649
0.338172
0.295277
0.248294
0.353293
0.323732
0.309346
0.305279
0.306277
0.307627
0.30701
0.304002
0.298822
0.291951
0.285406
0.280515
0.279676
0.285151
0.299305
0.321257
0.346138
0.372314
0.397971
0.420959
0.438206
0.447924
0.450125
0.44479
0.432254
0.412025
0.384541
0.349807
0.30952
0.264725
0.339669
0.303217
0.283553
0.276365
0.276979
0.279799
0.281836
0.281969
0.280111
0.276947
0.274323
0.273579
0.277194
0.288235
0.308472
0.33591
0.36439
0.39147
0.415189
0.434714
0.448013
0.454425
0.454402
0.448052
0.435152
0.415604
0.389728
0.357723
0.320662
0.278621
0.329135
0.28753
0.26293
0.25157
0.249948
0.252593
0.255979
0.258377
0.259379
0.259378
0.259968
0.263445
0.271825
0.288757
0.315426
0.348305
0.38006
0.40777
0.429643
0.445764
0.455418
0.458833
0.456673
0.449088
0.435844
0.416934
0.392648
0.3636
0.329599
0.290164
0.32393
0.28092
0.250531
0.234643
0.228866
0.229523
0.232567
0.235963
0.238895
0.241405
0.244829
0.251343
0.264484
0.287517
0.320524
0.358542
0.393118
0.421148
0.441294
0.454264
0.460703
0.461533
0.457558
0.448856
0.435509
0.417288
0.394936
0.368343
0.336494
0.299221
0.325427
0.283268
0.250897
0.22875
0.217185
0.214105
0.214986
0.217739
0.221236
0.225189
0.23066
0.239534
0.256344
0.285369
0.324163
0.366738
0.403564
0.431594
0.450174
0.460382
0.46416
0.462876
0.457425
0.448296
0.435118
0.417998
0.397422
0.372198
0.341842
0.30646
0.332937
0.292595
0.259239
0.234072
0.217981
0.2095
0.206295
0.206728
0.209149
0.213107
0.219453
0.229807
0.248991
0.283116
0.326768
0.373086
0.411492
0.439255
0.456405
0.464325
0.466055
0.463239
0.457049
0.447877
0.435488
0.419909
0.400126
0.375652
0.346386
0.312521
0.347785
0.309537
0.276174
0.249194
0.229329
0.216196
0.208591
0.205259
0.205009
0.207383
0.213174
0.223907
0.244574
0.281412
0.328861
0.37793
0.417175
0.444449
0.460281
0.466453
0.466795
0.46309
0.456835
0.448647
0.437673
0.422728
0.403246
0.379208
0.350641
0.317939
0.370474
0.334829
0.302626
0.274593
0.251741
0.234366
0.222119
0.214309
0.210253
0.209534
0.212957
0.22275
0.243435
0.280844
0.33119
0.381864
0.421164
0.447743
0.462369
0.467388
0.467139
0.463499
0.458598
0.45154
0.440917
0.426248
0.40697
0.383151
0.354972
0.323146
0.402105
0.368667
0.337482
0.308803
0.283632
0.262605
0.245949
0.2335
0.225045
0.220496
0.220667
0.228196
0.248061
0.284319
0.334966
0.385888
0.424449
0.450045
0.463665
0.468207
0.468319
0.465907
0.461581
0.455004
0.444787
0.430408
0.411304
0.38761
0.359638
0.328507
0.441151
0.409407
0.379039
0.349901
0.322937
0.298908
0.278381
0.261598
0.248735
0.240033
0.236598
0.240781
0.258737
0.292749
0.341588
0.391559
0.428667
0.452878
0.46586
0.470932
0.471673
0.469443
0.465386
0.45912
0.449278
0.435095
0.416165
0.392597
0.364788
0.334304
0.485616
0.455208
0.425457
0.395986
0.367689
0.341346
0.317696
0.297251
0.280487
0.267892
0.260976
0.261613
0.276734
0.308225
0.353599
0.401318
0.436288
0.458982
0.472008