/*--------------------------------*- C++ -*----------------------------------*\
  =========                 |
  \\      /  F ield         | OpenFOAM: The Open Source CFD Toolbox
   \\    /   O peration     | Website:  https://openfoam.org
    \\  /    A nd           | Version:  12
     \\/     M anipulation  |
\*---------------------------------------------------------------------------*/
FoamFile
{
    format      ascii;
    class       volScalarField;
    location    "1350/air";
    object      nut;
}
// * * * * * * * * * * * * * * * * * * * * * * * * * * * * * * * * * * * * * //

dimensions      [0 2 -1 0 0 0 0];

internalField   nonuniform List<scalar> 
243000
(
0.000122891
0.000125599
0.000124818
0.000122522
0.000119102
0.000114953
0.000110416
0.000105746
0.000101125
9.66918e-05
9.25396e-05
8.87793e-05
8.54571e-05
8.26166e-05
8.0238e-05
7.83527e-05
7.7e-05
7.63463e-05
7.65742e-05
7.7758e-05
7.96579e-05
8.1759e-05
8.34286e-05
8.40483e-05
8.31981e-05
8.05048e-05
7.6122e-05
0.000326313
0.000311534
0.000278689
0.000449846
0.000454401
0.000445911
0.000430566
0.000412157
0.000392554
0.000372851
0.00035374
0.000335654
0.000318886
0.000303656
0.000290153
0.000278435
0.000268666
0.000260921
0.00025547
0.000252681
0.000253346
0.000257971
0.000266559
0.000277936
0.000290153
0.000301003
0.00030855
0.000311179
0.000307601
0.000297874
0.000283163
0.000261747
0.000234381
0.000548978
0.000586574
0.00060247
0.000605659
0.000601848
0.000593503
0.000582141
0.000568834
0.000554342
0.000539279
0.000524119
0.000509344
0.00049527
0.000482478
0.000471423
0.000462974
0.000458165
0.000458532
0.000464455
0.000475166
0.000488022
0.000499649
0.000506797
0.000507159
0.00049888
0.00048097
0.000454293
0.000417713
0.000376654
0.000325476
0.00052836
0.000578447
0.00060334
0.00061344
0.000614116
0.000608814
0.00059967
0.000587908
0.000574533
0.000560308
0.000545764
0.000531452
0.000517801
0.000505516
0.000495197
0.000487949
0.000485025
0.00048791
0.000496615
0.000509812
0.000524542
0.000537497
0.000545713
0.000547208
0.000540201
0.000523695
0.000498343
0.000462994
0.000422078
0.000371296
0.000490049
0.000547994
0.000582792
0.000601109
0.000608339
0.00060816
0.000602711
0.000593849
0.000582807
0.000570563
0.000557643
0.000544628
0.000532128
0.000520975
0.000511909
0.000506284
0.000505523
0.000510943
0.000522174
0.000537376
0.000553391
0.000567072
0.000575792
0.000577904
0.00057183
0.000556638
0.000532785
0.000499513
0.00046006
0.000411748
0.000459454
0.000506092
0.000546026
0.000573062
0.000588058
0.000594114
0.000593926
0.000589306
0.000581823
0.000572298
0.000561614
0.000550485
0.000539763
0.000530229
0.000522801
0.000519119
0.000520679
0.000528629
0.000542191
0.000559104
0.000576101
0.000590225
0.000599183
0.00060165
0.000596291
0.000582296
0.000559994
0.000528998
0.000491638
0.000446395
0.000451832
0.000475722
0.000510715
0.000539963
0.000559507
0.000570524
0.000575819
0.000576098
0.000572693
0.000566721
0.000559017
0.000550499
0.000541836
0.000534253
0.000528763
0.000527244
0.000531216
0.000541659
0.000557408
0.000575858
0.00059369
0.000608147
0.000617245
0.000619952
0.000615179
0.000602259
0.000581479
0.000552744
0.000517782
0.000475679
0.000467247
0.000464584
0.00048382
0.00050938
0.000530922
0.000545566
0.000554292
0.000557894
0.000557857
0.000555487
0.000551027
0.000545341
0.000539193
0.000533823
0.000530475
0.000531228
0.000537645
0.000550529
0.00056836
0.000588251
0.000606877
0.00062167
0.000630915
0.000633836
0.000629587
0.000617648
0.000598327
0.000571748
0.000539345
0.000500243
0.00049858
0.000478162
0.00047484
0.000487262
0.000505035
0.00052074
0.000532047
0.000538665
0.000541418
0.000541437
0.000539354
0.000536324
0.000532703
0.000529651
0.000528514
0.000531545
0.000540361
0.000555562
0.000575389
0.000596726
0.000616177
0.000631388
0.000640862
0.000644041
0.000640311
0.000629293
0.000611366
0.000586879
0.000556947
0.000520694
0.000532302
0.000510974
0.000490953
0.000483832
0.000489307
0.000500154
0.000511054
0.000519299
0.000524343
0.000526646
0.000526655
0.000525222
0.000523518
0.00052252
0.000523448
0.000528631
0.00053971
0.000557109
0.000578672
0.000601431
0.000621877
0.000637711
0.000647566
0.000651105
0.00064794
0.00063783
0.000621309
0.000598682
0.000571029
0.000537523
0.000566148
0.00054807
0.000524943
0.000504799
0.000493771
0.000492327
0.000496844
0.000503025
0.000508374
0.00051201
0.000513716
0.000513866
0.000513279
0.000513482
0.000515974
0.000522962
0.000536016
0.000555468
0.000579032
0.000603075
0.00062439
0.000640892
0.000651358
0.000655425
0.000652925
0.000643796
0.000628518
0.000607592
0.000582065
0.000551285
0.000599414
0.000583821
0.000565372
0.000541865
0.000520725
0.000505604
0.000498026
0.000496344
0.000497771
0.000500097
0.000501996
0.000502981
0.000503287
0.00050397
0.000507051
0.000515161
0.000529688
0.000550801
0.000576093
0.000601844
0.000624385
0.000641647
0.000652688
0.000657339
0.000655626
0.000647459
0.000633397
0.000614057
0.000590478
0.000562255
0.000632066
0.000618349
0.000602561
0.000583635
0.00056044
0.000538028
0.000519382
0.000506413
0.000499005
0.000495668
0.000494617
0.000494451
0.000494557
0.000495256
0.000497997
0.000506078
0.000521268
0.000543497
0.00057017
0.000597365
0.000621347
0.000639808
0.000651791
0.000657182
0.000656139
0.000649039
0.000636249
0.000618429
0.000596628
0.000570734
0.000664177
0.000651821
0.000637802
0.00062163
0.00060143
0.000578456
0.000555114
0.000533767
0.00051644
0.000504007
0.000496085
0.000491527
0.000489162
0.000488521
0.000490275
0.000496878
0.000511529
0.000534041
0.000561622
0.000590088
0.000615447
0.000635249
0.000648471
0.000654938
0.000654829
0.000648709
0.000637254
0.00062097
0.000600842
0.000577093
0.000695694
0.000684251
0.00067139
0.000656749
0.000639746
0.000618503
0.000595248
0.000570967
0.000547419
0.000526573
0.0005099
0.000497873
0.000490064
0.000485808
0.000485092
0.000489494
0.0005017
0.000523184
0.000550891
0.000580271
0.00060696
0.000628256
0.000642924
0.000650719
0.000651805
0.000646854
0.000636667
0.000621903
0.000603407
0.00058165
0.000726463
0.000715565
0.000703455
0.000689786
0.000674174
0.000655302
0.000633939
0.000610147
0.000584733
0.000559182
0.000535441
0.000515322
0.000499927
0.000489573
0.000484274
0.000485023
0.000493799
0.000512185
0.000538714
0.000568329
0.000596113
0.000618933
0.000635221
0.000644584
0.000647146
0.000643602
0.000634783
0.000621475
0.000604581
0.000584703
0.00075631
0.000745675
0.000734019
0.000720988
0.000706252
0.00068934
0.000669602
0.000647307
0.000622478
0.000595697
0.000568291
0.000542171
0.000519388
0.000501613
0.000489765
0.000485022
0.000489034
0.000503185
0.000526476
0.000555047
0.000583333
0.000607495
0.000625471
0.000636594
0.000640899
0.000638961
0.000631734
0.00062014
0.000605099
0.000587167
0.000785146
0.00077452
0.000763092
0.000750481
0.000736347
0.000720352
0.000702212
0.000681539
0.0006581
0.000631936
0.000603629
0.000574471
0.000546447
0.000521896
0.000502744
0.000491022
0.000488728
0.000497344
0.000516319
0.000542239
0.00056975
0.000594518
0.000614001
0.000626959
0.000633202
0.000633274
0.000628161
0.000618547
0.000605372
0.000589305
0.000812891
0.000802092
0.000790729
0.000778385
0.000764705
0.000749598
0.000732671
0.000713327
0.000691261
0.000666286
0.000638512
0.000608565
0.000577866
0.000548543
0.000522935
0.000503867
0.000494106
0.000495821
0.00050913
0.000531239
0.000557052
0.000581801
0.000602333
0.000616954
0.000625208
0.00062733
0.000624242
0.000616616
0.000605296
0.00059107
0.000839477
0.000828437
0.000817048
0.000804881
0.000791657
0.000777709
0.000761711
0.000743393
0.000722482
0.000698722
0.000671982
0.00064245
0.000610966
0.000579046
0.00054881
0.000523298
0.000505919
0.000499759
0.000506005
0.00052288
0.000545787
0.000569657
0.000590723
0.000606737
0.000616856
0.000621037
0.000619928
0.000614296
0.000604853
0.000592442
0.000865012
0.000853753
0.000842331
0.000830432
0.000818246
0.000805032
0.000789931
0.000772624
0.00075281
0.00073021
0.000704594
0.000675924
0.000644636
0.000611657
0.000578607
0.000548238
0.000524085
0.000509828
0.000508079
0.000518198
0.000536759
0.000558628
0.000579462
0.00059644
0.00060819
0.000614353
0.000615232
0.000611586
0.000604037
0.000593455
0.000890018
0.000878724
0.000867543
0.000856925
0.000845916
0.000833616
0.000819607
0.000803489
0.000784863
0.000763403
0.000738795
0.000710916
0.00067988
0.000646313
0.000611466
0.000577657
0.000548003
0.000526322
0.000516146
0.000518557
0.00053107
0.000549528
0.000569097
0.000586353
0.000599365
0.000607316
0.000610181
0.000608496
0.000602873
0.000594134
0.000913686
0.000903654
0.000894399
0.000884854
0.000874627
0.000863274
0.000850349
0.000835423
0.000818062
0.000797908
0.000774568
0.000747833
0.000717597
0.000684205
0.000648234
0.000611591
0.000577305
0.000549168
0.000530838
0.000524791
0.00053017
0.00054348
0.000560486
0.000577102
0.000590766
0.000600165
0.000604867
0.000605069
0.000601383
0.000594518
0.000936437
0.000927419
0.000918702
0.000909955
0.000900749
0.000890615
0.000879078
0.000865697
0.000850001
0.000831603
0.000810038
0.000785038
0.000756323
0.000723997
0.000688161
0.00065017
0.000611963
0.000578427
0.000552753
0.000538095
0.000535312
0.000542161
0.000554819
0.000569545
0.000582974
0.000593239
0.000599478
0.000601492
0.000599692
0.000594703
0.000955232
0.000946793
0.000938859
0.000931092
0.000923051
0.000914274
0.000904279
0.000892622
0.000878829
0.000862482
0.000843053
0.000820318
0.000793859
0.000763573
0.000729162
0.000691489
0.000651745
0.000614657
0.000583042
0.000560376
0.00054873
0.000547728
0.000554518
0.000565464
0.000577207
0.000587433
0.00059461
0.000598164
0.000598081
0.000594914
0.000971847
0.000963472
0.000955872
0.000948647
0.000941344
0.000933555
0.000924824
0.000914731
0.000902745
0.000888416
0.000871177
0.000851545
0.000828614
0.000802026
0.000771416
0.000736932
0.000699093
0.000660822
0.000625151
0.000595645
0.000575156
0.000564847
0.000563659
0.0005687
0.00057684
0.000585283
0.000592172
0.000596418
0.000597608
0.000596039
0.000992549
0.000984177
0.000976242
0.000968869
0.000961991
0.0009554
0.000948728
0.000941501
0.00093311
0.000922921
0.00091025
0.000894822
0.000876077
0.000853762
0.000827622
0.000797206
0.000762424
0.000724936
0.000687428
0.000652954
0.000624529
0.00060434
0.000592937
0.000589095
0.000590468
0.000594356
0.00059861
0.000601725
0.000602874
0.000602121
0.00102479
0.00101791
0.00101121
0.00100522
0.00100028
0.000996391
0.000993258
0.000990327
0.000986828
0.000981962
0.000974875
0.000964981
0.000951734
0.000934896
0.000914556
0.000889749
0.000859564
0.000825506
0.00078925
0.000753151
0.00071973
0.000691293
0.000669348
0.000654251
0.00064507
0.000640026
0.000637324
0.000635442
0.000633284
0.000630972
0.00109732
0.00109297
0.00108936
0.00108794
0.00108898
0.00109192
0.00109593
0.00110011
0.00110361
0.00110555
0.00110485
0.00110137
0.00109472
0.00108497
0.00107211
0.00105526
0.00103271
0.00100621
0.000976911
0.000946223
0.000915734
0.00088696
0.000861297
0.000839617
0.000821526
0.000805987
0.000792779
0.000781517
0.000771704
0.000763636
0.00134103
0.00133748
0.00133917
0.00134645
0.00135512
0.00136207
0.00136766
0.00137199
0.00137522
0.00137648
0.00137493
0.00137238
0.00136864
0.00136436
0.00135896
0.00135266
0.00134205
0.00133092
0.00131957
0.0013088
0.00129879
0.00129004
0.00128279
0.00127725
0.001271
0.00126224
0.00125358
0.00124594
0.0012404
0.00123355
0.000153461
0.000158138
0.000156575
0.000152669
0.000147305
0.000141114
0.000134568
0.000128019
0.000121693
0.000115796
0.000110458
0.000105779
0.000101791
9.85969e-05
9.62113e-05
9.47734e-05
9.43996e-05
9.53852e-05
9.79908e-05
0.000102101
0.000106858
0.000111118
0.000113957
0.000114707
0.000112938
0.000108191
0.000100397
8.84988e-05
7.35618e-05
6.87578e-05
0.000610894
0.000679784
0.000661202
0.000610708
0.000553748
0.000500334
0.000452994
0.000411748
0.000375941
0.000345569
0.000319611
0.000297792
0.000279678
0.000265743
0.000255543
0.000250116
0.000249766
0.000255356
0.000265534
0.000279122
0.000294838
0.000311381
0.000326462
0.00033677
0.000337359
0.000326846
0.000306757
0.000277375
0.000253148
0.000246014
0.000930193
0.00105365
0.0010609
0.00101463
0.000946602
0.000874581
0.000805294
0.000741646
0.000684562
0.000635044
0.000592157
0.00055601
0.000526264
0.000504218
0.000489562
0.000484653
0.00048952
0.000503188
0.000519781
0.000536689
0.000554072
0.000572479
0.000590118
0.00060208
0.000600673
0.000580561
0.000543736
0.000488684
0.000437716
0.000404988
0.00107747
0.00123852
0.00128646
0.00126505
0.00120748
0.00113939
0.001067
0.000996245
0.000930462
0.000872159
0.000821027
0.000777962
0.000743403
0.00071957
0.000706951
0.00070973
0.000726539
0.000753381
0.000778582
0.00079852
0.000814933
0.000830278
0.000844127
0.000854148
0.000847634
0.00081894
0.000768849
0.000695139
0.000620063
0.000563341
0.00113576
0.00130737
0.00138088
0.00138832
0.00135763
0.00130059
0.00123452
0.00116658
0.00110151
0.00104385
0.000991679
0.000947733
0.000913967
0.000893471
0.000887805
0.000903548
0.000936872
0.000978796
0.00101402
0.00103754
0.00105357
0.00106571
0.00107576
0.0010817
0.00107092
0.00103611
0.00097721
0.000891696
0.000799351
0.000725213
0.00114363
0.00128905
0.00137457
0.0014054
0.00140078
0.00136899
0.00132137
0.00126782
0.00121237
0.00115626
0.00110746
0.00106701
0.00103891
0.0010258
0.00103088
0.00106327
0.00111566
0.00117536
0.00122194
0.00125027
0.00126625
0.00127529
0.00128118
0.00128436
0.00127009
0.00123173
0.0011674
0.00107524
0.000972234
0.000885672
0.00110153
0.00119576
0.00127622
0.00132935
0.00135595
0.00135694
0.00133408
0.00129884
0.00125851
0.00121527
0.00117535
0.0011436
0.00112261
0.00111973
0.00113884
0.00119003
0.00126372
0.00134127
0.00139997
0.00143444
0.00145093
0.00145776
0.00146086
0.00146336
0.00144757
0.00140665
0.00133976
0.00124507
0.00113586
0.00103936
0.00105962
0.00110438
0.00116063
0.0012139
0.00125552
0.0012788
0.00128237
0.00127104
0.00125282
0.00122644
0.0012002
0.00117965
0.0011701
0.00117971
0.00121476
0.00128621
0.00138151
0.00147524
0.00154723
0.00158881
0.00160796
0.0016153
0.00161709
0.00161854
0.00160324
0.00156307
0.00149526
0.00140126
0.00128996
0.00118583
0.00105827
0.0010443
0.00106192
0.00109702
0.00113783
0.00117229
0.00119433
0.00120354
0.00120401
0.00119621
0.00118781
0.00118148
0.00118589
0.00120931
0.00126169
0.00135416
0.00147068
0.00158207
0.00166528
0.00171608
0.00174049
0.00175059
0.00175169
0.00175274
0.00173821
0.00170037
0.00163535
0.00154492
0.00143529
0.00132402
0.00109341
0.001035
0.00100254
0.00100672
0.00103089
0.00106188
0.00109137
0.0011142
0.00112997
0.00113906
0.00114513
0.00115411
0.00117381
0.00121223
0.0012826
0.0013961
0.00153455
0.00166122
0.00175717
0.00181835
0.00185173
0.00186458
0.00186665
0.001868
0.0018542
0.00181962
0.00176118
0.00167403
0.00156677
0.00145248
0.00116414
0.00107232
0.00100443
0.000969041
0.000963627
0.000976742
0.00099953
0.00102461
0.00104829
0.00106862
0.00108698
0.00110767
0.00113878
0.00119249
0.00128061
0.00141434
0.00157248
0.00172266
0.00182975
0.00190032
0.0019405
0.00195871
0.0019639
0.0019663
0.00195445
0.0019242
0.0018687
0.00178831
0.0016849
0.00157206
0.00127797
0.00116778
0.00107206
0.00100186
0.000960331
0.000943387
0.000946311
0.00096039
0.000980349
0.00100281
0.00102688
0.00105486
0.00109278
0.0011552
0.0012594
0.0014117
0.00158797
0.00175527
0.00188725
0.00197125
0.00201797
0.00203957
0.0020464
0.00204941
0.00204056
0.0020127
0.00196072
0.00188663
0.00178931
0.00168201
0.00143514
0.00132157
0.00121095
0.00111378
0.00103783
0.000985941
0.000957036
0.000946712
0.000950086
0.000962556
0.000982356
0.00100951
0.00104852
0.00111138
0.00122375
0.00139147
0.00158379
0.00176652
0.00191395
0.00201704
0.0020773
0.00210719
0.0021178
0.00211854
0.00210836
0.00208507
0.00203879
0.00197111
0.0018818
0.0017809
0.00163495
0.00152831
0.00141345
0.00129969
0.00119756
0.00111317
0.00104932
0.00100565
0.000980098
0.000969839
0.000972536
0.000987807
0.00101925
0.00107612
0.00118267
0.00135849
0.00156303
0.0017599
0.00192242
0.00204041
0.00211387
0.00215508
0.00217327
0.00217636
0.00216656
0.00214395
0.00210487
0.00204393
0.00196279
0.00187113
0.00186796
0.0017741
0.00166354
0.00154451
0.00142726
0.00131874
0.0012238
0.00114545
0.00108481
0.00104164
0.00101578
0.00100753
0.00101958
0.00106134
0.00115296
0.00131909
0.00152972
0.00173734
0.00191372
0.00204626
0.00213421
0.00218803
0.00221518
0.00222361
0.00221718
0.00219693
0.00216285
0.00210986
0.00203885
0.00195648
0.00212331
0.00204463
0.00194473
0.00182904
0.00170662
0.00158412
0.00146677
0.00135897
0.00126417
0.0011849
0.00112316
0.00108174
0.00106414
0.00107936
0.00114665
0.00128746
0.00148878
0.00170241
0.00189
0.00203627
0.00213933
0.00220657
0.00224455
0.00226105
0.00226011
0.00224512
0.00221734
0.00217305
0.00211102
0.00203733
0.00238683
0.00232609
0.00223988
0.00213355
0.00201382
0.00188638
0.0017562
0.0016277
0.0015052
0.0013929
0.00129474
0.00121562
0.00116097
0.00114123
0.0011733
0.00127951
0.00145364
0.00165945
0.00185402
0.00201252
0.00213024
0.00221206
0.00226281
0.00228985
0.00229837
0.00229176
0.00227061
0.00223325
0.00217757
0.00211105
0.00264515
0.00260306
0.00253372
0.00244095
0.00232957
0.00220405
0.00206908
0.00192864
0.00178698
0.00164873
0.00151878
0.00140338
0.00130969
0.00124957
0.0012404
0.00130321
0.00143902
0.00162149
0.0018107
0.00197741
0.00210858
0.00220661
0.00227233
0.0023127
0.00233254
0.00233408
0.00231903
0.0022869
0.00223744
0.00217784
0.00289459
0.00286768
0.00281565
0.00273773
0.00263749
0.00251827
0.00238405
0.0022385
0.00208542
0.00192914
0.00177464
0.00162855
0.00149909
0.00139946
0.00134622
0.0013607
0.00145077
0.00160012
0.00177335
0.00193938
0.00207826
0.00218816
0.00226861
0.00232287
0.00235476
0.00236667
0.00236047
0.00233492
0.0022925
0.00224038
0.00312994
0.00311421
0.00307626
0.00301161
0.00292247
0.002811
0.00268035
0.00253387
0.00237481
0.00220703
0.00203518
0.00186577
0.00170735
0.00157392
0.00147946
0.00144545
0.00148815
0.00159598
0.00174438
0.00190237
0.00204159
0.00215999
0.00225203
0.00231971
0.00236463
0.00238945
0.00239385
0.00237715
0.00234403
0.00230159
0.00334319
0.00333356
0.00330423
0.00324903
0.00316817
0.00306296
0.00293585
0.00278969
0.00262722
0.0024519
0.00226825
0.00208268
0.00190377
0.00174535
0.0016176
0.00154216
0.00153487
0.00160299
0.0017187
0.00185918
0.00199298
0.00212113
0.00222345
0.00230205
0.00235952
0.00239869
0.00241693
0.00241248
0.00239381
0.00236487
0.00352127
0.0035119
0.00348468
0.0034321
0.00335396
0.003251
0.00312488
0.00297766
0.00281172
0.00263046
0.00243891
0.00224363
0.00205331
0.00187983
0.00173062
0.00162363
0.00157401
0.00159747
0.00168315
0.00180276
0.00193691
0.00205945
0.00216674
0.00225831
0.00233182
0.002388
0.00242288
0.00243979
0.00243637
0.00242069
0.00365733
0.0036383
0.00360309
0.00354568
0.00346529
0.00336154
0.00323447
0.00308484
0.00291472
0.00272809
0.00253109
0.00233082
0.00213578
0.00195536
0.00179626
0.0016691
0.00158651
0.00156544
0.0016112
0.00170902
0.00183241
0.00196047
0.00208382
0.00219304
0.00228324
0.00235377
0.00240155
0.00243777
0.00245451
0.00245946
0.00373218
0.00369762
0.00364912
0.00358284
0.00349709
0.00338998
0.00325985
0.00310647
0.00293261
0.002744
0.00254803
0.00235194
0.00216284
0.00198588
0.00182946
0.00169206
0.00158291
0.00151958
0.00151461
0.00156799
0.00166854
0.00179315
0.00192453
0.00205008
0.00216189
0.00225574
0.00233
0.00239131
0.00243471
0.00246515
0.00371157
0.00366028
0.00359929
0.00352585
0.00343687
0.00332858
0.00319829
0.00304659
0.00287864
0.00270203
0.00252393
0.00234972
0.00218374
0.00202669
0.00188534
0.00175198
0.00162591
0.00152569
0.00146553
0.00145471
0.00149552
0.00157965
0.00169444
0.00182294
0.00195094
0.0020698
0.00217461
0.00226722
0.00234237
0.00240349
0.00355025
0.003495
0.00343426
0.00336562
0.00328522
0.00318877
0.00307444
0.00294518
0.00280739
0.00266785
0.00253027
0.00239505
0.00226404
0.00213971
0.00202419
0.00190743
0.00178189
0.00166403
0.00156416
0.00149308
0.00145904
0.0014657
0.00151233
0.00159203
0.00169438
0.00180844
0.00192438
0.00203646
0.00213779
0.00222818
0.0032515
0.00321556
0.00318164
0.00314477
0.00309789
0.00303667
0.00296119
0.00287587
0.00278558
0.00269466
0.00260487
0.00251481
0.00242057
0.00232855
0.00224302
0.00215115
0.00204346
0.0019323
0.00182388
0.00172612
0.00164617
0.00158979
0.0015612
0.00156208
0.00159065
0.00164266
0.00171217
0.00179308
0.00187826
0.00196821
0.00298243
0.00298289
0.00299272
0.00299999
0.00299346
0.00297175
0.00293673
0.00289212
0.00283998
0.002784
0.00272632
0.00266599
0.00260032
0.00253296
0.00247044
0.00240269
0.00232267
0.00223711
0.00214893
0.00206352
0.00198552
0.00191788
0.00186337
0.00182473
0.0018019
0.00179424
0.00180076
0.00181976
0.00184919
0.00189961
0.00285573
0.00286764
0.0028938
0.00292012
0.00293519
0.00293697
0.00292513
0.00290116
0.00286879
0.00283179
0.00279127
0.00274607
0.00269662
0.00264661
0.00259937
0.00254829
0.00249433
0.00243735
0.00238128
0.0023293
0.00228475
0.00224749
0.00221846
0.00219953
0.00218662
0.00217894
0.00217702
0.00218014
0.00218955
0.00221679
0.00279774
0.00281766
0.00284172
0.00286183
0.00287153
0.00287086
0.00286115
0.00284378
0.00282126
0.00279485
0.00276534
0.00273231
0.00269578
0.00265991
0.00262342
0.00258884
0.00255672
0.00252621
0.00250087
0.00248308
0.00247387
0.00247539
0.00248552
0.00249924
0.00251543
0.00253168
0.00255057
0.0025692
0.00258693
0.00259459
0.000182073
0.000186042
0.000182096
0.000176435
0.000169562
0.000161911
0.000153933
0.000146018
0.000138436
0.000131428
0.000125106
0.000119589
0.000114918
0.000111262
0.000108665
0.000107392
0.00010767
0.000110138
0.000115447
0.000123106
0.000131092
0.000137515
0.000141401
0.000142322
0.000140074
0.00013426
0.000124717
0.000110336
9.33224e-05
7.96093e-05
0.000793949
0.000892011
0.000892028
0.000837787
0.000766441
0.000696057
0.000632699
0.0005774
0.000529529
0.000488682
0.0004535
0.000424162
0.000399719
0.000381207
0.000367202
0.000359923
0.000358884
0.000367045
0.000383152
0.000407025
0.000436339
0.000466454
0.00049195
0.000506732
0.000504367
0.000480592
0.000441081
0.00038905
0.000344174
0.000294427
0.00124125
0.00142697
0.00146625
0.00141962
0.00133708
0.00124334
0.00115067
0.00106509
0.000988436
0.000921393
0.00086305
0.000814402
0.000774871
0.000746963
0.000729266
0.000726159
0.000734334
0.000751837
0.000771259
0.000795474
0.000827684
0.000864149
0.000897932
0.000918369
0.000907865
0.000866992
0.000797884
0.000702542
0.000608939
0.000524661
0.00154403
0.00176508
0.0018266
0.00179966
0.00172738
0.00163452
0.00153489
0.00143857
0.00134936
0.00126916
0.00119899
0.00114108
0.00109608
0.00106801
0.00105668
0.00106902
0.0010955
0.00112541
0.00114676
0.0011695
0.00119682
0.00122788
0.00126053
0.00128198
0.00126825
0.00121572
0.00112576
0.00100099
0.000870063
0.000754746
0.0017364
0.00193591
0.00202247
0.00202456
0.00196918
0.00188782
0.00179249
0.00169899
0.00160905
0.00152509
0.00145212
0.00139321
0.00135035
0.00132914
0.00133156
0.00136673
0.00141522
0.00145706
0.00147715
0.00149187
0.00151739
0.00154317
0.00157106
0.00159225
0.00157892
0.00152083
0.00142032
0.00127817
0.00112265
0.000981191
0.00184964
0.00203135
0.00211479
0.00213023
0.00209746
0.00203539
0.00195868
0.00186833
0.00178121
0.00169897
0.00163145
0.00157874
0.00154403
0.00153577
0.0015582
0.00162117
0.00169255
0.0017439
0.00176346
0.00177133
0.0017883
0.00180943
0.00183337
0.00185406
0.00184316
0.00178738
0.00168346
0.00153411
0.00136383
0.0012021
0.00193883
0.00205832
0.00211842
0.002137
0.00212278
0.00208179
0.00202391
0.00195344
0.00187988
0.00181366
0.00175171
0.00170649
0.00168465
0.0016941
0.00174283
0.00183617
0.00193094
0.00198919
0.00200738
0.00201071
0.00201869
0.00203355
0.00205438
0.00207449
0.00206657
0.00201708
0.00191809
0.00176944
0.00159408
0.00141557
0.00196814
0.00200736
0.00204115
0.00205876
0.0020607
0.00204475
0.00201257
0.00196652
0.00191208
0.00186101
0.00181521
0.00178485
0.0017797
0.00181062
0.00189018
0.0020152
0.00213292
0.00219737
0.00221451
0.00221448
0.00221416
0.00222398
0.00224136
0.00226008
0.00225536
0.00221337
0.00212682
0.00198665
0.00181092
0.00161959
0.00195874
0.00193749
0.00193912
0.0019477
0.0019556
0.0019552
0.00194361
0.00191986
0.00188757
0.00185787
0.00183153
0.00182038
0.00183644
0.00189132
0.0020044
0.00216187
0.00230091
0.0023727
0.00239069
0.0023872
0.00238064
0.00238566
0.00240058
0.00241733
0.00241523
0.00238224
0.0023072
0.00217903
0.00200662
0.00181168
0.00196353
0.00188971
0.00185179
0.00183742
0.00183815
0.00184323
0.00184522
0.00184013
0.00182854
0.0018163
0.00180937
0.00182079
0.00185932
0.00194163
0.00208944
0.00227859
0.00243683
0.00251803
0.00253811
0.00253158
0.0025233
0.00252427
0.00253752
0.00255207
0.00255269
0.00252434
0.00245685
0.00234307
0.00218152
0.00199428
0.00201426
0.00190845
0.00181128
0.00176411
0.00174128
0.00173806
0.00174286
0.00174853
0.00175231
0.00175632
0.00176583
0.00179353
0.00185529
0.00196668
0.00214931
0.00236771
0.00253823
0.00263113
0.00265655
0.00265238
0.00264705
0.00264519
0.00265679
0.00266945
0.00266916
0.00264356
0.00258265
0.00248199
0.00233701
0.00216177
0.00209662
0.00197384
0.00186025
0.00176391
0.00169467
0.00167245
0.00166646
0.00167121
0.00168113
0.00169518
0.00171682
0.00175659
0.0018328
0.00197326
0.00218859
0.00243549
0.00261752
0.00271284
0.00274849
0.00275647
0.00275359
0.00275177
0.00276145
0.00276878
0.00276666
0.00274509
0.00269037
0.00260136
0.00247483
0.00231691
0.00222039
0.00208657
0.00194829
0.00182746
0.00173823
0.00168025
0.00164736
0.00163785
0.00164132
0.00165489
0.00168031
0.00172612
0.0018085
0.00196955
0.00221265
0.00248106
0.00268117
0.00278428
0.00283071
0.00284602
0.00284761
0.00284851
0.00285358
0.00285699
0.00285348
0.00283387
0.00278569
0.00271005
0.00260135
0.00246017
0.00238996
0.00226167
0.0021211
0.00198346
0.00186527
0.00177473
0.0017123
0.0016758
0.0016596
0.00165947
0.00167669
0.0017187
0.00180022
0.00196665
0.002228
0.00251141
0.00272514
0.00285171
0.00291014
0.00293279
0.00293649
0.00293684
0.00293922
0.0029412
0.00293767
0.00291915
0.00287767
0.00281376
0.00271885
0.00259185
0.00262571
0.00250649
0.00236818
0.00222302
0.00208522
0.00196629
0.00187127
0.0018013
0.00175415
0.00172819
0.00172395
0.00175018
0.00182215
0.00197936
0.00224119
0.00253156
0.00275283
0.00289144
0.00296628
0.00299836
0.00301188
0.00301658
0.00301954
0.00302313
0.00302223
0.00300525
0.00297069
0.00291362
0.00282712
0.00271287
0.00290629
0.00280079
0.00267237
0.00252827
0.00238085
0.00224104
0.00211645
0.00201184
0.00192875
0.00186842
0.00183338
0.00183164
0.00188122
0.00201927
0.00226182
0.00254694
0.00277068
0.00292048
0.00300999
0.00305375
0.00307798
0.00308897
0.00309586
0.0031034
0.00310775
0.00309482
0.00306327
0.00301054
0.0029309
0.00282725
0.00321406
0.003126
0.00301109
0.00287339
0.00272321
0.00257025
0.00242289
0.00228782
0.00216948
0.00207187
0.00199996
0.00196389
0.00197927
0.00208738
0.00229576
0.00256025
0.00278116
0.00293959
0.00304207
0.00309881
0.00313414
0.00315355
0.00316836
0.00318213
0.003191
0.00318152
0.00315415
0.00310652
0.00303323
0.00293851
0.00353606
0.00346309
0.00336121
0.00323159
0.00308249
0.00292213
0.00275864
0.00259925
0.00244995
0.00231664
0.00220651
0.00213143
0.00210874
0.00217409
0.00234087
0.00257254
0.00278278
0.0029463
0.00305977
0.00313089
0.00317748
0.00320724
0.0032313
0.00325199
0.00326733
0.00326294
0.00324259
0.003202
0.00313592
0.00304927
0.00385549
0.00379313
0.00370117
0.00357849
0.00343153
0.00326701
0.00309213
0.00291385
0.00273862
0.00257323
0.0024265
0.00231137
0.00224798
0.00226326
0.00238343
0.00257495
0.00277015
0.00293232
0.00305334
0.00314188
0.00319909
0.00324091
0.00327578
0.00330712
0.00332993
0.00333676
0.00332751
0.00329693
0.00324074
0.00316109
0.00415565
0.00409794
0.00401108
0.00389243
0.00374672
0.00357901
0.00339529
0.00320162
0.00300426
0.00281041
0.00262993
0.0024763
0.00237065
0.00233734
0.00240207
0.00254986
0.00272394
0.00288564
0.00301759
0.00311274
0.00318656
0.00324323
0.00329166
0.00333381
0.00337252
0.00340077
0.00340904
0.00338984
0.00334199
0.00327323
0.00441782
0.00435836
0.00427138
0.00415321
0.00400677
0.0038354
0.00364359
0.00343622
0.00321915
0.00300007
0.00278985
0.00260214
0.0024576
0.00237877
0.00238553
0.00248306
0.00262558
0.00277571
0.0029125
0.0030244
0.00311594
0.00319201
0.00325805
0.00331664
0.00337299
0.00341992
0.00345035
0.00345347
0.00342582
0.00337645
0.00461945
0.00455308
0.00446163
0.00434076
0.0041916
0.00401573
0.00381606
0.00359621
0.0033622
0.00312288
0.00289048
0.00267853
0.0025056
0.00238962
0.00234646
0.00238526
0.00247906
0.00260151
0.00273101
0.00285242
0.00296189
0.00305995
0.0031497
0.00323306
0.00331325
0.00338357
0.00343625
0.00346284
0.00346105
0.00343669
0.00473549
0.00465905
0.00456062
0.00443544
0.00428298
0.00410324
0.00389789
0.00366948
0.00342544
0.0031769
0.0029374
0.00271948
0.00253745
0.00240269
0.00232608
0.00230956
0.00234339
0.00241348
0.00250739
0.0026136
0.00272453
0.00283625
0.00294795
0.0030588
0.00316735
0.00326704
0.0033496
0.00340821
0.00343565
0.00344402
0.00473923
0.00465284
0.00454849
0.00442115
0.00426885
0.00409052
0.00388775
0.00366164
0.00342311
0.00318585
0.00296305
0.002764
0.00259673
0.00246619
0.00237781
0.0023269
0.00230449
0.0023093
0.0023397
0.00239395
0.0024694
0.00256293
0.00267236
0.00279446
0.00292369
0.00305108
0.00316615
0.0032608
0.00332707
0.00336667
0.0046097
0.0045189
0.00441644
0.00429622
0.0041554
0.00399118
0.00380519
0.00360308
0.00339601
0.00319773
0.0030175
0.00285855
0.00272355
0.00261314
0.00252831
0.00246469
0.00240514
0.0023565
0.0023227
0.0023089
0.00231936
0.00235636
0.00242155
0.00251449
0.00263038
0.00275959
0.00288931
0.00300848
0.00310668
0.0031778
0.00435781
0.00427021
0.00418414
0.0040896
0.00398116
0.00385416
0.00371058
0.0035576
0.00340515
0.00326232
0.00313408
0.00302025
0.00292048
0.00283307
0.00275759
0.00269235
0.00261581
0.00253858
0.00246513
0.00240166
0.00235437
0.00232806
0.00232746
0.00235693
0.00241689
0.00250246
0.00260307
0.00270758
0.00280528
0.00288921
0.00404649
0.00398618
0.00393896
0.00389521
0.00384009
0.00376606
0.00367669
0.00357875
0.00347976
0.00338567
0.00329888
0.00321815
0.00314256