/*--------------------------------*- C++ -*----------------------------------*\
  =========                 |
  \\      /  F ield         | OpenFOAM: The Open Source CFD Toolbox
   \\    /   O peration     | Website:  https://openfoam.org
    \\  /    A nd           | Version:  12
     \\/     M anipulation  |
\*---------------------------------------------------------------------------*/
FoamFile
{
    format      ascii;
    class       volScalarField;
    location    "1350/air";
    object      p_rgh;
}
// * * * * * * * * * * * * * * * * * * * * * * * * * * * * * * * * * * * * * //

dimensions      [1 -1 -2 0 0 0 0];

internalField   nonuniform List<scalar> 
243000
(
29.7796
29.7761
29.7455
29.6479
29.549
29.4604
29.3853
29.3264
29.2832
29.2571
29.2473
29.2529
29.2696
29.3001
29.3388
29.3969
29.4656
29.5501
29.6382
29.7308
29.8218
29.9092
29.9897
30.0611
30.1257
30.1777
30.2286
30.2559
30.3099
30.2943
29.7702
29.7538
29.7257
29.6402
29.5507
29.4652
29.392
29.334
29.2912
29.2672
29.2588
29.265
29.2814
29.3113
29.3492
29.4064
29.4739
29.5575
29.646
29.739
29.8304
29.9182
29.9988
30.0701
30.1343
30.1854
30.2365
30.2627
30.3178
30.2903
29.7506
29.6996
29.6666
29.5822
29.5007
29.4243
29.3597
29.3092
29.2726
29.2537
29.2494
29.2582
29.2758
29.3061
29.3439
29.401
29.4678
29.5518
29.6416
29.7362
29.8286
29.9174
29.9989
30.0706
30.1355
30.1865
30.238
30.2588
30.3176
30.2811
29.7266
29.6348
29.5959
29.512
29.4379
29.3704
29.3147
29.2719
29.2418
29.2282
29.2281
29.2397
29.2588
29.2895
29.3269
29.3834
29.449
29.5317
29.6198
29.7126
29.8037
29.8918
29.9736
30.0466
30.1145
30.1695
30.2268
30.2459
30.3114
30.2712
29.7044
29.5777
29.5341
29.45
29.381
29.3196
29.2702
29.2329
29.2073
29.1973
29.2003
29.2142
29.2345
29.2652
29.3015
29.3568
29.4205
29.5013
29.5869
29.6776
29.7665
29.8538
29.9363
30.0112
30.0824
30.1407
30.2037
30.2227
30.2973
30.2563
29.681
29.5401
29.4885
29.4036
29.3376
29.2799
29.2346
29.2003
29.1767
29.1681
29.172
29.1868
29.2076
29.2379
29.2724
29.3255
29.3866
29.4645
29.547
29.6344
29.7209
29.8073
29.8904
29.9674
30.0421
30.104
30.1728
30.1935
30.2753
30.2344
29.6539
29.5191
29.4562
29.3741
29.3084
29.253
29.2089
29.1753
29.1519
29.1428
29.1455
29.1591
29.1788
29.208
29.2398
29.2898
29.3473
29.4215
29.4995
29.583
29.6667
29.7521
29.836
29.9152
29.9936
30.0593
30.1339
30.158
30.2457
30.2062
29.6194
29.4997
29.4358
29.3598
29.2954
29.2383
29.1922
29.1581
29.1333
29.1221
29.1224
29.1333
29.1499
29.1766
29.2049
29.2508
29.3036
29.373
29.4454
29.5244
29.605
29.6893
29.7741
29.8557
29.9379
30.0077
30.0879
30.1168
30.2091
30.1729
29.5743
29.4658
29.4173
29.3522
29.2897
29.2323
29.1837
29.1468
29.12
29.1057
29.1028
29.1102
29.1226
29.1452
29.1689
29.2097
29.2568
29.32
29.3861
29.4598
29.5371
29.6202
29.7061
29.7903
29.8763
29.9504
30.0359
30.0704
30.1666
30.1354
29.518
29.4127
29.3846
29.3381
29.2828
29.2283
29.1799
29.1393
29.1096
29.0924
29.086
29.0898
29.0975
29.1147
29.1329
29.1675
29.2078
29.2637
29.3227
29.3908
29.4644
29.5465
29.6335
29.7204
29.8103
29.8888
29.9791
30.0199
30.1194
30.0944
29.456
29.3479
29.3373
29.3066
29.264
29.2188
29.1737
29.1334
29.1009
29.081
29.0708
29.0711
29.0742
29.0861
29.0977
29.1253
29.158
29.2055
29.2567
29.3187
29.3885
29.4694
29.5576
29.6473
29.7412
29.824
29.9186
29.9665
30.0686
30.051
29.3889
29.2783
29.2788
29.2637
29.2323
29.1971
29.1589
29.1225
29.0916
29.0703
29.0568
29.0531
29.0517
29.0589
29.0637
29.0837
29.1079
29.1465
29.1895
29.245
29.3108
29.3904
29.4797
29.5723
29.6701
29.7573
29.8557
29.9111
30.0155
30.0066
29.3173
29.2072
29.2111
29.2093
29.19
29.1637
29.1346
29.1047
29.0779
29.0578
29.0428
29.0357
29.0297
29.0322
29.0308
29.0431
29.0583
29.0876
29.1223
29.171
29.2327
29.3108
29.4012
29.4966
29.5981
29.6894
29.7916
29.8549
29.961
29.9621
29.242
29.1347
29.1413
29.1444
29.1368
29.1202
29.0994
29.0773
29.0562
29.0397
29.0257
29.017
29.0074
29.0056
28.9979
29.0037
29.0103
29.0301
29.0561
29.098
29.1553
29.2318
29.323
29.4212
29.5259
29.6216
29.7274
29.7983
29.905
29.9183
29.1624
29.0605
29.0692
29.0757
29.0749
29.0679
29.0551
29.0403
29.0254
29.0133
29.0025
28.9946
28.9832
28.9778
28.9643
28.9644
28.9638
28.9747
28.992
29.0268
29.0797
29.1544
29.2461
29.3466
29.4544
29.5549
29.664
29.7419
29.8484
29.8751
29.078
28.9842
28.9948
29.0049
29.0076
29.0076
29.0027
28.9949
28.9859
28.9782
28.9709
28.9658
28.9546
28.9475
28.9293
28.9241
28.9179
28.9214
28.9308
28.9586
29.0067
29.0793
29.1713
29.2737
29.3846
29.4897
29.6015
29.6859
29.792
29.8325
28.989
28.9055
28.9174
28.9311
28.938
28.942
28.9432
28.9418
28.9383
28.9349
28.9307
28.9289
28.9197
28.9125
28.8913
28.8822
28.8713
28.8691
28.8721
28.8935
28.937
29.0072
29.0989
29.2031
29.3168
29.426
29.54
29.631
29.736
29.7903
28.8945
28.8233
28.8363
28.8534
28.8646
28.8727
28.8787
28.8823
28.8835
28.8841
28.8828
28.8832
28.8768
28.8709
28.8485
28.8371
28.8229
28.8164
28.8147
28.831
28.8707
28.9383
29.0295
29.1352
29.251
29.3637
29.4796
29.5769
29.681
29.7478
28.7936
28.7367
28.7508
28.7706
28.7854
28.798
28.8086
28.8168
28.8221
28.8261
28.8276
28.8296
28.8255
28.8209
28.7988
28.787
28.7713
28.7622
28.7572
28.7698
28.8063
28.872
28.9627
29.0692
29.1868
29.3029
29.4204
29.5229
29.6271
29.7044
28.6849
28.6442
28.6595
28.682
28.7001
28.717
28.732
28.7442
28.7534
28.7607
28.7649
28.7686
28.7659
28.7624
28.7411
28.73
28.7144
28.7046
28.6981
28.7084
28.743
28.8068
28.8966
29.0042
29.1234
29.2421
29.3615
29.4687
29.5739
29.6596
28.5667
28.5434
28.5605
28.586
28.6085
28.6301
28.6492
28.6651
28.6777
28.6879
28.6945
28.6999
28.6987
28.6964
28.6756
28.6653
28.6506
28.6417
28.6353
28.6452
28.6787
28.7408
28.8305
28.9396
29.0595
29.1805
29.3017
29.4132
29.52
29.6129
28.4371
28.4299
28.4495
28.48
28.5085
28.5353
28.5588
28.5787
28.5948
28.6078
28.6165
28.6233
28.6236
28.6229
28.6028
28.5935
28.5797
28.5721
28.5669
28.578
28.6111
28.6731
28.764
28.8736
28.9942
29.1171
29.24
29.3554
29.464
29.5632
28.2927
28.2994
28.3256
28.3634
28.3981
28.4301
28.4586
28.4831
28.5031
28.5192
28.5301
28.5386
28.5401
28.5409
28.5222
28.5145
28.502
28.4957
28.4921
28.5049
28.5393
28.603
28.6951
28.8054
28.9265
29.0508
29.1752
29.2939
29.4046
29.509
28.1273
28.1474
28.1825
28.2278
28.2703
28.3099
28.3452
28.3756
28.4005
28.4204
28.4342
28.4448
28.448
28.4499
28.4327
28.4263
28.4159
28.4115
28.4097
28.4253
28.4626
28.5286
28.622
28.7329
28.8545
28.9799
29.1054
29.2265
29.3389
29.4471
27.9435
27.9745
28.0198
28.0748
28.1275
28.1767
28.2202
28.2576
28.2884
28.3129
28.3303
28.3435
28.3485
28.3517
28.3359
28.3307
28.3222
28.3197
28.3203
28.3401
28.3812
28.4496
28.5445
28.6563
28.7782
28.9043
29.0303
29.1528
29.2667
29.3782
27.704
27.7476
27.8103
27.8835
27.9551
28.0216
28.0795
28.1289
28.1694
28.2016
28.2249
28.2425
28.2503
28.2551
28.2407
28.236
28.2276
28.2255
28.2277
28.2503
28.2943
28.3643
28.4596
28.5711
28.6924
28.8175
28.9422
29.0644
29.1777
29.2895
27.4771
27.5415
27.6253
27.7183
27.8093
27.8914
27.9615
28.0215
28.0702
28.1085
28.1362
28.157
28.1671
28.174
28.1614
28.1569
28.148
28.1461
28.1488
28.172
28.2166
28.2871
28.3825
28.4947
28.616
28.7406
28.8647
28.9884
29.1023
29.2163
27.0346
27.1513
27.2938
27.4436
27.5854
27.7061
27.8049
27.8882
27.9557
28.008
28.046
28.0743
28.0889
28.0984
28.0873
28.0811
28.0687
28.0635
28.0621
28.0811
28.12
28.1836
28.2711
28.3766
28.4912
28.6079
28.7232
28.8379
28.9413
29.0476
27.0506
27.2041
27.3732
27.5386
27.6861
27.8036
27.8945
27.9658
28.0222
28.0661
28.0986
28.1222
28.133
28.1391
28.1248
28.1168
28.104
28.1012
28.1044
28.1299
28.1759
28.2461
28.34
28.4539
28.5787
28.7069
28.8338
28.9619
29.0768
29.1961
25.7475
26.0048
26.3165
26.6281
26.899
27.1077
27.2669
27.3898
27.4848
27.5586
27.6119
27.6512
27.6718
27.683
27.6691
27.6555
27.6302
27.6106
27.5915
27.5901
27.6045
27.6399
27.6976
27.7701
27.8454
27.9196
27.9934
28.0662
28.1313
28.2212
29.5743
29.4625
29.4
29.2871
29.1968
29.1315
29.0856
29.0561
29.0401
29.0377
29.0466
29.0674
29.0924
29.1277
29.1623
29.2117
29.2642
29.3328
29.4054
29.488
29.5758
29.6707
29.7692
29.8683
29.9687
30.0605
30.1526
30.2105
30.2834
30.27
29.5549
29.4275
29.3735
29.2714
29.1942
29.1337
29.0896
29.0609
29.0466
29.0458
29.0553
29.076
29.1005
29.1352
29.169
29.2177
29.2692
29.3378
29.4111
29.4948
29.5836
29.6795
29.7788
29.8781
29.9788
30.07
30.1618
30.2164
30.2914
30.2644
29.5295
29.3938
29.3401
29.2443
29.1738
29.1181
29.0781
29.0532
29.0416
29.043
29.053
29.0737
29.0979
29.1319
29.1643
29.2118
29.2615
29.3283
29.3992
29.4803
29.5677
29.664
29.765
29.8663
29.9691
30.0611
30.1555
30.2061
30.2922
30.253
29.4997
29.3597
29.3021
29.211
29.1484
29.0997
29.0652
29.0443
29.0353
29.0384
29.0492
29.0696
29.0931
29.1261
29.1567
29.2023
29.2492
29.3133
29.3807
29.4583
29.5422
29.636
29.7355
29.838
29.9437
30.0378
30.1374
30.1844
30.2803
30.237
29.472
29.3309
29.2682
29.1824
29.1259
29.0828
29.0526
29.0344
29.0273
29.0313
29.0422
29.0621
29.0843
29.1156
29.1437
29.1867
29.2296
29.2897
29.3526
29.4258
29.5058
29.597
29.6953
29.7972
29.9038
29.9998
30.1034
30.1518
30.2596
30.2149
29.4463
29.3088
29.2407
29.1616
29.1094
29.07
29.0427
29.0263
29.0199
29.0239
29.034
29.0528
29.0731
29.1022
29.127
29.1664
29.2042
29.2594
29.3165
29.3845
29.4604
29.5493
29.6467
29.7486
29.8564
29.9539
30.062
30.1114
30.2307
30.186
29.4178
29.2964
29.2279
29.1537
29.103
29.0642
29.0369
29.0209
29.0143
29.0173
29.026
29.043
29.0607
29.0869
29.1077
29.1426
29.1744
29.2235
29.2738
29.3362
29.4078
29.4946
29.5915
29.6939
29.8033
29.9026
30.0149
30.0664
30.1948
30.1518
29.3839
29.2807
29.2247
29.1558
29.1059
29.0664
29.038
29.02
29.0105
29.012
29.0187
29.0334
29.048
29.0704
29.0866
29.1162
29.1412
29.1828
29.2258
29.2822
29.3497
29.4346
29.5314
29.6346
29.7458
29.8472
29.9635
30.0182
30.1531
30.1141
29.3418
29.2443
29.2153
29.1592
29.1121
29.073
29.0431
29.0228
29.0106
29.0087
29.0123
29.0244
29.0355
29.0537
29.0645
29.0881
29.1054
29.1388
29.1738
29.2241
29.2876
29.3709
29.4679
29.5722
29.6855
29.7891
29.9089
29.9678
30.1068
30.0738
29.2959
29.1982
29.189
29.1563
29.1168
29.0803
29.0503
29.0285
29.0139
29.0087
29.0081
29.0163
29.023
29.037
29.0419
29.0589
29.068
29.0925
29.1194
29.1633
29.223
29.3048
29.4023
29.5081
29.6234
29.7294
29.8523
29.9161
30.0572
30.0316
29.2481
29.1488
29.1523
29.1365
29.1139
29.0847
29.0564
29.0347
29.0186
29.0106
29.0063
29.0099
29.0113
29.0204
29.019
29.029
29.0296
29.0453
29.0639
29.1014
29.1572
29.2378
29.3359
29.4433
29.5608
29.6693
29.7948
29.8645
30.0053
29.9886
29.2
29.0996
29.1103
29.1057
29.096
29.0795
29.0587
29.0387
29.0224
29.0127
29.0052
29.0052
29.001
29.0045
28.9959
28.9987
28.9908
28.9978
29.0085
29.0395
29.0916
29.1711
29.2698
29.3789
29.4986
29.6095
29.7371
29.8137
29.9523
29.9458
29.1514
29.0494
29.0651
29.0664
29.0659
29.0597
29.0494
29.0367
29.0236
29.0137
29.004
29.0008
28.9915
28.9893
28.973
28.9682
28.9521
28.9507
28.9538
28.9786
29.0272
29.1056
29.2051
29.3159
29.4376
29.551
29.68
29.7635
29.8986
29.9047
29.1017
28.9967
29.0165
29.0231
29.028
29.0295
29.0278
29.0232
29.0164
29.0097
29.0004
28.9956
28.9821
28.9745
28.9506
28.9376
28.9135
28.9048
28.9009
28.9197
28.9648
29.0424
29.1425
29.2551
29.3786
29.4945
29.6239
29.714
29.8449
29.8659
29.0489
28.942
28.9652
28.977
28.9866
28.9935
28.9976
28.9996
28.9991
28.9978
28.9916
28.9872
28.9711
28.9589
28.9284
28.9074
28.8751
28.8602
28.8506
28.8634
28.9055
28.9821
29.0829
29.1972
29.3223
29.4406
29.5691
29.6661
29.7921
29.8285
28.9923
28.8858
28.9116
28.9274
28.941
28.9523
28.9613
28.9685
28.9731
28.9767
28.975
28.9732
28.9564
28.9413
28.9052
28.8778
28.8376
28.8168
28.8027
28.8104
28.8498
28.9255
29.0269
29.1428
29.2691
29.3889
29.5163
29.6195
29.7402
29.7941
28.9304
28.8271
28.8555
28.8745
28.8918
28.907
28.9199
28.9313
28.9403
28.948
28.9504
28.9518
28.9362
28.92
28.8798
28.8477
28.8013
28.7753
28.7572
28.7607
28.798
28.8732
28.9752
29.0921
29.2189
29.3404
29.4672
29.5741
29.6896
29.7612
28.8627
28.7652
28.7965
28.8188
28.8391
28.858
28.8744
28.8896
28.9022
28.9136
28.9192
28.9235
28.9095
28.8935
28.851
28.8158
28.765
28.736
28.7146
28.715
28.7506
28.8251
28.9267
29.0442
29.1708
29.2952
29.4217
29.5323
29.6441
29.728
28.7882
28.7005
28.7345
28.7603
28.7836
28.8058
28.8256
28.8441
28.8601
28.8745
28.8829
28.8895
28.8768
28.8614
28.8176
28.7808
28.728
28.6976
28.6746
28.6732
28.7075
28.7811
28.8819
28.9992
29.1252
29.2529
29.3796
29.4936
29.603
29.6958
28.7055
28.6324
28.6691
28.6988
28.7255
28.7509
28.7743
28.7962
28.8153
28.8323
28.8429
28.8511
28.8395
28.8244
28.7798
28.7427
28.6896
28.6594
28.6364
28.6349
28.6692
28.742
28.8416
28.9571
29.0838
29.2135
29.3407
29.4575
29.5651
29.6643
28.6132
28.5594
28.5992
28.6333
28.664
28.6935
28.7207
28.7464
28.7686
28.7881
28.8004
28.8097
28.7989
28.7845
28.739
28.7021
28.6493
28.6208
28.5995
28.6001
28.6361
28.7074
28.804
28.9179
29.0462
29.1768
29.3043
29.4233
29.5297
29.6335
28.5099
28.4795
28.523
28.5621
28.5976
28.6318
28.6637
28.6941
28.7201
28.7425
28.7565
28.7667
28.7563
28.7434
28.6977
28.6616
28.609
28.582
28.5627
28.5676
28.6056
28.6746
28.7691
28.8829
29.0113
29.1423
29.2698
29.3903
29.4961
29.6033
28.3947
28.3897
28.4385
28.484
28.5261
28.5679
28.6062
28.6413
28.6707
28.6963
28.7122
28.7234
28.7132
28.7006
28.6568
28.6233
28.5712
28.5457
28.5283
28.5363
28.5754
28.6437
28.7376
28.8513
28.9791
29.1097
29.2368
29.3579
29.4632
29.5727
28.2687
28.2869
28.3437
28.3975
28.4483
28.4978
28.5446
28.5872
28.6216
28.6508
28.6689
28.6813
28.6716
28.6581
28.6147
28.5829
28.5335
28.5114
28.4964
28.5069
28.5469
28.6155
28.7083
28.8229
28.9502
29.08
29.2056
29.326
29.4304
29.5407
28.1314
28.1744
28.2406
28.304
28.366
28.4253
28.4814
28.5328
28.5742
28.6079
28.6285
28.6421
28.6329
28.6196
28.5751
28.5424
28.4942
28.4752
28.464
28.4793
28.5217
28.591
28.6839
28.7994
28.9255
29.0537
29.1777
29.2968
29.3997
29.5095
27.9742
28.0448
28.1244
28.2016
28.2774
28.3517
28.4216
28.4833
28.5308
28.5683
28.5904
28.6049
28.5963
28.5837
28.5396
28.5075
28.4593
28.442
28.4345
28.4556
28.5016
28.572
28.6689
28.7844
28.908
29.0328
29.1525
29.2685
29.3684
29.4771
27.8266
27.9292
28.0213
28.1126
28.2046
28.2945
28.3776
28.449
28.5013
28.5425
28.5655
28.5809
28.5729
28.5614
28.5181
28.4864
28.4374
28.4208
28.4166
28.4423
28.4937
28.5713
28.6704
28.7867
28.9104
29.0347
29.1528
29.2663
29.3628
29.4667
27.6679
27.7992
27.9095
28.0264
28.1467
28.2617
28.3628
28.4477
28.5151
28.562
28.5879
28.6051
28.5985
28.5889
28.5481
28.5172
28.4644
28.445
28.4382
28.4611
28.5077
28.5816
28.6791
28.7943
28.9167
29.0382
29.1506
29.2546
29.3415
29.4392
27.7394
27.8891
28.0176
28.1581
28.3014
28.4349
28.5487
28.6414
28.7135
28.7655
28.7964
28.8161
28.8098
28.801
28.7612
28.7288
28.6685
28.6424
28.6275
28.6435
28.682
28.7476
28.836
28.9427
29.059
29.1767
29.2885
29.3928
29.4779
29.5682
28.458
28.5856
28.6829
28.8065
28.9375
29.0576
29.1557
29.2289
29.2802
29.3132
29.3268
29.3302
29.3109
29.2924
29.2473
29.2126
29.1513
29.1275
29.1165
29.1393
29.1863
29.2615
29.3592
29.4767
29.605
29.734
29.8542
29.9662
30.0609
30.1652
29.6372
29.4427
29.3771
29.2357
29.1287
29.0575
29.0146
28.9928
28.984
28.9903
29.0068
29.0357
29.0631
29.101
29.1247
29.1601
29.1784
29.2082
29.2315
29.2696
29.3245
29.4063
29.5104
29.6321
29.7681
29.9024
30.0414
30.1383
30.247
30.2413
29.6145
29.3962
29.3434
29.2149
29.1247
29.06
29.0193
28.9996
28.9929
29.0005
29.0172
29.0459
29.0728
29.1105
29.1339
29.1701
29.1892
29.2209
29.2458
29.2844
29.338
29.4203
29.5246
29.6464
29.7822
29.9154
30.0538
30.1469
30.2568
30.2428
29.5825
29.3615
29.3157
29.1967
29.1158
29.0571
29.0199
29.001
28.9959
29.0049
29.0218
29.0501
29.0761
29.1132
29.1353
29.1713
29.1895
29.221
29.2428
29.2787
29.3306
29.4136
29.5196
29.6426
29.7789
29.9109
30.0506
30.1388
30.2585
30.234
29.5365
29.3239
29.278
29.1693
29.0992
29.0482
29.0168
29.0013
28.9977
29.0082
29.0246
29.0525
29.0769
29.1139
29.1348
29.1701
29.186
29.2153
29.2332
29.2647
29.3114
29.3898
29.4961
29.6211
29.7588
29.89
30.0318
30.1169
30.2473
30.2146
29.4817
29.2866
29.2397
29.1418
29.0813
29.0374
29.011
28.9986
28.9972
29.008
29.0239
29.0514
29.075
29.1113
29.1296
29.1633
29.175
29.2003
29.2127
29.2386
29.2803
29.3544
29.4569
29.5794
29.72
29.8522
29.9982
30.081
30.2214
30.1861
29.4234
29.2506
29.2028
29.1162
29.0644
29.0272
29.0052
28.9959
28.9962
29.0071
29.0222
29.0492
29.0713
29.1062
29.1211
29.1521
29.1582
29.1777
29.1834
29.2033
29.2397
29.3103
29.41
29.5301
29.6693
29.8039
29.9524
30.0361
30.1865
30.1501
29.3643
29.2151
29.1688
29.0943
29.0503
29.0187
29.0006
28.9939
28.9952
29.006
29.0202
29.0464
29.0662
29.0992
29.1099
29.1373
29.1364
29.1486
29.1472
29.1608
29.192
29.2595
29.3572
29.4758
29.6138
29.7487
29.899
29.9861
30.1442
30.11
29.3054
29.1783
29.1382
29.0766
29.0392
29.0126
28.9974
28.9924
28.9942
29.0048
29.0179
29.0432
29.0601
29.0908
29.0965
29.1194
29.1105
29.1144
29.1055
29.1129
29.1388
29.2038
29.3003
29.4181
29.5554
29.6894
29.8423
29.9333
30.0962
30.0672
29.2485
29.1388
29.1103
29.0619
29.0312
29.0086
28.9955
28.9915
28.9934
29.0036
29.0156
29.0397
29.0535
29.0816
29.0814
29.0991
29.0811
29.0764
29.0597
29.061
29.0819
29.145
29.241
29.3586
29.4956
29.6287
29.7834
29.8792
30.044
30.0228
29.1956
29.0975
29.0818
29.0447
29.0223
29.0048
28.9941
28.9911
28.9929
29.0025
29.0132
29.0357
29.0464
29.0719
29.065
29.0769
29.0487
29.0355
29.0112
29.0067
29.0228
29.0844
29.1806
29.2987
29.4358
29.5679
29.7234
29.8249
29.9888
29.9778
29.1457
29.0568
29.0524
29.0263
29.0117
28.9993
28.9919
28.9906
28.9924
29.0016
29.0108
29.0316
29.0388
29.0618
29.0477
29.0533
29.0143
28.9925
28.9608
28.951
28.9628
29.0234
29.1204
29.2395
29.3769
29.5085
29.6631
29.7707
29.9323
29.9337
29.0995
29.017
29.0212
29.0054
28.9985
28.9916
28.9879
28.9888
28.9914
29.0004
29.0084
29.0274
29.0308
29.051
29.0295
29.0288
28.9786
28.9483
28.9095
28.8951
28.9029
28.9632
29.0615
29.1821
29.3198
29.4523
29.604
29.7178
29.875
29.8916
29.0558
28.9756
28.9876
28.9805
28.9812
28.9806
28.981
28.9845
28.9888
28.9984
29.0055
29.0229
29.0227
29.0395
29.0105
29.0036
28.9424
28.9038
28.8585
28.8399
28.8443
28.9047
29.0048
29.1274
29.2653
29.4001
29.5482
29.6674
29.8179
29.8521
29.0121
28.9313
28.9508
28.9527
28.9596
28.9647
28.9697
28.9764
28.9831
28.9941
29.0012
29.0175
29.0139
29.0276
28.991
28.9781
28.9061
28.8599
28.8085
28.7862
28.7879
28.8489
28.9512
29.0762
29.2138
29.3519
29.4974
29.6184
29.7611
29.8154
28.9673
28.8856
28.9125
28.9212
28.9336
28.944
28.9538
28.964
28.9734
28.9866
28.9943
29.0103
29.0037
29.015
28.9706
28.9525
28.8703
28.8169
28.7599
28.7344
28.7342
28.7963
28.9014
29.028
29.1679
29.3084
29.4505
29.5722
29.7061
29.7823
28.9209
28.8384
28.8712
28.8857
28.903
28.9184
28.933
28.9473
28.9595
28.9753
28.9846
29.001
28.9912
29.0008
28.9493
28.9268
28.8353
28.7756
28.7132
28.6852
28.6839
28.7473
28.8549
28.9833
29.1262
29.2674
29.4076
29.531
29.6585
29.75
28.8705
28.7881
28.8265
28.8465
28.8686
28.8887
28.9078
28.9264
28.942
28.9602
28.971
28.9882
28.9768
28.9844
28.9267
28.9009
28.8007
28.7366
28.6687
28.639
28.6372
28.7024
28.8115
28.9419
29.0863
29.229
29.3691
29.4946
29.6169
29.7195
28.8138
28.7352
28.7787
28.8041
28.8309
28.8558
28.8791
28.9019
28.9211
28.942
28.9539
28.9718
28.9589
28.9656
28.9026
28.8746
28.7673
28.6998
28.6269
28.596
28.5939
28.6605
28.7701
28.9019
29.0488
29.1943
29.3348
29.4621
29.5803
29.6905
28.7492
28.6795
28.7277
28.7586
28.7902
28.8199
28.8478
28.8749
28.8977
28.9216
28.9349
28.9537
28.9379
28.9447
28.8774
28.8484
28.7369
28.6658
28.588
28.5557
28.5537
28.6207
28.7305
28.8653
29.0145
29.1628
29.3038
29.433
29.5479
29.6631
28.6756
28.6207
28.6735
28.7105
28.7472
28.7821
28.8147
28.8463
28.8728
28.8999
28.9145
28.9343
28.9168
28.923
28.852
28.8244
28.7085
28.6341
28.5518
28.5183
28.516
28.5821
28.693
28.831
28.9824
29.1333
29.2754
29.4063
29.519
29.6374
28.5926
28.5583
28.6161
28.6597
28.7022
28.7428
28.7806
28.817
28.8476
28.878
28.8943
28.9151
28.8962
28.9025
28.8285
28.8028
28.6823
28.6051
28.5187
28.483
28.4795
28.5462
28.6577
28.798
28.9516
29.1049
29.2486
29.3812
29.4924
29.6131
28.5001
28.4915
28.5547
28.606
28.6554
28.7026
28.7462
28.7883
28.8233
28.8574
28.8755
28.8974
28.8776
28.8844
28.8082
28.7847
28.6606
28.5808
28.4892
28.4496
28.4468
28.5148
28.6249
28.7667
28.9218
29.0768
29.2221
29.3569
29.4674
29.5901
28.4007
28.4174
28.4891
28.5494
28.6072
28.6623
28.7129
28.7613
28.801
28.8393
28.8591
28.8824
28.8621
28.8696
28.7919
28.7717
28.6448
28.5621
28.4645
28.4225
28.4222
28.4878
28.5961
28.7381
28.8934
29.0494
29.1952
29.3318
29.4431
29.5667
28.2929
28.3365
28.42
28.4915
28.5595
28.6237
28.682
28.7373
28.7821
28.8245
28.846
28.8704
28.8496
28.859
28.7797
28.7638
28.6352
28.5513
28.4502
28.4067
28.4068
28.4673
28.5743
28.7145
28.8687
29.0243
29.1699
29.3065
29.4181
29.5432
28.1773
28.2535
28.351
28.4353
28.5148
28.5892
28.6558
28.7189
28.7686
28.8145
28.8371
28.8621
28.8407
28.8533
28.7715
28.7614
28.6309
28.5469
28.4439
28.3997
28.3991
28.4591
28.5631
28.6998
28.8518
29.0056
29.15
29.2859
29.3967
29.5209
28.0574
28.174
28.2855
28.3836
28.4763
28.5626
28.6378
28.7074
28.7615
28.811
28.8352
28.8623
28.8409
28.8575
28.7741
28.7705
28.6383
28.5554
28.4448
28.3984
28.3986
28.4586
28.5611
28.6954
28.8453
28.9977
29.1408
29.2743
29.3838
29.5039
27.9513
28.1082
28.2331
28.3471
28.4526
28.5489
28.6311
28.7084
28.7729
28.8264
28.8525
28.8815
28.8604
28.8819
28.7992
28.8051
28.6706
28.5881
28.4732
28.4225
28.4205
28.4738
28.5715
28.7024
28.8511
29.0028
29.1454
29.2781
29.3867
29.5027
27.8802
28.0633
28.1976
28.3238
28.4411
28.5491
28.6512
28.7386
28.8085
28.8659
28.8935
28.9257
28.9068
28.9353
28.8544
28.8727
28.7357
28.6538
28.5334
28.4772
28.4686
28.5127
28.5988
28.7242
28.8697
29.0217
29.1644
29.2964
29.4034
29.5164
27.8792
28.0866
28.2352
28.3729
28.4981
28.6133
28.7184
28.8083
28.879
28.9367
28.9648
29.0001
28.9862
29.025
28.9506
28.991
28.8583
28.7826
28.6563
28.593
28.5742
28.6112
28.687
28.8001
28.9353
29.0772
29.2122
29.341
29.4487
29.5637
27.99
28.1763
28.3218
28.4634
28.5923
28.709
28.8115
28.8978
28.9651
29.0206
29.0509
29.0904
29.0829
29.1346
29.0723
29.1434
29.0219
28.9608
28.8387
28.7758
28.7508
28.7809
28.8476
28.9507
29.0799
29.2226
29.365
29.5031
29.6209
29.7387
29.6291
29.3603
29.2929
29.1153
28.985
28.9035
28.8655
28.8555
28.8612
28.8888
28.9233
28.9699
29.004
29.0444
29.0456
29.0527
29.0114
28.981
28.9337
28.9192
28.9433
29.0283
29.1563
29.3136
29.492
29.6743
29.868
30.0148
30.1715
30.183
29.5909
29.2765
29.2344
29.0746
28.9676
28.9012
28.8684
28.8621
28.871
28.9001
28.9348
28.9807
29.0138
29.0535
29.0541
29.0624
29.0236
28.9979
28.9541
28.9389
28.9583
29.0419
29.1701
29.3272
29.5054
29.6872
29.8813
30.0257
30.1838
30.1902
29.5375
29.2181
29.1862
29.0448
28.9534
28.8967
28.8694
28.8664
28.8784
28.9088
28.9433
28.9884
29.0198
29.0579
29.0561
29.0632
29.0225
28.9958
28.9505
28.932
28.9464
29.0335
29.1649
29.3237
29.5026
29.6828
29.8777
30.0187
30.1857
30.1824
29.4632
29.1607
29.1333
29.0066
28.9317
28.8866
28.8681
28.8697
28.8852
28.9168
28.9511
28.9955
29.025
29.0614
29.0564
29.0613
29.0157
28.9858
28.9371
28.9142
28.9227
29.0044
29.1383
29.3
29.4794
29.658
29.8536
29.9943
30.1718
30.1614
29.3772
29.1067
29.0809
28.9693
28.9094
28.876
28.8658
28.8721
28.8904
28.9232
28.9571
29.0009
29.028
29.062
29.0521
29.0531
28.9991
28.9632
28.9094
28.8818
28.8858
28.9634
29.0933
29.2568
29.4376
29.6159
29.8128
29.9538
30.1412
30.1296
29.2884
29.0544
29.03
28.9339
28.8896
28.867
28.8641
28.8739
28.8945
28.9284
28.9616
29.0052
29.0285
29.0607
29.0445
29.0396
28.9749
28.9305
28.87
28.8383
28.8386
28.9141
29.0414
29.2023
29.3843
29.5622
29.7608
29.9025
30.0965
30.0884
29.2007
29.0044
28.983
28.9037
28.8734
28.8603
28.8631
28.8758
28.8984
28.9331
28.9655
29.0085
29.028
29.058
29.0341
29.0218
28.9439
28.8891
28.8215
28.7859
28.7837
28.8586
28.9849
29.1434
29.3246
29.5023
29.7014
29.8457
30.0427
30.0422
29.1165
28.9586
28.9418
28.8796
28.8611
28.8561
28.8628
28.8786
28.9029
28.9382
28.9693
29.0116
29.0271
29.0541
29.0213
29.0002
28.9071
28.8408
28.7654
28.7264
28.7232
28.7989
28.9256
29.0829
29.2622
29.44
29.6377
29.7849
29.9824
29.9943
29.0386
28.9157
28.9065
28.8606
28.8523
28.854
28.8638
28.8827
28.9082
28.9438
28.9734
29.0148
29.0259
29.0494
29.0066
28.9755
28.8653
28.7866
28.7027
28.6621
28.6588
28.7368
28.8653
29.0224
29.2001
29.3775
29.5719
29.7224
29.918
29.9456
28.9701
28.8776
28.8768
28.8464
28.8465
28.853
28.8665
28.8882
28.9144
28.9502
28.9779
29.0183
29.0245
29.0441
28.9903
28.9481
28.8193
28.7277
28.6359
28.5949
28.5923
28.6742
28.8056
28.9633
29.1404
29.317
29.5068
29.6612
29.8514
29.8978
28.9128
28.8434
28.85
28.8344
28.8414
28.8523
28.8703
28.8948
28.9217
28.9572
28.9828
29.0219
29.023
29.0384
28.9728
28.9186
28.7702
28.6657
28.5676
28.526
28.5255
28.6125
28.748
28.9067
29.0848
29.2607
29.4462
29.6032
29.7838
29.8524
28.8629
28.8107
28.8253
28.8229
28.8361
28.8512
28.8737
28.9014
28.9294
28.9646
28.9884
29.0253
29.0213
29.0322
28.954
28.8871
28.7187
28.6021
28.4984
28.4568
28.4599
28.5532
28.6936
28.8551
29.0349
29.2113
29.3927
29.5483
29.7185
29.8107
28.8185
28.7803
28.8015
28.8099
28.8293
28.8489
28.8751
28.9068
28.9365
28.9719
28.994
29.0286
29.0192
29.0258
28.9344
28.8542
28.6657
28.538
28.4288
28.3885
28.397
28.4976
28.6424
28.8094
28.9919
29.1697
29.3448
29.4983
29.6597
29.7726
28.7794
28.7508
28.7789
28.7955
28.8204
28.8448
28.8742
28.9096
28.9418
28.9786
28.9992
29.0317
29.0165
29.019
28.9137
28.8202
28.612
28.4744
28.3605
28.3227
28.3376
28.4462
28.5945
28.7707
28.957
29.1333
29.3025
29.4557
29.6097
29.7365
28.7429
28.72
28.7558
28.7787
28.8091
28.8385
28.8715
28.9093
28.9443
28.9835
29.003
29.034
29.013
29.011
28.8922
28.7855
28.5583
28.4126
28.295
28.2602
28.2827
28.399
28.5552
28.7393
28.926
29.1008
29.2673
29.4204
29.5671
29.7035
28.7065
28.6854
28.7294
28.7591
28.7953
28.8299
28.8667
28.9072
28.9439
28.9855
29.0042
29.0353
29.0083
29.0018
28.8697
28.7507
28.5056
28.3541
28.2334
28.2023
28.2331
28.3573
28.522
28.7096
28.8971
29.0738
29.2393
29.3918
29.5318
29.6733
28.6664
28.6488
28.701
28.7372
28.7792
28.8192
28.86
28.9035
28.942
28.9851
29.0038
29.0355
29.0024
28.9914
28.8462
28.7164
28.4549
28.3002
28.1769
28.15
28.1891
28.318
28.4891
28.6813
28.873
29.0525
29.2173
29.3692
29.5034
29.6472
28.6228
28.611
28.6708
28.7132
28.7613
28.8068
28.8519
28.8987
28.939
28.9839
29.0025
29.0344
28.9958
28.9804
28.8221
28.6831
28.4082
28.2523
28.1269
28.1031
28.1475
28.2781
28.4575
28.6566
28.853
29.0358
29.2008
29.3521
29.4813
29.6254
28.5748
28.5706
28.6384
28.6873
28.7418
28.7931
28.8427
28.893
28.9357
28.9822
29.0009
29.0331
28.9887
28.9696
28.7987
28.6525
28.3675
28.2129
28.0824
28.0586
28.1073
28.2445
28.4288
28.6343
28.8358
29.0225
29.1887
29.3398
29.4647
29.6078
28.5212
28.5271
28.6032
28.6603
28.7213
28.7785
28.8328
28.887
28.9324
28.9806
28.9995
29.0327
28.9831
28.9608
28.7782
28.6281
28.3342
28.1797
28.0403
28.0176
28.0732
28.214
28.4013
28.6131
28.8203
29.0109
29.1793
29.3313
29.453
29.5942
28.4618
28.4806
28.5657
28.6322
28.7
28.7634
28.8226
28.8811
28.9294
28.9797
28.9992
29.034
28.981
28.9567
28.7623
28.6111
28.3073
28.1518
28.0052
27.9866
28.0422
28.1785
28.3741
28.5927
28.8053
29.0001
29.1712
29.3251
29.4448
29.5839
28.3952
28.4311
28.5266
28.6032
28.6782
28.7481
28.8125
28.8755
28.9271
28.9799
29.0027
29.038
28.9827
28.9584
28.7521
28.6011
28.2884
28.1359
27.9847
27.9647
28.0118
28.1473
28.3487
28.5727
28.7904
28.9893
29.1628
29.3188
29.4393
29.5758
28.3204
28.3786
28.4863
28.5735
28.6563
28.7329
28.8029
28.8707
28.9258
28.9828
29.0089
29.0447
28.9872
28.9634
28.7477
28.5984
28.2787
28.1286
27.9731
27.9457
27.9872
28.1285
28.3274
28.5542
28.7757
28.9786
29.155
29.3122
29.4342
29.5695
28.2368
28.3262
28.4453
28.5437
28.6347
28.7184
28.7943
28.867
28.9256
28.9883
29.017
29.0538
28.9952
28.9722
28.7493
28.6068
28.2767
28.1282
27.9657
27.9368
27.9831
28.1223
28.3142
28.5386
28.763
28.9692
29.1486
29.3076
29.4317
29.5652
28.148
28.2748
28.4047
28.5148
28.6146
28.7055
28.7872
28.8647
28.928
28.9972
29.0274
29.066
29.0072
28.9865
28.7584
28.6305
28.294
28.1478
27.9753
27.947
27.9927
28.1279
28.3148
28.5327
28.7547
28.9641
29.1464
29.3075
29.433
29.5642
28.0594
28.2253
28.3666
28.4885
28.597
28.695
28.7823
28.8645
28.9357
29.0103
29.042
29.0837
29.0259
29.0131
28.7804
28.664
28.317
28.1763
27.997
27.9669
28.0063
28.1384
28.3222
28.5375
28.7562
28.965
29.1495
29.3114
29.4384
29.5673
27.9821
28.1818
28.3335
28.4669
28.5841
28.6891
28.7821
28.8749
28.9538
29.0313
29.0653
29.1119
29.0535
29.0512
28.8104
28.7106
28.3568
28.2253
28.037
28.0029
28.0339
28.1595
28.3382
28.5486
28.7653
28.9731
29.1579
29.3218
29.4505
29.5773
27.9282
28.1485
28.3085
28.4524
28.5791
28.693
28.7983
28.8994
28.9822
29.062
29.098
29.1508
29.0914
29.1012
28.8536
28.79
28.4313
28.3114
28.1161
28.0799
28.1027
28.2107
28.3728
28.5755
28.7857
28.9888
29.173
29.3381
29.4709
29.5983
27.9024
28.1311
28.2973
28.4489
28.5846
28.7117
28.8249
28.9286
29.0127
29.0929
29.1301
29.1877
29.1306
29.1565
28.9106
28.8932
28.5322
28.4283
28.2287
28.1892
28.2013
28.2926
28.4367
28.6245
28.827
29.0274
29.2085
29.3708
29.5043
29.6355
27.9335
28.1409
28.3068
28.4634
28.6047
28.7353
28.8497
28.9533
29.0374
29.1176
29.1563
29.2171
29.1651
29.2098
28.9748
29.0163
28.6637
28.5798
28.3808
28.3395
28.3405
28.4161
28.539
28.7073
28.8938
29.0844
29.2638
29.4301
29.5732
29.7106
29.7327
29.3879
29.31
29.0928
28.9292
28.8271
28.7808
28.775
28.7922
28.8371
28.8888
28.9625
29.0175
29.0963
29.1117
29.1396
29.0556
28.9562
28.8039
28.7177
28.7033
28.7767
28.9089
29.0733
29.2595
29.4566
29.6798
29.8665
30.0803
30.1144
29.6784
29.2665
29.2294
29.0336
28.9006
28.8186
28.7826
28.7825
28.8041
28.8511
28.9031
28.9764
29.0303
29.1091
29.1235
29.1544
29.0746
28.9827
28.8327
28.7408
28.7142
28.7826
28.9141
29.0794
29.2676
29.4668
29.6928
29.8794
30.0961
30.1263
29.6036
29.1805
29.1632
28.9895
28.8783
28.8105
28.7833
28.7893
28.8145
28.8631
28.9151
28.9882
29.0402
29.1193
29.1313
29.1647
29.0828
28.9874
28.8297
28.7362
28.7045
28.7683
28.9025
29.0711
29.2627
29.4627
29.6898
29.8721
30.0962
30.1198
29.5033
29.1001
29.0922
28.935
28.8459
28.7954
28.7809
28.7948
28.8238
28.8742
28.9262
28.9993
29.0492
29.1293
29.1375
29.1733
29.0826
28.9817
28.8168
28.7197
28.6802
28.7349
28.8667
29.0402