/*--------------------------------*- C++ -*----------------------------------*\
  =========                 |
  \\      /  F ield         | OpenFOAM: The Open Source CFD Toolbox
   \\    /   O peration     | Website:  https://openfoam.org
    \\  /    A nd           | Version:  12
     \\/     M anipulation  |
\*---------------------------------------------------------------------------*/
FoamFile
{
    format      ascii;
    class       volScalarField;
    location    "1350/air";
    object      T;
}
// * * * * * * * * * * * * * * * * * * * * * * * * * * * * * * * * * * * * * //

dimensions      [0 0 0 1 0 0 0];

internalField   nonuniform List<scalar> 
243000
(
300.454
300.436
300.424
300.415
300.407
300.399
300.393
300.387
300.381
300.375
300.369
300.364
300.358
300.353
300.347
300.341
300.334
300.327
300.318
300.307
300.295
300.28
300.264
300.248
300.233
300.22
300.208
300.198
300.189
300.18
300.487
300.456
300.436
300.422
300.411
300.402
300.394
300.387
300.38
300.374
300.368
300.362
300.356
300.35
300.344
300.338
300.331
300.323
300.314
300.303
300.291
300.277
300.262
300.246
300.232
300.219
300.207
300.196
300.187
300.181
300.551
300.488
300.456
300.435
300.419
300.408
300.398
300.389
300.382
300.375
300.368
300.361
300.355
300.349
300.342
300.335
300.328
300.32
300.311
300.3
300.288
300.274
300.26
300.245
300.231
300.218
300.206
300.196
300.187
300.18
300.66
300.543
300.487
300.454
300.432
300.416
300.404
300.394
300.385
300.377
300.369
300.362
300.355
300.348
300.341
300.334
300.326
300.318
300.308
300.298
300.286
300.273
300.259
300.245
300.231
300.218
300.206
300.196
300.186
300.18
300.813
300.632
300.539
300.486
300.453
300.43
300.414
300.401
300.39
300.38
300.372
300.364
300.356
300.349
300.341
300.334
300.326
300.317
300.307
300.296
300.284
300.271
300.258
300.244
300.231
300.219
300.207
300.196
300.187
300.179
300.987
300.764
300.62
300.536
300.485
300.452
300.429
300.411
300.398
300.386
300.376
300.367
300.359
300.351
300.342
300.334
300.325
300.316
300.306
300.295
300.283
300.27
300.257
300.244
300.231
300.219
300.208
300.197
300.187
300.18
301.145
300.926
300.739
300.614
300.535
300.485
300.451
300.427
300.409
300.395
300.382
300.372
300.362
300.353
300.344
300.335
300.326
300.316
300.305
300.294
300.282
300.27
300.257
300.244
300.232
300.22
300.209
300.198
300.189
300.18
301.265
301.099
300.897
300.732
300.616
300.539
300.487
300.452
300.426
300.407
300.392
300.379
300.368
300.357
300.348
300.338
300.328
300.317
300.305
300.294
300.281
300.269
300.257
300.244
300.232
300.221
300.21
300.199
300.19
300.181
301.335
301.243
301.077
300.894
300.741
300.628
300.549
300.494
300.455
300.427
300.405
300.389
300.375
300.363
300.352
300.341
300.33
300.318
300.306
300.294
300.282
300.269
300.257
300.245
300.233
300.222
300.211
300.201
300.191
300.183
301.366
301.33
301.234
301.081
300.911
300.763
300.648
300.564
300.504
300.46
300.429
300.405
300.386
300.371
300.358
300.346
300.334
300.321
300.308
300.295
300.282
300.27
300.257
300.246
300.234
300.223
300.212
300.202
300.193
300.184
301.385
301.367
301.327
301.237
301.099
300.941
300.795
300.676
300.585
300.517
300.468
300.431
300.404
300.383
300.367
300.352
300.339
300.325
300.311
300.297
300.284
300.271
300.258
300.247
300.235
300.224
300.214
300.204
300.195
300.186
301.4
301.387
301.37
301.329
301.248
301.124
300.976
300.832
300.708
300.608
300.532
300.475
300.434
300.403
300.38
300.362
300.346
300.33
300.315
300.3
300.286
300.273
300.26
300.248
300.237
300.226
300.216
300.206
300.197
300.188
301.415
301.403
301.39
301.372
301.333
301.26
301.149
301.011
300.869
300.739
300.63
300.546
300.482
300.436
300.402
300.376
300.356
300.338
300.321
300.305
300.289
300.275
300.262
300.25
300.238
300.228
300.218
300.208
300.199
300.19
301.429
301.417
301.404
301.391
301.372
301.336
301.269
301.168
301.039
300.898
300.764
300.648
300.556
300.487
300.436
300.398
300.371
300.348
300.328
300.31
300.294
300.279
300.265
300.252
300.241
300.23
300.22
300.21
300.201
300.193
301.443
301.43
301.417
301.404
301.39
301.37
301.335
301.273
301.178
301.054
300.915
300.779
300.658
300.561
300.487
300.432
300.393
300.363
300.339
300.318
300.3
300.284
300.269
300.256
300.244
300.232
300.222
300.213
300.204
300.195
301.457
301.443
301.429
301.415
301.402
301.386
301.365
301.329
301.269
301.178
301.058
300.92
300.783
300.66
300.56
300.483
300.426
300.385
300.354
300.329
300.308
300.29
300.274
300.26
300.247
300.236
300.225
300.215
300.206
300.198
301.469
301.454
301.439
301.425
301.41
301.396
301.379
301.356
301.319
301.259
301.168
301.049
300.913
300.776
300.653
300.552
300.474
300.417
300.375
300.343
300.318
300.298
300.28
300.265
300.251
300.239
300.228
300.219
300.209
300.201
301.48
301.464
301.448
301.433
301.418
301.403
301.387
301.369
301.343
301.304
301.241
301.15
301.031
300.896
300.76
300.638
300.539
300.462
300.406
300.364
300.333
300.308
300.288
300.271
300.256
300.244
300.232
300.222
300.213
300.204
301.488
301.472
301.455
301.439
301.424
301.408
301.392
301.375
301.355
301.327
301.284
301.218
301.123
301.004
300.869
300.737
300.618
300.522
300.448
300.394
300.353
300.323
300.299
300.279
300.263
300.249
300.237
300.226
300.216
300.207
301.494
301.477
301.46
301.444
301.428
301.412
301.396
301.378
301.36
301.337
301.306
301.259
301.188
301.091
300.97
300.837
300.709
300.596
300.504
300.434
300.382
300.343
300.313
300.29
300.272
300.256
300.243
300.231
300.221
300.211
301.496
301.479
301.463
301.447
301.431
301.414
301.397
301.379
301.361
301.341
301.316
301.281
301.229
301.154
301.052
300.931
300.802
300.679
300.572
300.485
300.419
300.37
300.333
300.305
300.283
300.265
300.25
300.237
300.226
300.216
301.493
301.477
301.462
301.446
301.429
301.411
301.393
301.375
301.356
301.337
301.315
301.288
301.25
301.194
301.113
301.01
300.89
300.765
300.649
300.548
300.468
300.407
300.36
300.325
300.299
300.277
300.26
300.245
300.233
300.222
301.487
301.471
301.455
301.439
301.421
301.403
301.385
301.366
301.347
301.328
301.309
301.286
301.257
301.214
301.154
301.07
300.966
300.848
300.73
300.62
300.528
300.453
300.396
300.352
300.319
300.293
300.272
300.255
300.241
300.229
301.475
301.46
301.444
301.428
301.412
301.394
301.376
301.357
301.338
301.319
301.3
301.28
301.256
301.223
301.177
301.112
301.026
300.922
300.809
300.697
300.596
300.51
300.441
300.388
300.346
300.314
300.289
300.268
300.252
300.237
301.458
301.445
301.431
301.416
301.401
301.385
301.367
301.349
301.331
301.312
301.293
301.274
301.253
301.226
301.191
301.14
301.071
300.983
300.881
300.773
300.669
300.575
300.496
300.432
300.382
300.342
300.311
300.286
300.265
300.249
301.435
301.425
301.414
301.402
301.389
301.375
301.359
301.343
301.325
301.307
301.289
301.27
301.25
301.227
301.197
301.157
301.103
301.031
300.943
300.844
300.742
300.646
300.559
300.486
300.426
300.377
300.339
300.308
300.283
300.263
301.402
301.396
301.389
301.381
301.371
301.36
301.346
301.331
301.314
301.296
301.277
301.258
301.238
301.216
301.191
301.16
301.117
301.06
300.988
300.902
300.809
300.715
300.626
300.546
300.478
300.421
300.374
300.336
300.306
300.281
301.349
301.347
301.343
301.338
301.331
301.321
301.308
301.293
301.275
301.255
301.234
301.213
301.192
301.171
301.149
301.123
301.092
301.05
300.995
300.928
300.85
300.766
300.682
300.602
300.53
300.466
300.412
300.368
300.331
300.301
301.215
301.211
301.208
301.202
301.193
301.179
301.161
301.139
301.115
301.089
301.063
301.038
301.015
300.994
300.975
300.957
300.937
300.913
300.88
300.837
300.784
300.724
300.658
300.592
300.529
300.471
300.419
300.375
300.337
300.305
300.599
300.594
300.599
300.601
300.596
300.585
300.571
300.555
300.537
300.52
300.503
300.487
300.474
300.463
300.452
300.444
300.437
300.428
300.416
300.4
300.38
300.357
300.332
300.305
300.278
300.252
300.229
300.207
300.189
300.173
300.443
300.425
300.413
300.405
300.397
300.39
300.384
300.378
300.372
300.367
300.361
300.355
300.349
300.343
300.337
300.33
300.322
300.313
300.301
300.285
300.267
300.246
300.227
300.208
300.193
300.179
300.168
300.159
300.151
300.145
300.47
300.442
300.424
300.411
300.401
300.392
300.385
300.378
300.371
300.365
300.359
300.352
300.346
300.34
300.333
300.325
300.317
300.307
300.295
300.28
300.263
300.244
300.226
300.209
300.194
300.18
300.169
300.16
300.151
300.145
300.501
300.465
300.441
300.424
300.411
300.399
300.39
300.381
300.374
300.366
300.359
300.352
300.345
300.338
300.33
300.322
300.313
300.303
300.29
300.276
300.26
300.242
300.225
300.209
300.194
300.182
300.171
300.161
300.152
300.145
300.54
300.498
300.468
300.445
300.427
300.412
300.4
300.389
300.38
300.371
300.362
300.354
300.346
300.338
300.33
300.321
300.31
300.299
300.286
300.272
300.257
300.241
300.225
300.209
300.195
300.183
300.172
300.162
300.154
300.146
300.592
300.546
300.508
300.478
300.453
300.433
300.417
300.403
300.39
300.379
300.369
300.359
300.35
300.341
300.331
300.32
300.309
300.297
300.284
300.27
300.255
300.239
300.224
300.209
300.196
300.184
300.173
300.164
300.155
300.147
300.668
300.617
300.568
300.526
300.492
300.465
300.442
300.423
300.407
300.393
300.38
300.368
300.357
300.346
300.334
300.322
300.309
300.296
300.282
300.268
300.253
300.238
300.223
300.21
300.197
300.185
300.175
300.165
300.156
300.149
300.761
300.716
300.653
300.595
300.548
300.509
300.478
300.452
300.431
300.412
300.396
300.381
300.367
300.353
300.34
300.326
300.312
300.296
300.281
300.267
300.252
300.237
300.223
300.21
300.198
300.186
300.176
300.167
300.158
300.15
300.845
300.818
300.752
300.681
300.619
300.567
300.525
300.491
300.463
300.438
300.417
300.398
300.381
300.365
300.349
300.333
300.316
300.299
300.282
300.266
300.251
300.237
300.223
300.21
300.198
300.188
300.177
300.168
300.16
300.152
300.904
300.907
300.857
300.783
300.708
300.641
300.586
300.541
300.504
300.473
300.446
300.422
300.4
300.38
300.361
300.342
300.322
300.303
300.285
300.267
300.252
300.237
300.224
300.211
300.2
300.189
300.179
300.17
300.162
300.154
300.943
300.971
300.95
300.891
300.814
300.736
300.666
300.607
300.558
300.517
300.482
300.452
300.425
300.401
300.377
300.354
300.332
300.31
300.289
300.27
300.253
300.238
300.225
300.212
300.201
300.191
300.181
300.172
300.164
300.156
300.97
301.011
301.018
300.987
300.925
300.847
300.767
300.693
300.63
300.576
300.531
300.492
300.458
300.427
300.399
300.371
300.345
300.319
300.296
300.275
300.257
300.241
300.227
300.214
300.203
300.192
300.183
300.174
300.166
300.158
300.989
301.035
301.059
301.054
301.019
300.958
300.88
300.799
300.722
300.653
300.594
300.543
300.5
300.462
300.427
300.393
300.362
300.332
300.305
300.282
300.262
300.245
300.23
300.217
300.205
300.195
300.185
300.177
300.168
300.161
301.008
301.049
301.08
301.093
301.083
301.046
300.986
300.911
300.829
300.748
300.675
300.61
300.554
300.505
300.462
300.422
300.384
300.349
300.318
300.292
300.269
300.251
300.234
300.22
300.208
300.198
300.188
300.179
300.171
300.163
301.03
301.062
301.092
301.112
301.117
301.103
301.066
301.009
300.935
300.852
300.769
300.691
300.621
300.56
300.506
300.457
300.412
300.371
300.335
300.305
300.279
300.258
300.241
300.226
300.213
300.201
300.191
300.182
300.174
300.166
301.055
301.079
301.102
301.122
301.133
301.132
301.114
301.077
301.021
300.949
300.867
300.782
300.7
300.626
300.56
300.5
300.446
300.398
300.356
300.321
300.292
300.268
300.249
300.232
300.218
300.206
300.195
300.186
300.177
300.169
301.084
301.099
301.114
301.129
301.14
301.144
301.137
301.116
301.079
301.023
300.952
300.87
300.784
300.701
300.623
300.552
300.488
300.432
300.383
300.342
300.309
300.282
300.259
300.241
300.225
300.212
300.2
300.19
300.181
300.173
301.116
301.123
301.13
301.138
301.145
301.148
301.145
301.134
301.11
301.071
301.015
300.945
300.863
300.777
300.692
300.611
300.537
300.472
300.416
300.369
300.33
300.298
300.273
300.251
300.234
300.219
300.206
300.195
300.185
300.177
301.149
301.149
301.149
301.15
301.15
301.15
301.147
301.138
301.122
301.095
301.055
300.998
300.928
300.847
300.76
300.674
300.592
300.519
300.455
300.401
300.356
300.319
300.289
300.265
300.245
300.228
300.214
300.202
300.191
300.181
301.18
301.174
301.169
301.163
301.158
301.153
301.146
301.137
301.124
301.104
301.074
301.031
300.974
300.903
300.822
300.736
300.65
300.57
300.499
300.438
300.386
300.344
300.31
300.282
300.259
300.239
300.223
300.209
300.197
300.187
301.209
301.199
301.188
301.177
301.167
301.156
301.145
301.134
301.121
301.104
301.08
301.047
301.002
300.944
300.873
300.792
300.708
300.624
300.548
300.48
300.422
300.374
300.335
300.302
300.276
300.253
300.235
300.219
300.205
300.194
301.234
301.22
301.205
301.19
301.175
301.16
301.145
301.13
301.115
301.099
301.079
301.052
301.017
300.97
300.911
300.839
300.76
300.678
300.599
300.526
300.463
300.409
300.364
300.327
300.296
300.271
300.249
300.231
300.215
300.202
301.253
301.236
301.219
301.201
301.183
301.164
301.146
301.129
301.111
301.094
301.075
301.052
301.022
300.985
300.936
300.876
300.805
300.728
300.65
300.575
300.507
300.449
300.398
300.356
300.321
300.291
300.267
300.246
300.228
300.213
301.264
301.246
301.227
301.208
301.188
301.167
301.147
301.128
301.108
301.089
301.069
301.048
301.023
300.992
300.952
300.902
300.841
300.772
300.699
300.625
300.556
300.493
300.438
300.39
300.35
300.316
300.288
300.263
300.242
300.225
301.266
301.248
301.229
301.21
301.189
301.168
301.146
301.124
301.102
301.082
301.061
301.04
301.018
300.991
300.958
300.918
300.867
300.809
300.743
300.674
300.605
300.54
300.482
300.43
300.385
300.346
300.313
300.285
300.261
300.24
301.254
301.237
301.219
301.2
301.18
301.158
301.136
301.114
301.091
301.069
301.047
301.026
301.005
300.981
300.954
300.922
300.882
300.835
300.78
300.719
300.654
300.59
300.529
300.474
300.424
300.38
300.343
300.31
300.282
300.258
301.228
301.212
301.195
301.177
301.157
301.137
301.115
301.092
301.069
301.046
301.023
301.001
300.98
300.959
300.937
300.912
300.882
300.846
300.803
300.753
300.696
300.637
300.577
300.52
300.466
300.418
300.376
300.339
300.307
300.279
301.181
301.166
301.149
301.132
301.115
301.096
301.075
301.053
301.029
301.005
300.982
300.959
300.938
300.918
300.899
300.879
300.858
300.832
300.8
300.762
300.716
300.665
300.611
300.556
300.503
300.453
300.407
300.366
300.33
300.3
301.09
301.073
301.059
301.046
301.031
301.015
300.996
300.974
300.949
300.924
300.899
300.875
300.854
300.835
300.818
300.802
300.787
300.77
300.748
300.72
300.686
300.646
300.6
300.552
300.504
300.457
300.414
300.374
300.339
300.308
300.896
300.875
300.863
300.855
300.847
300.835
300.817
300.796
300.772
300.748
300.725
300.703
300.684
300.666
300.65
300.636
300.624
300.611
300.597
300.578
300.555
300.528
300.496
300.461
300.426
300.391
300.357
300.327
300.299
300.274
300.501
300.495
300.497
300.501
300.502
300.498
300.491
300.48
300.468
300.454
300.441
300.427
300.415
300.404
300.393
300.382
300.372
300.362
300.351
300.337
300.321
300.303
300.283
300.261
300.24
300.219
300.199
300.181
300.165
300.151
300.425
300.414
300.405
300.398
300.391
300.385
300.379
300.373
300.367
300.361
300.356
300.35
300.344
300.337
300.33
300.322
300.313
300.301
300.285
300.264
300.241
300.217
300.197
300.18
300.167
300.156
300.147
300.14
300.133
300.121
300.429
300.416
300.405
300.397
300.389
300.382
300.375
300.369
300.362
300.356
300.35
300.344
300.338
300.331
300.323
300.315
300.305
300.293
300.278
300.258
300.237
300.216
300.197
300.181
300.168
300.157
300.148
300.14
300.133
300.124
300.436
300.422
300.41
300.4
300.392
300.384
300.376
300.369
300.362
300.355
300.349
300.342
300.335
300.327
300.319
300.309
300.299
300.286
300.271
300.253
300.233
300.214
300.197
300.181
300.168
300.158
300.149
300.141
300.134
300.126
300.446
300.432
300.42
300.409
300.399
300.39
300.381
300.373
300.365
300.358
300.35
300.342
300.334
300.326
300.316
300.306
300.294
300.28
300.265
300.248
300.23
300.213
300.196
300.182
300.169
300.159
300.15
300.142
300.135
300.127
300.459
300.447
300.435
300.423
300.412
300.402
300.392
300.382
300.373
300.364
300.355
300.346
300.337
300.327
300.316
300.304
300.291
300.276
300.261
300.245
300.228
300.211
300.196
300.182
300.17
300.16
300.151
300.143
300.136
300.129
300.478
300.469
300.458
300.446
300.433
300.421
300.409
300.397
300.385
300.375
300.364
300.353
300.342
300.331
300.318
300.304
300.289
300.274
300.258
300.242
300.226
300.21
300.196
300.183
300.171
300.161
300.152
300.144
300.137
300.13
300.503
300.5
300.492
300.48
300.465
300.449
300.434
300.419
300.404
300.391
300.378
300.365
300.351
300.338
300.323
300.307
300.29
300.273
300.256
300.24
300.225
300.21
300.196
300.183
300.172
300.162
300.154
300.146
300.139
300.132
300.538
300.55
300.545
300.531
300.512
300.49
300.469
300.449
300.431
300.413
300.397
300.381
300.365
300.348
300.331
300.312
300.292
300.273
300.255
300.239
300.224
300.21
300.196
300.184
300.174
300.164
300.155
300.147
300.14
300.134
300.582
300.607
300.609
300.595
300.572
300.544
300.517
300.491
300.467
300.444
300.423
300.403
300.383
300.363
300.342
300.32
300.297
300.276
300.256
300.239
300.224
300.21
300.197
300.186
300.175
300.166
300.157
300.149
300.142
300.135
300.626
300.661
300.675
300.666
300.642
300.61
300.576
300.543
300.512
300.484
300.457
300.432
300.407
300.383
300.357
300.331
300.304
300.28
300.259
300.241
300.225
300.211
300.198
300.187
300.177
300.167
300.159
300.151
300.144
300.137
300.667
300.71
300.735
300.736
300.717
300.685
300.646
300.606
300.568
300.532
300.499
300.468
300.438
300.408
300.377
300.345
300.315
300.288
300.264
300.245
300.228
300.213
300.2
300.189
300.179
300.17
300.161
300.154
300.146
300.14
300.707
300.752
300.785
300.798
300.788
300.762
300.723
300.679
300.634
300.591
300.55
300.512
300.475
300.439
300.402
300.364
300.329
300.298
300.272
300.25
300.232
300.217
300.204
300.192
300.182
300.172
300.164
300.156
300.149
300.142
300.746
300.788
300.824
300.846
300.848
300.831
300.799
300.756
300.708
300.659
300.61
300.564
300.52
300.476
300.432
300.388
300.347
300.312
300.282
300.258
300.239
300.222
300.208
300.196
300.185
300.176
300.167
300.159
300.151
300.144
300.785
300.822
300.856
300.882
300.893
300.886
300.864
300.828
300.782
300.73
300.676
300.623
300.571
300.52
300.468
300.416
300.369
300.329
300.296
300.269
300.247
300.229
300.214
300.201
300.19
300.18
300.17
300.162
300.154
300.147
300.825
300.855
300.884
300.909
300.924
300.926
300.913
300.886
300.847
300.798
300.743
300.685
300.627
300.569
300.508
300.449
300.396
300.351
300.313
300.283
300.259
300.239
300.222
300.208
300.196
300.185
300.175
300.166
300.157
300.15
300.868
300.889
300.912
300.932
300.947
300.952
300.946
300.928
300.897
300.854
300.803
300.744
300.683
300.619
300.553
300.487
300.427
300.377
300.335
300.301
300.273
300.251
300.232
300.216
300.203
300.191
300.18
300.17
300.161
300.154
300.911
300.925
300.94
300.954
300.965
300.97
300.967
300.955
300.932
300.897
300.851
300.796
300.735
300.669
300.599
300.527
300.462
300.407
300.36
300.322
300.291
300.266
300.244
300.227
300.212
300.198
300.186
300.176
300.166
300.158
300.955
300.962
300.969
300.976
300.981
300.984
300.981
300.971
300.953
300.925
300.886
300.837
300.779
300.714
300.643
300.569
300.501
300.441
300.39
300.348
300.313
300.284
300.26
300.24
300.223
300.208
300.194
300.183
300.172
300.163
300.998
300.999
300.999
300.999
300.998
300.995
300.99
300.981
300.965
300.941
300.909
300.866
300.814
300.752
300.683
300.61
300.541
300.478
300.424
300.377
300.339
300.306
300.279
300.256
300.236
300.219
300.204
300.191
300.179
300.169
301.038
301.033
301.028
301.021
301.014
301.007
300.998
300.987
300.971
300.95
300.922
300.885
300.839
300.783
300.718
300.649
300.581
300.517
300.461
300.411
300.368
300.332
300.302
300.276
300.253
300.234
300.217
300.202
300.188
300.177
301.073
301.064
301.054
301.042
301.03
301.018
301.005
300.991
300.974
300.954
300.929
300.896
300.856
300.806
300.748
300.684
300.619
300.556
300.499
300.447
300.402
300.363
300.329
300.3
300.274
300.252
300.232
300.214
300.199
300.186
301.101
301.089
301.075
301.06
301.044
301.028
301.011
300.994
300.976
300.956
300.932
300.902
300.867
300.823
300.772
300.714
300.654
300.596
300.539
300.487
300.44
300.398
300.361
300.328
300.299
300.273
300.25
300.23
300.212
300.196
301.119
301.106
301.09
301.073
301.054
301.035
301.016
300.996
300.977
300.956
300.932
300.905
300.872
300.834
300.79
300.74
300.687
300.634
300.581
300.529
300.481
300.437
300.397
300.361
300.328
300.298
300.272
300.248
300.227
300.209
301.128
301.113
301.097
301.079
301.059
301.039
301.018
300.996
300.974
300.951
300.927
300.901
300.872
300.838
300.8
300.758
300.714
300.668
300.62
300.573
300.526
300.481
300.438
300.399
300.362
300.328
300.298
300.27
300.246
300.225
301.123
301.108
301.092
301.074
301.054
301.033
301.01
300.987
300.964
300.94
300.915
300.889
300.861
300.832
300.8
300.766
300.73
300.693
300.653
300.612
300.569
300.526
300.482
300.44
300.4
300.362
300.327
300.295
300.267
300.243
301.099
301.085
301.069
301.051
301.032
301.011
300.988
300.965
300.94
300.915
300.889
300.863
300.836
300.809
300.782
300.753
300.726
300.698
300.668
300.636
300.601
300.562
300.521
300.479
300.437
300.396
300.357
300.322
300.291
300.263
301.046
301.031
301.015
300.999
300.981
300.962
300.941
300.917
300.892
300.865
300.839
300.812
300.786
300.76
300.735
300.71
300.688
300.668
300.648
300.626
300.6
300.57
300.536
300.498
300.459
300.419
300.38
300.344
300.31
300.281
300.942
300.924
300.909
300.896
300.882
300.867
300.848
300.826
300.801
300.775
300.748
300.722
300.697
300.673
300.649
300.626
300.608
300.592
300.577
300.561
300.543
300.522
300.498
300.469
300.439
300.406
300.372
300.339
300.309
300.281
300.749
300.736
300.727
300.721
300.714
300.705
300.691
300.673
300.652
300.63
300.607
300.584
300.562
300.541
300.52
300.499
300.483
300.468
300.456
300.443
300.43
300.414
300.395
300.374
300.351
300.328
300.305
300.282
300.261
300.241
300.447
300.447
300.451
300.457
300.461
300.462
300.459
300.451
300.441
300.428
300.414
300.4
300.385
300.369
300.352
300.335
300.32
300.307
300.296
300.285
300.273
300.26
300.246
300.231
300.215
300.199
300.184
300.169
300.155
300.143
300.422
300.411
300.403
300.395
300.389
300.383
300.376
300.37
300.364
300.358
300.352
300.346
300.34
300.333
300.325
300.317
300.306
300.291
300.27
300.243
300.216
300.193
300.174
300.16
300.15
300.142
300.135
300.13
300.124
300.117
300.42
300.407
300.397
300.389
300.381
300.375
300.369
300.363
300.356
300.35
300.344
300.338
300.331
300.324
300.316
300.306
300.295
300.28
300.26
300.237
300.213
300.191
300.174
300.161
300.15
300.142
300.135
300.129
300.124
300.117
300.421
300.409
300.398
300.389
300.381
300.373
300.366
300.36
300.353
300.346
300.34
300.333
300.325
300.317
300.309
300.298
300.286
300.271
300.252
300.231
300.21
300.19
300.174
300.161
300.151
300.142
300.135
300.129
300.124
300.118
300.426
300.413
300.403
300.393
300.384
300.376
300.368
300.361
300.353
300.346
300.339
300.331
300.323
300.314
300.304
300.292
300.279
300.264
300.246
300.226
300.207
300.189
300.174
300.162
300.151
300.143
300.136
300.13
300.124
300.118
300.433
300.421
300.411
300.401
300.391
300.382
300.373
300.365
300.357
300.349
300.34
300.332
300.323
300.312
300.301
300.288
300.273
300.258
300.24
300.222
300.205
300.188
300.174
300.162
300.152
300.144
300.136
300.13
300.124
300.119
300.443
300.433
300.423
300.413
300.403
300.393
300.383
300.374
300.364
300.355
300.345
300.336
300.325
300.313
300.3
300.285
300.269
300.253
300.236
300.219
300.203
300.188
300.174
300.163
300.153
300.145
300.137
300.131
300.125
300.119
300.457
300.449
300.44
300.43
300.42
300.409
300.398
300.387
300.376
300.366
300.354
300.343
300.331
300.317
300.301
300.284
300.267
300.249
300.233
300.217
300.201
300.187
300.175
300.164
300.154
300.146
300.138
300.132
300.126
300.12
300.475
300.471
300.464
300.455
300.445
300.433
300.42
300.407
300.394
300.381
300.368
300.354
300.339
300.323
300.305
300.285
300.266
300.247
300.231
300.215
300.201
300.187
300.176
300.165
300.156
300.148
300.14
300.133
300.127
300.121
300.498
300.499
300.497
300.491
300.48
300.466
300.451
300.435
300.419
300.403
300.387
300.37
300.352
300.333
300.311
300.288
300.266
300.247
300.229
300.214
300.2
300.188
300.177
300.167
300.158
300.149
300.142
300.135
300.128
300.123
300.526
300.534
300.537
300.534
300.524
300.508
300.49
300.471
300.451
300.431
300.412
300.391
300.369
300.346
300.32
300.293
300.269
300.247
300.229
300.214
300.201
300.189
300.178
300.169
300.16
300.151
300.144
300.137
300.13
300.124
300.559
300.572
300.582
300.583
300.574
300.558
300.538
300.515
300.491
300.467
300.443
300.418
300.391
300.363
300.332
300.301
300.273
300.25
300.232
300.216
300.203
300.191
300.181
300.171
300.162
300.154
300.146
300.139
300.132
300.126
300.594
300.612
300.626
300.632
300.628
300.613
300.592
300.566
300.539
300.51
300.481
300.451
300.418
300.384
300.347
300.311
300.281
300.256
300.236
300.22
300.206
300.194
300.184
300.174
300.165
300.157
300.149
300.141
300.134
300.128
300.632
300.651
300.669
300.68
300.68
300.669
300.649
300.622
300.592
300.559
300.525
300.489
300.451
300.409
300.366
300.325
300.291
300.263
300.242
300.225
300.211
300.199
300.188
300.178
300.169
300.16
300.151
300.143
300.136
300.13
300.673
300.691
300.709
300.723
300.727
300.72
300.704
300.678
300.647
300.611
300.572
300.531
300.487
300.438
300.388
300.342
300.304
300.274
300.251
300.232
300.217
300.205
300.193
300.183
300.173
300.164
300.155
300.147
300.139
300.132
300.716
300.731
300.747
300.761
300.768
300.765
300.752
300.73
300.699
300.662
300.621
300.575
300.526
300.47
300.413
300.362
300.32
300.288
300.263
300.242
300.226
300.212
300.2
300.189
300.179
300.169
300.159
300.15
300.142
300.135
300.76
300.772
300.784
300.796
300.803
300.802
300.793
300.774
300.746
300.71
300.667
300.618
300.565
300.503
300.441
300.385
300.34
300.305
300.277
300.255
300.237
300.222
300.209
300.197
300.185
300.175
300.165
300.155
300.146
300.139
300.806
300.813
300.821
300.828
300.833
300.832
300.825
300.809
300.784
300.75
300.708
300.659
300.602
300.538
300.471
300.411
300.364
300.326
300.296
300.271
300.251
300.234
300.22
300.206
300.194
300.182
300.171
300.161
300.151
300.143
300.851
300.854
300.857
300.859
300.86
300.858
300.85
300.836
300.814
300.783
300.743
300.694
300.637
300.572
300.503
300.441
300.39
300.35
300.318
300.291
300.269
300.25
300.233
300.219
300.205
300.192
300.179
300.167
300.157
300.148
300.895
300.894
300.892
300.889
300.886
300.88
300.871
300.857
300.836
300.808
300.77
300.724
300.668
300.603
300.535
300.472
300.421
300.379
300.344
300.315
300.29
300.269
300.251
300.234
300.218
300.203
300.189
300.176
300.164
300.154
300.935
300.93
300.924
300.917
300.909
300.9
300.888
300.873
300.853
300.827
300.792
300.748
300.694
300.632
300.567
300.505
300.454
300.41
300.374
300.343
300.316
300.293
300.272
300.253
300.235
300.217
300.201
300.186
300.172
300.16
300.97
300.962
300.953
300.942
300.93
300.918
300.903
300.887
300.867
300.841
300.808
300.767
300.717
300.659
300.598
300.539
300.489
300.445
300.408
300.375
300.347
300.322
300.298
300.276
300.255
300.234
300.215
300.198
300.182
300.169
300.998
300.988
300.977
300.963
300.949
300.933
300.916
300.897
300.876
300.851
300.82
300.782
300.736
300.683
300.627
300.573
300.525
300.483
300.446
300.413
300.383
300.355
300.329
300.303
300.279
300.255
300.233
300.212
300.194
300.179
301.017
301.007
300.994
300.979
300.962
300.944
300.925
300.904
300.882
300.857
300.827
300.792
300.751
300.703
300.653
300.604
300.56
300.521
300.486
300.453
300.422
300.393
300.364
300.335
300.307
300.28
300.254
300.23
300.209
300.191
301.025
301.015
301.002
300.986
300.969
300.949
300.929
300.907
300.884
300.858
300.829
300.796
300.757
300.715
300.672
300.629
300.59
300.555
300.523
300.493
300.463
300.433
300.402
300.37
300.339
300.307
300.278
300.25
300.226
300.205
301.02
301.01
300.998
300.983
300.964
300.944
300.922
300.899
300.875
300.848
300.819
300.787
300.753
300.715
300.677
300.639
300.605
300.576
300.549
300.524
300.498
300.47
300.439
300.406
300.372
300.337
300.304
300.273
300.246
300.222
300.994
300.985
300.973
300.958
300.941
300.921
300.899
300.875
300.85
300.823
300.794
300.762
300.73
300.696
300.662
300.626
300.596
300.571
300.55
300.531
300.512
300.49
300.463
300.434
300.4
300.364
300.329
300.296
300.266
300.24
300.937
300.927
300.916
300.902
300.887
300.87
300.849
300.826
300.801
300.773
300.744
300.714
300.683
300.65
300.618
300.583
300.556
300.534
300.518
300.504
300.491
300.476
300.457
300.433
300.407
300.376
300.343
300.311
300.281
300.255
300.83
300.821
300.811
300.801
300.79
300.777
300.76
300.74
300.716
300.69
300.663
300.634
300.606
300.575
300.544
300.51
300.485
300.465
300.452
300.441
300.432
300.421
300.409
300.393
300.373
300.351
300.327
300.302
300.276
300.252
300.651
300.648
300.646
300.644
300.641
300.635
300.625
300.61
300.591
300.57
300.547
300.524
300.499
300.472
300.443
300.41
300.387
300.368
300.356
300.346
300.338
300.33
300.321
300.31
300.296
300.281
300.265
300.247
300.23
300.214
300.408
300.414
300.422
300.431
300.439
300.443
300.443
300.438
300.429
300.417
300.402
300.386
300.367
300.346
300.321
300.292
300.272
300.255
300.243
300.233
300.226
300.218
300.211
300.202
300.192
300.181
300.17
300.158
300.147
300.136
300.423
300.411
300.403
300.395
300.388
300.382
300.376
300.369
300.363
300.357
300.35
300.344
300.337
300.33
300.322
300.312
300.299
300.28
300.253
300.221
300.194
300.173
300.158
300.147
300.139
300.133
300.128
300.123
300.119
300.113
300.415
300.401
300.392
300.384
300.377
300.371
300.364
300.358
300.352
300.346
300.34
300.333
300.326
300.318
300.31
300.299
300.286
300.268
300.243
300.215
300.191
300.172
300.157
300.147
300.139
300.132
300.127
300.122
300.118
300.113
300.412
300.4
300.39
300.381
300.373
300.366
300.359
300.353
300.346
300.339
300.333
300.326
300.318
300.31
300.3
300.289
300.275
300.257
300.234
300.21
300.188
300.171
300.157
300.147
300.139
300.132
300.126
300.122
300.117
300.112
300.414
300.403
300.392
300.383
300.374
300.366
300.359
300.351
300.344
300.336
300.329
300.321
300.313
300.304
300.293
300.281
300.266
300.248
300.227
300.206
300.186
300.17
300.157
300.147
300.139
300.132
300.126