/*--------------------------------*- C++ -*----------------------------------*\
  =========                 |
  \\      /  F ield         | OpenFOAM: The Open Source CFD Toolbox
   \\    /   O peration     | Website:  https://openfoam.org
    \\  /    A nd           | Version:  12
     \\/     M anipulation  |
\*---------------------------------------------------------------------------*/
FoamFile
{
    format      ascii;
    class       volScalarField;
    location    "850/air";
    object      alphat;
}
// * * * * * * * * * * * * * * * * * * * * * * * * * * * * * * * * * * * * * //

dimensions      [1 -1 -1 0 0 0 0];

internalField   nonuniform List<scalar> 
243000
(
0.000143601
0.000155414
0.000156827
0.000156025
0.000153381
0.000149364
0.000144358
0.00013877
0.000132917
0.000127153
0.000121752
0.000117027
0.000113266
0.000110798
0.000109755
0.000109974
0.000110794
0.000111732
0.000112541
0.000113169
0.000113621
0.000113917
0.00011411
0.000114377
0.000115068
0.000115225
0.000113664
0.000108226
9.62963e-05
9.91202e-05
0.000557811
0.000587908
0.000590136
0.000581997
0.00056785
0.000550358
0.000531174
0.000511355
0.000491709
0.000473101
0.000456097
0.000441607
0.00043007
0.000422038
0.000417113
0.00041377
0.000409704
0.000404869
0.000399648
0.000394837
0.000390739
0.000387449
0.000384928
0.000383576
0.00038443
0.00038665
0.000386679
0.000379783
0.000357937
0.000342224
0.00066899
0.000766117
0.000814849
0.000840995
0.000854696
0.000860528
0.000860812
0.000857111
0.000850349
0.000841688
0.000831839
0.000822436
0.000814158
0.000807906
0.000802687
0.000795401
0.000781959
0.000763114
0.000740631
0.000716708
0.00069246
0.000668467
0.000644927
0.000622494
0.000602466
0.000584119
0.000563716
0.000536853
0.000497147
0.000454191
0.000638338
0.000746631
0.000824557
0.000869786
0.000893516
0.000906835
0.000912926
0.000913917
0.000911114
0.000905773
0.000898667
0.000891464
0.000884813
0.000879564
0.000874571
0.000866475
0.00085111
0.000829485
0.000803793
0.000776499
0.000748944
0.00072186
0.000695489
0.000670284
0.000647193
0.000625661
0.000603085
0.000575995
0.000539418
0.000496613
0.000599457
0.000703534
0.000797275
0.00086428
0.000906716
0.000931457
0.000945697
0.000952982
0.000955155
0.000953849
0.000950058
0.000945524
0.000940913
0.000937058
0.000932678
0.000924302
0.000907858
0.000884495
0.000856676
0.000827026
0.000797073
0.000767685
0.00073916
0.000711818
0.000686336
0.000662212
0.000637345
0.00060944
0.00057437
0.000532579
0.000560949
0.000653311
0.000758505
0.000837516
0.000898461
0.000939593
0.000964464
0.000979409
0.000987444
0.000990702
0.000990528
0.000988913
0.000986558
0.000984293
0.000980728
0.000972372
0.00095536
0.000930931
0.000901716
0.000870443
0.000838782
0.000807695
0.000777552
0.000748581
0.000721269
0.000695145
0.000668196
0.000639326
0.000604945
0.000563982
0.000556841
0.000599193
0.000712773
0.000805389
0.000876385
0.0009331
0.000972365
0.000996203
0.00101084
0.0010191
0.00102279
0.00102422
0.00102422
0.00102367
0.00102104
0.00101289
0.000995655
0.000970621
0.000940549
0.000908199
0.000875346
0.000843035
0.000811693
0.000781497
0.000752806
0.00072515
0.000696516
0.000666662
0.000632563
0.00059233
0.000578367
0.000583701
0.000662446
0.000768312
0.000850851
0.00091704
0.000969616
0.00100526
0.00102718
0.00104083
0.00104855
0.00105314
0.00105557
0.0010568
0.00105516
0.00104737
0.00103015
0.00100487
0.000974332
0.000941328
0.000907682
0.000874516
0.000842298
0.000811211
0.000781488
0.000752677
0.000722918
0.000692068
0.000658016
0.000618464
0.000608061
0.000597388
0.000620553
0.000725139
0.000822592
0.000896818
0.0009599
0.00100725
0.00103763
0.0010571
0.00106904
0.00107684
0.00108174
0.0010848
0.0010842
0.00107688
0.00105987
0.00103462
0.00100394
0.00097061
0.000936491
0.000902755
0.000869927
0.000838206
0.000807737
0.000778067
0.000747497
0.000715834
0.000681766
0.000642846
0.000639819
0.000624849
0.000615426
0.000681226
0.000790307
0.000876018
0.000945004
0.00100338
0.00104348
0.00106881
0.00108514
0.00109621
0.00110358
0.00110851
0.00110896
0.00110221
0.00108559
0.00106062
0.00103005
0.000996648
0.000962309
0.000928242
0.000895012
0.000862859
0.000831876
0.000801592
0.000770451
0.000738172
0.000704103
0.000665761
0.000671697
0.000655721
0.000636062
0.000649329
0.00075447
0.000853358
0.000929551
0.000995223
0.00104454
0.00107661
0.0010975
0.0011119
0.00112176
0.00112855
0.00113007
0.00112396
0.00110788
0.00108337
0.00105315
0.0010199
0.000985559
0.000951346
0.000917885
0.000885457
0.000854143
0.00082345
0.000791941
0.000759236
0.000725226
0.000687434
0.000702973
0.000687211
0.00066374
0.000647565
0.00071907
0.000828187
0.000913573
0.000983734
0.00104186
0.00108126
0.00110663
0.00112446
0.00113678
0.0011454
0.00114802
0.00114261
0.00112717
0.00110331
0.00107362
0.00104072
0.00100655
0.000972352
0.000938802
0.000906247
0.000874763
0.000843836
0.000812127
0.000779163
0.000745292
0.000708036
0.000733566
0.000718131
0.00069381
0.000667362
0.000691731
0.000800905
0.000896547
0.000970988
0.00103636
0.0010828
0.00111303
0.00113426
0.00114907
0.00115948
0.00116319
0.00115854
0.00114384
0.00112074
0.00109176
0.00105938
0.00102553
0.00099149
0.000957991
0.000925447
0.000893943
0.000862927
0.00083116
0.000798076
0.000764374
0.000727693
0.000763582
0.00074827
0.000724144
0.000692884
0.000680997
0.000773233
0.000878246
0.000958601
0.00102865
0.00108166
0.0011172
0.00114171
0.00115894
0.00117108
0.0011759
0.00117206
0.00115818
0.00113595
0.00110779
0.0010761
0.0010427
0.00100896
0.000975646
0.000943256
0.000911867
0.000880891
0.000849186
0.000816103
0.000782634
0.000746535
0.000793129
0.000777694
0.000753846
0.000720629
0.000690163
0.000748797
0.000858812
0.00094611
0.00101916
0.00107853
0.0011192
0.00114709
0.0011667
0.00118046
0.0011864
0.00118344
0.00117045
0.00114916
0.00112192
0.00109102
0.00105826
0.00102493
0.000991948
0.000959855
0.000928707
0.000897896
0.000866354
0.000833374
0.000800169
0.000764691
0.000822292
0.000806514
0.00078276
0.000749066
0.000711992
0.000732224
0.000838939
0.000933255
0.00100842
0.00107376
0.0011191
0.00115071
0.00117256
0.00118787
0.0011949
0.00119287
0.00118085
0.00116058
0.00113433
0.00110433
0.00107231
0.00103957
0.00100705
0.000975393
0.000944604
0.000914079
0.000882797
0.000849978
0.000817104
0.000782266
0.000851139
0.000834834
0.00081096
0.00077715
0.000736063
0.000725741
0.000819686
0.00092001
0.00099819
0.0010677
0.0011175
0.0011526
0.00117669
0.00119348
0.0012016
0.00120054
0.00118955
0.00117038
0.0011452
0.00111619
0.00108501
0.00105297
0.00102109
0.000990004
0.000959695
0.000929573
0.00089865
0.000866062
0.000833584
0.000799378
0.000879736
0.000862745
0.00083854
0.000804609
0.000761217
0.00072932
0.000802512
0.000906531
0.000988211
0.00106062
0.00111455
0.00115269
0.00117928
0.00119746
0.00120665
0.00120661
0.00119672
0.00117872
0.00115468
0.00112675
0.00109651
0.0010653
0.00103418
0.0010038
0.000974109
0.000944524
0.00091411
0.000881791
0.000849744
0.000816167
0.000908155
0.000890323
0.000865592
0.000831403
0.000786689
0.000744724
0.000789595
0.000893219
0.000978474
0.00105271
0.00111039
0.00115145
0.0011802
0.00119989
0.00121017
0.0012112
0.00120247
0.00118572
0.00116295
0.00113618
0.00110698
0.00107671
0.00104646
0.0010169
0.00098797
0.000959086
0.000929348
0.000897358
0.000865754
0.000832792
0.00093641
0.000917616
0.000892189
0.000857615
0.000812028
0.000763922
0.000782073
0.000880568
0.000968979
0.00104412
0.00110509
0.0011489
0.00117959
0.00120086
0.00121226
0.00121442
0.00120694
0.00119155
0.00117014
0.00114464
0.00111658
0.00108735
0.00105809
0.00102946
0.00100142
0.000973428
0.000944558
0.000913168
0.000881867
0.00084944
0.000964585
0.000944684
0.000918415
0.000883266
0.000836914
0.000784911
0.000780179
0.000869097
0.000959766
0.00103491
0.00109865
0.00114503
0.00117765
0.00120035
0.00121296
0.00121634
0.00121023
0.00119632
0.00117637
0.00115226
0.00112547
0.00109738
0.00106922
0.00104164
0.00101463
0.000987713
0.000959924
0.000929525
0.000898404
0.000866368
0.000992803
0.000971627
0.000944398
0.000908416
0.000861208
0.00080638
0.000782863
0.000859273
0.000950875
0.0010252
0.00109107
0.00113985
0.00117428
0.00119842
0.00121224
0.00121697
0.00121236
0.00120008
0.00118175
0.00115916
0.00113378
0.00110699
0.00108004
0.00105361
0.00102775
0.00100208
0.000975612
0.000946497
0.000915503
0.000883754
0.00102121
0.000998557
0.000970217
0.000933287
0.000885185
0.000827189
0.000790238
0.000851567
0.000942401
0.00101647
0.00108237
0.00113299
0.00116913
0.00119473
0.00120986
0.00121609
0.00121318
0.00120274
0.00118623
0.00116538
0.0011416
0.00111627
0.00109068
0.00106554
0.00104097
0.00101668
0.000991727
0.000964158
0.000933261
0.000901696
0.00104997
0.00102573
0.000996209
0.000958511
0.00091018
0.000847901
0.000800628
0.000846303
0.000934969
0.00100857
0.00107236
0.00112394
0.00116154
0.00118858
0.00120513
0.00121303
0.00121204
0.00120371
0.00118943
0.00117058
0.00114866
0.00112504
0.00110104
0.00107738
0.00105426
0.00103147
0.00100816
0.000982325
0.000951611
0.000920169
0.00107916
0.0010535
0.00102385
0.000986103
0.00093408
0.000867787
0.000812488
0.000844195
0.000929501
0.00100208
0.00106223
0.00111228
0.00115057
0.0011787
0.00119662
0.0012063
0.00120747
0.00120162
0.00118977
0.00117352
0.00115391
0.00113238
0.00111028
0.00108836
0.00106689
0.00104576
0.00102415
0.00100008
0.00097061
0.000939127
0.00110661
0.00108255
0.00105244
0.00101223
0.00095743
0.000887771
0.000826337
0.000845847
0.000927225
0.000998474
0.00105596
0.00110289
0.00113908
0.00116628
0.00118479
0.00119586
0.00119953
0.00119672
0.00118822
0.00117515
0.00115856
0.00113948
0.00111908
0.00109822
0.00107755
0.00105786
0.00103788
0.00101556
0.000988456
0.000958487
0.00113176
0.00110979
0.00108056
0.00104011
0.000984192
0.000912792
0.000847929
0.000859148
0.000935249
0.00100433
0.0010593
0.00110387
0.00113882
0.00116578
0.00118511
0.00119752
0.00120326
0.00120319
0.00119769
0.00118758
0.00117375
0.00115708
0.00113856
0.001119
0.001099
0.00107911
0.00105894
0.0010372
0.00101216
0.00098284
0.00117132
0.00114977
0.00112108
0.00108184
0.00102835
0.000961508
0.000901057
0.000907544
0.000977709
0.00104265
0.00109454
0.00113663
0.00116981
0.00119599
0.00121546
0.00122825
0.001235
0.00123661
0.00123308
0.00122502
0.00121319
0.00119838
0.00118144
0.001163
0.00114354
0.00112337
0.00110244
0.00107999
0.00105441
0.00102376
0.00125264
0.00123554
0.00121392
0.00118567
0.00114865
0.00110465
0.00106823
0.0010783
0.0011308
0.00118274
0.00122538
0.0012602
0.00128706
0.00130909
0.00132529
0.00133527
0.00134008
0.00134067
0.00133668
0.0013287
0.00131745
0.00130356
0.00128768
0.00127029
0.00125163
0.00123102
0.00120891
0.00118507
0.00115836
0.00112729
0.00153747
0.00153644
0.0015347
0.00153068
0.00152333
0.00151448
0.00151082
0.00151999
0.00153195
0.00154748
0.00156192
0.00157421
0.00158209
0.00159187
0.00159808
0.00160073
0.00160114
0.00160039
0.00159756
0.00159356
0.00158871
0.00158341
0.00157797
0.00157283
0.00156753
0.00155592
0.00154236
0.0015281
0.00151258
0.00149705
0.000186259
0.000196436
0.000198904
0.000198344
0.000195567
0.000191179
0.000185641
0.000179419
0.00017289
0.000166445
0.000160347
0.000154879
0.00015019
0.00014645
0.000143566
0.000141073
0.00013816
0.000134609
0.000130397
0.000125638
0.000120267
0.000114177
0.000107367
0.000100841
9.59691e-05
9.33316e-05
9.10846e-05
9.02219e-05
9.91476e-05
0.000111238
0.00091773
0.000984553
0.000985758
0.000957446
0.000916227
0.000871333
0.000827575
0.000786807
0.000749404
0.000715358
0.000683519
0.000653757
0.000623732
0.000592097
0.000554968
0.000508987
0.000454825
0.000406252
0.000366166
0.000336893
0.00031504
0.000297776
0.00028168
0.000270973
0.000271795
0.000284621
0.000302372
0.000315955
0.000367256
0.000467793
0.00147015
0.00156416
0.00165087
0.00166938
0.00165104
0.00161312
0.0015661
0.00151516
0.00146236
0.00140924
0.00135523
0.00130074
0.00124272
0.00117913
0.00110419
0.0010106
0.000900527
0.00079887
0.000714075
0.000650019
0.000601869
0.000565149
0.000533419
0.000508692
0.000502875
0.000516836
0.000539106
0.000537909
0.000553673
0.00066818
0.00155226
0.0018673
0.0020843
0.00217395
0.00221037
0.00221353
0.00219334
0.00215691
0.00210748
0.00204899
0.00198329
0.00191099
0.0018301
0.00173851
0.00163058
0.00149624
0.00133901
0.00119161
0.00106667
0.000969528
0.000895206
0.00083744
0.000787497
0.000747009
0.000729815
0.000736967
0.000752884
0.000735366
0.0007046
0.000747879
0.00147672
0.00191433
0.00224132
0.00248292
0.00260416
0.00267316
0.0027012
0.00269656
0.00266338
0.00260916
0.0025384
0.00245506
0.00235678
0.00224256
0.00210731
0.00193921
0.0017439
0.0015587
0.0013999
0.00127427
0.0011766
0.00109995
0.00103404
0.000979049
0.000948651
0.000945423
0.000952955
0.000918763
0.000850573
0.000827624
0.00134246
0.00182787
0.00225502
0.00259994
0.00284972
0.00301188
0.0031039
0.00314359
0.00313705
0.00309378
0.00302344
0.00293379
0.00282323
0.00269136
0.00253385
0.00233806
0.00211326
0.00189699
0.00170987
0.00155988
0.00144209
0.00134909
0.00126975
0.00120246
0.00115935
0.00114408
0.00114357
0.00109355
0.000995462
0.000921955
0.00118819
0.00163602
0.00214444
0.00259874
0.00295761
0.00323411
0.00341596
0.00350979
0.00353724
0.00351172
0.0034446
0.00335282
0.00323431
0.00308951
0.00291438
0.0026963
0.00244929
0.00220791
0.00199744
0.00182664
0.00169158
0.0015845
0.00149391
0.00141642
0.00136197
0.00133441
0.00132606
0.00126211
0.00113943
0.00102579
0.00103564
0.00142018
0.00195276
0.00250146
0.00297132
0.00334834
0.00364349
0.00380466
0.00387244
0.00387007
0.0038097
0.00371813
0.00359566
0.00344219
0.00325363
0.00301826
0.00275459
0.00249394
0.00226428
0.00207582
0.00192584
0.00180651
0.00170632
0.00162054
0.00155643
0.00151736
0.00149963
0.00142538
0.00128249
0.0011365
0.000930704
0.00122704
0.0017289
0.00233888
0.00290628
0.00338754
0.00377227
0.00403854
0.0041496
0.00417384
0.00412536
0.00403626
0.00391249
0.00375448
0.00355588
0.0033079
0.00303164
0.00275766
0.00251225
0.00230889
0.00214574
0.00201567
0.00190717
0.00181476
0.00174282
0.00169365
0.00166635
0.00158436
0.00142521
0.00125079
0.000885957
0.0010845
0.00151535
0.00213649
0.00278106
0.00335658
0.00384515
0.0041917
0.00437359
0.00442925
0.00439971
0.00431341
0.00418982
0.00403072
0.00382523
0.00356883
0.00328359
0.00300059
0.00274294
0.00252715
0.00235244
0.00221281
0.00209706
0.0019994
0.00192139
0.00186385
0.00182781
0.00174004
0.00156809
0.00136759
0.00093666
0.00101762
0.0013388
0.0019192
0.00261309
0.00327443
0.00385825
0.00429289
0.00455601
0.00464043
0.00463242
0.00455338
0.00443271
0.00427459
0.0040655
0.00380422
0.00351317
0.00322381
0.00295827
0.0027319
0.00254733
0.00239881
0.00227683
0.00217506
0.00209256
0.00202845
0.00198509
0.0018932
0.0017114
0.00148825
0.00104434
0.00104439
0.00123452
0.00171712
0.00242246
0.00315412
0.0038236
0.00435463
0.0046762
0.00481253
0.004828
0.00476347
0.00464556
0.00448964
0.00427994
0.00401681
0.00372273
0.00342936
0.00315903
0.00292441
0.00273136
0.0025751
0.00244733
0.00234253
0.00225691
0.00218796
0.00213903
0.00204445
0.00185526
0.00161361
0.00118755
0.00114309
0.00119149
0.00156575
0.00223622
0.00301202
0.00375307
0.00437376
0.00475984
0.00495513
0.00498924
0.00494383
0.00483089
0.0046793
0.00447138
0.00420896
0.00391428
0.00361899
0.00334568
0.00310603
0.00290556
0.00274258
0.00260986
0.00250267
0.00241516
0.00234292
0.00229024
0.00219434
0.00199991
0.00174363
0.00136256
0.00128571
0.00126033
0.00148302
0.00206985
0.00286281
0.00366091
0.00435167
0.0048158
0.00505496
0.00512101
0.00509543
0.00499142
0.00484607
0.00464208
0.00438255
0.00408945
0.00379424
0.00351945
0.003277
0.00307073
0.00290207
0.00276539
0.00265638
0.00256799
0.00249385
0.00243924
0.00234343
0.00214573
0.00187805
0.00156493
0.00146045
0.00138364
0.00144143
0.00193572
0.00271742
0.00355602
0.00430771
0.00484856
0.00512505
0.00523231
0.00522073
0.00513172
0.00499198
0.0047937
0.00453893
0.00424942
0.00395611
0.00368128
0.00343709
0.00322777
0.00305424
0.00291451
0.00280442
0.00271594
0.00264117
0.00258642
0.00249225
0.00229315
0.00201684
0.00179151
0.00166239
0.00154279
0.00150941
0.00185364
0.0025857
0.00344672
0.00424884
0.0048603
0.00517739
0.00531793
0.00532277
0.00525215
0.00511802
0.00492696
0.00467872
0.00439471
0.00410506
0.0038316
0.00358704
0.00337631
0.00319926
0.0030574
0.00294711
0.00285922
0.00278506
0.00273183
0.0026411
0.00244247
0.00215997
0.00203885
0.0018869
0.00172994
0.00162461
0.00180803
0.00247376
0.00334009
0.00418125
0.00484931
0.00521255
0.00537923
0.00540466
0.00535247
0.00522452
0.00504159
0.00480154
0.00452493
0.00424071
0.00397002
0.00372656
0.00351545
0.00333697
0.00319378
0.00308416
0.00299745
0.00292519
0.00287507
0.00278988
0.00259372
0.00230712
0.00230213
0.00212852
0.00193833
0.00177717
0.00181037
0.00238718
0.00324208
0.00411004
0.00481963
0.00523138
0.00541873
0.00546842
0.00542897
0.00531038
0.00513592
0.00490557
0.0046383
0.00436144
0.00409563
0.00385453
0.00364417
0.00346568
0.00332253
0.00321427
0.00312935
0.00306041
0.0030149
0.00293775
0.00274647
0.00245782
0.00257412
0.00238029
0.00216028
0.00194927
0.00188933
0.00233725
0.00315764
0.00403943
0.00477995
0.00523464
0.00544101
0.00551607
0.00548098
0.00537194
0.00520603
0.00498687
0.004731
0.0044636
0.00420511
0.00396804
0.0037599
0.00358264
0.00344129
0.0033345
0.00325221
0.00318832
0.00314871
0.00308257
0.00289924
0.00261094
0.00284436
0.00263285
0.0023868
0.00213385
0.00199636
0.00230956
0.0030887
0.00397229
0.00473361
0.00522146
0.00544483
0.00552419
0.00550142
0.00540219
0.00524456
0.00503825
0.00479599
0.00454121
0.00429186
0.00406135
0.00385745
0.00368336
0.00354454
0.00344
0.00336136
0.00330482
0.00327181
0.00321893
0.00304841
0.00276378
0.0030983
0.00287388
0.00260774
0.00232229
0.00212674
0.00229344
0.00303549
0.00390955
0.00468141
0.00519156
0.00539897
0.00549232
0.00547911
0.00538942
0.00523892
0.00504773
0.00482208
0.00458229
0.0043455
0.00412465
0.00392743
0.00375825
0.00362397
0.00352308
0.00344932
0.00340163
0.00337619
0.00333649
0.00318624
0.00291074
0.00331733
0.00308807
0.00281092
0.00250385
0.00224903
0.0023289
0.00300006
0.00384931
0.00460157
0.0050738
0.00530239
0.00540248
0.00539506
0.0053142
0.00517071
0.00499721
0.00479103
0.00456951
0.00434835
0.00413999
0.00395347
0.00379411
0.00366673
0.00357136
0.00350488
0.00346642
0.00344979
0.00342368
0.00330065
0.00304199
0.00348047
0.00325818
0.00298203
0.0026644
0.00235653
0.00236378
0.00295242
0.00375347
0.00441804
0.00489053
0.00513505
0.00522637
0.00522235
0.00514913
0.00501506
0.00486202
0.00467698
0.00447654
0.00427433
0.00408441
0.00391451
0.00376901
0.00365255
0.00356641
0.00350948
0.00348104
0.00347524
0.00346435
0.00337457
0.00314283
0.00356748
0.00336716
0.00310538
0.00278495
0.00243896
0.00237557
0.00287286
0.00356391
0.00418192
0.00462808
0.00485155
0.00493278
0.00492948
0.00486479
0.00474604
0.00461593
0.00445368
0.0042783
0.00410027
0.00393256
0.00378292
0.00365529
0.00355417
0.00348191
0.00343887
0.00342431
0.00343289
0.00344037
0.00338773
0.00319449
0.00356626
0.00340193
0.00316205
0.00284368
0.00247907
0.0023581
0.00278254
0.0033547
0.00387033
0.00423038
0.00442823
0.00450301
0.00450568
0.00445901
0.00436572
0.00426114
0.00412928
0.00398179
0.00383043
0.00368802
0.00356112
0.00345403
0.0033712
0.00331577
0.00328933
0.00329108
0.00331521
0.00334288
0.00332447
0.00317861
0.00349309
0.00336231
0.00313946
0.00282939
0.00247094
0.00229844
0.00257294
0.00303772
0.00344443
0.00373303
0.00390454
0.00399042
0.00401892
0.00400591
0.00395166
0.00387892
0.00378683
0.00367345
0.00355343
0.00343726
0.00333121
0.00324116
0.00317267
0.00312962
0.00311387
0.00312323
0.00315518
0.00319469
0.00319619
0.00309239
0.00337295
0.00326523
0.00307314
0.00278868
0.00245581
0.00223229
0.00234796
0.00270402
0.00303726
0.00328683
0.00345659
0.00356429
0.00362322
0.00364647
0.00363463
0.00359683
0.00354418
0.0034685
0.00338242
0.00329406
0.00320892
0.00313299
0.00307246
0.00303109
0.00301086
0.003012
0.00303205
0.00305895
0.00305572
0.00297044
0.00328546
0.00320387
0.00305156
0.00281928
0.0025463
0.00233468
0.002356
0.00260461
0.00287696
0.00309277
0.00325137
0.00336325
0.00343421
0.00347421
0.00348576
0.00347266
0.00344539
0.00340153
0.00334542
0.00328533
0.00322511
0.0031688
0.00312203
0.00308726
0.00306421
0.00305225
0.00304882
0.00304482
0.00301281
0.00292022
0.0032243
0.00316905
0.00307376
0.00293383
0.00277449
0.00263372
0.00264856
0.00279769
0.00297874
0.00312457
0.00323316
0.00331342
0.00336545
0.00339397
0.00339861
0.00338551
0.0033611
0.00332593
0.0032838
0.00324309
0.003206
0.00317309
0.0031479
0.00313161
0.00312174
0.00311608
0.00310983
0.00309328
0.00305217
0.00297004
0.0032229
0.00320131
0.00316033
0.0030908
0.00300168
0.0029363
0.00293935
0.00300473
0.00308511
0.00314882
0.00319637
0.00323497
0.00325949
0.00327212
0.00326686
0.00324988
0.00322784
0.00320033
0.00317265
0.00315067
0.0031364
0.00313004
0.00313168
0.00314076
0.00315486
0.00316911
0.00318166
0.00318496
0.00317371
0.00312935
0.000203233
0.000219405
0.00022409
0.00022523
0.000223551
0.000219709
0.000214229
0.000207689
0.00020056
0.000193301
0.000186187
0.000179497
0.00017331
0.000167724
0.000162537
0.000157091
0.000150613
0.000143301
0.000135766
0.000128305
0.000120167
0.000110299
9.82445e-05
0.000394942
0.000390791
7.9371e-05
8.69701e-05
9.91185e-05
0.000111959
0.000125337
0.000894245
0.00112063
0.00122115
0.00124763
0.00123335
0.00119327
0.00113958
0.00108062
0.00102086
0.000963272
0.000907153
0.000852699
0.000796115
0.000735878
0.000666366
0.00058744
0.000510924
0.000458073
0.000430115
0.000420364
0.000414095
0.000399656
0.000363705
0.000352605
0.000415973
0.000416216
0.000336145
0.000371779
0.00050642
0.000648153
0.00152656
0.00190539
0.00212199
0.00224125
0.00228398
0.00226465
0.00220587
0.00212584
0.00203417
0.00193686
0.00183472
0.00172882
0.0016142
0.00148793
0.00134323
0.0011794
0.00101874
0.000902645
0.0008338
0.00079985
0.000777986
0.000746452
0.000679417
0.000613787
0.000657338
0.000723582
0.000626156
0.00062768
0.000779645
0.00100694
0.00197472
0.00247185
0.00280245
0.00300433
0.00310926
0.00313631
0.00310327
0.0030325
0.00293492
0.00281899
0.00268778
0.00254232
0.00238003
0.00219552
0.00198485
0.00174801
0.00151732
0.00134557
0.00123512
0.00117264
0.00112934
0.00107844
0.000988644
0.000887867
0.000904202
0.000978191
0.000898416
0.000845627
0.000962345
0.00120514
0.00219669
0.0028283
0.00329119
0.00355448
0.00373306
0.00382458
0.00383693
0.00379358
0.00370611
0.00358545
0.00343833
0.0032625
0.00305858
0.00282751
0.00256219
0.00226517
0.00197891
0.00175976
0.00161313
0.00152376
0.00146044
0.0013935
0.00128895
0.00116622
0.00115175
0.00121307
0.00115117
0.00105102
0.00112109
0.00136167
0.002205
0.00284804
0.00342222
0.00388819
0.00417859
0.00435787
0.00443488
0.004432
0.00436511
0.00424845
0.00408869
0.00389412
0.00365963
0.00338969
0.00307842
0.0027329
0.00240382
0.00214514
0.00196664
0.00185251
0.00177105
0.00169178
0.00157926
0.00144498
0.00140208
0.00144157
0.00138985
0.00125583
0.00126895
0.00149636
0.00210966
0.00277142
0.00342822
0.00399918
0.00445388
0.00475916
0.00491743
0.00496904
0.00492985
0.00482234
0.00465922
0.00444928
0.00419085
0.00389089
0.00354105
0.00315768
0.00279591
0.00250427
0.00229783
0.00216108
0.00206314
0.00197414
0.00185846
0.0017203
0.00165479
0.0016696
0.00161996
0.00146525
0.00141411
0.00161156
0.00195835
0.00263134
0.0033576
0.00403021
0.0045908
0.00502245
0.00529916
0.00541934
0.00541581
0.00532075
0.00515796
0.00493757
0.00466155
0.00433871
0.00395789
0.00354572
0.00315883
0.00284053
0.00260932
0.00245202
0.00233902
0.00224174
0.00212577
0.00198927
0.00190802
0.00189956
0.00184559
0.00167857
0.00156555
0.00171068
0.00179514
0.00244817
0.00322205
0.0039905
0.00465835
0.0051909
0.0055904
0.00579278
0.00583349
0.00575434
0.00559375
0.00536759
0.00507946
0.00473999
0.00433559
0.00390238
0.00349592
0.00315688
0.00290369
0.00272769
0.00260098
0.0024963
0.00238116
0.00225009
0.0021597
0.00213197
0.0020698
0.00189438
0.00172863
0.00180451
0.00164185
0.00224196
0.00303717
0.00388734
0.00466341
0.00529904
0.00578727
0.00609982
0.00618779
0.00613249
0.00597594
0.00574649
0.00545141
0.00510075
0.00467991
0.00423223
0.00381074
0.00345552
0.0031832
0.00299034
0.00285105
0.00273965
0.0026257
0.00250211
0.00240813
0.00236625
0.00229435
0.00211214
0.00190305
0.00190511
0.00151941
0.00202928
0.00282029
0.00373237
0.00461221
0.00535533
0.00593752
0.00632284
0.0064834
0.00646076
0.0063106
0.00608051
0.00578317
0.00542633
0.00499582
0.00453907
0.0041064
0.00373852
0.00345014
0.0032421
0.00309124
0.0029735
0.00286103
0.00274561
0.00265223
0.00260126
0.00251979
0.00233171
0.00209222
0.00201557
0.00144096
0.00184881
0.00258331
0.00353908
0.00451197
0.0053659
0.00604109
0.00650013
0.00673754
0.00674217
0.0066037
0.00637459
0.00607964
0.00572124
0.00528747
0.00482605
0.00438558
0.00400783
0.00370683
0.00348506
0.00332333
0.00319952
0.0030886
0.00298145
0.00289145
0.00283563
0.00274567
0.00255266
0.00229229
0.00215142
0.00143113
0.00174329
0.00237122
0.00331544
0.00437157
0.00533361
0.0061046
0.00664194
0.00693272
0.00697593
0.0068596
0.00663613
0.00634489
0.00598997
0.00555813
0.00509564
0.00465055
0.00426542
0.00395517
0.00372093
0.0035489
0.00341919
0.0033097
0.00321039
0.00312558
0.0030679
0.0029708
0.00277385
0.00249929
0.00230614
0.00155998
0.0017263
0.00222986
0.00311103
0.00419888
0.00526145
0.00613072
0.00674708
0.00708126
0.00717093
0.00707936
0.00686756
0.00658208
0.0062353
0.00580977
0.00534941
0.00490294
0.0045132
0.00419624
0.0039509
0.0037691
0.00363359
0.00352522
0.00343281
0.00335433
0.00329632
0.00319327
0.0029935
0.00270997
0.00247634
0.00178844
0.00185551
0.00217545
0.00294329
0.00403465
0.00516224
0.00612046
0.00681097
0.00719677
0.00733003
0.00726437
0.00707516
0.00679401
0.00645741
0.00604263
0.00558761
0.00514329
0.00475189
0.00443028
0.0041753
0.00398435
0.00384312
0.00373553
0.00364833
0.00357698
0.00351855
0.00341044
0.00320919
0.0029211
0.00265785
0.00207858
0.00206287
0.00220721
0.00283669
0.00388893
0.00505882
0.00608909
0.00684338
0.00728345
0.00745169
0.00741851
0.00725548
0.00698078
0.00665424
0.00625481
0.00580857
0.00537043
0.00498051
0.00465601
0.00439319
0.00419386
0.00404715
0.00393923
0.0038558
0.00379077
0.00373109
0.00361861
0.00341756
0.00312906
0.00284583
0.00240346
0.00233216
0.00236241
0.00279761
0.0037684
0.00495801
0.00604536
0.00685672
0.00734567
0.00754319
0.00754963
0.00740559
0.00713995
0.00682149
0.00644126
0.00600797
0.00558052
0.0051955
0.00486995
0.00460134
0.00439504
0.00424303
0.00413308
0.00405229
0.00399106
0.00392877
0.00381273
0.003614
0.00332931
0.00303352
0.00274194
0.00262461
0.00256248
0.00279971
0.00367839
0.00486554
0.00599305
0.00685193
0.00738248
0.00760843
0.00764399
0.00751766
0.00726554
0.00695335
0.0065925
0.00617792
0.0057661
0.00538976
0.00506541
0.00479362
0.00458195
0.00442424
0.0043118
0.00423212
0.00417077
0.00410427
0.00398596
0.00379237
0.00351598
0.00321617
0.00307424
0.00291495
0.00279801
0.0029012
0.00363287
0.00478511
0.00593418
0.00682836
0.00738995
0.00764643
0.00767872
0.00757663
0.00734423
0.00703842
0.00669648
0.00630648
0.00591523
0.00555162
0.00523073
0.00495869
0.00474343
0.0045814
0.00446592
0.00438434
0.00431932
0.00424757
0.0041294
0.00394481
0.00368182
0.0033879
0.00337742
0.00318441
0.00302046
0.00301724
0.00359984
0.00471465
0.00586814
0.00678325
0.00736428
0.00758966
0.00764788
0.00756504
0.00735552
0.00706204
0.00673603
0.00637747
0.00601108
0.00566247
0.00534741
0.00507943
0.0048639
0.00469911
0.00457914
0.00449268
0.00442264
0.00434613
0.00423243
0.00406184
0.00381813
0.00354083
0.00363163
0.00341409
0.00321568
0.00315483
0.00357259
0.00465309
0.00579098
0.00670369
0.00720302
0.00745862
0.00752802
0.00746169
0.00727413
0.00700301
0.00669162
0.00637006
0.00603048
0.00569797
0.00539461
0.00513438
0.00492126
0.00475407
0.00462993
0.00453902
0.00446542
0.0043877
0.00428405
0.00413328
0.00391495
0.00366458
0.00382103
0.00359031
0.00337242
0.00327942
0.00356322
0.00455875
0.00567023
0.00646485
0.00693044
0.00721985
0.00729489
0.00724205
0.00707637
0.00683638
0.0065446
0.00626251
0.00595019
0.00563784
0.00535111
0.0051008
0.00489236
0.00472674
0.0046017
0.00450942
0.00443557
0.0043631
0.0042757
0.00415062
0.00396267
0.00374741
0.00393663
0.00370505
0.00347709
0.00334574
0.00351414
0.00436449
0.00535272
0.00607795
0.00657725
0.00684549
0.00692938
0.00688587
0.0067483
0.00654658
0.00628802
0.00604305
0.00576253
0.00547654
0.00520925
0.00497393
0.00477629
0.00461684
0.00449399
0.00440307
0.00433338
0.0042725
0.00420618
0.00411088
0.00395476
0.00378043
0.00398043
0.00375945
0.00352728
0.00335731
0.00342455
0.0041435
0.00495683
0.00563342
0.00608876
0.00633615
0.00642828
0.00640344
0.00630484
0.0061514
0.00593906
0.0057303
0.00549389
0.00524011
0.00500019
0.0047855
0.00460209
0.00445132
0.00433312
0.00424533
0.00418159
0.0041333
0.0040882
0.0040224
0.00389654
0.00375948
0.00397159
0.00376937
0.00353594
0.00332744
0.00330311
0.00381665
0.00452772
0.00509534
0.0054921
0.00573498
0.00584091
0.00585593
0.00581001
0.00571363
0.00555814
0.00538863
0.00520161
0.00498553
0.0047784
0.0045892
0.00442345
0.0042836
0.00417086
0.00408552
0.00402516
0.00398475
0.00395409
0.00391027
0.00380903
0.00369269
0.00394481
0.00376617
0.00353549
0.00329402
0.00317346
0.0034292
0.00400189
0.00451386
0.00489251
0.00513921
0.00528104
0.00534793
0.00535827
0.00531777
0.00521953
0.00508978
0.00494493
0.00476625
0.0045918
0.00442959
0.00428435
0.00415896
0.00405523
0.00397452
0.00391647
0.00387851
0.00385261
0.00381822
0.00372995
0.00361061
0.00394379
0.00379315
0.00357949
0.00333037
0.00314202
0.00320209
0.00360534
0.00406145
0.0044302
0.00468954
0.00486371
0.00497128
0.00502301
0.00502148
0.00496386
0.0048634
0.00474076
0.00458621
0.00443632
0.00429796
0.0041754
0.00407039
0.00398533
0.00392104
0.0038759
0.00384649
0.00382496
0.00379287
0.00370813
0.00357288
0.00399726
0.00388208
0.00370648
0.00348741
0.00330164
0.00327257
0.00352284
0.00387999
0.00420594
0.00444726
0.00462096
0.00473717
0.00480058
0.00480982
0.00476127
0.00466374
0.00454161
0.00440958
0.00428185
0.00416624
0.00406824
0.00398921