/*--------------------------------*- C++ -*----------------------------------*\
  =========                 |
  \\      /  F ield         | OpenFOAM: The Open Source CFD Toolbox
   \\    /   O peration     | Website:  https://openfoam.org
    \\  /    A nd           | Version:  12
     \\/     M anipulation  |
\*---------------------------------------------------------------------------*/
FoamFile
{
    format      ascii;
    class       volScalarField;
    location    "850/air";
    object      epsilon;
}
// * * * * * * * * * * * * * * * * * * * * * * * * * * * * * * * * * * * * * //

dimensions      [0 2 -3 0 0 0 0];

internalField   nonuniform List<scalar> 
243000
(
2.25611
3.30455
3.93115
4.46414
4.86364
5.11441
5.21418
5.18174
5.04132
4.82933
4.57997
4.3336
4.12546
3.99138
3.9462
3.97025
3.99204
3.96047
3.85297
3.67436
3.43877
3.16324
2.86696
2.57614
2.31882
2.03848
1.70026
1.26765
0.765487
0.715635
1.62666
2.1963
2.56593
2.83891
3.02611
3.13967
3.18974
3.18496
3.13489
3.05432
2.95451
2.85482
2.76517
2.69757
2.64486
2.57841
2.45927
2.29444
2.10105
1.90094
1.70473
1.51803
1.34366
1.18757
1.05803
0.944076
0.822096
0.673904
0.485802
0.365782
1.46866
2.16748
2.58404
2.83613
2.9748
3.03487
3.03637
2.99514
2.92202
2.8305
2.72916
2.6347
2.55306
2.49175
2.44067
2.37102
2.24931
2.08787
1.90706
1.72732
1.5575
1.40109
1.25835
1.13194
1.02674
0.935968
0.84096
0.725873
0.576066
0.440158
1.26902
2.0309
2.70621
3.15597
3.41109
3.56034
3.62837
3.63567
3.59746
3.52945
3.44205
3.3553
3.27633
3.21402
3.15513
3.0631
2.89823
2.67927
2.43576
2.19477
1.9688
1.76274
1.57668
1.41183
1.27154
1.14902
1.0289
0.895888
0.735257
0.573812
1.05523
1.70764
2.47706
3.12487
3.58699
3.87237
4.04269
4.12837
4.14854
4.12388
4.06777
4.00329
3.93896
3.88498
3.82498
3.71639
3.51563
3.24671
2.94719
2.65013
2.3718
2.11886
1.89152
1.68975
1.51536
1.36125
1.21348
1.06038
0.886756
0.706108
0.849866
1.38045
2.14489
2.87476
3.51573
3.99581
4.3008
4.48931
4.58825
4.62271
4.61072
4.57969
4.53936
4.50105
4.4453
4.32505
4.09512
3.78382
3.43547
3.08845
2.76269
2.46656
2.20077
1.9643
1.75769
1.57354
1.39746
1.22335
1.03516
0.837189
0.812085
1.06581
1.79889
2.56865
3.29022
3.93727
4.42347
4.73374
4.92748
5.03421
5.07651
5.08732
5.07811
5.06149
5.01437
4.88668
4.63374
4.28725
3.89739
3.50681
3.13885
2.80367
2.50262
2.23405
1.9975
1.78525
1.58162
1.38625
1.18271
0.968826
0.897449
0.948911
1.45542
2.24962
3.0214
3.76102
4.40723
4.875
5.17643
5.36577
5.47034
5.52976
5.5573
5.56701
5.5321
5.40101
5.13055
4.75583
4.3314
3.90364
3.49871
3.1287
2.79564
2.49784
2.23375
1.9955
1.76705
1.54989
1.33054
1.10201
1.03861
0.98923
1.18411
1.91301
2.74766
3.52761
4.29608
4.91995
5.34332
5.62437
5.79778
5.91072
5.97931
6.01946
5.99936
5.86859
5.58594
5.18966
4.73729
4.27837
3.8416
3.44082
3.07906
2.75481
2.46568
2.20357
1.95255
1.71431
1.47924
1.23702
1.2093
1.12389
1.10874
1.59437
2.45816
3.30179
4.11764
4.87748
5.44105
5.81665
6.06421
6.23436
6.34719
6.42076
6.41766
6.29041
6.00091
5.58942
5.11543
4.63106
4.16732
3.73976
3.35242
3.00439
2.69267
2.40884
2.13728
1.87924
1.629
1.37376
1.39997
1.29661
1.18839
1.35954
2.15817
3.06841
3.9228
4.77349
5.46781
5.94798
6.27448
6.50497
6.66421
6.77314
6.78892
6.66811
6.37653
5.9556
5.46629
4.96189
4.47592
4.02527
3.61537
3.24602
2.91406
2.6107
2.32059
2.0443
1.77983
1.51223
1.60613
1.49306
1.34271
1.29434
1.87517
2.8221
3.73202
4.6234
5.43452
6.02933
6.43311
6.72674
6.9338
7.07899
7.11523
7.00351
6.71381
6.28924
5.7902
5.27114
4.76729
4.29715
3.86759
3.47949
3.12966
2.8089
2.50216
2.2092
1.93143
1.65234
1.82664
1.70581
1.53135
1.37385
1.65433
2.56767
3.53783
4.44967
5.3574
6.05963
6.54578
6.90331
7.15918
7.34086
7.39868
7.2985
7.01439
6.59078
6.0877
5.55894
5.04139
4.55527
4.10906
3.70487
3.33956
3.00344
2.68189
2.37382
2.08359
1.794
2.06175
1.93213
1.74204
1.52683
1.53826
2.31963
3.33738
4.28564
5.24688
6.04437
6.62042
7.03914
7.34332
7.56112
7.64143
7.55503
7.27994
6.86139
6.35886
5.82548
5.29825
4.79969
4.33997
3.9225
3.54409
3.19458
2.85992
2.53822
2.23657
1.93727
2.31202
2.17159
1.9679
1.71385
1.54761
2.10209
3.13197
4.12459
5.11093
5.99611
6.65694
7.13798
7.48968
7.74194
7.8456
7.77506
7.51212
7.10234
6.60427
6.07053
5.53827
5.03075
4.56077
4.13288
3.74371
3.38285
3.03668
2.70276
2.39037
2.08239
2.57808
2.42445
2.2062
1.92369
1.66561
1.94488
2.92802
3.9638
4.95757
5.9209
6.656
7.20471
7.60111
7.8862
8.01325
7.96051
7.71258
7.31503
6.82501
6.29471
5.76125
5.24893
4.77196
4.33654
3.93895
3.5688
3.21269
2.86746
2.54551
2.22959
2.8605
2.69116
2.45639
2.15006
1.82881
1.8624
2.735
3.80301
4.80573
5.82452
6.62836
7.23904
7.67981
7.99626
8.14656
8.11321
7.88294
7.50084
7.02215
6.49894
5.96791
5.45428
4.97404
4.5341
4.13051
3.75313
3.38879
3.03337
2.70282
2.37943
3.15995
2.97227
2.71854
2.38906
2.01914
1.85463
2.56401
3.64374
4.66268
5.7123
6.57679
7.23988
7.72863
8.07421
8.24753
8.23494
8.02481
7.66123
7.19743
6.68465
6.15938
5.64789
5.16763
4.72609
4.31928
3.93705
3.5667
3.20175
2.8633
2.53286
3.47733
3.26836
2.9929
2.63902
2.22703
1.92857
2.42923
3.4895
4.52649
5.58814
6.50407
7.21573
7.74492
8.12128
8.31792
8.32753
8.13984
7.79767
7.35251
6.85359
6.3373
5.83112
5.35385
4.91355
4.50627
4.12203
3.74817
3.37444
3.02846
2.69117
3.81315
3.5799
3.27982
2.89964
2.44919
2.05876
2.34028
3.34504
4.39649
5.45457
6.41197
7.16716
7.73143
8.13877
8.35913
8.3926
8.22974
7.91251
7.48931
7.00759
6.50349
6.00562
5.53431
5.09798
4.693
4.30994
3.93547
3.5544
3.20054
2.85604
4.16839
3.90752
3.57988
3.17033
2.68263
2.21895
2.29869
3.21507
4.27279
5.3133
6.30119
7.09481
7.6924
8.12701
8.37188
8.43116
8.29629
8.00736
7.60947
7.14854
6.66005
6.17366
5.71111
5.28131
4.88145
4.50287
4.13113
3.74738
3.38325
3.03006
4.5453
4.25246
3.8941
3.45129
2.92528
2.39852
2.29861
3.10348
4.15545
5.16562
6.17237
6.99846
7.62544
8.08634
8.3555
8.44293
8.33949
8.08287
7.71429
7.27808
6.80913
6.33771
5.88666
5.46585
5.0739
4.70292
4.33773
3.95607
3.57959
3.2158
4.94546
4.61623
4.22332
3.74455
3.17959
2.58651
2.33758
3.01345
4.04498
5.02945
6.02608
6.87248
7.52461
8.0107
8.30527
8.42375
8.35582
8.13663
7.8027
7.39625
6.95158
6.49906
6.06299
5.65423
5.27285
4.9122
4.55715
4.18198
3.79176
3.4153
5.37323
5.00254
4.57224
4.05804
3.4549
2.78217
2.40759
2.9479
3.9486
4.90896
5.8592
6.70863
7.37835
7.88674
8.20747
8.35998
8.33233
8.15653
7.86656
7.49647
7.08224
6.65443
6.23816
5.84555
5.4781
5.13047
4.78821
4.42328
4.01967
3.62916
5.82871
5.41717
4.96286
4.41746
3.73311
2.97948
2.49961
2.91473
3.87679
4.81099
5.69014
6.501
7.17077
7.69141
8.03473
8.22171
8.23879
8.11493
7.87454
7.55441
7.18102
6.78663
6.3975
6.027
5.67786
5.34692
5.01972
4.66738
4.26115
3.85683
6.28719
5.88008
5.3914
4.77828
4.0193
3.18714
2.61661
2.92048
3.84425
4.75524
5.58662
6.33538
6.95709
7.45106
7.7997
8.01183
8.0796
8.01855
7.84631
7.58886
7.27108
6.91769
6.55323
6.19435
5.85054
5.53456
5.22369
4.88695
4.50408
4.10092
6.74173
6.34549
5.8411
5.18654
4.36583
3.46216
2.8153
3.04459
3.935
4.83154
5.6337
6.3482
6.95049
7.44107
7.80667
8.04664
8.15744
8.15239
8.03873
7.83581
7.56443
7.24677
6.90477
6.55565
6.21067
5.87912
5.55353
5.21384
4.84033
4.4234
7.48041
7.06284
6.52934
5.84178
4.98592
4.05349
3.37034
3.56593
4.47383
5.38928
6.20266
6.922
7.52856
8.03256
8.422
8.68437
8.82391
8.85554
8.77796
8.60591
8.35847
8.05613
7.71949
7.36414
7.00088
6.63648
6.27048
5.89108
5.47563
5.00154
9.16366
8.78231
8.31223
7.72148
6.99263
6.20341
5.64408
5.9214
6.85415
7.82015
8.67209
9.41305
10.0141
10.5286
10.9175
11.1618
11.2798
11.2929
11.191
10.9906
10.7133
10.3773
10.0028
9.60281
9.18496
8.73691
8.27214
7.7881
7.26642
6.68627
17.0109
16.9698
16.9013
16.7546
16.5012
16.2169
16.1303
16.4579
16.8769
17.3981
17.8825
18.299
18.5697
18.9199
19.1392
19.2342
19.2485
19.2209
19.1177
18.9729
18.7984
18.61
18.4182
18.2381
18.0519
17.6416
17.1825
16.7091
16.2031
15.7025
4.85346
6.62657
7.97964
9.13909
10.0599
10.7122
11.0834
11.1981
11.093
10.8269
10.4505
10.0256
9.5887
9.17797
8.78386
8.32626
7.68483
6.87025
5.94128
4.98034
4.03626
3.14916
2.35917
1.74011
1.32967
1.07731
0.873801
0.737263
0.838873
1.02026
4.81278
4.93854
5.34453
5.70245
5.99053
6.20267
6.32462
6.35262
6.29062
6.15469
5.96425
5.73959
5.4981
5.25381
5.00423
4.69716
4.27268
3.79954
3.28793
2.80075
2.33478
1.90103
1.50706
1.15741
0.900825
0.752077
0.685317
0.668545
0.687112
0.540771
4.74706
4.83042
5.08954
5.24578
5.35471
5.44918
5.51696
5.54201
5.51308
5.43003
5.30025
5.13621
4.94975
4.7534
4.54182
4.27007
3.88976
3.46477
3.01782
2.60041
2.20749
1.84398
1.5106
1.20831
0.972914
0.837222
0.768222
0.723605
0.681788
0.563571
4.11556
4.6654
4.96247
5.07082
5.11248
5.1666
5.22948
5.27731
5.28918
5.25415
5.17092
5.05144
4.90378
4.74107
4.55555
4.3008
3.93646
3.51946
3.08529
2.67753
2.29826
1.95296
1.63829
1.34803
1.111
0.970083
0.893987
0.833352
0.75071
0.605962
3.06169
4.08524
4.6204
4.84315
4.90822
4.9676
5.05277
5.13842
5.19653
5.21021
5.17396
5.09439
4.98176
4.84851
4.68463
4.44094
4.08548
3.66835
3.23317
2.82135
2.4414
2.09911
1.7887
1.50187
1.26026
1.10834
1.02409
0.956336
0.857563
0.693989
2.09763
3.25115
4.01929
4.46758
4.65327
4.76257
4.89198
5.02632
5.13572
5.19879
5.2086
5.16893
5.09037
4.98528
4.84123
4.60828
4.25781
3.83853
3.39858
2.9798
2.59514
2.25077
1.93963
1.65315
1.40757
1.2439
1.1498
1.0779
0.976015
0.800658
1.4118
2.3424
3.33876
3.98112
4.32107
4.52946
4.72054
4.91142
5.07542
5.18838
5.24511
5.24491
5.20006
5.12249
4.99696
4.77368
4.42855
4.00768
3.56351
3.13833
2.7481
2.39978
2.08584
1.79794
1.54922
1.37488
1.26965
1.19301
1.09266
0.915027
1.03542
1.64174
2.63731
3.48151
3.9535
4.26996
4.53319
4.78519
5.00518
5.16859
5.27142
5.31128
5.29938
5.24861
5.14054
4.92678
4.58753
4.16778
3.72143
3.29171
2.89627
2.54338
2.22559
1.93539
1.6841
1.50088
1.38468
1.30157
1.20266
1.03319
0.915966
1.23478
2.01084
2.97909
3.60108
3.99517
4.33292
4.64709
4.92249
5.13657
5.28439
5.36306
5.38384
5.3588
5.26736
5.0635
4.73146
4.3155
3.86953
3.43723
3.03798
2.68034
2.35817
2.06554
1.81245
1.62229
1.4959
1.40536
1.30735
1.14642
0.945131
1.08895
1.57489
2.49829
3.25927
3.74
4.12923
4.49966
4.82833
5.09164
5.27958
5.39842
5.45191
5.45142
5.37589
5.18264
4.85934
4.44957
4.00643
3.57351
3.172
2.8102
2.48366
2.189
1.93503
1.73978
1.60465
1.50671
1.40901
1.25175
1.08238
1.10671
1.35322
2.07502
2.92827
3.50391
3.93134
4.34776
4.72566
5.03525
5.26301
5.41995
5.50308
5.52673
5.4664
5.28458
4.9715
4.56986
4.13177
3.70011
3.2977
2.93305
2.60286
2.30681
2.05276
1.85418
1.71213
1.60754
1.50938
1.3549
1.2603
1.24034
1.30918
1.76101
2.61469
3.28377
3.75605
4.19812
4.61806
4.97001
5.23589
5.42508
5.53839
5.58577
5.54021
5.37068
5.0691
4.67707
4.24574
3.81717
3.41527
3.04892
2.71686
2.42032
2.16705
1.96663
1.81955
1.7094
1.61008
1.45935
1.45256
1.41958
1.39869
1.61119
2.32855
3.07134
3.59904
4.05775
4.50994
4.89912
5.20017
5.41911
5.56109
5.6303
5.59952
5.44309
5.15393
4.77249
4.34918
3.92515
3.5252
3.15868
2.82651
2.53106
2.27949
2.07855
1.92822
1.81383
1.71334
1.56773
1.65714
1.61551
1.56106
1.59196
2.09655
2.86496
3.452
3.92978
4.40457
4.82515
5.15838
5.4059
5.57471
5.66344
5.64744
5.50476
5.22851
4.8583
4.44351
4.02507
3.62842
3.26352
2.93313
2.64066
2.39189
2.19159
2.03979
1.92278
1.82167
1.68229
1.87343
1.82657
1.76344
1.68772
1.9475
2.67348
3.31349
3.81678
4.30389
4.75062
5.11326
5.38793
5.57993
5.68904
5.68804
5.55962
5.29636
4.9373
4.53102
4.11847
3.72657
3.36508
3.03847
2.7508
2.50618
2.30777
2.15633
2.0385
1.93759
1.80549
2.10339
2.05286
1.98197
1.85362
1.90752
2.51033
3.18308
3.7158
4.21024
4.67836
5.06768
5.36859
5.58195
5.71223
5.72703
5.61307
5.36239
5.0138
4.6153
4.20963
3.82252
3.46572
3.14471
2.86351
2.62456
2.42954
2.28042
2.16374
2.06397
1.93983
2.35101
2.29774
2.21954
2.0629
1.95586
2.38662
3.06203
3.62537
4.12634
4.61136
5.02509
5.35189
5.5868
5.74004
5.77199
5.67263
5.43367
5.09407
4.70124
4.30248
3.92049
3.56907
3.255
2.98163
2.75007
2.56018
2.41558
2.30215
2.20453
2.08835
2.6227
2.5672
2.47998
2.29701
2.09334
2.30673
2.95337
3.54513
4.05428
4.55307
4.99013
5.34241
5.60596
5.78281
5.83358
5.74904
5.52062
5.18797
4.80031
4.40575
4.02757
3.68112
3.37424
3.10987
2.88731
2.70444
2.56679
2.45893
2.36458
2.25585
2.92838
2.87063
2.77035
2.55785
2.27836
2.28238
2.86235
3.47592
3.9983
4.50795
4.96851
5.34683
5.65017
5.85526
5.92761
5.8585
5.6392
5.30994
4.92721
4.53268
4.15531
3.81166
3.51061
3.25611
3.04343
2.86939
2.74138
2.64183
2.55205
2.44978
3.2828
3.22245
3.10254
2.85177
2.49715
2.32042
2.79558
3.42007
3.96037
4.48197
4.9664
5.39889
5.74105
5.9808
6.07908
6.02696
5.81465
5.49009
5.10378
4.70435
4.32271
3.97696
3.67977
3.4331
3.22981
3.06675
2.95083
2.86304
2.77903
2.68137
3.70841
3.64393
3.49553
3.19138
2.75113
2.42256
2.7586
3.38172
3.9443
4.48228
5.02998
5.51954
5.9136
6.19887
6.33048
6.29871
6.09548
5.76885
5.37118
4.95739
4.5631
4.20846
3.90853
3.6639
3.46579
3.31495
3.21371
3.1418
3.0644
2.96768
4.24045
4.16808
3.97898
3.60089
3.05157
2.57058
2.75223
3.36797
3.97563
4.5812
5.20102
5.76507
6.23203
6.58103
6.75922
6.75534
6.56063
6.22658
5.80727
5.36465
4.94214
4.56366
4.24563
3.99008
3.79171
3.6516
3.56624
3.51155
3.43905
3.33489
4.93695
4.84929
4.60262
4.1228
3.42726
2.77741
2.79584
3.42172
4.13915
4.84584
5.56802
6.24613
6.82163
7.26611
7.51922
7.558
7.37774
7.02997
6.572
6.07624
5.59549
5.16304
4.80436
4.52064
4.30711
4.16269
4.083
4.03572
3.95704
3.82624
5.90248
5.78487
5.45832
4.84546
3.94861
3.09267
2.97787
3.65597
4.5285
5.4298
6.33502
7.19676
7.9509
8.55528
8.94278
9.06163
8.9174
8.55322
8.03692
7.45543
6.87434
6.33699
5.87683
5.50749
5.22919
5.03776
4.92288
4.84254
4.72073
4.51831
7.34263
7.17245
6.74089
5.96568
4.78095
3.66291
3.42974
4.25421
5.423
6.68385
7.96243
9.17505
10.2474
11.1447
11.8019
12.1003
12.0689
11.7233
11.1179
10.371
9.57444
8.8062
8.11642
7.53226
7.06324
6.70609
6.43416
6.20901
5.94077
5.56364
9.73323
9.48141
8.94514
7.89925
6.36633
4.93114
4.62702
5.79125
7.53198
9.48578
11.4811
13.3859
15.0813
16.5543
17.7372
18.4004
18.5786
18.3152
17.6142
16.5908
15.3814
14.135
12.9454
11.8624
10.9104
10.0871
9.38063
8.75184
8.08654
7.30482
14.1254
13.7387
12.9749
11.7077
9.91332
8.31055
8.09347
9.94101
12.7727
15.9956
19.24
22.2976
24.9966
27.3871
29.3998
30.6621
31.212
31.1483
30.3581
28.9407
27.0778
25.0073
22.8991
20.8385
18.8809
17.0523
15.3603
13.784
12.2026
10.5531
22.7883
22.0774
21.115
19.8976
18.402
17.4201
17.8887
20.7662
25.2953
30.2865
35.1134
39.5386
43.3694
46.6601
49.4058
51.2175
52.164
52.3197
51.4533
49.6289
47.0409
43.9615
40.6545
37.2444
33.7959
30.358
26.9992
23.7645
20.5685
17.4038
35.0016
34.5517
34.4085
34.2883
34.482
35.9721
38.4113
42.4711
48.0596
53.8258
59.0328
63.645
67.4844
70.5168
72.4829
73.314
73.3818
72.4774
70.6133
67.9389
64.6491
60.9372
57.0556
53.1681
49.2997
45.4225
41.5564
37.661
33.6958
29.8235
39.7426
40.2505
41.3257
42.4518
44.0237
46.9902
51.708
56.9349
61.491
65.2613
68.3336
70.961
72.9442
74.038
73.334
71.3108
68.973
65.8806
62.3815
58.7941
55.3486
52.1531
49.274
46.8009
44.7817
43.1375
41.8445
40.7323
39.5596
38.2986
6.30268
9.24117
11.4179
13.3885
15.0275
16.2556
17.0252
17.3581
17.3038
16.9439
16.3441
15.588
14.7121
13.7622
12.7179
11.4636
9.91825
8.25144
6.67124
5.27243
3.99687
2.81334
1.78694
1.18865
1.03731
0.205065
0.769229
0.973695
1.21176
1.46776
4.88846
5.99199
6.88295
7.59729
8.13509
8.51234
8.72851
8.7967
8.73152
8.55144
8.27807
7.93027
7.527
7.07605
6.57161
5.93351
5.19882
4.47672
3.83972
3.26348
2.67506
2.06117
1.45017
0.865927
0.590035
0.474795
0.565103
0.650403
0.710141
0.738933
4.90558
5.91423
6.66825
7.12022
7.36557
7.49632
7.53909
7.50929
7.41201
7.25164
7.03348
6.76526
6.45561
6.11172
5.7183
5.21282
4.61618
4.04455
3.55173
3.10214
2.62349
2.10897
1.57616
1.03465
0.713263
0.584823
0.591903
0.626577
0.672518
0.764367
5.13309
6.08002
6.75298
7.09156
7.22047
7.24089
7.208
7.14166
7.04214
6.90324
6.72044
6.49817
6.23652
5.94814
5.60733
5.15197
4.59856
4.06479
3.60464
3.18113
2.7362
2.25919
1.7532
1.22618
0.871783
0.716613
0.669061
0.670485
0.698055
0.804715
5.02235
6.03915
6.73165
7.0506
7.13701
7.11098
7.04992
6.98092
6.89946
6.79088
6.64186
6.46169
6.24561
5.99379
5.68445
5.25472
4.72244
4.20179
3.74369
3.31951
2.88241
2.42164
1.9312
1.41572
1.03473
0.853806
0.769479
0.739212
0.752067
0.866908
4.38219
5.62791
6.50332
6.89092
6.9875
6.96315
6.91086
6.86459
6.81708
6.74794
6.64463
6.49975
6.31996
6.1019
5.81552
5.40125
4.88113
4.36631
3.90387
3.4726
3.03496
2.58132
2.10199
1.59829
1.19965
0.991471
0.880916
0.821745
0.817877
0.92869
3.45845
4.79838
5.91156
6.51483
6.72315
6.75431
6.74485
6.74245
6.74192
6.72038
6.66038
6.55679
6.41297
6.22499
5.95694
5.55448
5.04537
4.53541
4.06794
3.62822
3.18678
2.73594
2.26516
1.77326
1.36556
1.13054
0.996996
0.914251
0.887998
0.982995
2.58455
3.80761
5.0777
5.92287
6.32683
6.4745
6.53922
6.59853
6.65483
6.6865
6.67353
6.61214
6.50392
6.34402
6.09217
5.70163
5.20574
4.70233
4.23093
3.7827
3.33596
2.88575
2.42162
1.94162
1.53144
1.2728
1.11585
1.01354
0.963119
1.03134
1.91737
2.90329
4.18658
5.23115
5.82083
6.12922
6.29554
6.43035
6.55106
6.63916
6.67607
6.65722
6.58433
6.45128
6.21524
5.83907
5.36001
4.86576
4.39197
3.93537
3.4823
3.03104
2.57246
2.1045
1.69655
1.41898
1.2389
1.11802
1.04564
1.07912
1.46725
2.20188
3.35874
4.51342
5.28093
5.73046
6.02143
6.24162
6.43093
6.57739
6.66438
6.68945
6.65128
6.54452
6.32538
5.96752
5.50917
5.02668
4.55153
4.08668
3.62661
3.17292
2.71875
2.26285
1.86052
1.56931
1.36853
1.22813
1.13535
1.1333
1.22043
1.71705
2.67274
3.8286
4.74103
5.32488
5.7299
6.03833
6.29783
6.50287
6.64008
6.70919
6.70512
6.62473
6.42484
6.09019
5.65621
5.18696
4.71077
4.23762
3.77016
3.31316
2.86229
2.41812
2.02374
1.72401
1.50586
1.34602
1.23431
1.1986
1.11984
1.44079
2.16962
3.22934
4.2321
4.93387
5.42977
5.82836
6.15685
6.41894
6.6065
6.71928
6.7489
6.69522
6.51808
6.21189
5.80489
5.34909
4.87133
4.3896
3.91455
3.45394
3.00591
2.57277
2.18753
1.88376
1.65187
1.47381
1.34317
1.27997
1.11641
1.3347
1.83549
2.75515
3.77538
4.57299
5.1471
5.62138
6.01363
6.33112
6.56783
6.72085
6.78657
6.76125
6.61149
6.33878
5.9599
5.51626
5.03558
4.54468
4.062
3.59793
3.15291
2.73012
2.35459
2.05042
1.80815
1.61357
1.46427
1.37717
1.22706
1.35068
1.68054
2.39611
3.38506
4.25105
4.89368
5.42542
5.87604
6.24608
6.53025
6.72098
6.82453
6.83071
6.71352
6.47844
6.12713
5.69297
5.20713
4.70618
4.2157
3.74857
3.30723
2.89439
2.52896
2.22722
1.97739
1.76791
1.60025
1.49238
1.40551
1.48259
1.66296
2.16851
3.05622
3.96652
4.67313
5.24808
5.75315
6.171
6.49745
6.72531
6.87104
6.91486
6.83519
6.64056
6.31457
5.8859
5.39192
4.87958
4.38068
3.91083
3.4736
3.0711
2.7166
2.41922
2.1639
1.94072
1.75474
1.62809
1.62458
1.67032
1.76074
2.0761
2.80689
3.71412
4.47754
5.09556
5.64611
6.1064
6.47478
6.74795
6.93898
7.028
6.99066
6.83816
6.53375
6.10562
5.59983
5.07388
4.56511
4.09227
3.65933
3.26742
2.92558
2.63374
2.37407
2.13764
1.93241
1.786
1.88843
1.91034
1.93912
2.07991
2.6405
3.50095
4.3062
4.96678
5.55641
6.05792
6.46763
6.80221
7.04565
7.18886
7.19974
7.08975
6.80218
6.36894
5.84688
5.3037
4.78244
4.30499
3.87619
3.49498
3.16734
2.88131
2.61723
2.36688
2.13975
1.96953
2.20564
2.19838
2.18338
2.19702
2.55851
3.33303
4.16165
4.86349
5.48868
6.03275
6.50173
6.9075
7.21542
7.42283
7.49127
7.42291
7.14739
6.70313
6.15929
5.59324
5.05579
4.5707
4.14358
3.77484
3.45996
3.17767
2.907
2.64037
2.38661
2.1861
2.58894
2.54576
2.47943
2.38875
2.55239
3.21512
4.04698
4.78834
5.44824
6.04407
6.61304
7.09605
7.48393
7.76956
7.90618
7.88043
7.61364
7.15277
6.58041
5.98615
5.4263
4.92637
4.49738
4.14168
3.8321
3.54671
3.26356
2.97551
2.68741
2.44611
3.06152
2.97178
2.83917
2.65183
2.63087
3.15049
3.9663
4.74642
5.44745
6.16506
6.83296
7.41655
7.9053
8.29009
8.51014
8.53162
8.27437
7.79523
7.18899
6.55873
5.96553
5.44177
5.0108
4.65027
4.32978
4.02566
3.7179
3.39817
3.06339
2.76463
3.6576
3.50602
3.28642
2.98093
2.79612
3.13742
3.92583
4.75185
5.58372
6.43064
7.22924
7.94595
8.56871
9.08463
9.41403
9.49646
9.25929
8.76652
8.12426
7.4494
6.8133
6.26062
5.79249
5.39219
5.02865
4.67554
4.31929
3.94799
3.54582
3.16405
4.43022
4.19681
3.86276
3.40795
3.04542
3.19968
3.95318
4.9086
5.91716
6.93425
7.91515
8.81821
9.62925
10.3267
10.8134
10.9895
10.8001
10.3153
9.64458
8.92942
8.23266
7.59244
7.02386
6.52068
6.05342
5.59909
5.15001
4.68964
4.18428
3.67895
5.46656
5.12681
4.64464
3.99904
3.43647
3.41482
4.18343
5.31753
6.57096
7.85108
9.10033
10.2809
11.3676
12.3311
13.0646
13.4037
13.3238
12.9028
12.2497
11.4569
10.6158
9.78909
9.00911
8.29117
7.6175
6.97435
6.35372
5.73457
5.06261
4.3682
6.92396
6.45102
5.78393
4.89989
4.08197
3.88543
4.74002
6.16323
7.79856
9.50331
11.1965
12.8033
14.3075
15.6789
16.8204
17.4575
17.606
17.3251
16.6584
15.6997
14.5814
13.4142
12.2616
11.1605
10.115
9.12549
8.19114
7.28743
6.33616
5.34737
9.1165
8.49141
7.60875
6.43481
5.30235
4.94546
5.97938
7.87202
10.1356
12.5321
14.9347
17.2401
19.4107
21.4073
23.1879
24.2641
24.6862
24.5599
23.8571
22.6554
21.1189
19.4228
17.665
15.921
14.2352
12.6383
11.1435
9.73217
8.31429
6.86551
12.6668
11.9006
10.8231
9.34711
7.89092
7.41733
8.77207
11.4277
14.7018
18.174
21.6433
24.9561
28.0504
30.8759
33.4815
35.1052
35.852
35.8961
35.1144
33.5677
31.4524
29.0191
26.4029
23.7135
21.0476
18.484
16.068
13.8138
11.6266
9.46406
18.7602
17.9131
16.7906
15.2168
13.6453
13.2898
15.1754
18.8663
23.5772
28.4941
33.3155
37.832
41.9693
45.6517
49.0222
51.0275
51.9128
51.8958
50.8031
48.736
45.9282
42.6799
39.1509
35.4439
31.6674
27.9137
24.2723
20.833
17.5378
14.3615
28.9145
28.0946
27.3012
26.4189
25.484
25.9445
28.6014
33.2764
39.3731
45.6051
51.5254
56.9183
61.6981
65.7115
68.9897
70.2917
70.12
68.6051
66.2076
63.1221
59.5982
55.8115
51.9571
48.1026
44.2299
40.2889
36.2504
32.1242
27.872
23.6106
40.9366
40.6932
40.8506
41.3764
42.8629
45.5409
49.4427
54.6153
60.8816
67.1854
72.8878
77.8654
81.8609
84.5373
85.2371
83.267
80.3523
76.6429
72.5929
68.4165
64.3927
60.6057
57.1672
54.1132
51.35
48.7099
46.019
43.1052
39.8149
36.3733
43.5287
44.4056
45.7546
47.4102
50.0582
54.4885
60.2724
66.1043
71.5455
76.4171
80.3959
83.4821
85.2478
85.1819
82.4838
77.5553
72.3503
66.8295
61.5239
56.7025
52.6485
49.3956
46.9024
45.1355
44.0466
43.4828
43.2621
43.095
42.739
42.247
8.36686
12.1904
14.7563
17.2181
19.4151
21.1858
22.3722
22.9571
22.9823
22.5406
21.7019
20.5708
19.1824
17.5915
15.7692
13.592
11.113
8.91842
7.39128
6.35045
5.13199
3.60488
2.06491
0.262744
0.234593
0.883583
1.1077
1.41997
1.73334
1.94764
5.54804
6.9633
8.08004
9.0794
9.88449
10.4783
10.8369
10.9716
10.9112
10.6835
10.3195
9.83686
9.26323
8.59424
7.81145
6.85449
5.85331
5.11164
4.67836
4.26748
3.57973
2.68585
1.73746
0.590097
0.31253
0.480198
0.601279
0.731248
0.882596
1.08513
5.17831
6.50583
7.58377
8.36954
8.86763
9.16307
9.28151
9.25756
9.11881
8.88789
8.58071
8.20335
7.76923
7.27655
6.69384
5.96035
5.20471
4.68141
4.3824
4.04386
3.45095
2.65587
1.7988
0.810733
0.385118
0.452761
0.536001
0.653118
0.832599
1.12427
5.03104
6.40589
7.53822
8.31348
8.73613
8.9044
8.91982
8.82489
8.65454
8.42474
8.14608
7.81761
7.44197
7.02748
6.52638
5.87238
5.18989
4.71957
4.42717
4.07511
3.4996
2.75053
1.92218
0.99784
0.483706
0.491251
0.559183
0.666596
0.854711
1.20096
4.91155
6.32915
7.51687
8.30175
8.7013
8.8349
8.80945
8.68896
8.51539
8.29703
8.04857
7.75961
7.43554
7.06186
6.60048
5.98175
5.33477
4.87735
4.56804
4.19429
3.61757
2.88456
2.06796
1.18035
0.622241
0.556242
0.606248
0.699671
0.89085
1.29092
4.73296
6.17151
7.40856
8.21593
8.62683
8.76091
8.73446
8.62269
8.46862
8.28475
8.07226
7.814
7.5243
7.18482
6.74619
6.14752
5.52428
5.07464
4.74709
4.35129
3.76843
3.04035
2.23104
1.37109
0.789848
0.644619
0.669921
0.744676
0.92512
1.3489
4.34979
5.81629
7.13249
8.00443
8.45996
8.62104
8.6259
8.55192
8.44022
8.29844
8.12362
7.90327
7.64685
7.33353
6.90945
6.32696
5.72999
5.29206
4.94925
4.53199
3.94148
3.21652
2.41321
1.57522
0.977523
0.758446
0.747453
0.798296
0.957957
1.3745
3.78104
5.21562
6.62605
7.62005
8.16273
8.3942
8.46033
8.44931
8.39729
8.30867
8.17815
7.9975
7.77414
7.4831
7.07107
6.50872
5.9468
5.52664
5.17081
4.73173
4.1318
3.41138
2.61449
1.79437
1.18146
0.899102
0.839776
0.861614
0.992431
1.37723
3.16366
4.48177
5.93498
7.04125
7.72451
8.07653
8.23729
8.30769
8.32916
8.30428
8.22262
8.08394
7.89408
7.62413
7.22612
6.69358
6.1782
5.78073
5.41283
4.94941
4.33718
3.61929
2.83211
2.02886
1.40052
1.06349
0.949303
0.936339
1.03305
1.36285
2.58908
3.73119
5.14942
6.35392
7.1753
7.68051
7.96364
8.13202
8.23522
8.27797
8.25277
8.1583
8.00281
7.75514
7.3771
6.88814
6.4308
6.05875
5.67639
5.18529
4.5571
3.83969
3.06406
2.27493
1.63434
1.24938
1.07999
1.02408
1.08352
1.35089
2.10668
3.04664
4.36747
5.63078
6.5831
7.22627
7.65225
7.93006
8.12115
8.23505
8.27028
8.22129
8.10142
7.87974
7.53135
7.10189
6.71196
6.36493
5.96368
5.44046
4.79271
4.07339
3.30676
2.53242
1.88299
1.45529
1.23219
1.12857
1.14452
1.35432
1.73493
2.48084
3.66103
4.93198
5.99121
6.76284
7.32119
7.71214
7.99399
8.18124
8.2795
8.27731
8.19501
8.0057
7.70005
7.34732
7.02953
6.7036
6.27712
5.71691
5.04692
4.32323
3.56372
2.80562
2.14841
1.6815
1.40678
1.25515
1.22293
1.37333
1.48233
2.05603
3.07102
4.30547
5.43595
6.31715
6.98559
7.4899
7.86249
8.12469
8.28242
8.33391
8.29284
8.14482
7.89793
7.63819
7.39229
7.07921
6.62011
6.01829
5.32491
4.59437
3.84149
3.10028
2.43485
1.93022
1.60535
1.40608
1.32367
1.41532
1.34908
1.77583
2.60984
3.77478
4.94442
5.91037
6.67119
7.27652
7.73856
8.07565
8.28882
8.40043
8.40915
8.31313
8.14341
7.98967
7.81041
7.49842
6.99833
6.35149
5.63407
4.89501
4.1544
3.42536
2.74874
2.20593
1.83122
1.58347
1.44846
1.48574
1.32083
1.64223
2.29323
3.33838
4.51655
5.55799
6.39763
7.0887
7.63283
8.03662
8.31373
8.49046
8.56276
8.53371
8.45935
8.41985
8.29692
7.97202
7.42235
6.72948
5.98634
5.24042
4.51788
3.79373
3.09927
2.51597
2.09016
1.79182
1.60284
1.58385
1.42666
1.63098
2.12297
3.01328
4.15135
5.24567
6.16077
6.92322
7.54407
8.01508
8.37436
8.62496
8.77593
8.83625
8.87617
8.95269
8.87053
8.51854
7.91239
7.17415
6.40332
5.65871
4.95174
4.22282
3.4999
2.87126
2.39107
2.03828
1.79465
1.71791
1.64441
1.77135
2.08613
2.80174
3.85989
4.97905
5.95899
6.78547
7.48065
8.0214
8.49106
8.83171
9.08087
9.2574
9.43434
9.62082
9.56135
9.1689
8.50269
7.71809
6.92406
6.19676
5.48666
4.73597
3.97016
3.28757
2.74712
2.33349
2.02921
1.88961
1.9707
2.01365
2.18062
2.70438
3.64847
4.76427
5.79822
6.68729
7.45291
8.11629
8.70052
9.14922
9.52402
9.84881
10.1846
10.4712
10.4175
9.97369
9.24751
8.41694
7.62472
6.90434
6.16497
5.36426
4.53738
3.7876
3.17715
2.69295
2.31788
2.1033
2.38518
2.35654
2.39621
2.70408
3.51827
4.60607
5.68428
6.63648
7.49769
8.32861
9.04909
9.63312
10.1705
10.6819
11.1986
11.5747
11.5149
11.0151
10.2303
9.37306
8.61826
7.85845
7.04593
6.15424
5.24149
4.40474
3.70859
3.13929
2.67476
2.36858
2.90883
2.80288
2.7177
2.82916
3.46794
4.50899
5.62486
6.65775
7.71234
8.71319
9.60339
10.3654
11.1146
11.8584
12.5824
13.0405
12.9728
12.426
11.5973
10.784
10.0184
9.16038
8.20632
7.18028
6.14382
5.18976
4.38241
3.70583
3.12593
2.70016
3.58055
3.37791
3.16351
3.0783
3.5027
4.47864
5.64808
6.87567
8.1423
9.35757
10.4672
11.4706
12.4976
13.5294
14.4993
15.0403
14.9834
14.4295
13.643
12.8821
11.9919
10.9374
9.7782
8.55717
7.34059
6.22129
5.26226
4.44368
3.71199
3.13012
4.46224
4.13946
3.76813
3.48372
3.70591
4.60172
5.9062
7.37649
8.90279
10.3951
11.8095
13.144
14.5366
15.927
17.2044
17.8484
17.8642
17.4691
16.733
15.8802
14.7471
13.4142
11.9631
10.4623
8.9847
7.62574
6.45045
5.43588
4.49802
3.70139
5.65924
5.19189
4.63038
4.12686
4.13375
5.04424
6.51997
8.28652
10.1764
12.0603
13.9046
15.6945
17.5678
19.4098
21.0958
21.9061
22.1579
21.8995
21.164
20.0729
18.6272
16.9209
15.0694
13.1715
11.3164
9.60702
8.1166
6.82383
5.5961
4.49975
7.365
6.73379
5.94807
5.18286
4.9872
5.91623
7.67462
9.87894
12.2927
14.7447
17.1951
19.6055
22.101
24.5102
26.7691
27.8543
28.2352
28.0377
27.2416
25.896
24.0705
21.9002
19.5329
17.0982
14.7112
12.4968
10.5479
8.84849
7.20483
5.68773
9.93113
9.13464
8.11787
7.06008
6.67704
7.68237
9.82314
12.658
15.8455
19.0937
22.3612
25.5754
28.8419
31.9419
34.84
36.1014
36.535
36.3147
35.3514
33.6616
31.4174
28.7545
25.8153
22.7486
19.6893
16.7983
14.2185
11.9138
9.67754
7.56754
13.9766
13.0548
11.8905
10.6097
10.0863
11.2358
13.9118
17.5699
21.8097
26.0924
30.3666
34.5237
38.6346
42.4145
45.8774
46.9943
47.0876
46.0833
44.4446
42.2117
39.5334
36.5329
33.3148
29.9479
26.4834
23.024
19.7034
16.5981
13.607
10.7443
20.3939
19.4479
18.3934
17.3399
16.8467
18.2577
21.5522
26.1277
31.5092
36.9223
42.2094
47.2505
52.0582
56.2333
59.7508
59.6217
58.118
55.7874
53.192
50.3054
47.2439
44.1001
40.9145
37.6651
34.2901
30.7653
27.1281
23.4657
19.799
16.2279
29.5712
28.8849
28.3892
28.2225
28.6974
30.6546
34.4777
39.7015
45.8297
52.0236
57.8972
63.3492
68.2767
72.021
74.1069
70.8268
66.9829
62.8062
58.9587
55.3255
51.9834
48.9625
46.2457
43.7155
41.2149
38.5631
35.5957
32.2684
28.6151
24.9723
38.9291
38.9869
39.4875
40.6879
43.1282
46.6741
51.0983
56.3984
62.3733
68.4003
73.9382
78.857
82.8468
84.4584
83.0185
75.903
69.3839
63.1704
58.0535
53.7314
50.2436
47.5437
45.5729
44.1761
43.152
42.2634
41.1624
39.6115
37.5325
35.3711
40.0269
41.1795
42.7785
45.0527
48.6249
53.6897
59.5204
65.1574
70.6845
75.9675
80.5668
84.1727
86.111
84.6488
79.5891
69.5285
61.2045
53.7979
47.914
43.2588
39.8415
37.5286
36.1985
35.6927
35.8779
36.5744
37.4795
38.2747
38.7441
39.1479
11.652
16.2118
18.9742
21.5677
23.9868
26.0315
27.4613
28.2009
28.2551
27.7027
26.5978
25.0538
23.0957
20.7795
18.0725
14.8565
11.6115
9.88125
10.1385
10.7228
9.40859
6.87464
3.99801
1.32023
0.23738
1.07796
1.42654
1.81901
2.23271
2.61533
7.19502
8.61266
9.69402
10.7153
11.6191
12.3357
12.795
12.9883
12.9404
12.6771
12.2358
11.6267
10.887
9.98403
8.90079
7.57585
6.44907
6.19482
6.65301
6.69815
5.82531
4.53808
3.10792
1.2983
0.412601
0.586866
0.728805
0.922842
1.2448
1.91408
6.67899
7.80778
8.80256
9.64353
10.2612
10.6688
10.8598
10.8641
10.713
10.4391
10.0677
9.60225
9.06509
8.43207
7.6553
6.68856
5.8965
5.80453
6.133
6.01827
5.21803
4.13337
2.93445
1.39065
0.477729
0.523931
0.634349
0.823504
1.20504
1.98097
6.41063
7.51754
8.61211
9.50194
10.084
10.37
10.4468
10.362
10.1607
9.87875