/*--------------------------------*- C++ -*----------------------------------*\
  =========                 |
  \\      /  F ield         | OpenFOAM: The Open Source CFD Toolbox
   \\    /   O peration     | Website:  https://openfoam.org
    \\  /    A nd           | Version:  12
     \\/     M anipulation  |
\*---------------------------------------------------------------------------*/
FoamFile
{
    format      ascii;
    class       volScalarField;
    location    "850/air";
    object      k;
}
// * * * * * * * * * * * * * * * * * * * * * * * * * * * * * * * * * * * * * //

dimensions      [0 2 -2 0 0 0 0];

internalField   nonuniform List<scalar> 
243000
(
0.0555975
0.0700247
0.0767336
0.081567
0.0844192
0.0854326
0.0848103
0.082899
0.0800299
0.0766149
0.0730103
0.0696279
0.0668339
0.0650169
0.0643413
0.064601
0.0650201
0.0650384
0.0643842
0.0630519
0.0611207
0.0586994
0.0559321
0.0530827
0.050515
0.0473994
0.0430005
0.0362353
0.0265701
0.0260666
0.0930266
0.111032
0.120273
0.125641
0.128132
0.128489
0.127235
0.124749
0.121369
0.117516
0.113489
0.109776
0.106623
0.104328
0.102705
0.101006
0.0981663
0.0942647
0.0896259
0.0847387
0.07983
0.0750146
0.0703447
0.0660153
0.0623789
0.0590948
0.0551495
0.0494881
0.0407947
0.0346092
0.0967016
0.12585
0.141801
0.150936
0.155844
0.15795
0.15802
0.156611
0.154084
0.150886
0.1473
0.143917
0.140964
0.138735
0.136871
0.134302
0.129712
0.123464
0.116252
0.10884
0.10159
0.0946704
0.0881241
0.0821126
0.0769334
0.0723259
0.0673501
0.0610653
0.0523517
0.0437349
0.0878429
0.120171
0.14588
0.161858
0.170592
0.175596
0.177872
0.178159
0.176962
0.17478
0.171938
0.169088
0.166475
0.164407
0.162444
0.15933
0.153617
0.145823
0.136876
0.127708
0.118792
0.110353
0.102442
0.0951648
0.0887412
0.0829414
0.0770579
0.0702732
0.0616101
0.0522231
0.0776249
0.106944
0.137135
0.160469
0.176157
0.185558
0.191067
0.193845
0.194561
0.193869
0.192181
0.190214
0.188235
0.186573
0.18471
0.181268
0.174745
0.165767
0.155441
0.144831
0.134513
0.124774
0.115678
0.107292
0.0997674
0.0928811
0.0860331
0.0786448
0.0698219
0.0599997
0.0674911
0.0926294
0.124434
0.151411
0.173526
0.189252
0.198981
0.204904
0.208029
0.209182
0.208916
0.208064
0.206919
0.205826
0.204195
0.200575
0.193474
0.183596
0.172184
0.160406
0.148929
0.13809
0.12798
0.118634
0.110153
0.102319
0.0945368
0.086522
0.0774242
0.0672363
0.0658205
0.0779931
0.11041
0.140314
0.16571
0.187143
0.202573
0.212178
0.218107
0.221394
0.222754
0.223175
0.222996
0.222592
0.221289
0.217602
0.210105
0.199555
0.187306
0.174597
0.162171
0.150414
0.139442
0.129273
0.119971
0.111315
0.102689
0.094055
0.08463
0.0741294
0.0705635
0.0727874
0.0957316
0.128193
0.156437
0.181261
0.201866
0.216267
0.225332
0.230985
0.234126
0.235941
0.236828
0.237196
0.23629
0.232633
0.224883
0.213858
0.200978
0.187544
0.174352
0.161836
0.150135
0.139269
0.129264
0.119904
0.110582
0.101332
0.0915549
0.0807892
0.0778455
0.0752973
0.0836925
0.114785
0.146632
0.17358
0.198246
0.217433
0.23008
0.23832
0.243374
0.246665
0.248685
0.249898
0.249435
0.245892
0.238017
0.226687
0.213358
0.199373
0.185576
0.172438
0.160128
0.148674
0.138074
0.12811
0.118204
0.108389
0.0982647
0.0872684
0.0861654
0.082099
0.080845
0.101582
0.135879
0.165932
0.19252
0.216037
0.232805
0.243689
0.25077
0.255598
0.2588
0.260905
0.260919
0.257557
0.249679
0.238197
0.224577
0.210194
0.195932
0.182295
0.16948
0.157532
0.146433
0.135956
0.125556
0.115243
0.104796
0.0935918
0.0949872
0.0903406
0.0851649
0.0917405
0.124348
0.157826
0.186359
0.212814
0.23347
0.247313
0.256528
0.262952
0.267363
0.270384
0.270909
0.267786
0.260008
0.248502
0.234742
0.220099
0.205498
0.191468
0.178238
0.165877
0.154361
0.143457
0.132644
0.121901
0.111173
0.0997816
0.104077
0.0992387
0.0925011
0.0895955
0.11317
0.149057
0.18018
0.208195
0.232437
0.249526
0.260826
0.268905
0.274543
0.278484
0.279543
0.276711
0.269114
0.257711
0.243937
0.229161
0.21433
0.200003
0.186441
0.173745
0.161891
0.150636
0.139482
0.128376
0.117403
0.105853
0.113376
0.108426
0.101002
0.0938093
0.104363
0.139776
0.173757
0.202922
0.230151
0.250318
0.263859
0.273599
0.280478
0.28533
0.28694
0.284447
0.277103
0.265897
0.252233
0.237437
0.222476
0.207941
0.194129
0.181175
0.169057
0.157519
0.146088
0.13468
0.123491
0.111818
0.122886
0.117783
0.11005
0.100793
0.100035
0.13053
0.166997
0.197859
0.226893
0.249861
0.265854
0.277186
0.285285
0.29103
0.293204
0.291092
0.284068
0.273138
0.259679
0.244975
0.229977
0.21532
0.201341
0.188207
0.175896
0.164138
0.152487
0.14083
0.129464
0.117691
0.132619
0.127292
0.119331
0.108905
0.101219
0.122335
0.159947
0.192821
0.222878
0.248491
0.266822
0.279784
0.289081
0.295673
0.298424
0.296735
0.290091
0.279508
0.266327
0.251805
0.236878
0.222182
0.208118
0.194882
0.182445
0.170529
0.15871
0.146853
0.135332
0.123494
0.142587
0.13696
0.12874
0.117631
0.10669
0.116466
0.152834
0.18772
0.218332
0.246371
0.26679
0.281536
0.29196
0.299356
0.302681
0.301453
0.295243
0.285072
0.272238
0.257974
0.2432
0.228565
0.214498
0.201237
0.188738
0.176726
0.164788
0.152761
0.141125
0.129243
0.152801
0.146802
0.138259
0.126661
0.113698
0.113594
0.146007
0.182548
0.213881
0.243659
0.266044
0.28244
0.293989
0.302155
0.306048
0.305312
0.299589
0.289889
0.277463
0.263531
0.248987
0.234493
0.220515
0.207306
0.194812
0.182763
0.170758
0.158598
0.146879
0.134968
0.163271
0.15683
0.147894
0.135843
0.12149
0.11378
0.139912
0.177358
0.209621
0.240492
0.264655
0.282471
0.29525
0.304136
0.30859
0.308375
0.303185
0.294017
0.282068
0.268533
0.254288
0.240013
0.226202
0.21312
0.200705
0.188687
0.176684
0.164414
0.152635
0.140705
0.174014
0.167057
0.157652
0.145121
0.12971
0.117378
0.135154
0.172278
0.205517
0.23697
0.262694
0.281849
0.295682
0.305335
0.310361
0.310697
0.306087
0.297505
0.286111
0.273043
0.259165
0.245178
0.231606
0.21872
0.206457
0.194552
0.182626
0.170273
0.158447
0.146504
0.185032
0.177492
0.167545
0.154488
0.138196
0.122876
0.13211
0.167477
0.201558
0.233157
0.260203
0.280589
0.295351
0.305793
0.311403
0.312328
0.308347
0.300426
0.289653
0.27712
0.263678
0.250046
0.236781
0.224159
0.212121
0.200419
0.188658
0.176298
0.164398
0.152427
0.196345
0.188147
0.177589
0.163928
0.146825
0.129341
0.13086
0.16313
0.197753
0.229098
0.257191
0.278701
0.294365
0.305511
0.311734
0.313296
0.310016
0.302827
0.292746
0.280824
0.267893
0.254688
0.241796
0.2295
0.21776
0.206353
0.194856
0.182635
0.170605
0.15856
0.208004
0.199051
0.187816
0.173449
0.155524
0.13629
0.131174
0.159388
0.194114
0.224844
0.253669
0.276176
0.292664
0.304504
0.311339
0.313597
0.311098
0.304732
0.295429
0.284205
0.271873
0.259176
0.246723
0.234812
0.223441
0.212415
0.201293
0.189356
0.177148
0.164979
0.220053
0.210244
0.198246
0.183119
0.164376
0.143352
0.132996
0.156387
0.190664
0.220915
0.249643
0.272856
0.290086
0.302612
0.3101
0.31313
0.311509
0.306083
0.29768
0.287269
0.275646
0.263551
0.25162
0.240171
0.229239
0.218663
0.208016
0.196494
0.184082
0.171737
0.232597
0.221825
0.209017
0.193185
0.17375
0.15053
0.135909
0.154239
0.187641
0.217413
0.245023
0.268505
0.286321
0.299489
0.307668
0.311552
0.310926
0.30658
0.299298
0.289853
0.279083
0.267727
0.256436
0.245552
0.235143
0.225087
0.214982
0.203977
0.191389
0.178838
0.245587
0.233939
0.220763
0.204441
0.182968
0.157598
0.139549
0.153216
0.185393
0.214551
0.240331
0.262945
0.280931
0.294527
0.303338
0.308106
0.308591
0.305531
0.29949
0.291334
0.281661
0.271252
0.260776
0.250601
0.240821
0.231372
0.221857
0.211416
0.19903
0.18626
0.258279
0.247059
0.233281
0.215422
0.19221
0.164869
0.144023
0.153563
0.184401
0.212931
0.23744
0.258483
0.275331
0.288357
0.297385
0.302827
0.304585
0.303086
0.298753
0.292195
0.283988
0.274711
0.264971
0.2552
0.245673
0.236755
0.227833
0.218001
0.206484
0.194029
0.270437
0.259832
0.246021
0.227496
0.203103
0.174243
0.151362
0.158065
0.1874
0.215282
0.238832
0.258869
0.275172
0.288103
0.297557
0.30369
0.306518
0.306424
0.30359
0.29847
0.291544
0.283325
0.274335
0.265002
0.255619
0.246443
0.237277
0.227544
0.216592
0.204052
0.289785
0.279001
0.264925
0.246218
0.221846
0.193481
0.170729
0.175876
0.204364
0.231708
0.254765
0.274315
0.290268
0.303193
0.312992
0.319513
0.322964
0.32376
0.321882
0.317671
0.311557
0.304
0.295469
0.286327
0.27683
0.267143
0.257245
0.246798
0.235118
0.221442
0.331639
0.322459
0.310984
0.296268
0.277559
0.256411
0.240458
0.247143
0.272188
0.297375
0.3188
0.336866
0.351167
0.36316
0.372103
0.377667
0.380347
0.380658
0.378375
0.373854
0.367544
0.359825
0.351115
0.341694
0.331714
0.320852
0.309391
0.297236
0.283868
0.268648
0.500372
0.499609
0.498334
0.495537
0.490612
0.484951
0.483013
0.489289
0.49736
0.507519
0.516941
0.524993
0.530196
0.536816
0.540975
0.542768
0.543037
0.542523
0.54059
0.537867
0.534576
0.531006
0.527357
0.523916
0.520356
0.512524
0.503607
0.494325
0.484308
0.474323
0.0929428
0.111531
0.123157
0.131613
0.137112
0.139893
0.140224
0.138572
0.135395
0.131252
0.126572
0.121847
0.11735
0.113375
0.109821
0.105996
0.100781
0.0940647
0.086102
0.0773866
0.0681673
0.0586731
0.0492495
0.04097
0.0349341
0.0310396
0.0276005
0.0252262
0.0282156
0.0329555
0.205481
0.21563
0.224516
0.228555
0.22913
0.227344
0.223713
0.218613
0.212318
0.205202
0.197477
0.189482
0.181171
0.172579
0.163095
0.15136
0.13648
0.121645
0.107437
0.095104
0.0839635
0.0736535
0.0637746
0.0547936
0.0483896
0.0452464
0.0444935
0.0449136
0.0490939
0.0491444
0.257997
0.268654
0.283422
0.289338
0.290689
0.289843
0.28736
0.283309
0.277635
0.270525
0.26214
0.252852
0.242659
0.231674
0.219188
0.20337
0.183258
0.162914
0.143746
0.127301
0.112853
0.0999385
0.0878679
0.0767267
0.0684271
0.0643307
0.0629161
0.0609784
0.0600457
0.059961
0.246635
0.288243
0.31434
0.324465
0.328522
0.330497
0.331009
0.3298
0.32643
0.320863
0.313225
0.303946
0.293114
0.280955
0.266768
0.248349
0.224802
0.200537
0.177642
0.157761
0.140435
0.125196
0.111181
0.0982042
0.0880933
0.0827049
0.0802334
0.0765482
0.0711098
0.0657879
0.20742
0.272897
0.314121
0.338627
0.349232
0.356019
0.360996
0.363821
0.363711
0.360552
0.354466
0.345974
0.33527
0.322698
0.307541
0.287303
0.261359
0.234155
0.208326
0.185657
0.165937
0.148752
0.133119
0.118667
0.106974
0.100135
0.0966348
0.0916968
0.0835484
0.0741053
0.163692
0.237706
0.293697
0.332691
0.355498
0.369915
0.380682
0.388463
0.392395
0.392178
0.388149
0.380969
0.370938
0.358476
0.342829
0.32136
0.293712
0.264239
0.236051
0.2111
0.189401
0.170584
0.153608
0.137976
0.124983
0.116702
0.112184
0.10624
0.0964689
0.0840673
0.126405
0.190781
0.260799
0.313708
0.348856
0.373587
0.392214
0.405698
0.414198
0.417415
0.41576
0.410259
0.40129
0.389336
0.373544
0.351243
0.32248
0.291283
0.261245
0.234434
0.211088
0.190888
0.172779
0.156168
0.142121
0.132509
0.126942
0.120095
0.109241
0.0948578
0.101165
0.148814
0.221005
0.287577
0.334243
0.36895
0.396779
0.416878
0.430355
0.43736
0.438348
0.434767
0.427144
0.415993
0.400323
0.377536
0.348071
0.315694
0.28424
0.255944
0.23122
0.20983
0.190737
0.173309
0.158408
0.147637
0.140971
0.133318
0.121619
0.106146
0.090301
0.120029
0.181525
0.257013
0.3153
0.358773
0.394634
0.423232
0.441783
0.452794
0.456721
0.455202
0.44911
0.438996
0.423641
0.400682
0.370837
0.337794
0.305294
0.275827
0.24996
0.227532
0.207569
0.189467
0.173897
0.162166
0.154449
0.146057
0.13369
0.117331
0.089574
0.106109
0.150435
0.224862
0.293275
0.345406
0.388836
0.424173
0.449184
0.464396
0.471459
0.472135
0.467693
0.458779
0.443901
0.421053
0.391116
0.357784
0.324592
0.29423
0.267429
0.244102
0.223371
0.204728
0.188663
0.176174
0.167533
0.158488
0.145593
0.128225
0.0987158
0.10375
0.131193
0.194198
0.269335
0.33008
0.379876
0.421906
0.45352
0.472692
0.483014
0.486072
0.483323
0.475711
0.461469
0.438969
0.409195
0.375827
0.342317
0.311283
0.283742
0.259647
0.238265
0.219201
0.202789
0.189736
0.180343
0.170756
0.157431
0.139183
0.112554
0.111568
0.124123
0.169267
0.244932
0.313501
0.369538
0.417478
0.454155
0.478256
0.491838
0.497401
0.496387
0.490133
0.47667
0.454725
0.42533
0.392136
0.35858
0.327113
0.298999
0.274277
0.252373
0.233011
0.216385
0.202943
0.192986
0.182977
0.169293
0.150421
0.128899
0.124996
0.126302
0.154743
0.222028
0.296181
0.358292
0.411207
0.452772
0.481801
0.498274
0.506459
0.50724
0.502374
0.489816
0.468597
0.439762
0.406911
0.373481
0.341845
0.313305
0.288102
0.265822
0.246289
0.229575
0.215899
0.205565
0.195266
0.181314
0.162071
0.147496
0.141468
0.13749
0.149917
0.202711
0.278817
0.34649
0.403569
0.450047
0.482933
0.502782
0.513542
0.516241
0.512754
0.501207
0.480857
0.452725
0.420365
0.38718
0.35556
0.326762
0.301234
0.278737
0.259171
0.242492
0.228719
0.218196
0.207758
0.193648
0.174241
0.168077
0.160365
0.153306
0.152467
0.189062
0.262389
0.334516
0.395654
0.446352
0.48249
0.505997
0.518955
0.523694
0.521591
0.511151
0.491785
0.464468
0.432702
0.399851
0.368333
0.339509
0.313797
0.291242
0.271789
0.255266
0.241534
0.231008
0.2206
0.206454
0.18706
0.190541
0.181393
0.171681
0.163871
0.183342
0.248038
0.322758
0.387667
0.441955
0.481233
0.507836
0.523061
0.529906
0.529212
0.519973
0.501683
0.475262
0.44416
0.411698
0.380415
0.351667
0.325923
0.303462
0.284265
0.268026
0.254483
0.244145
0.233957
0.219901
0.200654
0.214875
0.204445
0.192425
0.179604
0.183286
0.236603
0.311618
0.379834
0.436947
0.479378
0.508599
0.526252
0.535169
0.535989
0.528037
0.5109
0.485431
0.455023
0.42294
0.391985
0.363402
0.337786
0.315544
0.296734
0.280912
0.267723
0.257777
0.248021
0.234188
0.215163
0.241119
0.22949
0.215311
0.198293
0.190453
0.228641
0.301535
0.372379
0.431737
0.477184
0.508679
0.52888
0.539886
0.542378
0.535777
0.519853
0.495372
0.465671
0.434066
0.403404
0.375006
0.349596
0.327679
0.309373
0.294101
0.281445
0.272105
0.263025
0.24957
0.230804
0.269358
0.256578
0.240223
0.219214
0.203152
0.225257
0.293004
0.365544
0.426965
0.474947
0.508604
0.531382
0.544585
0.548907
0.543731
0.529087
0.505619
0.476579
0.445588
0.415142
0.386899
0.361689
0.340153
0.322429
0.307817
0.29589
0.287377
0.279261
0.266377
0.247888
0.299716
0.285841
0.267171
0.242213
0.218913
0.225685
0.286435
0.359581
0.422863
0.472967
0.508666
0.534334
0.549947
0.556299
0.552641
0.539369
0.516913
0.488767
0.458139
0.427861
0.399692
0.3746
0.353437
0.336274
0.322381
0.311428
0.303926
0.29704
0.285014
0.26681
0.33238
0.317487
0.296362
0.267308
0.237245
0.230189
0.282155
0.354749
0.419671
0.471611
0.509723
0.538681
0.556987
0.565653
0.563613
0.551881
0.530657
0.50326
0.472896
0.442614
0.414357
0.389241
0.368316
0.351567
0.338293
0.328498
0.322199
0.31677
0.305959
0.288041
0.367669
0.351883
0.3282
0.294805
0.257002
0.239216
0.280276
0.351322
0.417738
0.471315
0.513607
0.54597
0.567344
0.578708
0.578543
0.568635
0.548727
0.52209
0.491862
0.461282
0.432644
0.407261
0.386132
0.369394
0.356683
0.348053
0.343101
0.339228
0.329871
0.312127
0.406231
0.389752
0.363468
0.325349
0.278855
0.250561
0.280214
0.349689
0.417649
0.475821
0.522931
0.558904
0.583945
0.598514
0.600913
0.593243
0.574899
0.549057
0.518761
0.487609
0.45808
0.431749
0.409969
0.392926
0.380415
0.372413
0.368488
0.365822
0.357764
0.339797
0.449561
0.432626
0.40379
0.360552
0.304537
0.265206
0.285472
0.352281
0.425019
0.489949
0.542118
0.582776
0.612448
0.631205
0.637476
0.632894
0.616752
0.592052
0.561865
0.529987
0.499137
0.471064
0.447293
0.428548
0.414944
0.406361
0.402164
0.399342
0.391502
0.372234
0.501202
0.484075
0.45269
0.404152
0.337858
0.287769
0.301434
0.368801
0.447473
0.519688
0.580585
0.628648
0.664687
0.689679
0.702338
0.70266
0.690867
0.668686
0.638723
0.605339
0.571533
0.539808
0.511958
0.489078
0.47166
0.459646
0.451836
0.445734
0.435002
0.411963
0.571016
0.553202
0.519522
0.463755
0.38918
0.329827
0.336686
0.409485
0.497506
0.581562
0.654612
0.714762
0.761528
0.796682
0.819157
0.826696
0.820839
0.802762
0.774312
0.73911
0.700597
0.662458
0.627205
0.596267
0.570336
0.549158
0.532233
0.517317
0.497604
0.465518
0.675918
0.656119
0.618916
0.560399
0.484086
0.42219
0.425746
0.506268
0.608447
0.708671
0.797345
0.871866
0.9309
0.977657
1.01141
1.0276
1.02922
1.01717
0.991669
0.955515
0.912218
0.866191
0.820794
0.777659
0.737706
0.701153
0.667638
0.635295
0.597631
0.548275
0.847174
0.823686
0.786513
0.734261
0.671297
0.625086
0.634847
0.718616
0.833651
0.946121
1.04482
1.12785
1.1938
1.24559
1.28395
1.30488
1.31176
1.30534
1.28378
1.24943
1.2052
1.15484
1.1023
1.04912
0.995602
0.941734
0.887612
0.832263
0.770436
0.697965
1.03987
1.02447
1.00713
0.982495
0.958244
0.953254
0.986724
1.0657
1.16973
1.26808
1.3511
1.42037
1.47416
1.5134
1.53549
1.54134
1.53653
1.51905
1.48987
1.45228
1.40855
1.36045
1.31115
1.26238
1.21366
1.1639
1.11218
1.05601
0.992375
0.921176
1.1074
1.11081
1.11847
1.12125
1.12524
1.14952
1.20594
1.27906
1.34691
1.40197
1.44548
1.48196
1.50829
1.52254
1.51412
1.48924
1.45968
1.4205
1.37628
1.33146
1.28892
1.24987
1.21518
1.18599
1.16271
1.14375
1.12873
1.11424
1.09623
1.07114
0.110643
0.139194
0.156364
0.169748
0.179167
0.184741
0.186699
0.185626
0.182138
0.176954
0.170576
0.163574
0.156158
0.148589
0.140623
0.131265
0.119567
0.106391
0.0931247
0.0804915
0.0678337
0.0545356
0.041021
0.0315434
0.028162
0.0270639
0.025312
0.0303901
0.0360282
0.0419438
0.204503
0.253355
0.283375
0.300916
0.309626
0.311572
0.308361
0.301487
0.291978
0.280715
0.268058
0.254403
0.239521
0.223318
0.204844
0.182801
0.159593
0.140212
0.125803
0.11464
0.103014
0.0888389
0.0711071
0.0529136
0.0460967
0.0448224
0.0426483
0.0480528
0.0585926
0.0676218
0.267608
0.328161
0.367653
0.390375
0.400852
0.402732
0.398663
0.390657
0.37972
0.366554
0.351404
0.334598
0.315884
0.295148
0.271323
0.242806
0.21238
0.187109
0.168487
0.154196
0.13984
0.122816
0.101297
0.0779108
0.0667673
0.0636844
0.0595415
0.0612957
0.0707595
0.0857375
0.31131
0.37884
0.425055
0.451005
0.463009
0.465732
0.462303
0.454983
0.444561
0.431456
0.415753
0.397674
0.377013
0.353707
0.326615
0.293874
0.2587
0.229028
0.206597
0.189075
0.172069
0.152784
0.128863
0.102077
0.0867716
0.0818666
0.0758637
0.0736262
0.0801102
0.0962366
0.324503
0.403698
0.459842
0.489054
0.504318
0.509606
0.508336
0.503093
0.494464
0.482609
0.467478
0.449236
0.427716
0.402949
0.373641
0.337855
0.299392
0.266294
0.240619
0.220172
0.200831
0.179801
0.154415
0.125707
0.106717
0.0995012
0.092105
0.0862298
0.0897717
0.106159
0.303627
0.390886
0.460519
0.505472
0.527859
0.53822
0.54104
0.5392
0.533404
0.523677
0.509895
0.492256
0.470648
0.445164
0.414259
0.37624
0.335468
0.299707
0.271303
0.248299
0.226932
0.204528
0.178306
0.148672
0.126796
0.116883
0.108282
0.0994201
0.0996398
0.115197
0.26375
0.355951
0.439367
0.49832
0.534335
0.553863
0.56277
0.565802
0.563719
0.556795
0.54497
0.528495
0.507357
0.481738
0.449674
0.410119
0.367823
0.33003
0.299354
0.274122
0.250977
0.227447
0.200779
0.170863
0.146979
0.134321
0.124358
0.113306
0.109648
0.123032
0.219656
0.308896
0.402893
0.476844
0.526148
0.556879
0.575164
0.584513
0.587024
0.583398
0.573976
0.559102
0.538887
0.513558
0.480776
0.440304
0.397124
0.357891
0.32532
0.298136
0.273406
0.248909
0.222012
0.192254
0.167147
0.152023
0.140413
0.127704
0.120206
0.129896
0.181168
0.260149
0.35827
0.44578
0.508259
0.550769
0.579519
0.596538
0.604473
0.604567
0.59787
0.584941
0.566005
0.541311
0.508255
0.467446
0.423912
0.383783
0.349641
0.320724
0.294557
0.269181
0.242164
0.212866
0.18718
0.170056
0.15667
0.142489
0.131654
0.136532
0.151628
0.216819
0.311504
0.408567
0.484266
0.537978
0.576624
0.603088
0.616821
0.621228
0.617437
0.606713
0.589348
0.565586
0.532711
0.492118
0.44869
0.408096
0.372661
0.342196
0.314706
0.28851
0.261413
0.232754
0.206989
0.188413
0.173356
0.157687
0.143972
0.14382
0.133134
0.182222
0.26776
0.368635
0.456215
0.521252
0.569697
0.603861
0.624809
0.634035
0.633353
0.625032
0.609478
0.58693
0.554705
0.514844
0.471927
0.431174
0.394685
0.362817
0.334106
0.30713
0.279973
0.252034
0.226558
0.207061
0.190563
0.173443
0.157426
0.152211
0.124306
0.159457
0.230915
0.329619
0.426218
0.502163
0.559329
0.601522
0.629785
0.643511
0.646278
0.640463
0.626945
0.605873
0.574787
0.536131
0.494052
0.453336
0.415997
0.382838
0.352982
0.325276
0.298091
0.270895
0.245942
0.225988
0.208339
0.189884
0.171904
0.162573
0.123803
0.149179
0.20355
0.294644
0.396166
0.481914
0.547384
0.597133
0.631354
0.65008
0.656764
0.65356
0.642266
0.622989
0.593511
0.556479
0.51548
0.474903
0.43687
0.402493
0.371559
0.343183
0.316019
0.289565
0.265289
0.245246
0.22673
0.207104
0.187416
0.174639
0.135615
0.149435
0.189022
0.266184
0.36758
0.461411
0.534831
0.591219
0.630734
0.65467
0.665289
0.664891
0.655993
0.638868
0.611445
0.576388
0.536625
0.496236
0.457566
0.422034
0.390078
0.3611
0.334022
0.308301
0.284818
0.264954
0.245823
0.225195
0.204011
0.188416
0.155492
0.162591
0.185924
0.246385
0.342349
0.441425
0.522152
0.584184
0.629159
0.657891
0.672229
0.675095
0.66874
0.654124
0.629178
0.596373
0.557929
0.517714
0.478399
0.441758
0.408825
0.37931
0.352376
0.327388
0.304833
0.285309
0.265762
0.244293
0.22179
0.2039
0.180265
0.182088
0.193029
0.236846
0.322125
0.422819
0.509762
0.576982
0.627014
0.65985
0.678138
0.684786
0.681211
0.669401
0.647337
0.616992
0.579887
0.539792
0.499779
0.462058
0.428165
0.39817
0.371404
0.347161
0.325668
0.306568
0.28675
0.264579
0.240883
0.220985
0.208995
0.20709
0.209722
0.235615
0.307587
0.406389
0.498094
0.570183
0.624655
0.661248
0.683728
0.694599
0.694196
0.685447
0.666624
0.638887
0.6031
0.563051
0.522264
0.483457
0.448621
0.418153
0.391546
0.368088
0.347713
0.329066
0.309064
0.286296
0.261452
0.239585
0.24122
0.235662
0.231961
0.242493
0.299253
0.392829
0.487533
0.564014
0.622375
0.662716
0.68977
0.705195
0.708643
0.703178
0.687872
0.662857
0.628367
0.588304
0.546668
0.506736
0.470969
0.439974
0.413495
0.390952
0.371542
0.353246
0.333063
0.309762
0.283748
0.259892
0.276676
0.267228
0.258352
0.257653
0.297173
0.382654
0.478407
0.558668
0.620368
0.664963
0.697196
0.71751
0.725568
0.72376
0.712161
0.689998
0.656832
0.616744
0.57418
0.533177
0.49645
0.464826
0.438438
0.416838
0.397956
0.379699
0.359218
0.335383
0.308108
0.282143
0.315292
0.301712
0.287183
0.277004
0.300404
0.376026
0.470987
0.554371
0.619234
0.669052
0.707225
0.732921
0.746228
0.74882
0.740979
0.72192
0.690226
0.65022
0.606794
0.564852
0.527115
0.494798
0.468654
0.447161
0.428091
0.409244
0.38819
0.363697
0.33498
0.30662
0.35728
0.339253
0.318779
0.300499
0.308686
0.372865
0.465518
0.551434
0.62001
0.677314
0.721665
0.753368
0.772531
0.780542
0.776705
0.761158
0.731297
0.691685
0.6479
0.605247
0.566667
0.533857
0.506724
0.484049
0.463636
0.443194
0.42098
0.395455
0.364922
0.333665
0.403254
0.380555
0.353876
0.327547
0.321959
0.372593
0.462233
0.550392
0.626012
0.691948
0.743267
0.781813
0.807665
0.822163
0.823192
0.81183
0.78451
0.746335
0.703087
0.660508
0.62111
0.586265
0.556347
0.530623
0.507054
0.483679
0.459259
0.431905
0.398815
0.363776
0.454591
0.427202
0.393949
0.358357
0.339708
0.376781
0.461938
0.555412
0.642593
0.716864
0.776683
0.823081
0.856894
0.879107
0.88688
0.880702
0.85751
0.822693
0.781827
0.738841
0.696928
0.657965
0.622731
0.591308
0.562267
0.534223
0.505964
0.475306
0.438241
0.39805
0.514372
0.482636
0.442726
0.397397
0.365785
0.391652
0.473335
0.575656
0.673528
0.758722
0.829721
0.885699
0.929157
0.960853
0.977973
0.978735
0.962478
0.932517
0.893264
0.848381
0.80179
0.756322
0.713416
0.673678
0.636499
0.601059
0.566364
0.529988
0.486623
0.439127
0.589482
0.554387
0.508377
0.453445
0.409683
0.423974
0.508067
0.618731
0.729209
0.828886
0.913408
0.982811
1.03888
1.08204
1.11082
1.11895
1.10897
1.08297
1.04501
0.998009
0.946018
0.892772
0.840117
0.789342
0.740824
0.694504
0.649638
0.603827
0.551089
0.493087
0.692402
0.655948
0.606264
0.543857
0.49014
0.492469
0.578521
0.70165
0.828905
0.944898
1.04555
1.13
1.19932
1.25366
1.2935
1.30804
1.30303
1.28011
1.24276
1.19345
1.13614
1.07521
1.0127
0.950112
0.888519
0.828577
0.769953
0.710808
0.644814
0.572429
0.842386
0.807506
0.759715
0.697762
0.64156
0.637736
0.722549
0.855259
0.998937
1.13023
1.2449
1.34142
1.42038
1.48132
1.52633
1.5415
1.53519
1.50977
1.46922
1.41642
1.35527
1.28992
1.22243
1.15366
1.08414
1.01396
0.942868
0.869946
0.789528
0.701432
1.05261
1.02278
0.985463
0.940569
0.898627
0.901565
0.981167
1.11053
1.25799
1.39255
1.50911
1.60617
1.68359
1.73932
1.77329
1.77161
1.7462
1.702
1.64763
1.58693
1.52375
1.46013
1.39859
1.33953
1.28134
1.22167
1.1579
1.08694
1.00311
0.9088
1.25843
1.24338
1.2269
1.20978
1.20613
1.23726
1.31523
1.4265
1.55158
1.66613
1.76291
1.84107
1.89713
1.92604
1.92142
1.87711
1.8188
1.75036
1.67957
1.61048
1.54742
1.49111
1.44315
1.40385
1.3707
1.34003
1.30754
1.26725
1.21373
1.1491
1.28626
1.29295
1.30022
1.30703
1.32664
1.37938
1.46513
1.5625
1.65639
1.7369
1.80105
1.84822
1.87288
1.86731
1.82163
1.74373
1.66043
1.57317
1.49009
1.41597
1.3554
1.30897
1.27633
1.25698
1.24955
1.25083
1.25769
1.26263
1.25935
1.24866
0.133667
0.167439
0.185528
0.200744
0.212529
0.220424
0.223996
0.223675
0.220097
0.214066
0.206096
0.196828
0.186407
0.175051
0.162353
0.147116
0.129065
0.112113
0.0997362
0.0911109
0.0801166
0.0643136
0.0451465
0.0303809
0.0284804
0.0271406
0.0323535
0.0391064
0.0457508
0.0506551
0.22069
0.279685
0.318127
0.345343
0.363083
0.371914
0.372075
0.365892
0.354971
0.340753
0.32385
0.304898
0.283531
0.25963
0.231745
0.200672
0.172668
0.157633
0.153616
0.151866
0.140659
0.117143
0.0834671
0.0450091
0.0393453
0.0403625
0.0467904
0.0581257
0.0734383
0.0877411
0.272899
0.350638
0.40868
0.449109
0.473668
0.484681
0.483921
0.475518
0.46164
0.44383
0.42267
0.39871
0.371557
0.34099
0.30542
0.265393
0.229871
0.210961
0.204912
0.200942
0.186431
0.157969
0.116357
0.0665295
0.0531695
0.0546013
0.0600082
0.0718452
0.0905568
0.114146
0.305119
0.402296
0.47398
0.524104
0.55355
0.566278
0.565371
0.556263
0.541354
0.522083
0.498914
0.472231
0.441685
0.407044
0.366532
0.320752
0.280165
0.257489
0.24807
0.240794
0.223308
0.191767
0.145821
0.0899735
0.0686125
0.0684566
0.0723619
0.0829322
0.102779
0.133338
0.328183
0.436
0.521083
0.578282
0.612036
0.626988
0.627105
0.618603
0.604018
0.58462
0.56076
0.532644
0.500002
0.462667
0.418444
0.368551
0.324548
0.298611
0.28576
0.275124
0.255093
0.221748
0.173731
0.115169
0.0869178
0.0829111
0.0849001
0.0934605
0.113958
0.150738
0.337922
0.449672
0.547189
0.613761
0.652117
0.670717
0.673686
0.667178
0.654149
0.63571
0.612137
0.583515
0.549699
0.510516
0.463338
0.410565
0.364302
0.335705
0.319706
0.305935
0.283774
0.249447
0.200867
0.141756
0.108008
0.0987585
0.0980008
0.104111
0.123779
0.164781
0.329269
0.441908
0.546167
0.625471
0.675286
0.699555
0.707532
0.704569
0.694269
0.677733
0.65525
0.626847
0.592543
0.55213
0.502691
0.44807
0.400567
0.369901
0.351109
0.334447
0.31045
0.275623
0.227485
0.169209
0.131244
0.116439
0.112003
0.115233
0.132745
0.175085
0.308056
0.418745
0.529332
0.617698
0.678353
0.71511
0.730219
0.732585
0.726064
0.712228
0.691492
0.663918
0.629734
0.588568
0.537592
0.482119
0.434282
0.402109
0.38082
0.36148
0.33583
0.300748
0.253651
0.19704
0.156031
0.136013
0.127403
0.127051
0.141386
0.181905
0.279831
0.384856
0.500127
0.597594
0.669151
0.716344
0.743079
0.752672
0.750839
0.740355
0.721912
0.695696
0.662185
0.620675
0.568968
0.513648
0.466274
0.433067
0.409537
0.387629
0.360408
0.325177
0.279387
0.22492
0.18194
0.157276
0.14436
0.139737
0.150254
0.186454
0.249338
0.345562
0.462533
0.568762
0.651081
0.709599
0.747386
0.76585
0.769757
0.763087
0.747386
0.72299
0.690663
0.649249
0.597708
0.543532
0.497284
0.463427
0.437774
0.413362
0.384573
0.349219
0.304769
0.252664
0.208679
0.179989
0.162813
0.15369
0.159683
0.190344
0.220331
0.305544
0.42069
0.534099
0.627276
0.696539
0.744544
0.773292
0.783745
0.781309
0.768717
0.746554
0.715844
0.67515
0.624711
0.572582
0.528012
0.493729
0.466004
0.439077
0.408693
0.373158
0.32998
0.280284
0.235959
0.203885
0.1827
0.16911
0.169993
0.194643
0.195483
0.268902
0.378474
0.496502
0.599791
0.679768
0.737865
0.775477
0.793457
0.795899
0.786694
0.767128
0.738469
0.699254
0.650902
0.601648
0.559112
0.52449
0.494649
0.465159
0.433135
0.397317
0.355314
0.308023
0.263652
0.228771
0.203945
0.186381
0.181977
0.200271
0.177428
0.239021
0.339351
0.458811
0.570623
0.660795
0.728121
0.774063
0.799812
0.807707
0.802105
0.785485
0.759357
0.722498
0.67724
0.631571
0.591226
0.556196
0.524126
0.491996
0.4583
0.422084
0.381202
0.336073
0.291797
0.254557
0.226455
0.20533
0.195791
0.207793
0.168438
0.218245
0.306521
0.423523
0.541568
0.640959
0.716864
0.770921
0.804059
0.817371
0.815758
0.802471
0.779423
0.745886
0.704713
0.663179
0.624991
0.589357
0.554866
0.520037
0.484634
0.447946
0.4083
0.364817
0.320551
0.28127
0.250215
0.225829
0.211484
0.217826
0.16832
0.208478
0.282665
0.392951
0.514107
0.621363
0.705252
0.766638
0.806137
0.825354
0.82857
0.819035
0.799703
0.770489
0.734328
0.697295
0.661065
0.62451
0.587377
0.549839
0.51268
0.475562
0.437203
0.394748
0.350174
0.309068
0.275314
0.247897
0.229132
0.230319
0.182661
0.208867
0.269219
0.36898
0.48957
0.602854
0.693935
0.761719
0.807193
0.832539
0.841499
0.836255
0.821404
0.79743
0.767112
0.734768
0.700149
0.662284
0.622333
0.582125
0.54322
0.505961
0.468491
0.426424
0.381081
0.338237
0.301952
0.271664
0.24909
0.245391
0.206968
0.223124
0.266225
0.352531
0.469083
0.586165
0.683452
0.756896
0.808127
0.839957
0.855473
0.855343
0.845932
0.827913
0.804157
0.776504
0.743042
0.703466
0.660626
0.617828
0.577474
0.540569
0.502956
0.460425
0.413832
0.369182
0.330449
0.297345
0.271346
0.263058
0.239711
0.245832
0.2734
0.344086
0.453427
0.571897
0.674268
0.752976
0.809809
0.848671
0.871449
0.877735
0.874726
0.863473
0.846685
0.82354
0.790725
0.749127
0.703491
0.658355
0.617517
0.5804
0.541493
0.49735
0.449077
0.402452
0.361252
0.32527
0.295868
0.283076
0.276909
0.275139
0.289861
0.342869
0.442924
0.560468
0.666741
0.750309
0.81313
0.860005
0.890848
0.904703
0.909503
0.905896
0.896136
0.877166
0.844525
0.800833
0.752661
0.706008
0.666012
0.626869
0.585123
0.538062
0.487658
0.438784
0.394973
0.355944
0.322706
0.3055
0.317878
0.309761
0.312153
0.348989
0.437472
0.552122
0.661163
0.749174
0.819314
0.875687
0.915456
0.937993
0.95209
0.957242
0.954456
0.939115
0.906375
0.860966
0.810893
0.765038
0.724247
0.68134
0.634764
0.583987
0.530785