/*--------------------------------*- C++ -*----------------------------------*\
  =========                 |
  \\      /  F ield         | OpenFOAM: The Open Source CFD Toolbox
   \\    /   O peration     | Website:  https://openfoam.org
    \\  /    A nd           | Version:  12
     \\/     M anipulation  |
\*---------------------------------------------------------------------------*/
FoamFile
{
    format      ascii;
    class       volScalarField;
    location    "850/air";
    object      nut;
}
// * * * * * * * * * * * * * * * * * * * * * * * * * * * * * * * * * * * * * //

dimensions      [0 2 -1 0 0 0 0];

internalField   nonuniform List<scalar> 
243000
(
0.000123308
0.000133546
0.000134801
0.000134132
0.000131875
0.000128438
0.000124152
0.000119362
0.000114341
0.000109391
0.000104749
0.000100684
9.74458e-05
9.53174e-05
9.44154e-05
9.46027e-05
9.53111e-05
9.61248e-05
9.68291e-05
9.73771e-05
9.77725e-05
9.80345e-05
9.8207e-05
9.84417e-05
9.9041e-05
9.91933e-05
9.78759e-05
9.32198e-05
8.30027e-05
8.54516e-05
0.000478805
0.000505184
0.000507383
0.00050044
0.000488286
0.000473253
0.000456774
0.000439758
0.000422896
0.000406929
0.00039234
0.000379908
0.000370014
0.000363137
0.000358938
0.000356113
0.000352665
0.000348549
0.00034409
0.000339967
0.000336449
0.00033362
0.000331448
0.000330274
0.000330995
0.000332916
0.000332969
0.000327074
0.000308312
0.000294716
0.000573047
0.000657648
0.000700328
0.000722937
0.000734796
0.000739851
0.000740133
0.000737005
0.000731262
0.0007239
0.000715518
0.000707518
0.000700485
0.000695198
0.000690807
0.00068466
0.000673211
0.000657085
0.000637794
0.000617232
0.000596367
0.00057571
0.000555431
0.000536091
0.000518813
0.000503001
0.000485449
0.00046235
0.000428185
0.000391101
0.000547251
0.000639964
0.000707738
0.000747101
0.000767838
0.00077944
0.000784778
0.000785734
0.000783437
0.000778967
0.000772978
0.000766901
0.000761295
0.000756896
0.000752721
0.000745895
0.000732806
0.0007143
0.000692252
0.000668789
0.00064508
0.00062176
0.00059904
0.000577313
0.000557394
0.000538838
0.000519403
0.0004961
0.000464629
0.000427759
0.000513925
0.000602782
0.00068329
0.000741643
0.000778596
0.000800249
0.000812723
0.000819172
0.000821217
0.000820263
0.000817163
0.000813412
0.000809587
0.000806406
0.000802776
0.000795723
0.000781716
0.000761719
0.000737844
0.000712358
0.000686584
0.00066128
0.000636704
0.000613136
0.000591158
0.000570374
0.000548959
0.000524952
0.000494791
0.000458848
0.000482375
0.000559398
0.000649704
0.000717719
0.000770825
0.000806715
0.000828548
0.000841709
0.000848876
0.000851908
0.000851958
0.000850749
0.000848886
0.000847091
0.000844175
0.00083715
0.000822661
0.000801751
0.000776676
0.000749795
0.000722551
0.000695783
0.000669813
0.000644842
0.000621291
0.000598788
0.000575579
0.000550739
0.000521182
0.000485989
0.000480136
0.00051366
0.000609899
0.000689826
0.000751131
0.000800565
0.000834918
0.000855927
0.000868873
0.000876278
0.000879692
0.00088114
0.000881324
0.000881017
0.000878914
0.000872074
0.000857399
0.00083597
0.000810159
0.000782352
0.000754083
0.00072626
0.000699257
0.000673232
0.000648495
0.000624675
0.000600046
0.000574336
0.000545022
0.000510479
0.000499336
0.000502493
0.000566714
0.000657444
0.000728974
0.000786223
0.000832154
0.000863476
0.000882791
0.000894907
0.00090184
0.000906031
0.000908328
0.000909565
0.000908329
0.000901801
0.00088714
0.000865498
0.000839289
0.00081092
0.000781968
0.000753409
0.000725652
0.000698859
0.000673236
0.000648421
0.000622825
0.000596263
0.000566993
0.000533046
0.00052512
0.000515826
0.00053238
0.000619859
0.000704269
0.000768704
0.000823336
0.000864833
0.000891642
0.000908841
0.000919453
0.000926441
0.000930875
0.000933709
0.000933365
0.000927251
0.000912772
0.000891161
0.000864825
0.000836171
0.000806811
0.000777762
0.00074948
0.000722141
0.000695876
0.000670321
0.000644031
0.00061677
0.000587487
0.00055409
0.000552554
0.000539751
0.000530542
0.000582484
0.000675989
0.000750508
0.000810111
0.000861196
0.000896491
0.00091884
0.000933293
0.00094312
0.000949704
0.000954156
0.000954722
0.000949099
0.000934955
0.00091358
0.000887339
0.000858627
0.000829078
0.000799743
0.000771114
0.000743403
0.000716697
0.000690613
0.000663833
0.00063604
0.000606758
0.000573861
0.000580036
0.000566498
0.000549295
0.000557151
0.000644814
0.000730612
0.000796797
0.000853898
0.000897203
0.000925482
0.00094392
0.000956645
0.000965379
0.000971438
0.000972942
0.000967866
0.000954185
0.000933207
0.000907264
0.000878682
0.00084913
0.000819669
0.000790841
0.000762893
0.000735903
0.000709467
0.00068237
0.000654208
0.000624971
0.000592549
0.000606981
0.000593648
0.000573526
0.000558172
0.000614699
0.000708554
0.000782912
0.000843769
0.00089473
0.000929408
0.000951754
0.000967466
0.000978346
0.000985986
0.000988439
0.000983964
0.000970835
0.00095041
0.000924922
0.000896642
0.000867237
0.000837787
0.000808882
0.000780823
0.000753687
0.000727049
0.00069978
0.000671391
0.000642275
0.00061031
0.000633333
0.000620268
0.000599558
0.000576496
0.000592539
0.000684811
0.000768051
0.000832859
0.000889844
0.000930639
0.000957249
0.000975921
0.000988956
0.000998141
0.00100155
0.000997723
0.000985222
0.000965455
0.000940574
0.000912738
0.000883609
0.000854294
0.000825431
0.000797381
0.000770229
0.000743514
0.000716194
0.000687698
0.000658724
0.000627251
0.000659186
0.000646207
0.000625692
0.000598843
0.000585484
0.000661067
0.000752062
0.000822128
0.00088305
0.000929582
0.00096082
0.000982348
0.000997486
0.00100817
0.00101253
0.00100941
0.000997608
0.000978579
0.000954411
0.000927159
0.000898422
0.000869358
0.000840658
0.000812739
0.000785686
0.000759006
0.000731738
0.000703238
0.000674461
0.000643487
0.000684635
0.000671531
0.000651249
0.000622829
0.000595808
0.000640761
0.000735149
0.000811277
0.000874736
0.000926817
0.000962526
0.000986993
0.00100419
0.00101629
0.00102161
0.00101924
0.00100821
0.000989985
0.000966603
0.000940038
0.000911838
0.000883135
0.000854717
0.000827053
0.000800208
0.00077367
0.000746541
0.000718125
0.000689573
0.000659129
0.000709755
0.000696338
0.000676121
0.000647369
0.00061506
0.000627698
0.000717972
0.000800112
0.000865381
0.000922645
0.000962428
0.000990137
0.00100928
0.00102271
0.00102897
0.0010274
0.00101719
0.000999849
0.000977318
0.000951523
0.00092396
0.000895761
0.000867745
0.000840452
0.000813917
0.000787626
0.000760719
0.000732439
0.000704166
0.000674271
0.000734604
0.000720718
0.000700381
0.00067155
0.000636173
0.000623563
0.000701511
0.00078862
0.000856698
0.000917379
0.000961043
0.000991774
0.00101287
0.00102758
0.00103478
0.00103404
0.00102472
0.00100832
0.000986697
0.000961752
0.000934918
0.000907326
0.000879851
0.000853051
0.00082693
0.000800986
0.000774387
0.000746302
0.000718366
0.000689013
0.000759241
0.000744751
0.000724114
0.000695169
0.000657895
0.000628227
0.000687122
0.000776953
0.000848162
0.000911241
0.000958495
0.000991878
0.00101513
0.00103104
0.00103916
0.0010393
0.00103092
0.00101552
0.000994887
0.000970866
0.000944842
0.000917961
0.000891139
0.000864943
0.000839357
0.000813875
0.000787714
0.000759857
0.00073229
0.000703476
0.000783725
0.000768502
0.000747397
0.00071822
0.000679933
0.00064295
0.000676756
0.000765487
0.0008398
0.000904402
0.000954901
0.000990823
0.00101596
0.00103317
0.00104223
0.00104328
0.0010359
0.00102157
0.00100202
0.000979006
0.000953875
0.000927798
0.000901727
0.00087624
0.000851305
0.000826426
0.000800846
0.000773276
0.000746084
0.000717799
0.000808072
0.00079201
0.000770295
0.000740777
0.000701799
0.000660038
0.000671189
0.000754663
0.000831638
0.000896975
0.000950329
0.000988637
0.00101545
0.00103404
0.00104406
0.00104608
0.00103977
0.0010266
0.00100823
0.000986301
0.000962152
0.000936967
0.000911747
0.000887068
0.000862899
0.000838783
0.000813951
0.000786991
0.000760002
0.000732153
0.000832363
0.000815334
0.000792878
0.000762863
0.000723242
0.000678528
0.00067046
0.000744935
0.000823719
0.000889037
0.00094478
0.000985322
0.0010138
0.00103363
0.00104469
0.00104777
0.00104262
0.00103073
0.00101361
0.000992873
0.000969809
0.000945617
0.000921343
0.000897563
0.000874277
0.000851088
0.000827186
0.00080109
0.000774268
0.000746753
0.000856691
0.000838556
0.000815265
0.000784523
0.000744165
0.000696995
0.000673707
0.00073672
0.000816089
0.00088081
0.000938262
0.00098087
0.00101092
0.00103199
0.00104409
0.00104832
0.00104448
0.00103398
0.00101825
0.000998824
0.000976972
0.000953895
0.000930662
0.000907871
0.00088558
0.000863462
0.000840692
0.000815711
0.00078901
0.000761747
0.000881229
0.00086179
0.000837529
0.000805955
0.000764801
0.000715044
0.000681013
0.000730434
0.000808841
0.000873322
0.000930776
0.000974978
0.0010065
0.00102883
0.00104206
0.00104758
0.00104519
0.00103628
0.00102211
0.00100418
0.000983702
0.00096188
0.000939821
0.00091814
0.000896958
0.000876026
0.000854563
0.00083092
0.000804314
0.000777218
0.00090618
0.000885267
0.000859957
0.000827701
0.000786426
0.000733001
0.000690487
0.000726299
0.000802517
0.000866614
0.000922189
0.000967197
0.000999978
0.00102355
0.001038
0.00104496
0.00104422
0.00103711
0.00102486
0.00100865
0.000989776
0.000969431
0.000948735
0.000928332
0.0009084
0.000888763
0.000868712
0.000846566
0.000820134
0.00079315
0.000931285
0.000909237
0.000883815
0.000851541
0.00080709
0.000750245
0.000701172
0.000724855
0.000797914
0.000861128
0.000913568
0.000957175
0.000990546
0.00101505
0.00103068
0.00103916
0.00104027
0.0010353
0.00102514
0.00101117
0.000994285
0.000975741
0.000956685
0.00093779
0.000919278
0.000901074
0.000882491
0.000861874
0.000836668
0.000809561
0.000954911
0.000934243
0.000908445
0.000874076
0.000827268
0.000767574
0.00071345
0.000726714
0.000796081
0.000858116
0.000908245
0.000949145
0.000980674
0.00100435
0.00102047
0.00103015
0.0010334
0.00103105
0.00102377
0.00101254
0.000998257
0.000981824
0.000964239
0.000946253
0.000928455
0.000911503
0.000894334
0.000875227
0.000851936
0.00082622
0.000976346
0.000957552
0.000932589
0.000898076
0.000850368
0.000789236
0.000732407
0.000738559
0.000803228
0.000863323
0.000911244
0.000950063
0.000980476
0.00100393
0.00102075
0.00103155
0.00103658
0.00103658
0.00103188
0.0010232
0.00101129
0.000996934
0.000980973
0.000964107
0.000946872
0.000929745
0.000912397
0.000893748
0.000872273
0.000847165
0.00101035
0.000991919
0.000967427
0.000933982
0.000888384
0.000831172
0.000778364
0.000780701
0.000840178
0.00089659
0.000941766
0.000978387
0.00100723
0.00102997
0.00104687
0.00105799
0.00106387
0.0010653
0.00106229
0.00105536
0.00104518
0.00103243
0.00101784
0.00100195
0.000985182
0.000967817
0.000949809
0.000930534
0.000908613
0.000882386
0.0010802
0.00106557
0.00104713
0.00102308
0.000991547
0.000953861
0.000921996
0.000928355
0.00097281
0.00101774
0.00105476
0.00108499
0.0011083
0.00112738
0.00114142
0.00115008
0.00115426
0.0011548
0.00115139
0.00114452
0.00113485
0.00112289
0.00110923
0.00109425
0.00107818
0.00106046
0.00104145
0.00102097
0.000998056
0.000971462
0.00132466
0.00132381
0.0013224
0.00131904
0.00131281
0.00130518
0.00130172
0.00130918
0.00131914
0.00133243
0.00134491
0.00135557
0.00136241
0.0013708
0.00137617
0.00137847
0.00137882
0.00137818
0.00137576
0.00137233
0.00136817
0.00136363
0.00135895
0.00135453
0.00134996
0.00134008
0.00132843
0.00131618
0.00130283
0.0012895
0.000160185
0.000168946
0.000171073
0.000170584
0.00016819
0.00016442
0.000159666
0.00015433
0.00014873
0.000143201
0.00013797
0.000133278
0.000129255
0.000126048
0.000123575
0.000121443
0.00011895
0.000115911
0.000112302
0.000108222
0.000103613
9.83845e-05
9.2531e-05
8.68157e-05
8.26029e-05
8.04881e-05
7.84629e-05
7.76827e-05
8.54134e-05
9.58052e-05
0.000789565
0.000847352
0.000848846
0.000824444
0.000788752
0.000749949
0.000712181
0.000677083
0.000644944
0.000615741
0.000588463
0.000562989
0.000537288
0.000510206
0.000478398
0.000438962
0.000392354
0.000350508
0.000315954
0.000290646
0.000271755
0.000256827
0.000242889
0.000233461
0.000233941
0.00024499
0.000259982
0.000271561
0.000315697
0.000401955
0.00126196
0.00134476
0.00142046
0.0014363
0.00142025
0.00138751
0.00134708
0.00130346
0.00125834
0.00121298
0.00116684
0.00112029
0.00107066
0.00101623
0.000952018
0.000871727
0.000777043
0.000689424
0.000616231
0.000560877
0.000519244
0.000487475
0.000459996
0.000438488
0.000433136
0.000444875
0.000463746
0.00046248
0.000475945
0.000574158
0.00133021
0.00160277
0.00179202
0.00186853
0.00189994
0.00190271
0.00188566
0.00185495
0.00181315
0.00176352
0.0017076
0.00164596
0.00157683
0.00149844
0.00140594
0.00129067
0.00115541
0.00102838
0.00092053
0.000836587
0.000772316
0.000722326
0.000679074
0.000643876
0.000628656
0.000634595
0.000648069
0.000632825
0.000606219
0.000642819
0.00126469
0.00164067
0.00192201
0.00213088
0.00223639
0.00229637
0.00232123
0.0023184
0.00229109
0.00224556
0.00218559
0.00211465
0.00203072
0.00193298
0.00181707
0.00167282
0.00150478
0.00134517
0.00120809
0.00109953
0.00101506
0.000948713
0.000891632
0.000843865
0.000817221
0.000814224
0.000820672
0.0007913
0.000732576
0.000712179
0.00114967
0.00156417
0.00193149
0.00222972
0.00244433
0.00258585
0.00266614
0.00270203
0.00269829
0.0026626
0.00260326
0.0025271
0.00243274
0.00231992
0.00218495
0.00201691
0.00182348
0.00163709
0.00147556
0.00134595
0.00124407
0.00116356
0.00109484
0.00103642
0.00099879
0.000985398
0.000985096
0.000942409
0.000858146
0.000794419
0.00101858
0.00139847
0.00183345
0.00222478
0.00253479
0.00277319
0.0029329
0.00301607
0.00304219
0.00302237
0.00296602
0.00288816
0.00278709
0.00266324
0.00251316
0.00232597
0.00211342
0.00190537
0.00172369
0.0015761
0.00145927
0.00136655
0.00128808
0.00122082
0.0011734
0.0011494
0.00114228
0.00108806
0.000982951
0.000885022
0.000889584
0.00121402
0.00166682
0.00213788
0.00254323
0.00286915
0.00312562
0.0032686
0.00333024
0.0033308
0.0032806
0.00320299
0.0030986
0.00296736
0.00280578
0.00260372
0.00237684
0.00215214
0.00195391
0.00179106
0.00166131
0.00155799
0.00147119
0.00139675
0.00134099
0.00130703
0.00129167
0.001229
0.00110688
0.000981447
0.000801213
0.0010501
0.00147482
0.00199558
0.00248461
0.00289966
0.00323482
0.00346912
0.00356842
0.00359228
0.00355262
0.00347727
0.00337175
0.00323665
0.00306652
0.00285359
0.00261586
0.00237966
0.00216781
0.00199209
0.00185097
0.00173834
0.00164434
0.00156414
0.00150162
0.00145893
0.0014352
0.00136615
0.00123042
0.00108075
0.000764037
0.000930541
0.00129327
0.00182151
0.00237504
0.00287098
0.00329539
0.00359874
0.00376092
0.00381207
0.00378905
0.00371629
0.0036109
0.00347488
0.00329887
0.00307868
0.0028332
0.00258921
0.00236679
0.00218033
0.00202921
0.00190831
0.00180802
0.00172326
0.00165551
0.00160558
0.00157421
0.0015004
0.00135398
0.00118214
0.000810279
0.000875355
0.0011447
0.00163573
0.00222955
0.00279852
0.00330359
0.00368475
0.00391718
0.00399373
0.00398959
0.00392328
0.00382043
0.00368519
0.00350611
0.00328171
0.00303121
0.00278173
0.00255249
0.0023569
0.00219724
0.00206867
0.00196297
0.00187463
0.00180299
0.00174739
0.00170963
0.00163242
0.00147783
0.00128679
0.000904675
0.000903195
0.00105912
0.00146429
0.00206497
0.00269368
0.00327213
0.00373642
0.00401968
0.00414197
0.00415812
0.00410439
0.00400405
0.00387068
0.00369107
0.00346506
0.00321192
0.00295897
0.00272559
0.00252287
0.00235591
0.00222063
0.0021099
0.00201893
0.00194459
0.0018848
0.00184217
0.00176277
0.00160205
0.0013954
0.00102945
0.000990544
0.00102646
0.00133757
0.00190535
0.00257056
0.00321019
0.00375039
0.00409102
0.00426441
0.00429697
0.00425995
0.00416399
0.00403428
0.00385618
0.00363074
0.00337706
0.00312246
0.0028865
0.00267944
0.00250607
0.00236499
0.00224996
0.00215689
0.00208092
0.00201828
0.00197235
0.00189191
0.00172688
0.00150793
0.00118152
0.00111494
0.00108985
0.00127061
0.00176398
0.00244209
0.00313005
0.00373
0.00413862
0.00435016
0.00441051
0.00439062
0.00430254
0.00417811
0.00400337
0.00378039
0.00352804
0.0032735
0.00303628
0.00282679
0.00264844
0.00250245
0.00238397
0.0022893
0.00221256
0.00214827
0.00210062
0.00202035
0.00185268
0.00162421
0.00135713
0.00126714
0.0011995
0.00123964
0.00165187
0.0023177
0.00303941
0.00369127
0.00416616
0.00441031
0.0045065
0.00449863
0.00442353
0.00430391
0.00413408
0.00391514
0.00366586
0.00341296
0.00317573
0.00296474
0.00278378
0.00263358
0.00251245
0.00241682
0.00234001
0.00227514
0.00222731
0.00214853
0.00197983
0.00174426
0.00155345
0.00144253
0.00133841
0.00130384
0.00158598
0.00220571
0.00294543
0.00364005
0.00417535
0.00445512
0.00458015
0.00458657
0.00452746
0.00441261
0.00424888
0.00403554
0.00379098
0.00354124
0.00330522
0.00309395
0.00291177
0.00275854
0.00263555
0.00253975
0.00246342
0.00239903
0.00235247
0.00227672
0.00210859
0.00186799
0.00176751
0.00163717
0.00150142
0.00140732
0.00154584
0.00211105
0.00285417
0.0035816
0.00416424
0.00448508
0.00463288
0.00465718
0.00461382
0.00450443
0.00434757
0.00414124
0.00390304
0.00365801
0.00342442
0.00321413
0.00303163
0.0028772
0.00275304
0.00265781
0.0025825
0.00251966
0.00247577
0.00240484
0.00223901
0.00199514
0.00199507
0.00184634
0.00168239
0.00154062
0.00155947
0.00203964
0.00277077
0.00352031
0.00413779
0.004501
0.00466679
0.00471215
0.00467947
0.00457834
0.00442868
0.00423067
0.00400053
0.00376186
0.00353252
0.00332432
0.0031425
0.0029881
0.00286394
0.00276991
0.00269613
0.00263604
0.00259612
0.00253216
0.00237069
0.00212529
0.00222984
0.00206397
0.00187472
0.00169085
0.00163027
0.00200084
0.0026994
0.00345981
0.00410348
0.00450353
0.00468572
0.00475291
0.00472403
0.0046312
0.00448881
0.00430041
0.00408012
0.00384966
0.00362668
0.00342201
0.00324216
0.00308886
0.00296625
0.0028735
0.00280198
0.00274609
0.00271131
0.00265679
0.00250235
0.0022575
0.00246274
0.00228194
0.00207063
0.00185149
0.0017272
0.00197552
0.00264133
0.00340253
0.00406355
0.00449195
0.00468885
0.00475953
0.00474125
0.00465694
0.00452158
0.00434427
0.00413575
0.00391623
0.00370122
0.00350227
0.00332612
0.0031756
0.00305524
0.00296444
0.00289603
0.0028463
0.0028173
0.0027736
0.00263077
0.0023894
0.00268116
0.00248957
0.00226138
0.00201506
0.0018413
0.0019685
0.00259735
0.00334925
0.00401873
0.00446592
0.00464884
0.00473154
0.0047215
0.00464548
0.00451614
0.00435193
0.00415779
0.00395128
0.00374718
0.00355663
0.00338636
0.00324008
0.0031237
0.00303609
0.00297185
0.00292976
0.00290726
0.00287443
0.00274931
0.00251613
0.00286909
0.00267364
0.0024364
0.00217221
0.00194802
0.0020035
0.00256879
0.00329827
0.00395043
0.00436401
0.00456473
0.00465346
0.00464842
0.00458002
0.00445675
0.00430787
0.00413056
0.00393989
0.00374936
0.00356972
0.00340871
0.00327095
0.00316061
0.0030778
0.00301975
0.00298573
0.00297082
0.00294936
0.00284768
0.00262919
0.00300836
0.0028193
0.00258327
0.00231074
0.00204198
0.00203438
0.0025276
0.00321635
0.00379274
0.00420496
0.00442008
0.00450097
0.00449882
0.004437
0.00432208
0.00419083
0.00403183
0.00385943
0.00368535
0.0035217
0.0033751
0.00324938
0.00314854
0.00307371
0.00302393
0.0029986
0.00299302
0.00298443
0.00291116
0.00271588
0.00308166
0.00291189
0.00268841
0.00241459
0.00211387
0.00204679
0.002463
0.00305505
0.00359008
0.00397887
0.00417525
0.00424726
0.00424585
0.00419131
0.00408976
0.00397831
0.00383907
0.00368836
0.00353522
0.00339079
0.00326175
0.00315151
0.00306397
0.00300116
0.00296337
0.00295005
0.00295685
0.00296387
0.00292213
0.00275993
0.00307905
0.00294036
0.00273607
0.00246418
0.00214881
0.00203472
0.00238432
0.00287745
0.00332305
0.00363665
0.00381003
0.00387658
0.00388027
0.0038412
0.00376171
0.00367229
0.00355929
0.0034327
0.00330252
0.00317992
0.00307052
0.00297806
0.00290634
0.00285808
0.00283464
0.00283543
0.00285569
0.00287986
0.0028667
0.00274536
0.00301496
0.00290495
0.00271558
0.00245039
0.00214118
0.00198549
0.00220491
0.00260584
0.00295754
0.00320894
0.00335912
0.00343493
0.00346079
0.00345066
0.0034048
0.00334278
0.00326396
0.00316668
0.00306346
0.00296343
0.00287199
0.00279423
0.00273492
0.00269742
0.00268327
0.00269072
0.00271777
0.00275205
0.0027558
0.00266996
0.00291091
0.00282009
0.00265705
0.00241416
0.0021275
0.00193031
0.00201563
0.00232045
0.00260859
0.00282573
0.00297393
0.0030682
0.00312009
0.00314102
0.00313153
0.00309947
0.00305446
0.00298949
0.00291543
0.00283928
0.00276583
0.00270025
0.00264785
0.00261189
0.00259409
0.00259468
0.00261171
0.00263521
0.00263426
0.00256365
0.0028345
0.00276578
0.00263671
0.00243862
0.00220397
0.0020187
0.00202769
0.00223809
0.0024727
0.00266003
0.00279805
0.00289552
0.00295747
0.00299257
0.00300301
0.00299204
0.00296878
0.00293108
0.00288276
0.00283094
0.00277898
0.00273034
0.00268987
0.00265972
0.00263967
0.00262922
0.00262626
0.00262322
0.00259724
0.00251922
0.00278042
0.00273383
0.00265304
0.00253371
0.00239664
0.00227349
0.00228126
0.00240668
0.0025623
0.00268872
0.00278307
0.00285287
0.00289822
0.0029232
0.00292752
0.00291645
0.00289559
0.0028654
0.00282913
0.00279398
0.00276199
0.00273356
0.00271174
0.00269755
0.00268899
0.00268411
0.00267889
0.00266496
0.00263038
0.00256076
0.00277713
0.00275901
0.00272439
0.00266532
0.0025885
0.00253087
0.00253125
0.00258609
0.00265525
0.00271061
0.00275189
0.00278547
0.00280686
0.00281791
0.00281358
0.00279909
0.0027802
0.00275656
0.00273273
0.00271374
0.00270138
0.00269581
0.00269715
0.0027049
0.00271699
0.00272931
0.00274021
0.00274324
0.00273395
0.00269621
0.00017481
0.000188694
0.000192723
0.000193696
0.000192253
0.000188959
0.000184262
0.000178657
0.000172546
0.000166322
0.00016022
0.000154483
0.000149176
0.000144386
0.00013994
0.000135275
0.000129726
0.000123458
0.000116995
0.000110594
0.000103613
9.51438e-05
8.47509e-05
7.53366e-05
6.88113e-05
0.000321462
7.49621e-05
8.53657e-05
9.64074e-05
0.000107875
0.000769965
0.000964123
0.00105
0.00107269
0.00106061
0.00102638
0.000980441
0.000929954
0.000878725
0.000829346
0.000781214
0.000734511
0.000685973
0.000634307
0.00057467
0.000506858
0.000440929
0.000395231
0.000370958
0.000362436
0.000357027
0.000344616
0.000313797
0.000291001
0.000324119
0.000380826
0.00028968
0.000319519
0.000435094
0.000556944
0.00131387
0.00163877
0.00182434
0.00192625
0.00196338
0.00194727
0.0018973
0.00182909
0.00175079
0.00166756
0.0015801
0.00148938
0.0013911
0.0012828
0.00115864
0.00101786
0.000879404
0.000779043
0.000719342
0.000689809
0.000670847
0.000643699
0.000585915
0.000528011
0.000562497
0.000624143
0.000539053
0.000539669
0.000670052
0.000865531
0.00169922
0.00212447
0.00240789
0.00258145
0.00267212
0.00269602
0.00266859
0.00260876
0.00252581
0.00242696
0.00231481
0.00219031
0.00205123
0.00189299
0.00171222
0.00150866
0.00130982
0.0011614
0.00106569
0.00101141
0.000973866
0.000929922
0.000852448
0.000764801
0.000777301
0.000841728
0.000774185
0.000727642
0.000827426
0.00103581
0.00188701
0.00242873
0.00282708
0.00305303
0.00320727
0.00328687
0.00329884
0.00326307
0.00318931
0.00308679
0.00296125
0.0028109
0.00263621
0.00243804
0.00221036
0.00195504
0.00170827
0.0015189
0.00139188
0.00131429
0.00125936
0.00120148
0.00111121
0.00100459
0.000990557
0.00104361
0.00099223
0.000905291
0.000964417
0.00116999
0.00189335
0.0024434
0.00293497
0.00333703
0.00358885
0.00374418
0.00381214
0.00381178
0.00375627
0.00365762
0.00352154
0.00335527
0.00315443
0.00292292
0.00265582
0.00235874
0.00207502
0.00185149
0.0016969
0.00159785
0.00152714
0.0014585
0.00136126
0.00124464
0.00120613
0.00124012
0.00119791
0.00108257
0.0010925
0.00128603
0.00181028
0.00237644
0.00293896
0.00343049
0.00382205
0.00408758
0.00422602
0.0042732
0.00424213
0.00415182
0.00401318
0.00383383
0.00361252
0.00335525
0.00305503
0.00272533
0.0024134
0.00216139
0.00198262
0.00186395
0.00177893
0.00170175
0.00160169
0.00148172
0.00142378
0.00143629
0.00139603
0.00126381
0.00121852
0.00138589
0.00168014
0.00225536
0.00287711
0.00345511
0.00393797
0.0043108
0.00455302
0.00465997
0.00466034
0.00458113
0.00444298
0.00425483
0.00401849
0.00374159
0.00341473
0.00306019
0.00272655
0.00245149
0.00225128
0.00211481
0.00201668
0.00193225
0.00183184
0.00171329
0.00164189
0.00163419
0.0015902
0.00144813
0.00135025
0.00147242
0.00154063
0.00209796
0.00275934
0.0034189
0.00399417
0.00445427
0.00480115
0.00498062
0.00501978
0.00495471
0.00481876
0.00462566
0.00437897
0.00408781
0.00374066
0.00336793
0.00301736
0.00272435
0.00250512
0.00235245
0.0022424
0.00215149
0.00205169
0.00193779
0.00185863
0.00183422
0.00178311
0.00163439
0.00149187
0.0015547
0.00141025
0.00192152
0.00260012
0.0033286
0.00399668
0.0045455
0.00496968
0.00524453
0.00532459
0.0052807
0.00514835
0.00495244
0.00469982
0.00439908
0.00403774
0.00365247
0.00328888
0.00298185
0.00274608
0.00257882
0.00245783
0.00236104
0.00226217
0.00215467
0.00207254
0.00203589
0.00197635
0.00182216
0.00164312
0.00164261
0.00130709
0.00174046
0.00241422
0.00319445
0.00395102
0.00459227
0.00509779
0.00543499
0.00557888
0.0055637
0.00543703
0.00524055
0.00498599
0.00468001
0.00431027
0.00391708
0.00354379
0.00322578
0.00297612
0.00279573
0.00266472
0.00256238
0.00246469
0.00236419
0.00228268
0.00223821
0.00217039
0.00201141
0.00180705
0.00173964
0.00124185
0.00158828
0.00221188
0.00302798
0.00386323
0.00459985
0.00518556
0.00558726
0.00579788
0.00580619
0.00568996
0.00549425
0.00524165
0.00493448
0.0045618
0.00416448
0.00378437
0.00345782
0.00319725
0.00300502
0.00286461
0.00275697
0.0026605
0.0025671
0.00248859
0.00243999
0.00236486
0.0022018
0.00198009
0.00185839
0.00123562
0.00150063
0.00203158
0.00283591
0.00374141
0.00457069
0.00523918
0.00570875
0.00596556
0.00600753
0.0059107
0.00571991
0.00547043
0.00516626
0.00479513
0.00439678
0.00401261
0.00367966
0.00341113
0.00320816
0.00305885
0.00294607
0.00285073
0.00276409
0.00269008
0.00264
0.00255873
0.00239238
0.0021589
0.00199315
0.00134893
0.00148797
0.00191346
0.00266133
0.00359236
0.00450736
0.00526066
0.00579836
0.00609328
0.0061756
0.00610006
0.00591986
0.00567503
0.00537773
0.00501195
0.00461532
0.00422987
0.00389296
0.00361868
0.00340618
0.00324845
0.00313063
0.00303618
0.00295553
0.00288692
0.00283676
0.0027504
0.00258167
0.00234078
0.00214092
0.00154819
0.00160477
0.00187082
0.00251946
0.0034514
0.00442127
0.00525083
0.0058525
0.00619237
0.0063124
0.00625942
0.00609902
0.00585781
0.00556902
0.00521242
0.00482029
0.00443667
0.00409836
0.00382014
0.0035994
0.0034338
0.00331102
0.00321719
0.00314105
0.00307852
0.00302829
0.00293759
0.0027676
0.002523
0.00229826
0.00180023
0.00178651
0.00190455
0.0024318
0.00332709
0.00433207
0.00522322
0.00587996
0.00626683
0.00641723
0.00639224
0.00625432
0.0060188
0.00573831
0.00539493
0.00501028
0.00463198
0.00429503
0.00401442
0.003787
0.00361422
0.0034867
0.00339261
0.00331971
0.00326272
0.00321162
0.00311715
0.00294727
0.00270243
0.00246086
0.00208168
0.00202045
0.0020414
0.00240218
0.00322471
0.00424561
0.00518527
0.0058911
0.00632016
0.00649603
0.00650525
0.00638353
0.00615583
0.00588207
0.00555504
0.00518155
0.00481252
0.00447992
0.00419855
0.00396624
0.00378748
0.00365545
0.00355961
0.003489
0.0034355
0.00338234
0.00328472
0.00311671
0.00287517
0.002623
0.0023743
0.00227362
0.0022179
0.00240883
0.00315015
0.00416688
0.00514025
0.00588673
0.00635154
0.00655213
0.006586
0.00647949
0.00626377
0.0059952
0.00568464
0.00532732
0.0049719
0.00464695
0.00436676
0.00413182
0.00394855
0.00381166
0.00371371
0.0036441
0.00359077
0.00353416
0.0034344
0.00327063
0.00303618
0.00278072
0.00266112
0.00252459
0.00242279
0.00250117
0.00311398
0.00409881
0.00508987
0.0058663
0.00635748
0.00658428
0.00661531
0.00652953
0.00633095
0.00606785
0.0057734
0.00543736
0.00509986
0.00478607
0.00450905
0.00427404
0.0040878
0.00394727
0.0038468
0.00377572
0.00371942
0.00365844
0.0035585
0.00340223
0.00317918
0.00292889
0.00292235
0.00275685
0.00261438
0.00260416
0.00308714
0.00403924
0.00503356
0.00582742
0.00633517
0.00653468
0.00658793
0.00651862
0.00633967
0.0060875
0.00580654
0.00549781
0.00518191
0.00488129
0.00460953
0.00437817
0.00419184
0.00404909
0.00394494
0.00386983
0.00380933
0.00374429
0.00364782
0.00350329
0.00329668
0.00306061
0.00314097
0.00295443
0.00278291
0.00272632
0.00306705
0.00398817
0.00496801
0.00575926
0.00619608
0.00642049
0.00648367
0.00642852
0.00626844
0.00603571
0.00576739
0.00549073
0.0051982
0.00491171
0.00465024
0.00442574
0.00424171
0.00409709
0.00398951
0.00391071
0.0038472
0.00378093
0.00369278
0.003565
0.00338007
0.0031668
0.00330351
0.00310569
0.00291774
0.00283332
0.00306335
0.00390486
0.00486427
0.0055543
0.00596066
0.00621427
0.00628164
0.00623832
0.00609695
0.00589109
0.00564002
0.00539751
0.00512875
0.0048599
0.00461293
0.0043972
0.00421735
0.00407426
0.00396606
0.00388617
0.00382252
0.00376045
0.00368595
0.00357998
0.00342109
0.00323733
0.00340228
0.00320377
0.00300726
0.00289014
0.00302232
0.00374157
0.00459067
0.00522111
0.00565569
0.00589098
0.00596587
0.00593057
0.00581336
0.00564056
0.00541845
0.00520808
0.00496697
0.00472101
0.00449095
0.00428823
0.00411781
0.00398021
0.00387401
0.00379537
0.0037352
0.00368285
0.00362621
0.00354559
0.00341425
0.00326449
0.00343909
0.00324978
0.00304993
0.00290073
0.00295001
0.00355307
0.00425402
0.00483905
0.00523527
0.00545172
0.00553381
0.00551435
0.0054307
0.00529958
0.00511754
0.00493847
0.00473548
0.00451732
0.00431092
0.00412604
0.00396795
0.00383789
0.00373579
0.00365987
0.00360474
0.00356303
0.00352444
0.00346897
0.00336358
0.00324551
0.00343048
0.00325753
0.00305704
0.00287578
0.00284886
0.00327125
0.00388534
0.00437684
0.00472169
0.00493411
0.00502776
0.00504245
0.00500418
0.00492226
0.00478928
0.00464405
0.00448357
0.00429785
0.00411967
0.00395676
0.00381391
0.00369327
0.00359591
0.00352211
0.00346983
0.00343481
0.0034085
0.00337177
0.00328746
0.00318725
0.00340636
0.00325396
0.00305642
0.00284797
0.00274002
0.00294275
0.00343383
0.00387727
0.00420612
0.00442142
0.00454573
0.00460494
0.00461506
0.00458123
0.00449752
0.00438645
0.00426222
0.00410859
0.00395851
0.00381882
0.00369363
0.00358546
0.00349588
0.00342608
0.00337577
0.00334282
0.00332055
0.00329181
0.00321854
0.00311607
0.00340431
0.00327614
0.0030937
0.00287962
0.00271477
0.00275426
0.00309625
0.00348941
0.00380914
0.00403482
0.00418666
0.00428072
0.00432636
0.00432597
0.00427709
0.0041911
0.00408592
0.00395305
0.00382408
0.00370491
0.00359929
0.00350869
0.00343519
0.00337956
0.0033404
0.00331484