/*--------------------------------*- C++ -*----------------------------------*\
  =========                 |
  \\      /  F ield         | OpenFOAM: The Open Source CFD Toolbox
   \\    /   O peration     | Website:  https://openfoam.org
    \\  /    A nd           | Version:  12
     \\/     M anipulation  |
\*---------------------------------------------------------------------------*/
FoamFile
{
    format      ascii;
    class       volScalarField;
    location    "850/air";
    object      p_rgh;
}
// * * * * * * * * * * * * * * * * * * * * * * * * * * * * * * * * * * * * * //

dimensions      [1 -1 -2 0 0 0 0];

internalField   nonuniform List<scalar> 
243000
(
28.9587
29.0252
29.1097
29.1541
29.193
29.2308
29.2754
29.3297
29.3938
29.4696
29.5485
29.6334
29.7058
29.7624
29.7825
29.756
29.6609
29.5193
29.3581
29.2114
29.0941
29.0085
28.949
28.8995
28.8905
28.9305
29.0415
29.2011
29.4582
29.5893
28.9629
29.0132
29.1021
29.1526
29.2051
29.2515
29.3009
29.3577
29.4226
29.4976
29.5746
29.6571
29.726
29.7795
29.7974
29.7708
29.6774
29.5391
29.3805
29.2337
29.1145
29.0264
28.9648
28.912
28.8953
28.9336
29.0436
29.1988
29.4407
29.4557
28.9766
28.9905
29.0723
29.118
29.1755
29.2295
29.2864
29.3488
29.4185
29.4987
29.5845
29.6712
29.7414
29.7963
29.8155
29.7915
29.7007
29.5651
29.4077
29.2604
29.1386
29.0472
28.9826
28.9268
28.9024
28.936
29.0375
29.1795
29.4116
29.462
28.9969
28.9787
29.0485
29.0774
29.1291
29.186
29.2512
29.3225
29.4004
29.4865
29.5772
29.6684
29.7437
29.8032
29.8244
29.8028
29.7142
29.5813
29.4256
29.2776
29.1546
29.0617
28.996
28.9406
28.9111
28.9391
29.0318
29.1618
29.3756
29.4499
29.0335
28.9916
29.0419
29.0546
29.0907
29.1409
29.2091
29.2867
29.3724
29.4661
29.5627
29.6593
29.7387
29.8017
29.825
29.8048
29.7162
29.583
29.4283
29.2821
29.1604
29.0687
29.0043
28.9523
28.9203
28.9431
29.0283
29.1488
29.3459
29.4356
29.0525
29.0255
29.0563
29.0495
29.0693
29.1049
29.1691
29.2496
29.341
29.4418
29.5446
29.6468
29.7301
29.7961
29.8207
29.8013
29.7129
29.5797
29.4257
29.2808
29.1602
29.071
29.0097
28.9621
28.9299
28.9482
29.0276
29.139
29.3226
29.4198
29.039
29.0466
29.0833
29.0594
29.0628
29.0817
29.1343
29.2129
29.3073
29.4136
29.5218
29.6291
29.7157
29.7842
29.8095
29.7904
29.703
29.5712
29.4182
29.2752
29.1564
29.069
29.0094
28.9675
28.9387
28.9538
29.0282
29.1326
29.3044
29.4036
29.0078
29.0392
29.113
29.08
29.0682
29.0717
29.1077
29.1791
29.2729
29.3827
29.495
29.6063
29.6955
29.7657
29.791
29.7715
29.6845
29.5562
29.4052
29.2647
29.1486
29.0638
29.0066
28.9684
28.946
28.9595
29.0298
29.1287
29.2904
29.389
28.9708
29.015
29.1225
29.1064
29.0824
29.0708
29.0912
29.15
29.2398
29.3506
29.4653
29.5791
29.6698
29.7408
29.7651
29.7444
29.6573
29.5324
29.3865
29.249
29.1363
29.0549
29.001
28.9669
28.9511
28.9649
29.0321
29.1271
29.2799
29.3765
28.9304
28.9808
29.1027
29.1301
29.1027
29.0784
29.0831
29.1269
29.2091
29.3183
29.4334
29.5482
29.639
29.7095
29.7318
29.7091
29.6214
29.4996
29.3594
29.2279
29.1193
29.0421
28.9924
28.9632
28.9537
28.9698
29.0349
29.1273
29.2728
29.3673
28.8852
28.9426
29.0685
29.1343
29.1259
29.0901
29.0812
29.1102
29.1817
29.2865
29.4
29.514
29.6035
29.6723
29.6917
29.6659
29.577
29.458
29.3235
29.1986
29.0963
29.0246
28.98
28.9568
28.9541
28.9737
29.0378
29.1283
29.2686
29.3626
28.8359
28.8999
29.0278
29.1146
29.1459
29.1059
29.0848
29.0991
29.1577
29.2559
29.3657
29.4772
29.5639
29.6297
29.6449
29.6152
29.5246
29.4081
29.2791
29.1611
29.0658
29.0002
28.9615
28.9451
28.9516
28.9764
29.0406
29.1301
29.2669
29.3624
28.7847
28.8536
28.9846
29.0834
29.1529
29.1242
29.0902
29.0928
29.1374
29.2269
29.3312
29.4385
29.5209
29.5823
29.5923
29.5578
29.4649
29.3504
29.2268
29.116
29.0276
28.9684
28.9364
28.9278
28.9452
28.9777
29.0429
29.1323
29.2667
29.3642
28.7325
28.8048
28.9394
29.0482
29.1402
29.1416
29.0972
29.0895
29.1205
29.1997
29.2968
29.3982
29.4752
29.531
29.5344
29.4943
29.3987
29.2857
29.1673
29.063
28.9813
28.929
28.9043
28.9049
28.9346
28.9775
29.0446
29.1346
29.2671
29.3675
28.6798
28.7543
28.8913
29.0087
29.1122
29.1512
29.1058
29.0872
29.1068
29.1743
29.2629
29.357
29.4272
29.4766
29.4717
29.4254
29.3266
29.2145
29.1008
29.0023
28.9273
28.8818
28.8644
28.8762
28.9191
28.9736
29.0454
29.1367
29.268
29.372
28.6271
28.7029
28.8413
28.9672
29.0789
29.1481
29.1148
29.0845
29.0957
29.1506
29.2298
29.3152
29.3779
29.4198
29.4053
29.3522
29.2496
29.1377
29.0277
28.9344
28.8655
28.8265
28.8168
28.841
28.8978
28.9655
29.0446
29.1384
29.2691
29.3773
28.5741
28.6514
28.7901
28.9229
29.0438
29.1337
29.1232
29.0819
29.0864
29.1286
29.1977
29.2735
29.3279
29.3612
29.3363
29.2757
29.1686
29.0559
28.9482
28.8595
28.796
28.7631
28.7612
28.7983
28.8697
28.9521
29.0405
29.1393
29.2701
29.3831
28.5204
28.5997
28.7377
28.8758
29.0047
29.1074
29.127
29.0797
29.0769
29.1081
29.1667
29.2324
29.2778
29.3017
29.266
29.1971
29.0847
28.9702
28.8627
28.7779
28.7186
28.6911
28.6973
28.7473
28.8338
28.9324
29.032
29.1385
29.2706
29.3887
28.4648
28.5474
28.6843
28.8263
28.9619
29.0731
29.1192
29.0748
29.066
29.0889
29.1373
29.1927
29.2286
29.2422
29.1955
29.1177
28.9992
28.8801
28.7723
28.6897
28.6335
28.6104
28.6243
28.6866
28.7883
28.9042
29.0173
29.1335
29.2697
29.3934
28.4057
28.4933
28.6294
28.7743
28.9156
29.0345
29.1017
29.0664
29.0539
29.0709
29.11
29.1555
29.1816
29.1842
29.1264
29.0391
28.9125
28.7878
28.6779
28.5951
28.5409
28.5209
28.5414
28.6148
28.7312
28.8643
28.9938
29.1225
29.2648
29.3963
28.3407
28.4348
28.5713
28.7196
28.8659
28.9933
29.0747
29.0565
29.041
29.0545
29.0855
29.1214
29.1379
29.1284
29.0597
28.9624
28.8265
28.6955
28.5792
28.4946
28.441
28.4227
28.4474
28.5294
28.6599
28.8074
28.9576
29.1025
29.2537
29.3966
28.2669
28.367
28.5074
28.6605
28.8124
28.9481
29.0384
29.0426
29.0272
29.0405
29.0651
29.0914
29.0976
29.076
28.9964
28.8886
28.7433
28.6031
28.4778
28.3889
28.3334
28.3143
28.3399
28.4283
28.5716
28.7341
28.9032
29.0687
29.2326
29.3892
28.1814
28.2866
28.4324
28.5938
28.7533
28.899
28.9961
29.019
29.0119
29.0295
29.0508
29.0693
29.0638
29.0302
28.9396
28.8206
28.6646
28.5134
28.3764
28.2792
28.218
28.1956
28.2193
28.3105
28.4635
28.6406
28.8261
29.0148
29.1971
29.3707
28.0693
28.1846
28.338
28.5108
28.6884
28.8466
28.95
28.9879
28.9955
29.023
29.0449
29.0585
29.0431
28.9979
28.8963
28.7654
28.5975
28.4335
28.2803
28.1691
28.0983
28.0691
28.0864
28.1755
28.3338
28.5235
28.7258
28.932
29.1382
29.3336
27.9265
28.0575
28.2314
28.4258
28.6213
28.7909
28.9014
28.9544
28.9822
29.0219
29.0523
29.0627
29.0415
28.9861
28.874
28.7308
28.5497
28.3705
28.1965
28.065
27.9807
27.9411
27.9476
28.0279
28.1851
28.383
28.6008
28.8263
29.0526
29.2753
27.7217
27.8893
28.0994
28.3243
28.5396
28.7269
28.8499
28.9244
28.9776
29.0396
29.0787
29.0878
29.0626
29.0013
28.8803
28.7253
28.5301
28.3338
28.1359
27.9794
27.8744
27.8188
27.8094
27.8724
28.0198
28.2161
28.4416
28.6843
28.9319
29.1811
27.5289
27.7423
27.9817
28.2291
28.4648
28.669
28.8055
28.9064
28.996
29.0819
29.1306
29.1412
29.1141
29.0489
28.9211
28.7562
28.5483
28.3301
28.1146
27.9334
27.8031
27.7277
27.7009
27.7411
27.8692
28.0565
28.2847
28.5415
28.8099
29.0915
27.1145
27.4209
27.7386
28.0515
28.3374
28.5791
28.7538
28.897
29.035
29.1423
29.1998
29.2134
29.1839
29.1138
28.9777
28.801
28.5778
28.3326
28.0943
27.8838
27.7186
27.6058
27.5474
27.5537
27.6479
27.8078
28.0202
28.2732
28.5468
28.8542
27.0992
27.4391
27.7708
28.0814
28.3594
28.5951
28.7942
28.9888
29.1645
29.281
29.3411
29.3584
29.3288
29.2566
29.117
28.9381
28.7137
28.4662
28.2222
28.0075
27.8396
27.7225
27.6571
27.6494
27.7279
27.8743
28.0805
28.3333
28.6088
28.9272
25.8122
26.3096
26.8165
27.2745
27.6729
28.0108
28.3065
28.6103
28.8576
29.0012
29.0709
29.0853
29.052
28.971
28.8156
28.6129
28.358
28.0693
27.7728
27.4955
27.2571
27.0651
26.9228
26.8399
26.8468
26.9162
27.0478
27.2298
27.4579
27.7708
28.653
28.7033
28.728
28.729
28.735
28.7546
28.7973
28.8632
28.9476
29.0474
29.1507
29.2566
29.3435
29.4087
29.4268
29.3979
29.304
29.1855
29.065
28.97
28.9066
28.8696
28.8486
28.8081
28.7763
28.8026
28.927
29.1142
29.3286
29.597
28.6552
28.6978
28.722
28.7276
28.7429
28.7707
28.8203
28.8908
28.9776
29.0776
29.1795
29.2826
29.3659
29.4277
29.4432
29.4143
29.3227
29.2067
29.0873
28.9924
28.9274
28.8875
28.8648
28.8229
28.7836
28.8074
28.9213
29.0977
29.2839
29.438
28.6746
28.6945
28.7164
28.7201
28.7371
28.7661
28.8175
28.8899
28.9794
29.0831
29.1876
29.2928
29.3744
29.4338
29.4469
29.416
29.3221
29.2051
29.0847
28.99
28.925
28.8858
28.8635
28.8276
28.7898
28.8127
28.9179
29.0756
29.278
29.3821
28.7009
28.6935
28.715
28.7147
28.7291
28.7577
28.8102
28.8843
28.9755
29.0806
29.1858
29.2919
29.3737
29.4332
29.4444
29.4116
29.3173
29.2001
29.0796
28.9859
28.9217
28.8835
28.8617
28.8316
28.7969
28.8193
28.9175
29.052
29.2553
29.3421
28.7373
28.7061
28.7217
28.715
28.7245
28.7488
28.8003
28.8747
28.9667
29.0727
29.1783
29.2852
29.3667
29.4241
29.4323
29.3974
29.3017
29.1869
29.0679
28.976
28.9135
28.8772
28.8566
28.8307
28.8029
28.826
28.9182
29.0371
29.2335
29.3327
28.7682
28.7381
28.7387
28.7205
28.7244
28.7427
28.7904
28.8636
28.9553
29.0614
29.1668
29.2742
29.3531
29.4083
29.4128
29.375
29.2773
29.1656
29.05
28.961
28.901
28.867
28.8488
28.8282
28.8073
28.8323
28.9199
29.0274
29.2128
29.3214
28.7526
28.7756
28.7726
28.7368
28.7308
28.7407
28.7826
28.8528
28.943
29.0483
29.1526
29.2592
29.3345
29.3871
29.387
29.3462
29.2463
29.1374
29.0255
28.9404
28.8838
28.8528
28.8381
28.8241
28.8099
28.8381
28.9223
29.0211
29.1955
29.3032
28.7207
28.7823
28.8178
28.7692
28.7467
28.7448
28.7783
28.8435
28.9308
29.0343
29.1367
29.2409
29.3122
29.3614
29.3559
29.3116
29.2097
29.1031
28.9955
28.9149
28.8621
28.8351
28.8246
28.8181
28.8114
28.8429
28.9254
29.0185
29.1827
29.2845
28.6849
28.7664
28.8519
28.8119
28.7739
28.7573
28.7776
28.8368
28.9199
29.0203
29.1199
29.2203
29.2871
29.3321
29.3204
29.272
29.1679
29.0633
28.9604
28.8846
28.8361
28.8135
28.8081
28.8099
28.812
28.8471
28.9289
29.0189
29.1728
29.2688
28.6444
28.7412
28.8578
28.8547
28.811
28.7787
28.7837
28.8329
28.9109
29.0072
29.1029
29.1982
29.26
29.3
29.2811
29.2281
29.1213
29.0185
28.9206
28.8495
28.8055
28.7879
28.7883
28.7992
28.8121
28.8506
28.9326
29.0205
29.1664
29.2582
28.6015
28.705
28.8428
28.8866
28.8527
28.8082
28.7976
28.8321
28.9042
28.9955
29.0861
29.1755
29.2312
29.2656
29.2389
29.1806
29.0707
28.9692
28.8759
28.8096
28.7703
28.758
28.7657
28.7863
28.8104
28.8535
28.9366
29.0235
29.1635
29.2524
28.5604
28.6639
28.8161
28.8954
28.8914
28.8417
28.8181
28.8366
28.9002
28.9855
29.07
29.1529
29.2016
29.2295
29.1944
29.1301
29.0168
28.9162
28.8267
28.7652
28.7307
28.7239
28.74
28.7712
28.8064
28.8556
28.9407
29.0274
29.1635
29.2519
28.5202
28.622
28.7796
28.8824
28.9205
28.8758
28.8434
28.8469
28.8984
28.9777
29.0552
29.1307
29.1716
29.1924
29.1482
29.0774
28.96
28.8597
28.7731
28.7163
28.6864
28.6856
28.7111
28.7536
28.8
28.8569
28.9446
29.032
29.1646
29.2541
28.4814
28.5795
28.7398
28.8588
28.9331
28.9069
28.8695
28.8615
28.8991
28.9719
29.0422
29.1092
29.142
29.1547
29.101
29.0231
28.901
28.7999
28.7157
28.663
28.6375
28.6435
28.6787
28.7329
28.7912
28.8575
28.9483
29.0373
29.1668
29.2589
28.4445
28.5371
28.6987
28.8272
28.9258
28.9315
28.8943
28.8797
28.9046
28.9683
29.0311
29.0891
29.1132
29.1172
29.0535
28.968
28.8405
28.7377
28.6552
28.6057
28.5844
28.5972
28.6425
28.7088
28.7796
28.8568
28.9516
29.0431
29.17
29.2657
28.4083
28.496
28.6562
28.7912
28.9064
28.9465
28.917
28.8986
28.913
28.9666
29.022
29.0708
29.0861
29.0802
29.0064
28.9128
28.7793
28.6741
28.5916
28.5454
28.5273
28.5467
28.6023
28.681
28.7647
28.8537
28.9542
29.0491
29.1739
29.2741
28.3728
28.4561
28.6137
28.7539
28.8791
28.9497
28.9361
28.9169
28.9235
28.9669
29.0151
29.0549
29.0609
29.0446
28.9606
28.8588
28.7185
28.6104
28.525
28.4821
28.4664
28.4921
28.5579
28.6488
28.7461
28.8479
28.956
29.0551
29.1784
29.2834
28.3374
28.4177
28.5716
28.7146
28.8464
28.941
28.951
28.9342
28.9366
28.9719
29.0109
29.0418
29.0381
29.0114
28.9173
28.8068
28.6595
28.545
28.4585
28.4162
28.4022
28.4333
28.509
28.6117
28.7231
28.8389
28.9566
29.0607
29.1833
29.2935
28.3016
28.3801
28.5307
28.675
28.8113
28.9233
28.9606
28.9501
28.9516
28.9807
29.0094
29.0323
29.0184
28.9816
28.8774
28.758
28.6015
28.4803
28.3939
28.3488
28.3352
28.3706
28.4551
28.5689
28.6951
28.8261
28.9554
29.0656
29.1883
29.304
28.2648
28.3431
28.4905
28.6359
28.7766
28.8979
28.9627
28.9645
28.968
28.9918
29.0128
29.0267
29.0032
28.9564
28.8423
28.7133
28.5469
28.4227
28.3294
28.2802
28.266
28.3039
28.3962
28.5211
28.6634
28.8106
28.9516
29.0692
29.193
29.3145
28.2255
28.3064
28.451
28.5977
28.7422
28.8694
28.9569
28.9786
28.9862
29.0063
29.0206
29.026
28.9935
28.9371
28.8133
28.6748
28.5015
28.3695
28.2653
28.211
28.1956
28.2349
28.335
28.4707
28.63
28.7924
28.9431
29.0708
29.197
29.3246
28.1822
28.2686
28.4119
28.5612
28.7094
28.8419
28.9482
28.9925
29.0081
29.026
29.0338
29.0314
28.993
28.9257
28.7928
28.645
28.4636
28.3201
28.2052
28.1446
28.1279
28.1684
28.2732
28.4167
28.5905
28.7655
28.9259
29.0681
29.1995
29.3334
28.1319
28.2282
28.373
28.5266
28.6797
28.818
28.9386
29.0083
29.0358
29.0522
29.0547
29.0459
29.0006
28.927
28.7838
28.6268
28.4351
28.2805
28.1549
28.0876
28.0685
28.1064
28.2103
28.3559
28.5344
28.7208
28.8955
29.0564
29.1986
29.3399
28.07
28.1826
28.3338
28.4947
28.6539
28.7993
28.9313
29.0316
29.071
29.0872
29.0863
29.0733
29.0228
28.942
28.7913
28.6249
28.4244
28.2585
28.1209
28.0421
28.0152
28.0443
28.1409
28.2825
28.4622
28.6564
28.8484
29.0303
29.1869
29.3418
27.9863
28.1269
28.2904
28.4646
28.634
28.7895
28.9393
29.0688
29.1177
29.1365
29.133
29.1163
29.0628
28.9773
28.8201
28.6456
28.4342
28.2528
28.1012
28.0032
27.9609
27.9778
28.0647
28.2005
28.3797
28.5808
28.7904
28.9919
29.1631
29.335
27.8768
28.0565
28.244
28.4382
28.6227
28.7993
28.9844
29.1262
29.1841
29.2081
29.2033
29.1817
29.1236
29.0316
28.8669
28.6835
28.4608
28.265
28.0905
27.9742
27.914
27.9206
27.9952
28.1207
28.2944
28.4964
28.7115
28.9261
29.1174
29.3129
27.7768
27.9971
28.2086
28.4268
28.6414
28.8552
29.0589
29.2081
29.2739
29.3033
29.2984
29.2728
29.2091
29.11
28.9381
28.7458
28.5134
28.3042
28.107
27.9681
27.8937
27.8902
27.9496
28.0586
28.2218
28.4204
28.6365
28.8617
29.0763
29.2981
27.6612
27.9266
28.1702
28.4203
28.6865
28.9338
29.1569
29.3172
29.3876
29.4249
29.4245
29.3992
29.3335
29.2343
29.0599
28.863
28.6248
28.4044
28.1908
28.0319
27.9364
27.9195
27.9621
28.0538
28.1888
28.3638
28.5673
28.7906
29.011
29.2489
27.766
28.075
28.3504
28.6266
28.9068
29.1685
29.4049
29.5674
29.6408
29.6875
29.6961
29.6755
29.6107
29.5131
29.3387
29.142
28.9014
28.6732
28.4448
28.2696
28.1572
28.1233
28.1505
28.2274
28.3472
28.5065
28.6958
28.9163
29.1421
29.3922
28.4983
28.7631
28.9987
29.2428
29.487
29.7176
29.9247
30.0733
30.1456
30.1932
30.2032
30.1818
30.1174
30.0231
29.8508
29.6625
29.434
29.2221
29.0098
28.8473
28.7458
28.7242
28.7648
28.858
28.9936
29.1619
29.3563
29.5798
29.8069
30.0597
28.5804
28.6193
28.667
28.6602
28.6528
28.6469
28.6575
28.6936
28.7522
28.8345
28.926
29.0279
29.1124
29.1832
29.2006
29.1725
29.071
28.9652
28.8717
28.8184
28.7989
28.8001
28.8019
28.7422
28.702
28.7397
28.8132
28.9485
29.1687
29.5142
28.5763
28.6152
28.6621
28.66
28.6582
28.6585
28.6763
28.718
28.7804
28.8648
28.9564
29.0567
29.1385
29.2072
29.2234
29.197
29.0977
28.9936
28.8993
28.8424
28.8168
28.8131
28.8191
28.7626
28.7088
28.7393
28.8122
28.9294
29.1091
29.3722
28.5701
28.6149
28.6583
28.658
28.6591
28.6632
28.6858
28.731
28.7962
28.8829
28.9743
29.0736
29.1531
29.2199
29.2329
29.2055
29.105
29.0004
28.903
28.8458
28.8207
28.8165
28.8242
28.7754
28.7166
28.7401
28.8136
28.9276
29.0989
29.2912
28.5644
28.6144
28.6532
28.6532
28.6562
28.6616
28.6852
28.7325
28.8005
28.8901
28.9832
29.0848
29.1624
29.2282
29.2389
29.2109
29.1072
29.0023
28.9026
28.8451
28.8201
28.816
28.8234
28.7863
28.7278
28.7425
28.8145
28.9195
29.0788
29.2333
28.5651
28.6165
28.65
28.6492
28.6524
28.6577
28.6814
28.7291
28.7976
28.8878
28.9812
29.0834
29.1609
29.2276
29.2361
29.2068
29.1013
28.9964
28.8964
28.8397
28.8147
28.8105
28.8195
28.7896
28.7394
28.747
28.8167
28.9154
29.0672
29.1995
28.5681
28.6154
28.6487
28.6471
28.649
28.6535
28.6762
28.7236
28.7919
28.8825
28.9756
29.0784
29.1553
29.2215
29.2262
29.196
29.089
28.9844
28.8853
28.8292
28.8042
28.8008
28.8116
28.7887
28.7495
28.7536
28.8201
28.9131
29.0587
29.1738
28.5549
28.6107
28.6475
28.6469
28.6472
28.65
28.6709
28.7173
28.7849
28.8752
28.9676
29.0704
29.1455
29.2106
29.2106
29.1793
29.0704
28.966
28.8683
28.8135
28.7889
28.7873
28.8008
28.7857
28.7572
28.7617
28.8246
28.9118
29.0538
29.1516
28.5304
28.5948
28.6439
28.6486
28.6472
28.6474
28.6664
28.7113
28.7775
28.867
28.958
29.0605
29.1321
29.1956
29.19
29.1573
29.0456
28.9422
28.846
28.7929
28.7692
28.7703
28.7872
28.781
28.7625
28.77
28.8305
28.9122
29.0541
29.1323
28.4967
28.5708
28.6355
28.6502
28.6491
28.6461
28.663
28.7061
28.7704
28.8585
28.9475
29.0491
29.1161
29.1774
29.1654
29.1308
29.0156
28.9137
28.8189
28.7675
28.7452
28.7496
28.7707
28.7736
28.7653
28.7777
28.8371
28.9145
29.055
29.1198
28.456
28.541
28.6207
28.6488
28.6525
28.6479
28.661
28.7023
28.7643
28.8505
28.9369
29.0365
29.0983
29.1567
29.1376
29.1006
28.9816
28.8811
28.7874
28.7379
28.7171
28.7253
28.7512
28.7636
28.766
28.785
28.8439
28.9188
29.056
29.1206
28.4188
28.5102
28.6015
28.6452
28.6569
28.652
28.6606
28.7
28.7595
28.8435
28.9265
29.0232
29.0793
29.1341
29.1073
29.0676
28.9442
28.8446
28.7517
28.704
28.6849
28.6974
28.7289
28.7507
28.7661
28.7919
28.8509
28.9245
29.0579
29.125
28.388
28.4805
28.5815
28.6385
28.6624
28.6587
28.6627
28.6992
28.7564
28.8377
28.9169
29.0099
29.0594
29.1103
29.0751
29.0325
28.904
28.8048
28.7122
28.6661
28.6488
28.6659
28.7038
28.7354
28.7646
28.798
28.858
28.9313
29.0608
29.1306
28.3607
28.4484
28.5641
28.6295
28.6682
28.6672
28.6697
28.7012
28.7549
28.8335
28.9083
28.9972
29.0394
29.0859
29.0416
28.9959
28.8618
28.7623
28.6691
28.6245
28.6088
28.6307
28.6759
28.7181
28.7616
28.8032
28.865
28.9391
29.0647
29.138
28.3365
28.4176
28.5458
28.6194
28.6692
28.6769
28.6791
28.706
28.7554
28.8309
28.9011
28.9853
29.0198
29.0614
29.0075
28.9584
28.818
28.7176
28.6229
28.5794
28.5651
28.5919
28.645
28.6989
28.7572
28.8074
28.8718
28.9478
29.0698
29.1478
28.3142
28.3905
28.5225
28.6088
28.667
28.6857
28.6909
28.7141
28.7591
28.8299
28.8953
28.9748
29.001
29.0374
28.9733
28.9206
28.7733
28.6712
28.5741
28.5312
28.5178
28.5494
28.6111
28.6777
28.751
28.8101
28.8782
28.9573
29.0764
29.1593
28.2932
28.3655
28.4979
28.5952
28.663
28.6938
28.7029
28.7251
28.7655
28.831
28.8913
28.966
28.9837
29.0143
28.9398
28.8832
28.7286
28.6237
28.5231
28.4802
28.4669
28.5032
28.5744
28.6548
28.7423
28.8113
28.884
28.9673
29.0842
29.1721
28.2739
28.3431
28.476
28.5796
28.6571
28.6997
28.7143
28.7373
28.7743
28.8357
28.889
28.9593
28.9683
28.9929
28.9076
28.8472
28.6845
28.576
28.4708
28.4264
28.4127
28.4531
28.5345
28.6302
28.7305
28.8109
28.889
28.9776
29.0929
29.1862
28.2558
28.323
28.4549
28.5629
28.6504
28.7022
28.7245
28.7501
28.7851
28.8438
28.8887
28.9549
28.9555
28.9738
28.8777
28.8133
28.642
28.5286
28.4183
28.3707
28.3547
28.3994
28.4915
28.603
28.7145
28.8068
28.893
28.988
29.1025
29.2018
28.2375
28.3044
28.4355
28.5454
28.6404
28.7018
28.7341
28.7624
28.7977
28.8552
28.8937
28.9533
28.9459
28.9579
28.851
28.7827
28.6021
28.484
28.3658
28.3126
28.294
28.3431
28.4455
28.5704
28.6934
28.7986
28.8957
28.9982
29.113
29.2187
28.2183
28.2877
28.4179
28.53
28.6284
28.699
28.7425
28.7744
28.8126
28.8693
28.9038
28.9566
28.9409
28.9465
28.8291
28.7571
28.5679
28.4429
28.314
28.2514
28.2326
28.2866
28.3954
28.5298
28.6665
28.7859
28.8968
29.0079
29.1243
29.2367
28.1966
28.2724
28.4019
28.517
28.6179
28.6952
28.748
28.7872
28.8303
28.887
28.9183
28.9651
28.942
28.9414
28.814
28.7387
28.5402
28.4054
28.2614
28.1922
28.1736
28.2287
28.3398
28.4824
28.6325
28.7689
28.8961
29.0164
29.1363
29.2559
28.1712
28.2578
28.388
28.5062
28.6099
28.6921
28.7515
28.8032
28.8519
28.9101
28.939
28.9806
28.9515
28.9451
28.8085
28.7302
28.521
28.3751
28.2162
28.1409
28.1169
28.1689
28.2809
28.4289
28.592
28.748
28.8913
29.023
29.1484
29.2758
28.1398
28.243
28.3764
28.4986
28.6048
28.6893
28.7601
28.8246
28.8798
28.9411
28.9686
29.0062
28.9722
28.9607
28.8163
28.7357
28.5143
28.3605
28.186
28.0957
28.0622
28.1094
28.22
28.372
28.5461
28.7208
28.8817
29.0271
29.1601
29.2961
28.0972
28.2223
28.3625
28.4912
28.6018
28.6948
28.7814
28.8542
28.9169
28.9829
29.0105
29.0446
29.0076
28.992
28.8413
28.7581
28.5244
28.3547
28.1671
28.0597
28.0158
28.0576
28.1639
28.3163
28.4981
28.6861
28.8653
29.0289
29.1709
29.316
28.0515
28.2005
28.3489
28.4862
28.6083
28.7222
28.8163
28.8961
28.9673
29.0392
29.0679
29.0986
29.0586
29.0388
28.8825
28.7972
28.5509
28.3658
28.1592
28.0396
27.9809
28.015
28.1137
28.262
28.448
28.647
28.8398
29.0233
29.1809
29.3378
28.0034
28.1801
28.3417
28.4972
28.6418
28.7689
28.8687
28.9552
29.0346
29.1114
29.1422
29.1697
29.1279
29.1037
28.9432
28.8572
28.6016
28.4106
28.1899
28.0492
27.9751
27.9969
28.0827
28.2232
28.407
28.6105
28.8142
29.0141
29.1883
29.3595
27.9648
28.1689
28.3478
28.5288
28.6934
28.8327
28.9403
29.0332
29.1184
29.2
29.2339
29.2603
29.2181
29.1924
29.0312
28.9497
28.6909
28.4913
28.2538
28.0927
27.998
28.0074
28.0872
28.2218
28.4003
28.6046
28.8142
29.0191
29.2024
29.3858
27.9377
28.1656
28.3697
28.5758
28.7585
28.9113
29.0296
29.1304
29.2219
29.3091
29.3476
29.3751
29.3345
29.3113
29.1504
29.0758
28.8115
28.6048
28.3534
28.1737
28.0568
28.0526
28.1156
28.2411
28.4139
28.6149
28.8235
29.0308
29.2197
29.4111
27.9982
28.2452
28.458
28.6654
28.8512
29.0137
29.1446
29.2528
29.3499
29.4412
29.4854
29.5157
29.4775
29.4568
29.2992
29.2385
28.9805
28.7824
28.5308
28.3435
28.2107
28.1906
28.2404
28.3458
28.501
28.6888
28.8891
29.0937
29.285
29.4823
28.1364
28.3744
28.5855
28.7914
28.9808
29.1524
29.2974
29.4184
29.5186
29.6083
29.6528
29.6822
29.644
29.629
29.4789
29.445
29.2008
29.0157
28.7688
28.5801
28.4356
28.3957
28.4275
28.5145
28.6511
28.8256
29.0193
29.2234
29.4196
29.6193
28.6179
28.5128
28.5399
28.5074
28.4779
28.4585
28.4519
28.4699
28.5124
28.5847
28.6678
28.7681
28.8442
28.9102
28.9074
28.8582
28.7312
28.6435
28.5952
28.6092
28.6511
28.7121
28.7906
28.7965
28.7402
28.7472
28.8333
28.9576
29.155
29.5018
28.5806
28.4788
28.5185
28.4939
28.4771
28.4621
28.4627
28.4873
28.5349
28.6107
28.6952
28.7951
28.8694
28.9344
28.9308
28.8839
28.7575
28.6682
28.6147
28.6202
28.658
28.7183
28.7956
28.8079
28.7537
28.7492
28.8291
28.9364
29.0914
29.3774
28.5432
28.4619
28.5032
28.4827
28.4731
28.463
28.47
28.5003
28.5523
28.6305
28.7156
28.8147
28.8859
28.9479
28.9398
28.89
28.7574
28.6669
28.613
28.6178
28.6596
28.7207
28.7966
28.8066
28.7551
28.7479
28.8229
28.9324
29.077
29.2923
28.4943
28.4442
28.4831
28.4681
28.4651
28.4606
28.4716
28.5075
28.5637
28.6461
28.7323
28.8311
28.8993
28.9594
28.9464
28.8931
28.7545
28.662
28.6055
28.6069
28.6492
28.7163
28.7887
28.8057
28.756
28.7472
28.8118
28.9152
29.0534
29.2243
28.448
28.4306
28.4643
28.455
28.4564
28.4562
28.47
28.5078
28.5672
28.6529
28.7406
28.8421
28.9064
28.9642
28.9447
28.8868
28.7425
28.6481
28.5895
28.589
28.6321
28.7039
28.7754
28.8023
28.7566
28.7473
28.8047
28.9
29.0355
29.1724
28.4089
28.4199
28.448
28.4443
28.4484
28.4511
28.4673
28.5065
28.5669
28.6549
28.7432
28.8469
28.9066
28.964
28.9368
28.8739
28.7223
28.6262
28.5663
28.5652
28.6097
28.6853
28.7587
28.794
28.7577
28.7466
28.7995
28.8866
29.0189
29.1335
28.3796
28.4086
28.435
28.437
28.4422
28.4467
28.4643
28.5047
28.5658
28.6547
28.7429
28.8481
28.9045
28.9606
28.9237
28.8551
28.6953
28.5976
28.5367
28.5361
28.5828
28.6628
28.739
28.7818
28.7572
28.7464
28.7966
28.8766
29.0035
29.1047
28.3583
28.3974
28.4246
28.4313
28.4376
28.443
28.4616
28.5029
28.5644
28.6541
28.7422
28.8478
28.9012
28.9544
28.9068
28.8313
28.6623
28.5631
28.5012
28.5021
28.5518
28.6365
28.7162
28.7669
28.7547
28.7469
28.7953
28.8702
28.9915
29.0822
28.3362
28.3829
28.4151
28.4274
28.4344
28.4402
28.4595
28.5016
28.5634
28.6538
28.7415
28.8475
28.8971
28.9463
28.887
28.8035
28.6241
28.5233
28.4605
28.4634
28.5166
28.6064
28.6907
28.7492
28.75
28.7471
28.7957
28.8672
28.9839
29.0644
28.312
28.3645
28.4037
28.4232
28.4321
28.4382
28.4581
28.501
28.5631
28.6546
28.7413
28.8474
28.893
28.9373
28.8649
28.7727
28.5817
28.4787
28.4148
28.4203
28.4774
28.5724
28.6624
28.7292
28.743
28.7468
28.7971
28.8673
28.9807
29.0505
28.2849
28.3426
28.39
28.4179
28.4306
28.4372
28.4577
28.5024
28.5654
28.6582
28.7432
28.8492
28.8893
28.9279
28.8414
28.7394
28.5356
28.4298
28.3645
28.3728
28.434
28.5348
28.6317
28.7076
28.7334
28.7458
28.7992
28.8689
28.981
29.0419
28.255
28.3174
28.3746
28.4117
28.4294
28.4376
28.4601
28.5072
28.5712
28.6656
28.7485
28.8538
28.8864
28.9189
28.8171
28.7043
28.4862
28.3768
28.3098
28.3208
28.3865
28.4939
28.5992
28.6845
28.7215
28.7441
28.8019
28.8717
28.9829
29.04
28.2258
28.2905
28.3599
28.4049
28.4295
28.4411
28.4658
28.5158
28.581
28.6773
28.758
28.8624
28.8847
28.9109
28.7926
28.6679
28.4342
28.3204
28.2512
28.2645
28.3347
28.4499
28.565
28.6595
28.7075
28.7418
28.805
28.8762
28.9858
29.0428
28.2009
28.2649
28.3458
28.3986
28.4314
28.4483
28.4751
28.5286
28.5953
28.6938
28.7719
28.8732
28.8846
28.9042
28.7684
28.6307
28.3799
28.2608
28.1888
28.2041
28.2787
28.4032
28.529
28.6326
28.6928
28.7397
28.8088
28.8823
28.9895
29.0498
28.1821
28.2411
28.3337
28.3938
28.4347
28.4582
28.4888
28.5459
28.6145
28.7145
28.7892
28.8864
28.8875
28.8992
28.7449
28.5929
28.3239
28.1988
28.123
28.1397
28.219
28.3538
28.4905
28.6037
28.677
28.7379
28.8134
28.8902
28.9946
29.0597
28.169
28.2205
28.3238
28.3886
28.4389
28.4701
28.5051
28.5658
28.6375
28.738
28.809
28.902
28.8934
28.8977
28.7226
28.5553
28.2669
28.1349
28.0543
28.0715
28.1563
28.3024
28.4489
28.5725
28.6607
28.7364
28.8188
28.8999
29.0016
29.072
28.1578
28.2049
28.3132
28.3835
28.4415
28.4829
28.5238
28.5884
28.663
28.7642
28.8318
28.9207
28.9026
28.899
28.7019
28.5185
28.2097
28.0702
27.9836
28.0006
28.0937
28.2478
28.4033
28.5385
28.6437
28.735
28.8252
28.9115
29.0107
29.0861
28.1472
28.1949
28.3024
28.38
28.4458
28.4959
28.5447
28.6141
28.6914
28.7935
28.8578
28.9428
28.9151
28.9027
28.6835
28.4834
28.1541
28.0062
27.9115
27.9311
28.0311
28.1886
28.3531
28.5019
28.6265
28.7339
28.8326
28.9251
29.022
29.1031
28.1377
28.189
28.295
28.376
28.451
28.5102
28.5672
28.6424
28.7228
28.8263
28.8875
28.9685
28.9315
28.9091
28.6684
28.4516
28.102
27.9451
27.8419
27.8699
27.9645
28.1249
28.2978
28.4632
28.608
28.7326
28.841
28.9409
29.0364
29.123
28.1304
28.1863
28.2917
28.3749
28.4557
28.5248
28.5914
28.6736
28.7575
28.8627
28.9212
28.9981
28.9523
28.9195
28.6578
28.4253
28.0563
27.8905
27.7873
27.8101
27.8937
28.0559
28.2391
28.4226
28.5886
28.731
28.8501
28.9587
29.0545
29.1454
28.1241
28.188
28.2946
28.3819
28.4648
28.5404
28.6189
28.7085
28.7965
28.9033
28.9593
29.0322
28.9782
28.9355
28.6542
28.4075
28.0208
27.8549
27.746
27.7432
27.822
27.9859
28.1788
28.3811
28.5672
28.7275
28.8594
28.9779
29.0759
29.1711
28.118
28.1965
28.3058
28.3938
28.4763
28.5603
28.6511
28.748
28.8405
28.9479
29.0027
29.0717
29.0104
28.9588
28.6586
28.4024
28.005
27.834
27.6959
27.6795
27.7564
27.921
28.1195
28.3375
28.5421
28.7215
28.8679
28.9979
29.1003
29.2015
28.1083
28.2026
28.3143
28.405
28.4929
28.5897
28.6892
28.7931
28.8905
28.9987
29.0522
29.1176
29.0496
28.9914
28.6739
28.4172
28.0015
27.8183
27.6516
27.6327
27.7029
27.8638
28.0656
28.2955
28.5154
28.712
28.8747
29.0177
29.1275
29.235
28.0962
28.2067
28.3208
28.4213
28.5223
28.6287
28.735
28.8455
28.9488
29.0592
29.1105
29.1707
29.0962
29.0349
28.7027
28.4511
28.0153
27.8172
27.6385
27.6096
27.6686
27.8221
28.0264
28.2614
28.4912
28.7017
28.88
29.0354
29.157
29.2734
28.0851
28.2173
28.3398
28.456
28.5676
28.6787
28.7917
28.909
29.0181
29.1312
29.1815
29.2359
29.1558
29.0934
28.7485
28.5066
28.0565
27.8478
27.6417
27.6004
27.6456
27.7931
27.9961
28.2339
28.4722
28.6945
28.8855
29.0525
29.1876
29.3114
28.0735
28.2303
28.3692
28.5017
28.6241
28.7435
28.8629
28.986
29.0999
29.2161
29.2667
29.3173
29.2335
29.1713
28.8165
28.5902
28.1186
27.8987
27.669
27.6097
27.6461
27.7843
27.9796
28.2143
28.4558
28.6875
28.8902
29.0677
29.2175
29.3475
28.0656
28.2494
28.4066
28.5565
28.6932
28.8237
28.9497
29.0781
29.196
29.3145
29.3666
29.4151
29.3294
29.2699
28.9071
28.6979
28.2067
27.9881
27.7407
27.6636
27.6837
27.8067
27.9932
28.221
28.4587
28.6907
28.8988
29.0853
29.2479
29.3857
28.0738
28.2816
28.4554
28.6215
28.7733
28.9184
29.0521
29.1856
29.3067
29.4264
29.4807
29.5289
29.4409
29.3881
29.0181
28.841
28.3417
28.1252
27.8601
27.7647
27.7664
27.8652
28.0312
28.2489
28.4799
28.7101
28.9211
29.114
29.2852
29.4325
28.1203
28.3356
28.5189
28.6979
28.8655
29.0235
29.1644
29.3026
29.4255
29.5449
29.601
29.6507
29.5617
29.5171
29.1468
29.0152
28.5094
28.3019
28.0246
27.9146
27.8934
27.9686
28.1059
28.2994
28.5183
28.7426
28.9539
29.1518
29.3317
29.4939
28.192
28.4027
28.5914
28.7783
28.956
29.1259
29.2803
29.4235
29.5456
29.6612
29.7165
29.767
29.6723
29.6384
29.2782
29.2089
28.7096
28.5186
28.2354
28.1158
28.0703
28.1227
28.2303
28.3958
28.5915
28.8013
29.008
29.208
29.3939
29.5676
28.8295
28.5155
28.5083
28.4341
28.3827
28.3483
28.3321
28.3335
28.3572
28.4192
28.4938
28.6008
28.6852
28.7807
28.7952
28.7575
28.6176
28.5541
28.5295
28.5657
28.6221
28.7134
28.8447
28.9395
28.919
28.8991
28.9338
28.9786
29.071
29.2582
28.7455
28.4305
28.4633
28.407
28.3758
28.3506
28.3399
28.3481
28.3777
28.4443
28.5214
28.6295
28.7139
28.8102
28.8249
28.7916
28.6494
28.5813
28.5472
28.5723
28.6268
28.7182
28.8494
28.9451
28.928
28.9008
28.9316
28.9628
29.0329
29.1867
28.6554
28.3878
28.4297
28.3853
28.3671
28.3511
28.3448
28.3598
28.3951
28.4656
28.5442
28.653
28.7353
28.8311
28.8412
28.8087
28.6628
28.5929
28.5537
28.5768
28.631
28.7219
28.8507
28.9369
28.919
28.8939
28.929
28.9612
29.0239
29.1424
28.5454
28.3375
28.3877
28.3584
28.3534
28.3451
28.3453
28.3684
28.4093
28.4837
28.5637
28.6739
28.7545
28.852
28.8574
28.8268
28.674
28.5984
28.5514
28.5732
28.6302
28.7213
28.842
28.9238
28.9075
28.8833