/*--------------------------------*- C++ -*----------------------------------*\
  =========                 |
  \\      /  F ield         | OpenFOAM: The Open Source CFD Toolbox
   \\    /   O peration     | Website:  https://openfoam.org
    \\  /    A nd           | Version:  12
     \\/     M anipulation  |
\*---------------------------------------------------------------------------*/
FoamFile
{
    format      ascii;
    class       volScalarField;
    location    "1500/porous";
    object      T;
}
// * * * * * * * * * * * * * * * * * * * * * * * * * * * * * * * * * * * * * //

dimensions      [0 0 0 1 0 0 0];

internalField   nonuniform List<scalar> 
140000
(
400
400
400
400
400
400
400
400
400
399.993
399.69
399.451
399.238
399.036
398.843
398.656
398.472
398.292
398.114
397.938
397.765
397.593
397.422
397.253
397.086
396.92
396.756
396.593
396.431
396.272
396.114
395.957
395.802
395.649
395.497
395.347
395.199
395.052
394.906
394.762
394.619
394.477
394.336
394.196
394.058
393.921
393.786
393.651
393.519
393.388
393.258
393.131
393.005
392.881
392.761
392.642
392.527
392.416
392.311
392.237
392.679
392.961
393.178
393.358
393.513
393.65
393.773
393.884
393.985
394.073
400
400
400
400
400
400
400
400
400
399.995
399.764
399.575
399.405
399.243
399.087
398.935
398.785
398.638
398.492
398.348
398.205
398.063
397.922
397.782
397.643
397.504
397.366
397.229
397.093
396.957
396.822
396.688
396.554
396.421
396.289
396.157
396.026
395.896
395.766
395.637
395.509
395.381
395.253
395.126
395
394.874
394.75
394.626
394.503
394.381
394.26
394.141
394.022
393.906
393.791
393.678
393.567
393.46
393.356
393.272
393.536
393.709
393.845
393.96
394.062
394.153
394.236
394.313
394.385
394.449
400
400
400
400
400
400
400
400
400
399.996
399.783
399.614
399.462
399.32
399.184
399.053
398.924
398.799
398.675
398.553
398.433
398.313
398.195
398.078
397.962
397.846
397.731
397.617
397.503
397.39
397.278
397.166
397.054
396.943
396.833
396.723
396.613
396.504
396.394
396.286
396.177
396.069
395.96
395.852
395.745
395.638
395.531
395.424
395.319
395.214
395.11
395.006
394.904
394.802
394.702
394.604
394.507
394.412
394.322
394.243
394.453
394.585
394.685
394.767
394.839
394.902
394.958
395.01
395.057
395.1
400
400
400
400
400
400
400
400
400
399.996
399.789
399.624
399.478
399.342
399.213
399.089
398.969
398.852
398.738
398.626
398.515
398.407
398.299
398.193
398.088
397.984
397.881
397.779
397.678
397.577
397.477
397.378
397.28
397.182
397.084
396.987
396.891
396.795
396.7
396.604
396.509
396.415
396.32
396.226
396.132
396.039
395.945
395.853
395.761
395.67
395.579
395.489
395.4
395.312
395.226
395.141
395.057
394.976
394.897
394.829
395.025
395.149
395.242
395.318
395.382
395.439
395.49
395.535
395.576
395.614
400
400
400
400
400
400
400
400
400
399.996
399.79
399.627
399.482
399.348
399.221
399.1
398.982
398.868
398.757
398.648
398.542
398.437
398.334
398.232
398.132
398.033
397.935
397.838
397.742
397.647
397.552
397.459
397.366
397.275
397.183
397.093
397.003
396.914
396.825
396.737
396.649
396.562
396.474
396.387
396.301
396.215
396.13
396.045
395.96
395.877
395.794
395.712
395.632
395.552
395.474
395.397
395.322
395.248
395.178
395.118
395.311
395.434
395.527
395.603
395.669
395.726
395.777
395.823
395.865
395.903
400
400
400
400
400
400
400
400
400
399.996
399.789
399.626
399.482
399.349
399.222
399.101
398.984
398.871
398.761
398.653
398.547
398.444
398.342
398.242
398.143
398.046
397.95
397.855
397.761
397.668
397.576
397.485
397.395
397.306
397.217
397.13
397.043
396.956
396.871
396.786
396.701
396.617
396.533
396.45
396.367
396.284
396.202
396.121
396.041
395.961
395.883
395.805
395.728
395.653
395.579
395.507
395.436
395.368
395.302
395.246
395.438
395.561
395.655
395.732
395.799
395.858
395.91
395.958
396.001
396.04
400
400
400
400
400
400
400
400
400
399.996
399.79
399.626
399.482
399.349
399.222
399.101
398.984
398.87
398.76
398.653
398.547
398.444
398.342
398.243
398.144
398.047
397.952
397.857
397.764
397.672
397.581
397.491
397.402
397.314
397.226
397.14
397.054
396.969
396.885
396.801
396.718
396.635
396.552
396.47
396.389
396.308
396.228
396.148
396.07
395.992
395.915
395.839
395.765
395.691
395.62
395.55
395.481
395.415
395.352
395.298
395.49
395.613
395.708
395.786
395.853
395.912
395.966
396.014
396.059
396.099
400
400
400
400
400
400
400
400
400
399.996
399.789
399.626
399.482
399.348
399.221
399.099
398.982
398.869
398.758
398.65
398.545
398.441
398.34
398.24
398.142
398.045
397.949
397.855
397.762
397.67
397.579
397.489
397.401
397.313
397.226
397.14
397.054
396.97
396.886
396.803
396.72
396.638
396.556
396.474
396.394
396.313
396.234
396.155
396.077
396
395.924
395.849
395.775
395.703
395.632
395.563
395.496
395.431
395.369
395.317
395.508
395.632
395.727
395.805
395.873
395.933
395.986
396.035
396.08
396.121
400
400
400
400
400
400
400
400
400
399.996
399.789
399.625
399.481
399.347
399.22
399.098
398.981
398.867
398.756
398.648
398.542
398.439
398.337
398.237
398.139
398.042
397.946
397.852
397.759
397.667
397.576
397.486
397.397
397.31
397.223
397.137
397.052
396.967
396.884
396.8
396.718
396.636
396.554
396.473
396.392
396.312
396.233
396.154
396.077
396
395.924
395.849
395.776
395.704
395.634
395.565
395.499
395.435
395.373
395.321
395.513
395.636
395.731
395.81
395.878
395.938
395.992
396.041
396.086
396.127
400
400
400
400
400
400
400
400
400
399.996
399.789
399.625
399.481
399.347
399.219
399.098
398.98
398.866
398.755
398.646
398.54
398.436
398.334
398.234
398.136
398.038
397.943
397.848
397.755
397.663
397.572
397.482
397.394
397.306
397.219
397.133
397.048
396.964
396.88
396.797
396.714
396.632
396.55
396.469
396.388
396.308
396.229
396.151
396.073
395.996
395.921
395.846
395.773
395.701
395.631
395.563
395.497
395.433
395.372
395.321
395.512
395.636
395.731
395.809
395.877
395.937
395.991
396.041
396.086
396.127
400
400
400
400
400
400
400
400
400
399.996
399.788
399.625
399.481
399.346
399.219
399.097
398.979
398.865
398.754
398.645
398.539
398.435
398.332
398.232
398.133
398.036
397.94
397.846
397.752
397.66
397.569
397.479
397.39
397.303
397.216
397.13
397.045
396.96
396.877
396.794
396.711
396.629
396.547
396.465
396.385
396.305
396.225
396.147
396.069
395.992
395.917
395.842
395.769
395.697
395.627
395.559
395.493
395.43
395.369
395.318
395.509
395.633
395.728
395.807
395.875
395.935
395.989
396.038
396.084
396.125
400
400
400
400
400
400
400
400
400
399.996
399.788
399.625
399.48
399.346
399.219
399.097
398.979
398.864
398.753
398.644
398.537
398.433
398.331
398.23
398.131
398.034
397.938
397.843
397.75
397.658
397.567
397.477
397.388
397.3
397.213
397.127
397.042
396.958
396.874
396.791
396.708
396.625
396.544
396.462
396.381
396.301
396.222
396.143
396.066
395.989
395.913
395.838
395.765
395.694
395.624
395.556
395.49
395.426
395.366
395.315
395.506
395.63
395.725
395.804
395.872
395.932
395.986
396.035
396.081
396.122
400
400
400
400
400
400
400
400
400
399.996
399.789
399.625
399.48
399.346
399.219
399.097
398.978
398.864
398.752
398.643
398.537
398.432
398.33
398.229
398.13
398.032
397.936
397.842
397.748
397.656
397.565
397.475
397.386
397.298
397.211
397.125
397.04
396.955
396.872
396.788
396.705
396.623
396.541
396.459
396.379
396.298
396.219
396.14
396.063
395.986
395.91
395.835
395.762
395.691
395.621
395.553
395.487
395.423
395.363
395.312
395.504
395.627
395.722
395.801
395.869
395.929
395.984
396.033
396.078
396.119
400
400
400
400
400
400
400
400
400
399.996
399.788
399.625
399.481
399.346
399.219
399.097
398.978
398.864
398.752
398.643
398.536
398.431
398.329
398.228
398.129
398.031
397.935
397.84
397.747
397.655
397.563
397.473
397.385
397.297
397.21
397.124
397.038
396.954
396.87
396.787
396.704
396.621
396.539
396.457
396.376
396.296
396.217
396.138
396.06
395.983
395.908
395.833
395.76
395.688
395.618
395.55
395.484
395.421
395.361
395.31
395.501
395.625
395.72
395.799
395.867
395.927
395.982
396.031
396.076
396.118
400
400
400
400
400
400
400
400
400
399.996
399.789
399.625
399.48
399.347
399.219
399.097
398.979
398.864
398.752
398.643
398.536
398.431
398.328
398.227
398.128
398.031
397.935
397.84
397.746
397.654
397.563
397.473
397.384
397.296
397.209
397.123
397.038
396.953
396.869
396.786
396.702
396.62
396.538
396.456
396.375
396.295
396.215
396.136
396.058
395.982
395.906
395.831
395.758
395.686
395.616
395.549
395.483
395.42
395.36
395.309
395.5
395.624
395.719
395.798
395.866
395.926
395.98
396.03
396.075
396.116
400
400
400
400
400
400
400
400
400
399.996
399.789
399.625
399.481
399.347
399.22
399.097
398.979
398.864
398.752
398.643
398.536
398.431
398.328
398.227
398.128
398.03
397.934
397.839
397.746
397.653
397.562
397.472
397.383
397.295
397.208
397.122
397.037
396.952
396.868
396.785
396.702
396.619
396.537
396.455
396.374
396.294
396.214
396.135
396.057
395.98
395.904
395.83
395.757
395.685
395.615
395.547
395.482
395.419
395.359
395.308
395.499
395.623
395.718
395.797
395.865
395.925
395.979
396.029
396.074
396.115
400
400
400
400
400
400
400
400
400
399.996
399.788
399.625
399.481
399.347
399.22
399.098
398.979
398.864
398.752
398.643
398.536
398.431
398.328
398.227
398.128
398.03
397.934
397.839
397.746
397.653
397.562
397.472
397.383
397.295
397.208
397.122
397.037
396.952
396.868
396.784
396.701
396.618
396.536
396.454
396.373
396.293
396.213
396.134
396.056
395.98
395.904
395.829
395.756
395.684
395.615
395.547
395.481
395.418
395.358
395.308
395.499
395.623
395.718
395.796
395.864
395.925
395.979
396.028
396.074
396.115
400
400
400
400
400
400
400
400
400
399.996
399.789
399.626
399.481
399.347
399.22
399.098
398.98
398.865
398.753
398.643
398.536
398.431
398.328
398.227
398.128
398.03
397.934
397.839
397.746
397.653
397.562
397.472
397.384
397.296
397.208
397.122
397.036
396.952
396.868
396.784
396.701
396.618
396.536
396.454
396.373
396.292
396.213
396.134
396.056
395.979
395.903
395.829
395.755
395.684
395.614
395.546
395.481
395.418
395.358
395.308
395.499
395.622
395.717
395.796
395.864
395.925
395.979
396.028
396.074
396.115
400
400
400
400
400
400
400
400
400
399.996
399.789
399.626
399.482
399.348
399.221
399.099
398.98
398.865
398.753
398.643
398.536
398.431
398.328
398.227
398.128
398.03
397.934
397.839
397.746
397.653
397.562
397.473
397.384
397.296
397.208
397.122
397.036
396.951
396.867
396.784
396.7
396.618
396.535
396.454
396.372
396.292
396.212
396.134
396.056
395.979
395.903
395.828
395.755
395.684
395.614
395.546
395.481
395.418
395.358
395.308
395.499
395.622
395.717
395.796
395.864
395.925
395.979
396.028
396.074
396.115
400
400
400
400
400
400
400
400
400
399.996
399.789
399.626
399.482
399.348
399.221
399.099
398.981
398.866
398.753
398.644
398.536
398.431
398.328
398.227
398.128
398.03
397.934
397.839
397.746
397.653
397.562
397.473
397.384
397.295
397.208
397.121
397.035
396.951
396.867
396.783
396.7
396.617
396.535
396.453
396.372
396.292
396.212
396.133
396.055
395.978
395.902
395.828
395.755
395.683
395.614
395.546
395.48
395.418
395.358
395.308
395.499
395.622
395.717
395.796
395.864
395.924
395.979
396.028
396.074
396.115
400
400
400
400
400
400
400
400
400
399.996
399.789
399.626
399.482
399.349
399.222
399.099
398.981
398.866
398.754
398.644
398.537
398.432
398.328
398.227
398.128
398.03
397.934
397.839
397.746
397.653
397.562
397.472
397.383
397.295
397.207
397.121
397.035
396.95
396.866
396.782
396.699
396.616
396.534
396.453
396.372
396.291
396.212
396.133
396.055
395.978
395.902
395.827
395.754
395.683
395.613
395.546
395.48
395.417
395.358
395.308
395.499
395.622
395.717
395.796
395.864
395.924
395.979
396.028
396.073
396.115
400
400
400
400
400
400
400
400
400
399.996
399.789
399.626
399.482
399.349
399.222
399.1
398.982
398.866
398.754
398.644
398.537
398.432
398.329
398.227
398.128
398.03
397.934
397.839
397.745
397.653
397.562
397.472
397.383
397.294
397.207
397.12
397.034
396.949
396.865
396.781
396.698
396.616
396.534
396.452
396.371
396.291
396.211
396.132
396.054
395.977
395.902
395.827
395.754
395.682
395.613
395.545
395.48
395.417
395.357
395.307
395.498
395.622
395.717
395.796
395.864
395.924
395.978
396.028
396.073
396.114
400
400
400
400
400
400
400
400
400
399.996
399.789
399.626
399.483
399.349
399.222
399.1
398.982
398.867
398.754
398.645
398.537
398.432
398.329
398.227
398.128
398.03
397.933
397.839
397.745
397.653
397.562
397.472
397.382
397.294
397.206
397.119
397.033
396.948
396.864
396.781
396.698
396.615
396.533
396.452
396.371
396.29
396.211
396.132
396.054
395.977
395.901
395.827
395.754
395.682
395.613
395.545
395.48
395.417
395.357
395.307
395.498
395.622
395.717
395.795
395.863
395.924
395.978
396.027
396.073
396.114
400
400
400
400
400
400
400
400
400
399.996
399.789
399.627
399.483
399.349
399.223
399.101
398.982
398.867
398.755
398.645
398.537
398.432
398.329
398.227
398.128
398.03
397.933
397.838
397.745
397.653
397.562
397.471
397.382
397.293
397.206
397.119
397.033
396.948
396.864
396.78
396.697
396.615
396.533
396.451
396.37
396.29
396.211
396.132
396.054
395.977
395.901
395.827
395.754
395.682
395.613
395.545
395.48
395.417
395.357
395.307
395.498
395.621
395.716
395.795
395.863
395.924
395.978
396.027
396.073
396.114
400
400
400
400
400
400
400
400
400
399.996
399.789
399.627
399.483
399.349
399.223
399.101
398.982
398.867
398.755
398.645
398.538
398.432
398.329
398.227
398.128
398.03
397.933
397.838
397.745
397.653
397.561
397.471
397.382
397.293
397.205
397.119
397.033
396.948
396.863
396.78
396.697
396.615
396.533
396.451
396.37
396.29
396.211
396.132
396.054
395.977
395.901
395.827
395.754
395.682
395.613
395.545
395.48
395.417
395.357
395.307
395.498
395.621
395.716
395.795
395.863
395.924
395.978
396.027
396.073
396.114
400
400
400
400
400
400
400
400
400
399.996
399.79
399.627
399.483
399.35
399.223
399.101
398.983
398.868
398.755
398.645
398.538
398.432
398.329
398.228
398.128
398.03
397.933
397.838
397.745
397.652
397.561
397.471
397.382
397.293
397.205
397.119
397.033
396.948
396.863
396.78
396.697
396.615
396.533
396.452
396.371
396.291
396.211
396.132
396.055
395.978
395.902
395.827
395.754
395.682
395.613
395.545
395.48
395.417
395.357
395.306
395.497
395.621
395.716
395.795
395.863
395.923
395.978
396.027
396.073
396.114
400
400
400
400
400
400
400
400
400
399.996
399.79
399.627
399.483
399.35
399.223
399.101
398.983
398.868
398.756
398.646
398.538
398.433
398.329
398.228
398.128
398.03
397.933
397.838
397.745
397.652
397.561
397.471
397.382
397.293
397.206
397.119
397.033
396.948
396.864
396.78
396.697
396.615
396.533
396.452
396.371
396.291
396.212
396.133
396.055
395.978
395.902
395.828
395.754
395.683
395.613
395.545
395.48
395.417
395.357
395.306
395.498
395.621
395.716
395.795
395.863
395.924
395.978
396.027
396.073
396.114
400
400
400
400
400
400
400
400
400
399.996
399.79
399.627
399.484
399.35
399.223
399.102
398.983
398.868
398.756
398.646
398.538
398.433
398.329
398.228
398.128
398.03
397.933
397.838
397.745
397.653
397.561
397.471
397.382
397.293
397.206
397.119
397.033
396.948
396.864
396.781
396.698
396.616
396.534
396.453
396.372
396.292
396.212
396.134
396.056
395.979
395.903
395.828
395.755
395.683
395.614
395.546
395.48
395.417
395.357
395.306
395.498
395.621
395.716
395.795
395.863
395.924
395.978
396.027
396.073
396.114
400
400
400
400
400
400
400
400
400
399.996
399.79
399.627
399.484
399.35
399.224
399.102
398.984
398.868
398.756
398.646
398.539
398.433
398.33
398.228
398.128
398.03
397.934
397.839
397.745
397.653
397.562
397.472
397.382
397.294
397.207
397.12
397.034
396.949
396.865
396.782
396.699
396.617
396.535
396.454
396.373
396.293
396.213
396.135
396.057
395.98
395.904
395.829
395.756
395.684
395.614
395.546
395.481
395.417
395.357
395.306
395.498
395.622
395.717
395.795
395.864
395.924
395.978
396.028
396.073
396.114
400
400
400
400
400
400
400
400
400
399.996
399.79
399.627
399.484
399.351
399.224
399.102
398.984
398.869
398.756
398.646
398.539
398.433
398.33
398.228
398.129
398.03
397.934
397.839
397.745
397.653
397.562
397.472
397.383
397.295
397.207
397.121
397.035
396.95
396.866
396.783
396.7
396.618
396.536
396.455
396.374
396.294
396.215
396.136
396.058
395.981
395.905
395.83
395.757
395.685
395.615
395.547
395.481
395.418
395.357
395.307
395.498
395.622
395.717
395.796
395.864
395.924
395.979
396.028
396.073
396.115
400
400
400
400
400
400
400
400
400
399.996
399.79
399.627
399.484
399.351
399.224
399.102
398.984
398.869
398.757
398.647
398.539
398.434
398.33
398.229
398.129
398.031
397.934
397.839
397.746
397.653
397.563
397.473
397.384
397.296
397.208
397.122
397.036
396.951
396.868
396.784
396.701
396.619
396.537
396.456
396.375
396.295
396.216
396.137
396.059
395.982
395.906
395.831
395.758
395.686
395.615
395.547
395.481
395.418
395.357
395.306
395.498
395.622
395.717
395.796
395.864
395.924
395.979
396.028
396.074
396.115
400
400
400
400
400
400
400
400
400
399.996
399.79
399.627
399.484
399.351
399.224
399.102
398.984
398.869
398.757
398.647
398.54
398.434
398.331
398.229
398.13
398.032
397.935
397.84
397.746
397.654
397.563
397.474
397.385
397.297
397.209
397.123
397.037
396.953
396.869
396.785
396.702
396.62
396.538
396.457
396.376
396.296
396.217
396.138
396.06
395.983
395.907
395.832
395.758
395.686
395.616
395.547
395.481
395.418
395.357
395.306
395.498
395.622
395.717
395.796
395.864
395.924
395.979
396.028
396.074
396.115
400
400
400
400
400
400
400
400
400
399.996
399.79
399.628
399.484
399.351
399.224
399.103
398.985
398.87
398.757
398.648
398.54
398.435
398.332
398.23
398.13
398.032
397.936
397.841
397.747
397.655
397.564
397.475
397.386
397.298
397.211
397.124
397.039
396.954
396.87
396.786
396.703
396.621
396.539
396.458
396.377
396.297
396.218
396.139
396.061
395.984
395.908
395.833
395.759
395.687
395.616
395.548
395.481
395.417
395.357
395.306
395.498
395.622
395.717
395.796
395.864
395.924
395.979
396.028
396.074
396.115
400
400
400
400
400
400
400
400
400
399.996
399.79
399.627
399.484
399.351
399.225
399.103
398.985
398.87
398.758
398.648
398.541
398.436
398.333
398.231
398.131
398.033
397.937
397.842
397.748
397.656
397.566
397.476
397.387
397.299
397.212
397.126
397.04
396.955
396.871
396.787
396.704
396.622
396.54
396.459
396.378
396.298
396.219
396.14
396.062
395.985
395.909
395.834
395.76
395.687
395.616
395.548
395.481
395.418
395.357
395.305
395.497
395.621
395.717
395.796
395.864
395.924
395.979
396.028
396.074
396.115
400
400
400
400
400
400
400
400
400
399.996
399.79
399.628
399.484
399.351
399.225
399.103
398.985
398.871
398.759
398.649
398.542
398.437
398.334
398.232
398.133
398.035
397.938
397.843
397.75
397.658
397.567
397.477
397.389
397.301
397.214
397.127
397.042
396.957
396.872
396.789
396.706
396.623
396.541
396.46
396.379
396.299
396.22
396.141
396.063
395.986
395.91
395.835
395.761
395.688
395.617
395.548
395.481
395.418
395.357
395.305
395.497
395.622
395.717
395.796
395.864
395.925
395.979
396.028
396.074
396.115
400
400
400
400
400
400
400
400
400
399.996
399.79
399.628
399.484
399.352
399.225
399.104
398.986
398.872
398.76
398.65
398.543
398.438
398.335
398.234
398.134
398.036
397.94
397.845
397.752
397.66
397.569
397.479
397.391
397.303
397.216
397.129
397.044
396.959
396.874
396.79
396.707
396.625
396.543
396.461
396.381
396.301
396.221
396.143
396.065
395.988
395.911
395.836
395.762
395.689
395.618
395.549
395.482
395.418
395.357
395.305
395.498
395.622
395.717
395.796
395.865
395.925
395.979
396.029
396.075
396.116
400
400
400
400
400
400
400
400
400
399.996
399.79
399.628
399.485
399.352
399.226
399.104
398.987
398.872
398.761
398.651
398.544
398.44
398.337
398.235
398.136
398.038
397.942
397.847
397.754
397.662
397.571
397.482
397.393
397.305
397.218
397.132
397.046
396.961
396.876
396.793
396.709
396.627
396.545
396.464
396.383
396.303
396.223
396.145
396.067
395.99
395.913
395.838
395.764
395.691
395.62
395.55
395.483
395.419
395.358
395.306
395.498
395.623
395.718
395.797
395.866
395.926
395.981
396.03
396.076
396.117
400
400
400
400
400
400
400
400
400
399.996
399.79
399.628
399.485
399.352
399.226
399.105
398.988
398.874
398.762
398.653
398.546
398.441
398.338
398.237
398.138
398.04
397.944
397.85
397.756
397.665
397.574
397.484
397.396
397.308
397.221
397.134
397.049
396.963
396.879
396.795
396.712
396.629
396.547
396.466
396.386
396.306
396.226
396.148
396.07
395.992
395.916
395.841
395.766
395.693
395.622
395.552
395.485
395.42
395.359
395.308
395.5
395.624
395.72
395.799
395.867
395.928
395.982
396.032
396.077
396.119
400
400
400
400
400
400
400
400
400
399.996
399.79
399.628
399.485
399.353
399.227
399.106
398.989
398.875
398.763
398.654
398.548
398.443
398.341
398.24
398.14
398.043
397.947
397.852
397.759
397.667
397.577
397.487
397.399
397.311
397.224
397.137
397.052
396.966
396.882
396.798
396.715
396.632
396.551
396.469
396.389
396.309
396.229
396.151
396.073
395.996
395.919
395.844
395.77
395.696
395.625
395.555
395.487
395.423
395.361
395.309
395.502
395.626
395.722
395.801
395.869
395.93
395.984
396.034
396.079
396.121
400
400
400
400
400
400
400
400
400
399.996
399.79
399.629
399.486
399.354
399.228
399.107
398.99
398.876
398.765
398.656
398.55
398.445
398.343
398.242
398.143
398.046
397.95
397.855
397.762
397.671
397.58
397.491
397.402
397.314
397.227
397.141
397.055
396.97
396.886
396.802
396.719
396.636
396.554
396.473
396.393
396.313
396.233
396.155
396.077
396
395.923
395.848
395.773
395.7
395.628
395.558
395.49
395.425
395.364
395.312
395.504
395.629
395.725
395.804
395.872
395.933
395.987
396.036
396.082
396.123
400
400
400
400
400
400
400
400
400
399.996
399.791
399.629
399.486
399.354
399.229
399.108
398.991
398.878
398.767
398.658
398.552
398.448
398.346
398.245
398.146
398.049
397.953
397.859
397.766
397.674
397.584
397.494
397.406
397.318
397.231
397.145
397.059
396.974
396.889
396.806
396.723
396.64
396.558
396.477
396.397
396.317
396.237
396.159
396.081
396.004
395.927
395.852
395.777
395.704
395.632
395.561
395.493
395.428
395.366
395.314
395.507
395.631
395.727
395.806
395.874
395.935
395.989
396.039
396.084
396.125
400
400
400
400
400
400
400
400
400
399.996
399.791
399.629
399.487
399.355
399.23
399.109
398.993
398.88
398.769
398.661
398.555
398.451
398.349
398.248
398.149
398.052
397.957
397.863
397.77
397.678
397.588
397.498
397.41
397.322
397.235
397.148
397.063
396.978
396.893
396.81
396.726
396.644
396.562
396.481
396.4
396.321
396.241
396.163
396.085
396.007
395.931
395.855
395.78
395.707
395.634
395.564
395.495
395.43
395.367
395.314
395.507
395.632
395.727
395.806
395.875
395.935
395.989
396.039
396.084
396.125
400
400
400
400
400
400
400
400
400
399.996
399.791
399.63
399.487
399.356
399.231
399.111
398.994
398.881
398.771
398.663
398.557
398.453
398.351
398.251
398.152
398.055
397.96
397.866
397.773
397.681
397.591
397.501
397.413
397.325
397.238
397.151
397.065
396.98
396.896
396.812
396.729
396.646
396.564
396.483
396.402
396.322
396.243
396.164
396.085
396.008
395.931
395.855
395.78
395.706
395.633
395.561
395.492
395.426
395.363
395.31
395.503
395.627
395.723
395.801
395.869
395.93
395.984
396.033
396.078
396.119
400
400
400
400
400
400
400
400
400
399.996
399.792
399.63
399.488
399.357
399.232
399.112
398.996
398.883
398.773
398.665
398.559
398.455
398.354
398.253
398.155
398.058
397.962
397.868
397.775
397.683
397.592
397.502
397.413
397.325
397.238
397.151
397.065
396.979
396.894
396.81
396.726
396.643
396.56
396.479
396.397
396.317
396.236
396.157
396.078
396
395.922
395.845
395.769
395.694
395.62
395.548
395.477
395.41
395.345
395.291
395.484
395.609
395.703
395.782
395.85
395.909
395.963
396.012
396.056
396.097
400
400
400
400
400
400
400
400
400
399.996
399.791
399.63
399.488
399.357
399.232
399.112
398.996
398.883
398.773
398.665
398.559
398.455
398.353
398.252
398.153
398.055
397.959
397.864
397.77
397.678
397.586
397.495
397.406
397.316
397.228
397.14
397.052
396.966
396.88
396.794
396.709
396.625
396.541
396.457
396.375
396.292
396.211
396.13
396.049
395.969
395.89
395.811
395.733
395.656
395.58
395.505
395.432
395.362
395.296
395.239
395.432
395.556
395.651
395.729
395.796
395.854
395.907
395.955
395.999
396.038
400
400
400
400
400
400
400
400
400
399.996
399.792
399.63
399.488
399.356
399.231
399.11
398.994
398.88
398.769
398.66
398.552
398.447
398.344
398.241
398.141
398.041
397.943
397.846
397.75
397.655
397.562
397.468
397.376
397.284
397.193
397.102
397.012
396.922
396.833
396.745
396.656
396.569
396.482
396.395
396.309
396.223
396.138
396.053
395.968
395.885
395.801
395.718
395.636
395.555
395.475
395.395
395.318
395.243
395.172
395.111
395.306
395.429
395.523
395.599
395.665
395.723
395.774
395.821
395.863
395.901
400
400
400
400
400
400
400
400
400
399.996
399.791
399.627
399.484
399.349
399.222
399.099
398.98
398.863
398.748
398.636
398.525
398.416
398.308
398.201
398.096
397.991
397.888
397.786
397.685
397.584
397.485
397.386
397.287
397.19
397.092
396.995
396.898
396.802
396.706
396.611
396.516
396.421
396.327
396.233
396.139
396.046
395.953
395.861
395.769
395.677
395.586
395.495
395.405
395.316
395.227
395.14
395.054
394.971
394.891
394.822
395.02
395.144
395.238
395.314
395.379
395.436
395.487
395.533
395.574
395.611
400
400
400
400
400
400
400
400
400
399.996
399.785
399.618
399.467
399.327
399.192
399.062
398.933
398.808
398.684
398.562
398.441
398.321
398.202
398.084
397.967
397.852
397.736
397.622
397.509
397.396
397.284
397.172
397.061
396.95
396.839
396.729
396.619
396.509
396.4
396.291
396.182
396.074
395.966
395.859
395.751
395.645
395.538
395.432
395.327
395.222
395.117
395.013
394.909
394.806
394.705
394.604
394.505
394.409
394.317
394.237
394.448
394.581
394.681
394.764
394.835
394.898
394.955
395.007
395.055
395.097
400
400
400
400
400
400
400
400
400
399.995
399.766
399.578
399.409
399.249
399.094
398.942
398.793
398.646
398.5
398.355
398.212
398.069
397.928
397.787
397.647
397.508
397.369
397.232
397.096
396.96
396.825
396.691
396.558
396.425
396.293
396.161
396.03
395.9
395.77
395.641
395.513
395.385
395.258
395.132
395.006
394.882
394.758
394.634
394.512
394.39
394.269
394.149
394.03
393.912
393.795
393.68
393.567
393.457
393.352
393.266
393.531
393.705
393.841
393.956
394.058
394.15
394.233
394.31
394.381
394.445
400
400
400
400
400
400
400
400
400
399.993
399.691
399.454
399.242
399.043
398.851
398.664
398.48
398.299
398.121
397.944
397.77
397.597
397.425
397.255
397.087
396.921
396.756
396.593
396.432
396.272
396.115
395.959
395.804
395.651
395.5
395.35
395.202
395.055
394.909
394.765
394.623
394.481
394.342
394.203
394.066
393.93
393.796
393.662
393.53
393.4
393.27
393.142
393.015
392.889
392.766
392.644
392.526
392.412
392.305
392.231
392.673
392.956
393.173
393.354
393.509
393.646
393.768
393.879
393.981
394.069
400
400
400
400
400
400
400
400
400
399.995
399.766
399.549
399.344
399.148
398.957
398.772
398.589
398.409
398.231
398.055
397.881
397.709
397.538
397.368
397.2
397.034
396.869
396.705
396.543
396.383
396.224
396.067
395.911
395.757
395.605
395.454
395.305
395.157
395.011
394.866
394.723
394.58
394.439
394.299
394.16
394.023
393.887
393.752
393.62
393.488
393.358
393.23
393.104
392.979
392.858
392.738
392.622
392.51
392.403
392.323
392.688
392.957
393.171
393.35
393.505
393.642
393.764
393.876
393.977
394.067
400
400
400
400
400
400
400
400
400
399.997
399.834
399.671
399.512
399.358
399.207
399.059
398.912
398.767
398.624
398.481
398.34
398.199
398.059
397.92
397.781
397.643
397.506
397.369
397.233
397.098
396.963
396.829
396.695
396.562
396.43
396.299
396.168
396.038
395.908
395.779
395.651
395.522
395.395
395.268
395.141
395.016
394.891
394.767
394.644
394.522
394.4
394.28
394.162
394.044
393.929
393.815
393.703
393.595
393.489
393.399
393.585
393.736
393.863
393.973
394.071
394.159
394.24
394.316
394.386
394.449
400
400
400
400
400
400
400
400
400
399.998
399.851
399.706
399.566
399.432
399.301
399.173
399.048
398.924
398.803
398.683
398.564
398.446
398.329
398.213
398.098
397.983
397.869
397.756
397.643
397.531
397.419
397.308
397.197
397.086
396.976
396.867
396.757
396.649
396.54
396.432
396.323
396.216
396.108
396
395.893
395.786
395.679
395.573
395.468
395.363
395.258
395.155
395.052
394.951
394.851
394.751
394.654
394.559
394.467
394.383
394.519
394.63
394.721
394.798
394.865
394.925
394.98
395.03
395.075
395.117
400
400
400
400
400
400
400
400
400
399.998
399.855
399.714
399.581
399.452
399.328
399.208
399.091
398.976
398.863
398.753
398.644
398.536
398.43
398.325
398.221
398.118
398.016
397.914
397.814
397.714
397.614
397.516
397.418
397.32
397.223
397.127
397.031
396.936
396.841
396.746
396.651
396.557
396.463
396.369
396.276
396.183
396.09
395.998
395.906
395.815
395.724
395.634
395.545
395.457
395.37
395.285
395.2
395.118
395.038
394.967
395.092
395.194
395.278
395.349
395.411
395.465
395.513
395.558
395.597
395.634
400
400
400
400
400
400
400
400
400
399.998
399.856
399.717
399.584
399.458
399.336
399.218
399.103
398.991
398.882
398.775
398.669
398.566
398.464
398.363
398.263
398.165
398.068
397.971
397.876
397.781
397.688
397.595
397.503
397.411
397.32
397.23
397.141
397.052
396.963
396.875
396.788
396.701
396.614
396.527
396.441
396.355
396.27
396.186
396.101
396.018
395.935
395.853
395.772
395.693
395.614
395.537
395.461
395.387
395.315
395.251
395.374
395.476
395.56
395.632
395.694
395.749
395.798
395.843
395.884
395.921
400
400
400
400
400
400
400
400
400
399.998
399.855
399.716
399.584
399.458
399.336
399.219
399.105
398.994
398.885
398.779
398.675
398.572
398.471
398.372
398.274
398.177
398.082
397.987
397.894
397.802
397.71
397.62
397.53
397.441
397.353
397.266
397.179
397.093
397.007
396.923
396.838
396.754
396.671
396.588
396.505
396.423
396.341
396.26
396.18
396.1
396.021
395.944
395.867
395.791
395.717
395.644
395.572
395.503
395.436
395.376
395.498
395.601
395.686
395.758
395.822
395.878
395.929
395.975
396.017
396.056
400
400
400
400
400
400
400
400
400
399.998
399.855
399.716
399.584
399.457
399.336
399.218
399.104
398.993
398.885
398.778
398.674
398.572
398.472
398.373
398.275
398.179
398.084
397.99
397.897
397.806
397.715
397.625
397.537
397.449
397.362
397.275
397.19
397.105
397.021
396.937
396.854
396.772
396.689
396.608
396.527