/*--------------------------------*- C++ -*----------------------------------*\
  =========                 |
  \\      /  F ield         | OpenFOAM: The Open Source CFD Toolbox
   \\    /   O peration     | Website:  https://openfoam.org
    \\  /    A nd           | Version:  12
     \\/     M anipulation  |
\*---------------------------------------------------------------------------*/
FoamFile
{
    format      ascii;
    class       volScalarField;
    location    "1700/air";
    object      alphat;
}
// * * * * * * * * * * * * * * * * * * * * * * * * * * * * * * * * * * * * * //

dimensions      [1 -1 -1 0 0 0 0];

internalField   nonuniform List<scalar> 
243000
(
0.000141109
0.000145686
0.000146355
0.000144914
0.000141967
0.000137997
0.000133411
0.000128528
0.00012358
0.000118752
0.000114148
0.000109847
0.000105939
0.000102507
9.95208e-05
9.6937e-05
9.46849e-05
9.27608e-05
9.11934e-05
9.00258e-05
8.92379e-05
8.8678e-05
8.80384e-05
0.000395923
8.68862e-05
8.35019e-05
0.000369641
0.000336768
0.000281768
0.000240216
0.000525163
0.000539776
0.000534038
0.000518468
0.00049853
0.000476806
0.000454705
0.000433125
0.000412625
0.000393551
0.000376076
0.000360374
0.000346543
0.000334636
0.000324613
0.000316395
0.000309838
0.000305098
0.000302305
0.000301699
0.000303222
0.000306353
0.000309953
0.000313563
0.000310194
0.000305391
0.000298459
0.000281809
0.000259584
0.000230301
0.000641013
0.000702827
0.000728287
0.0007365
0.000734944
0.000727356
0.000715872
0.000701911
0.000686409
0.000670055
0.000653273
0.000636546
0.000620166
0.000604401
0.000589431
0.000575381
0.000562264
0.000550637
0.000540784
0.000533029
0.000527196
0.000522494
0.000517326
0.000509559
0.000496317
0.000476218
0.000448983
0.000411744
0.00036929
0.000316628
0.000626132
0.000697314
0.00073485
0.00075177
0.000755983
0.00075206
0.000743078
0.000730826
0.000716484
0.000700914
0.000684685
0.000668343
0.000652221
0.00063668
0.000621978
0.000608321
0.000595796
0.000585018
0.00057616
0.000569324
0.00056415
0.000559862
0.000555088
0.000547806
0.000535746
0.000516893
0.0004906
0.000454637
0.0004129
0.000361097
0.00059785
0.00066778
0.000715558
0.000742548
0.000754921
0.000757354
0.000753117
0.000744474
0.00073293
0.000719518
0.000705012
0.000690022
0.000674971
0.000660342
0.00064648
0.000633695
0.000622147
0.000612465
0.000604693
0.000598703
0.000593959
0.000589708
0.000584826
0.000577626
0.000566128
0.00054841
0.000523596
0.000489895
0.000450085
0.000401179
0.000575933
0.000625254
0.000677358
0.000714259
0.000736344
0.000747029
0.000749415
0.000745974
0.00073838
0.000728215
0.000716436
0.000703602
0.000690295
0.000677136
0.000664555
0.000653002
0.000642695
0.000634253
0.000627582
0.000622371
0.00061796
0.000613613
0.000608426
0.000601052
0.000589828
0.000573051
0.000549757
0.000518534
0.000481188
0.000435651
0.000584948
0.000604829
0.000641341
0.000677175
0.000705322
0.000724216
0.000734051
0.000736964
0.000734719
0.000728893
0.000720445
0.000710415
0.000699442
0.000688233
0.000677299
0.000667268
0.000658399
0.000651269
0.00064569
0.000641208
0.000637089
0.000632628
0.000627087
0.000619425
0.000608305
0.000592274
0.000570405
0.000541571
0.000506879
0.000464758
0.000611735
0.000604975
0.000620846
0.000647555
0.000674782
0.000696483
0.000710877
0.000719815
0.000723231
0.000722347
0.000718097
0.000711475
0.000703308
0.000694451
0.000685505
0.000677235
0.000669956
0.000664181
0.000659676
0.000655896
0.000652068
0.000647526
0.000641664
0.000633693
0.000622582
0.000607143
0.000586555
0.000559909
0.000527947
0.000489042
0.000643117
0.000623461
0.000617897
0.000629254
0.000649528
0.000670524
0.000687407
0.00069936
0.00070648
0.000710159
0.000710314
0.000707557
0.000702621
0.000696452
0.000689775
0.000683466
0.000677894
0.000673508
0.000670067
0.000666977
0.000663462
0.000658901
0.000652799
0.000644564
0.000633432
0.000618472
0.000599037
0.000574425
0.000544956
0.000509073
0.000676143
0.000652411
0.000632987
0.000626513
0.000633961
0.00064904
0.000665217
0.00067886
0.000688671
0.000694927
0.000698512
0.000699485
0.000697997
0.000694779
0.000690592
0.000686405
0.00068263
0.000679669
0.000677291
0.000674897
0.000671731
0.000667235
0.000660997
0.000652582
0.000641452
0.000626938
0.000608536
0.000585598
0.000558388
0.000525362
0.000709349
0.000686184
0.000660375
0.000640681
0.00063261
0.000636474
0.000647247
0.000659775
0.000670833
0.0006792
0.000684903
0.000688503
0.000690154
0.000689953
0.000688385
0.000686426
0.000684518
0.000683011
0.000681708
0.000680029
0.000677266
0.000672923
0.000666665
0.000658182
0.000647146
0.000633008
0.00061541
0.000593935
0.000568754
0.000538528
0.000741921
0.000719169
0.000692583
0.00066682
0.000646891
0.000637193
0.000637806
0.000645037
0.000654625
0.000663706
0.000671012
0.00067633
0.000680116
0.000682572
0.000683586
0.000683885
0.000683861
0.000683836
0.000683627
0.000682705
0.000680412
0.000676307
0.000670146
0.000661731
0.000650792
0.000636985
0.000620114
0.000599907
0.000576509
0.000548778
0.000773452
0.000751346
0.00072659
0.000699147
0.000672993
0.000652397
0.000640894
0.000638692
0.000642964
0.000650159
0.000657662
0.000664121
0.000669219
0.000673458
0.000676702
0.000679148
0.000680982
0.000682433
0.000683329
0.00068319
0.000681432
0.000677689
0.000671736
0.000663453
0.000652678
0.000639219
0.000623009
0.000603906
0.000582051
0.000556526
0.000803772
0.000782421
0.00075921
0.000732735
0.000705074
0.000678689
0.000657342
0.000644148
0.000639525
0.000641331
0.000646555
0.000652745
0.000658537
0.000663625
0.000668387
0.000672661
0.000676221
0.000679098
0.000681095
0.000681766
0.000680583
0.000677221
0.000671515
0.000663453
0.000652964
0.00063994
0.000624398
0.000606279
0.000585771
0.000562203
0.000832743
0.000812177
0.000790157
0.000765454
0.000738717
0.000710803
0.000684029
0.000661844
0.000647107
0.000640452
0.000640235
0.000643828
0.000648939
0.000654264
0.000659479
0.000664992
0.000669974
0.000674152
0.000677206
0.000678703
0.000678142
0.000675273
0.000669964
0.000662207
0.00065206
0.000639491
0.00062459
0.000607365
0.000588125
0.000566446
0.000860231
0.00084049
0.000819655
0.00079685
0.000771812
0.000744646
0.000716241
0.000688894
0.000665828
0.000649762
0.00064147
0.000639639
0.000641918
0.000646186
0.000651207
0.000656909
0.000662759
0.000667967
0.000671968
0.000674267
0.000674357
0.000672043
0.000667226
0.000659927
0.00065025
0.000638367
0.000624429
0.000608345
0.00059034
0.00057027
0.00088607
0.000867184
0.000847547
0.000826567
0.000803417
0.000777891
0.00075007
0.000721002
0.000692985
0.000669125
0.000652017
0.000642505
0.000639455
0.000640732
0.000644385
0.000649412
0.000655255
0.00066102
0.00066574
0.000668748
0.000669492
0.000667778
0.00066354
0.000656957
0.000648157
0.000637196
0.000624211
0.000609197
0.000592349
0.000573685
0.000910028
0.000891985
0.000873484
0.000854012
0.00083282
0.000809272
0.000783085
0.000754498
0.000724701
0.00069606
0.000671596
0.000653812
0.000643494
0.000639611
0.000640189
0.000643519
0.000648412
0.000653957
0.000658983
0.000662511
0.000663862
0.000662868
0.000659525
0.00065386
0.000645957
0.00063591
0.000623864
0.000609871
0.000594112
0.000576699
0.000931846
0.000914609
0.000897193
0.000879356
0.00085991
0.000838317
0.000814118
0.000787103
0.000757655
0.00072714
0.000698008
0.000673236
0.00065516
0.000644452
0.000640075
0.000640246
0.000643254
0.000647753
0.000652434
0.000656175
0.000658138
0.000657913
0.000655413
0.000650627
0.000643615
0.000634468
0.000623342
0.000610325
0.000595596
0.00057932
0.000951318
0.000934913
0.000918616
0.00090223
0.000884477
0.0008648
0.000842672
0.000817678
0.00078973
0.000759408
0.000728281
0.0006989
0.000674179
0.000656191
0.000645423
0.000640841
0.000640694
0.000643251
0.000646946
0.000650429
0.000652671
0.000653024
0.000651259
0.000647286
0.000641138
0.000632868
0.000622636
0.000610547
0.000596787
0.000581549
0.000968384
0.000952959
0.000938238
0.000923048
0.000906758
0.000888806
0.000868646
0.000845772
0.000819838
0.000790913
0.000759796
0.000728273
0.000699013
0.000674665
0.000657073
0.000646514
0.00064184
0.000641314
0.000643139
0.000645716
0.000647767
0.000648405
0.000647193
0.000643927
0.000638586
0.00063115
0.000621774
0.000610559
0.000597712
0.000583431
0.000983152
0.000969215
0.00095552
0.000941483
0.000926589
0.000910281
0.000892009
0.000871241
0.000847522
0.000820624
0.000790804
0.000759121
0.000727584
0.000698713
0.000675044
0.0006581
0.000647839
0.000643007
0.000641887
0.000642696
0.000643916
0.000644397
0.000643458
0.000640724
0.000636067
0.000629403
0.000620829
0.000610443
0.000598441
0.000585039
0.000995493
0.000982592
0.000970016
0.000957251
0.000943815
0.000929178
0.000912807
0.000894176
0.000872784
0.000848251
0.000820495
0.000790027
0.000758147
0.000726857
0.000698716
0.000675968
0.000659705
0.000649583
0.000644364
0.000642356
0.000641886
0.00064158
0.000640475
0.00063799
0.000633828
0.000627817
0.000619964
0.000610336
0.000599112
0.00058652
0.0010051
0.000993369
0.000982
0.000970595
0.000958684
0.000945801
0.000931447
0.000915085
0.00089617
0.000874247
0.000849065
0.00082075
0.000790024
0.000758251
0.00072759
0.0007004
0.000678513
0.000662601
0.000652261
0.000646257
0.000643007
0.000641004
0.00063905
0.000636326
0.000632337
0.000626741
0.000619443
0.000610459
0.00059994
0.000588091
0.00101264
0.00100228
0.000992274
0.00098235
0.000972106
0.000961321
0.000949397
0.000935647
0.000919402
0.000900271
0.000878136
0.000852743
0.00082439
0.000793825
0.00076261
0.000732779
0.000706347
0.000684735
0.000668546
0.000657319
0.000649902
0.0006449
0.000640996
0.000637138
0.00063259
0.000626914
0.000619855
0.000611315
0.000601351
0.000590143
0.00101886
0.00101025
0.00100205
0.000994033
0.000985935
0.000977466
0.000968209
0.000957611
0.000945036
0.000929923
0.000911838
0.00089041
0.000865605
0.000837876
0.000808072
0.000777635
0.000748262
0.000721698
0.000699415
0.000681837
0.000668567
0.000658664
0.000650968
0.00064438
0.000638008
0.000631217
0.000623563
0.000614821
0.000604922
0.000593998
0.00102699
0.00102128
0.00101598
0.00101101
0.00100622
0.00100137
0.000996136
0.000990002
0.000982359
0.000972537
0.000959884
0.000943854
0.000924145
0.000900878
0.000874629
0.000845882
0.000815598
0.000785659
0.00075788
0.000733443
0.000712781
0.000695702
0.00068155
0.000669497
0.000658727
0.000648523
0.000638319
0.000627738
0.000616556
0.000604862
0.00105044
0.00104974
0.00104933
0.00104932
0.00104986
0.00105086
0.00105201
0.00105273
0.0010523
0.00104992
0.0010447
0.00103598
0.00102333
0.00100664
0.000986274
0.00096187
0.00093335
0.000902739
0.000871719
0.000841836
0.000814027
0.000788748
0.000765988
0.000745509
0.000726929
0.000709662
0.000693217
0.000677259
0.000661553
0.000646668
0.00114654
0.00115228
0.0011576
0.0011642
0.00117278
0.0011829
0.00119354
0.00120353
0.00121201
0.00121846
0.00122142
0.00122068
0.00121606
0.00120764
0.00119527
0.00117816
0.00115511
0.0011286
0.00110025
0.00107132
0.00104265
0.00101474
0.000987909
0.000962373
0.000938254
0.000914388
0.000890731
0.000867508
0.000845118
0.000825342
0.00151802
0.00151744
0.00151945
0.00152806
0.00154017
0.00155211
0.00156149
0.00156866
0.00157405
0.00157842
0.00157896
0.00157805
0.00157572
0.00157243
0.00156713
0.00155966
0.00154699
0.00153426
0.00152185
0.00151066
0.00150043
0.0014913
0.00148314
0.00147606
0.00147011
0.00145997
0.00144791
0.00143523
0.00142353
0.00141399
0.000183195
0.000188174
0.000186644
0.000182351
0.000176385
0.000169436
0.000162011
0.000154516
0.000147239
0.000140397
0.000134092
0.000128442
0.000123522
0.000119408
0.000116058
0.000113468
0.000111585
0.000110522
0.000110513
0.000111727
0.000113825
0.000115995
0.000117325
0.000116993
0.000114248
0.000108638
9.98594e-05
8.62873e-05
0.000347764
0.000356774
0.000781648
0.000882781
0.000862823
0.000799427
0.000724393
0.000651889
0.000587462
0.000531968
0.000484695
0.000444514
0.0004103
0.000382065
0.000358379
0.0003387
0.000321986
0.000307909
0.000295417
0.000285492
0.000278296
0.000274787
0.000275868
0.000281919
0.000291121
0.000299434
0.000301624
0.000294956
0.000280233
0.000255766
0.000265592
0.000346207
0.00122407
0.0014065
0.00142432
0.00136437
0.00127315
0.00117285
0.00107587
0.000987733
0.000909718
0.000841747
0.000782875
0.000733544
0.000691804
0.000657041
0.000627687
0.000602425
0.000578987
0.000558387
0.000538699
0.000520717
0.000508154
0.000504927
0.000510198
0.000517196
0.00051862
0.000506448
0.000480075
0.000437256
0.000408597
0.000421541
0.00151472
0.00173509
0.00178068
0.00174309
0.00166324
0.00156289
0.00145871
0.00135935
0.00126758
0.00118545
0.00111314
0.00105146
0.000999067
0.000955758
0.000920046
0.000889695
0.000861538
0.000835727
0.000807359
0.000776485
0.000748414
0.000730823
0.000725403
0.000726143
0.000721968
0.000703726
0.000668427
0.000612029
0.000558307
0.000533669
0.00167575
0.001891
0.00197426
0.00196905
0.001911
0.00182286
0.00172729
0.0016326
0.00153946
0.00145423
0.0013781
0.0013119
0.00125552
0.00120955
0.00117262
0.00114225
0.00111472
0.00108822
0.00105544
0.00101517
0.000974478
0.000942941
0.000925712
0.000917281
0.000906644
0.000882966
0.000841727
0.000777494
0.000708499
0.000661171
0.00175115
0.00195768
0.00205284
0.00207605
0.00204565
0.00198827
0.00190706
0.00181822
0.00172989
0.00165105
0.00157954
0.00151517
0.00146048
0.00141662
0.00138265
0.00135601
0.0013329
0.00130899
0.0012745
0.00122835
0.00117805
0.00113516
0.00110725
0.0010906
0.00107274
0.0010443
0.00099904
0.00093092
0.00085407
0.00079293
0.00179066
0.00194035
0.00203127
0.00207578
0.00207726
0.00204658
0.00199363
0.00192715
0.00186007
0.00178982
0.00172412
0.00166554
0.00161783
0.00158022
0.00155253
0.00153269
0.00151681
0.00149733
0.00146277
0.00141341
0.00135739
0.00130675
0.00126923
0.00124406
0.00122113
0.00118859
0.00114077
0.0010718
0.00099128
0.000920896
0.00180267
0.00188197
0.00194483
0.00198982
0.00201436
0.00201877
0.00200246
0.00196428
0.00191941
0.00186882
0.00181804
0.00177258
0.00173293
0.00170413
0.0016855
0.00167525
0.00166816
0.00165453
0.00162314
0.00157316
0.00151442
0.00145748
0.00141215
0.00137913
0.0013509
0.00131663
0.00126771
0.00119987
0.00111925
0.00104301
0.00181684
0.00183607
0.00186002
0.00188904
0.00191542
0.00193459
0.00194252
0.00193528
0.00192167
0.00189556
0.00186507
0.00183559
0.0018097
0.00179256
0.00178503
0.0017865
0.00178908
0.00178244
0.00175572
0.00170815
0.00164839
0.00158807
0.00153695
0.00149725
0.00146356
0.00142768
0.00138141
0.0013165
0.00123801
0.00115725
0.00186468
0.00183031
0.00180299
0.00179852
0.00181179
0.00183144
0.00185081
0.00186457
0.00187359
0.00187482
0.00186941
0.00186028
0.00185174
0.00184931
0.00185456
0.00186861
0.00188176
0.00188363
0.00186302
0.00181927
0.00176084
0.00169955
0.00164477
0.00159988
0.00156177
0.00152509
0.00147944
0.00141892
0.00134333
0.0012619
0.00193042
0.00186062
0.00178984
0.00174126
0.0017271
0.00173366
0.00175122
0.00177355
0.00179698
0.00181838
0.00183591
0.00185048
0.00186228
0.00187724
0.0018968
0.00192423
0.00194901
0.00195968
0.00194661
0.00190828
0.00185329
0.00179311
0.00173689
0.00168897
0.00164684
0.00160689
0.00156154
0.00150574
0.00143545
0.00135774
0.00202621
0.00192372
0.00181995
0.00173881
0.00168461
0.00166404
0.00166583
0.00168399
0.00171115
0.00174329
0.00177699
0.00181119
0.00184501
0.00187886
0.00191445
0.00195593
0.00199241
0.0020127
0.00200838
0.00197905
0.00192978
0.00187036
0.00181132
0.0017593
0.00171366
0.00167219
0.00162891
0.0015775
0.00151463
0.00144257
0.00214398
0.00202149
0.00189431
0.00178166
0.00169602
0.00164135
0.00161514
0.00161687
0.00163524
0.00166735
0.00170786
0.00175437
0.00180476
0.00185814
0.00191053
0.00196642
0.0020148
0.00204515
0.00205045
0.00202991
0.00198781
0.0019324
0.00187396
0.00182029
0.00177071
0.00172591
0.00168278
0.00163595
0.00158004
0.00151659
0.0022874
0.00215662
0.00201536
0.00187984
0.00176454
0.00167723
0.00161846
0.00158944
0.00158752
0.00160843
0.00164478
0.00169414
0.00175336
0.00182037
0.00188901
0.00195887
0.00201896
0.00205964
0.00207526
0.00206403
0.00202997
0.00198026
0.00192412
0.00187096
0.00182032
0.00177338
0.00172894
0.00168598
0.00163795
0.00158312
0.00245324
0.00232209
0.00217655
0.00202867
0.00189196
0.00177582
0.00168335
0.00162027
0.00158769
0.00158336
0.00160386
0.0016455
0.00170379
0.00177509
0.00185527
0.00193725
0.0020081
0.00205892
0.00208474
0.00208322
0.00205785
0.00201524
0.00196301
0.00191183
0.00186226
0.00181582
0.00177206
0.00172999
0.00168801
0.00164009
0.00263382
0.00251202
0.00237131
0.00221973
0.00207068
0.0019329
0.00181118
0.00171399
0.00164622
0.00160953
0.00160312
0.00162467
0.00167003
0.00173564
0.00181668
0.00190675
0.00198615
0.00204598
0.00208144
0.00208965
0.00207341
0.00203908
0.00199244
0.0019449
0.00189857
0.00185369
0.00180952
0.00176671
0.00172613
0.00168382
0.00282525
0.00271867
0.00258941
0.00244201
0.00228838
0.00213712
0.00199422
0.00186833
0.00176668
0.00169428
0.00165368
0.00164548
0.0016668
0.00171514
0.00178726
0.00187426
0.0019582
0.00202465
0.00206854
0.00208621
0.00207944
0.00205452
0.00201583
0.00197203
0.00192761
0.00188382
0.0018401
0.00179683
0.00175581
0.0017169
0.00301867
0.00292994
0.00281618
0.00267943
0.00252944
0.00237398
0.00221929
0.00207316
0.00194355
0.00183763
0.00176068
0.00171654
0.00170506
0.00172612
0.00177732
0.00185097
0.00193079
0.00199999
0.00205005
0.00207698
0.00208026
0.00206368
0.00203118
0.00199048
0.00194869
0.00190641
0.00186435
0.00182135
0.00178015
0.00174168
0.00320513
0.00313423
0.00303908
0.00291883
0.00277986
0.00262861
0.0024709
0.00231349
0.00216409
0.0020306
0.00191999
0.00183853
0.00178947
0.00177435
0.00179531
0.00184462
0.00191026
0.00197565
0.00202892
0.00206237
0.00207296
0.00206339
0.00203791
0.00200156
0.00196283
0.00192285
0.00188322
0.00184137
0.00180027
0.00176195
0.00337719
0.00332494
0.00325007
0.00314955
0.00302672
0.00288601
0.0027325
0.00257175
0.00241067
0.00225696
0.00211814
0.00200187
0.00191406
0.00185909
0.00184191
0.00185779
0.00189905
0.00195282
0.00200171
0.00203816
0.00205569
0.00205371
0.00203628
0.00200568
0.0019709
0.00193424
0.00189749
0.00185741
0.00181702
0.00177932
0.00353211
0.00349665
0.00344119
0.00336091
0.00325656
0.00313033
0.00298603
0.00282787
0.00266158
0.00249402
0.00233271
0.00218591
0.00206157
0.00196777
0.00190732
0.00188459
0.00189299
0.0019249
0.00196524
0.00200117
0.00202347
0.00203033
0.00202358
0.0020012
0.00197209
0.00194054
0.00190658
0.00186897
0.00183062
0.00179415
0.00366468
0.00364215
0.00360276
0.00354058
0.00345404
0.00334315
0.0032099
0.00305708
0.0028889
0.00271122
0.00253145
0.00235843
0.00220168
0.00207191
0.00197093
0.00190683
0.00187862
0.00188145
0.00190524
0.00193708
0.00196539
0.00198379
0.00198944
0.00198021
0.00196072
0.00193552
0.00190693
0.00187491
0.00184016
0.00180704
0.0037636
0.00374846
0.00371974
0.00367087
0.00359828
0.00349979
0.00337538
0.00322632
0.0030555
0.00286829
0.00267259
0.00247817
0.00229576
0.00213628
0.00200437
0.00190351
0.00183741
0.00180676
0.00180666
0.00182773
0.00185876
0.00188988
0.00191319
0.00192329
0.00192146
0.00191071
0.00189243
0.00186886
0.00184301
0.00181762
0.00380772
0.00379262
0.003767
0.00372389
0.00365795
0.00356505
0.00344342
0.00329327
0.00311744
0.00292226
0.00271696
0.00251205
0.00231823
0.00214395
0.00199648
0.00187239
0.00177374
0.00170869
0.00167613
0.00167303
0.00169318
0.00172797
0.00176682
0.00179978
0.00182331
0.00183692
0.00184084
0.00183655
0.00182576
0.00181344
0.00375722
0.00373336
0.00370245
0.00365707
0.00359025
0.00349641
0.00337393
0.00322381
0.00305071
0.00286262
0.00266887
0.00247833
0.00229975
0.00213664
0.00199557
0.00186955
0.00175454
0.00166019
0.00159004
0.00154645
0.00153006
0.00153888
0.00156639
0.00160386
0.00164432
0.00168246
0.00171448
0.00173869
0.00175469
0.00176592
0.00354596
0.00351149
0.00347459
0.00342908
0.00336844
0.00328719
0.00318306
0.00305855
0.0029195
0.002773
0.00262512
0.00247918
0.00234113
0.00221257
0.00209892
0.00199076
0.00187976
0.00177357
0.00167621
0.00159235
0.00152568
0.00147966
0.0014553
0.00145115
0.00146419
0.00149016
0.00152405
0.00156123
0.0015979
0.00163474
0.00315383
0.0031352
0.00312428
0.00311424
0.00309661
0.00306463
0.00301549
0.00295107
0.0028757
0.00279311
0.00270568
0.00261459
0.00252214
0.00243086
0.00234768
0.00226503
0.0021713
0.00207246
0.00197152
0.00187258
0.00177794
0.00169141
0.00161606
0.00155432
0.00150772
0.00147654
0.00146006
0.00145655
0.0014641
0.00148882
0.00283456
0.00288312
0.00294142
0.00299395
0.00303123
0.00304952
0.00304884
0.00303198
0.00300236
0.0029609
0.00290997
0.00285113
0.00278678
0.00272015
0.00265824
0.00259565
0.0025244
0.00244833
0.00236852
0.00228683
0.00220435
0.0021231
0.00204366
0.00196729
0.00189559
0.0018298
0.00177127
0.00172058
0.00167912
0.00166682
0.0028949
0.00295769
0.00302454
0.00308617
0.00313174
0.00315816
0.00316881
0.00316209
0.00314214
0.00311155
0.00307308
0.00302779
0.00297547
0.00292479
0.00287594
0.0028256
0.00277521
0.00272431
0.00267544
0.00262813
0.00258419
0.00254415
0.00250691
0.00247146
0.0024366
0.00240089
0.00236463
0.00232927
0.0022963
0.00228728
0.00307445
0.00311436
0.00315267
0.00318783
0.00320711
0.00321269
0.00320848
0.00319504
0.00317402
0.00314726
0.00311622
0.00308064
0.00304049
0.00300308
0.00296537
0.00293128
0.00290266
0.00287708
0.002857
0.00284412
0.00283916
0.00284194
0.00285094
0.00286414
0.00287879
0.00289135
0.00290165
0.00291299
0.00292114
0.00292184
0.000219516
0.000222819
0.000217578
0.000210399
0.000202186
0.000193214
0.000183888
0.000174616
0.000165706
0.000157401
0.000149827
0.00014313
0.000137345
0.00013258
0.000128803
0.000126085
0.000124442
0.000124334
0.000126603
0.000131491
0.000137564
0.000142845
0.000146025
0.000146407
0.000143647
0.000137249
0.000126913
0.000111373
9.30664e-05
0.000411814
0.0010214
0.00114684
0.00114077
0.00107699
0.000985786
0.000893413
0.000809762
0.000737153
0.000675166
0.000622378
0.000577325
0.000539594
0.000507164
0.000479991
0.000455743
0.000433971
0.000412226
0.000395153
0.000385055
0.000385546
0.000397493
0.000417614
0.000439419
0.000454961
0.000456793
0.000439837
0.000407632
0.000362818
0.000322677
0.000305324
0.00162696
0.00187512
0.00192403
0.00186446
0.00175689
0.00163198
0.00150746
0.00139225
0.00128962
0.00119999
0.00112226
0.00105634
0.000999583
0.000952171
0.000911047
0.000873741
0.000835259
0.000800586
0.000768268
0.000746039
0.000742498
0.00075765
0.000782324
0.00080266
0.000801285
0.000774586
0.000720307
0.000640308
0.000559542
0.000497653
0.00206199
0.00235552
0.00244228
0.00240823
0.00231297
0.00218755
0.00205214
0.00191964
0.00179723
0.00168744
0.0015905
0.0015073
0.00143589
0.00137698
0.00132769
0.00128414
0.0012394
0.00119544
0.00114595
0.00110178
0.00107593
0.00107554
0.00109246
0.00111043
0.00110722
0.0010726
0.00100452
0.000902645
0.000792086
0.000700187
0.00236924
0.00267013
0.00277596
0.0027672
0.00269246
0.00258078
0.00244996
0.0023158
0.00218888
0.00207177
0.0019664
0.00187512
0.00179715
0.00173347
0.00168241
0.00163886
0.0015941
0.00154378
0.00147918
0.00141896
0.00137499
0.00135637
0.00136106
0.0013731
0.00136847
0.00133072
0.00125669
0.00114387
0.00101545
0.000900306
0.00258629
0.00285424
0.00297679
0.00299972
0.00294619
0.00284827
0.00272411
0.00259817
0.00247958
0.00236488
0.00225947
0.0021679
0.00208982
0.00202722
0.0019793
0.00193998
0.00189897
0.00184521
0.00176977
0.00169241
0.00163283
0.00159863
0.00159045
0.00159475
0.00158826
0.00155306
0.00147827
0.00136338
0.0012266
0.00109563
0.00274767
0.002969
0.00308354
0.00311494
0.0030837
0.0030101
0.0029184
0.00280906
0.00269339
0.00257868
0.00248004
0.00239538
0.00232234
0.002266
0.00222498
0.00219336
0.00215782
0.00210166
0.00201796
0.00192635
0.00185338
0.00180564
0.00178543
0.00178079
0.00177145
0.00173977
0.00167321
0.0015625
0.00142551
0.00128281
0.00286956
0.00302733
0.00311235
0.0031425
0.00312854
0.00307949
0.00301027
0.00292526
0.0028303
0.00273854
0.00264819
0.00256774
0.00250233
0.00245598
0.00242537
0.00240445
0.00237487
0.0023164
0.0022258
0.00212484
0.00204253
0.00198251
0.00195118
0.00193703
0.00192313
0.00189621
0.00184071
0.00174062
0.00160739
0.0014586
0.00295991
0.00303582
0.00307907
0.00310029
0.00309858
0.00307266
0.0030303
0.00297373
0.00290291
0.00283061
0.00275814
0.00269115
0.00263866
0.0026038
0.00258588
0.00257756
0.00255385
0.00249177
0.00239655
0.00229328
0.00220315
0.00213388
0.00209247
0.00206869
0.00205088
0.0020251
0.00197579
0.0018906
0.00176678
0.00162011
0.0030222
0.00303277
0.00303814
0.00304046
0.00303791
0.00302468
0.00300129
0.00296693
0.00292118
0.00287347
0.00282182
0.00277351
0.0027359
0.00271532
0.00271119
0.0027159
0.00269859
0.00263806
0.00254257
0.00243657
0.00233994
0.00226378
0.00221378
0.00217934
0.00215191
0.00212436
0.0020817
0.00201071
0.00190432
0.00177015
0.00309608
0.00305723
0.00301697
0.00299056
0.00297312
0.00295919
0.00294578
0.00292804
0.00290356
0.00287621
0.00284694
0.00281971
0.00280023
0.00279607
0.00280618
0.00282317
0.00281177
0.00275553
0.00266245
0.0025566
0.00245707
0.0023751
0.00231378
0.00226983
0.00223466
0.00220159
0.00216323
0.00210585
0.00201975
0.00190445
0.0031899
0.00312953
0.0030509
0.00297441
0.00292939
0.00290028
0.00288541
0.00287507
0.00286503
0.00285493
0.00284445
0.00283694
0.00283731
0.00285066
0.00287481
0.00290336
0.00290035
0.00284771
0.00276007
0.00265757
0.00255859
0.00247172
0.00240457
0.00235227
0.00230933
0.00227129
0.00223205
0.00218452
0.00211861
0.00202247
0.00328946
0.00320669
0.00310451
0.00300819
0.00292564
0.00286914
0.00284246
0.00282777
0.00282279
0.00282347
0.00282731
0.00283583
0.00285404
0.00288329
0.0029214
0.00296044
0.00296405
0.00291918
0.00283907
0.00274324
0.0026454
0.00255626
0.00248474
0.00242656
0.0023781
0.00233602
0.00229611
0.00225439
0.00220337
0.00212529
0.00341786
0.00331798
0.00319437
0.00307127
0.00296527
0.00289069
0.00283777
0.00280552
0.00279503
0.00279753
0.00280826
0.00282805
0.00285764
0.0028998
0.0029506
0.00299856
0.00300937
0.00297364
0.00290332
0.00281505
0.00272022
0.00263069
0.00255632
0.00249402
0.00244228
0.002398
0.00235769
0.00231636
0.00227287
0.00220902
0.00357143
0.0034578
0.00332497
0.00318896
0.00306169
0.00295752
0.00287809
0.0028261
0.00279909
0.00279312
0.0028005
0.00282349
0.00285895
0.00290598
0.0029668
0.0030216
0.00303957
0.00301396
0.00295457
0.00287504
0.00278495
0.00269669
0.0026213
0.00255679
0.00250338
0.0024575
0.0024155
0.00237368
0.00233075
0.00227762
0.00374409
0.00363696
0.00350539
0.0033597
0.00321537
0.00308553
0.00297776
0.00289757
0.00284576
0.00281941
0.00281554
0.00283199
0.00286564
0.00291174
0.00297354
0.00303236
0.00305681
0.0030417
0.00299405
0.00292446
0.00284104
0.00275587
0.00268127
0.00261635
0.00256083
0.00251345
0.00246995
0.00242692
0.00238352
0.00233588
0.0039475
0.0038472
0.00372055
0.00357327
0.003419
0.00326989
0.00313603
0.00302565
0.00294328
0.00288966
0.00286332
0.0028621
0.00288233
0.00292
0.0029741
0.00303111
0.00306049
0.00305582
0.00302094
0.00296285
0.0028883
0.00280782
0.00273452
0.00266987
0.00261355
0.00256556
0.00252123
0.0024769
0.00243274
0.00238641
0.00416395
0.00407392
0.00395717
0.00381502
0.00365824
0.00349742
0.00334313
0.00320504
0.00309048
0.00300366
0.00294579
0.00291624
0.00291226
0.00293045
0.00296789
0.00301352
0.00304482
0.00304998
0.00302951
0.0029848
0.00292092
0.00284787
0.00277866
0.00271632
0.00266082
0.00261305
0.00256892
0.0025238
0.00247851
0.00243214
0.00437858
0.00430278
0.00419965
0.00406749
0.00391428
0.00374881
0.00358082
0.00342016
0.00327551
0.00315337
0.00305768
0.00299025
0.0029506
0.00293744
0.00294765
0.00297352
0.00299897
0.00301036
0.00300438
0.00297809
0.00292996
0.00286948
0.00280888
0.00275219
0.00270038
0.0026547
0.00261108
0.00256549
0.00251975
0.00247399
0.00458212
0.0045207
0.00443183
0.00431173
0.00416585
0.00400082
0.00382496
0.00364715
0.00347611
0.00331931
0.00318269
0.0030706
0.00298576
0.00292971
0.00290248
0.00289727
0.00290829
0.0029208
0.00292757
0.00292138
0.00289755
0.00285775
0.00281289
0.00276885
0.00272539
0.0026818
0.0026402
0.00259711
0.00255356
0.00250991
0.00476411
0.00471334
0.00463614
0.00452724
0.00438956
0.00422738
0.00404702
0.00385575
0.0036614
0.00347157
0.00329371
0.00313455
0.00300017
0.00289497
0.00282314
0.00277858
0.00276215
0.00276538
0.00277905
0.00279235
0.00279602
0.00278647
0.00276757
0.00274158
0.00271023
0.00268058
0.00264908
0.00261405
0.00257522
0.00253535
0.00490707
0.0048614
0.00479108
0.00468996
0.00455847
0.00439846
0.00421401
0.00401043
0.00379455
0.00357421
0.00335872
0.00315726
0.00297879
0.00282938
0.0027159
0.00263221
0.00258096
0.00256049
0.00256461
0.00258382
0.00260761
0.002628
0.00264189
0.00264773
0.0026454
0.00263752
0.0026198
0.0025995
0.00257562
0.00254979
0.00498533
0.00493778
0.00486798
0.00476922
0.00463963
0.00447894
0.0042892
0.00407398
0.0038401
0.00359694
0.00335638
0.00312994
0.00292774
0.00275503
0.00261817
0.00251072
0.00243014
0.00237791
0.00235233
0.00235017
0.00236629
0.00239445
0.00242874
0.00246356
0.00249442
0.00251889
0.00253317
0.00253771
0.00253387
0.00252735
0.00495984
0.00490405
0.00482857
0.00472687
0.00459575
0.00443383
0.00424197
0.00402258
0.00378453
0.00353985
0.00330239
0.00308369
0.00289157
0.00272873
0.00259637
0.00249149
0.00239922
0.00232137
0.00225861
0.00221319
0.00218775
0.00218301
0.00219802
0.00222916
0.00227102
0.0023174
0.00236147
0.00239877
0.0024267
0.00244569
0.00478172
0.00471559
0.00463303
0.00453071
0.00440506
0.00425326
0.0040753
0.00387689
0.00366782
0.00346013
0.00326544
0.00309087
0.00294091
0.00281494
0.00271015
0.00262483
0.00253694
0.00244796
0.00235865
0.0022731
0.00219723
0.0021362
0.00209499
0.00207664
0.00208131
0.00210616
0.00214528
0.00219196
0.00223975
0.00228506
0.00441737
0.0043475
0.00427811
0.00420258
0.00411437
0.00400824
0.00388348
0.0037448
0.00360078
0.0034605
0.00333093
0.00321469
0.00311428
0.00302831
0.0029539
0.00288728
0.0028085
0.00272019
0.00262289
0.00251982
0.00241562
0.00231422
0.00222102
0.00214222
0.00208272
0.00204567
0.00203082
0.00203544
0.00205574
0.00209443
0.00396088
0.00393047
0.00391822
0.0039145
0.00390017
0.0038675
0.00381545
0.00374771
0.00367117
0.0035926
0.00351603
0.00344227
0.00337348
0.00330956
0.00324939
0.00318838
0.00311383
0.00303132