/*--------------------------------*- C++ -*----------------------------------*\
  =========                 |
  \\      /  F ield         | OpenFOAM: The Open Source CFD Toolbox
   \\    /   O peration     | Website:  https://openfoam.org
    \\  /    A nd           | Version:  12
     \\/     M anipulation  |
\*---------------------------------------------------------------------------*/
FoamFile
{
    format      ascii;
    class       volScalarField;
    location    "1700/air";
    object      epsilon;
}
// * * * * * * * * * * * * * * * * * * * * * * * * * * * * * * * * * * * * * //

dimensions      [0 2 -3 0 0 0 0];

internalField   nonuniform List<scalar> 
243000
(
2.11228
2.70185
3.17435
3.55577
3.83628
4.01539
4.10123
4.10629
4.04396
3.92775
3.76855
3.57742
3.36752
3.15107
2.93083
2.70779
2.4816
2.25815
2.04404
1.84582
1.66417
1.49214
1.31786
1.21131
1.03911
0.206853
0.776885
0.145338
0.105098
0.0768898
1.33983
1.68891
1.8945
1.99969
2.03933
2.03277
1.99235
1.92771
1.84601
1.75292
1.65227
1.54842
1.44457
1.34348
1.24631
1.15373
1.06559
0.984617
0.91266
0.85165
0.800444
0.754361
0.705425
0.64742
0.568511
0.476506
0.380146
0.277141
0.187232
0.112381
1.2573
1.6514
1.83392
1.8947
1.88138
1.82273
1.73699
1.63674
1.53017
1.42295
1.31828
1.21923
1.12717
1.04307
0.967196
0.899425
0.839113
0.788007
0.746443
0.714891
0.691885
0.673799
0.654227
0.624971
0.578444
0.511158
0.427939
0.330098
0.238304
0.150274
1.17432
1.6162
1.88695
2.01717
2.04912
2.01587
1.9434
1.84801
1.74065
1.62903
1.51796
1.41139
1.31127
1.21937
1.13649
1.06297
0.998421
0.945073
0.902771
0.871136
0.847837
0.828948
0.8082
0.776991
0.727024
0.653052
0.558379
0.444443
0.333025
0.222845
1.02376
1.42301
1.74585
1.94683
2.04269
2.06034
2.02443
1.95436
1.8639
1.76267
1.65754
1.55346
1.45348
1.36055
1.27624
1.20166
1.13688
1.08447
1.04368
1.0131
0.989454
0.968686
0.94514
0.910926
0.857796
0.779866
0.678782
0.556049
0.431285
0.305515
0.914902
1.17049
1.48458
1.73621
1.89852
1.97948
1.99639
1.96736
1.90667
1.82803
1.73989
1.64732
1.55497
1.46716
1.3864
1.31494
1.25334
1.2044
1.16677
1.13806
1.11429
1.09128
1.06417
1.02625
0.970043
0.889732
0.785664
0.65934
0.526954
0.391154
0.956555
1.05852
1.26114
1.48169
1.67141
1.80618
1.87818
1.89856
1.87965
1.83398
1.7699
1.6961
1.61792
1.54069
1.46784
1.40311
1.34753
1.304
1.27072
1.24455
1.22097
1.19583
1.16504
1.12318
1.06401
0.982253
0.877515
0.751132
0.615893
0.474842
1.0932
1.05808
1.1438
1.29677
1.46517
1.60835
1.70791
1.77087
1.79431
1.78613
1.75348
1.70428
1.64529
1.58312
1.52204
1.46705
1.41982
1.38316
1.35511
1.33203
1.30907
1.28223
1.24808
1.20249
1.14062
1.05804
0.954133
0.830004
0.695879
0.553173
1.27088
1.1573
1.12695
1.19001
1.30776
1.43668
1.54573
1.62553
1.67394
1.69848
1.69806
1.67703
1.64106
1.59724
1.55092
1.5081
1.47101
1.44232
1.42019
1.40068
1.37884
1.35091
1.31408
1.26533
1.20119
1.11829
1.01629
0.8962
0.765285
0.62392
1.47747
1.32578
1.21066
1.17415
1.21617
1.30397
1.40215
1.48812
1.55167
1.59253
1.61582
1.62115
1.60953
1.58624
1.55679
1.52787
1.50222
1.48236
1.46666
1.45115
1.43099
1.40272
1.36409
1.31301
1.24728
1.16476
1.06534
0.949469
0.823243
0.685709
1.7068
1.54384
1.37504
1.25516
1.20828
1.23015
1.2925
1.36734
1.43541
1.48794
1.52409
1.54685
1.55663
1.554
1.54234
1.52832
1.51492
1.50445
1.4956
1.48451
1.4666
1.4388
1.39935
1.34696
1.28066
1.19881
1.10177
0.990543
0.869907
0.738524
1.95382
1.77848
1.58712
1.41542
1.29165
1.23393
1.23711
1.27859
1.33494
1.38953
1.43421
1.46703
1.49045
1.50531
1.51083
1.51179
1.51083
1.51008
1.50834
1.50211
1.48708
1.46052
1.42125
1.36871
1.30227
1.22142
1.12714
1.02066
0.905931
0.781468
2.2147
2.02917
1.83352
1.63228
1.45475
1.32443
1.25511
1.24157
1.2656
1.30712
1.35128
1.38987
1.42064
1.44648
1.46621
1.48104
1.49215
1.50102
1.50649
1.50535
1.49374
1.46938
1.43124
1.37925
1.31347
1.23417
1.14288
1.04112
0.932248
0.814996
2.48662
2.29274
2.09355
1.88066
1.67412
1.49177
1.35439
1.27373
1.24574
1.25525
1.2848
1.32052
1.35446
1.38467
1.41342
1.43951
1.46145
1.47939
1.49192
1.49602
1.48815
1.46628
1.42972
1.3791
1.31501
1.23817
1.1504
1.05333
0.950162
0.840136
2.76651
2.56568
2.36157
2.14559
1.92698
1.71505
1.52693
1.38193
1.29074
1.25043
1.24808
1.26787
1.29684
1.32757
1.35828
1.39137
1.42176
1.44761
1.46671
1.47604
1.4722
1.45359
1.41972
1.3712
1.3094
1.23541
1.15128
1.05887
0.961497
0.859151
3.05087
2.84476
2.63741
2.42189
2.19934
1.97353
1.75439
1.55931
1.40648
1.30601
1.25565
1.24381
1.25585
1.27966
1.30837
1.34179
1.37679
1.4085
1.43319
1.44742
1.44772
1.43278
1.40227
1.35695
1.29836
1.22867
1.15016
1.06376
0.972218
0.876514
3.33538
3.1258
2.91727
2.70478
2.48243
2.2516
2.01667
1.78918
1.58672
1.42683
1.31893
1.26096
1.24193
1.24811
1.26825
1.29688
1.33103
1.36541
1.394
1.41235
1.41668
1.40566
1.37907
1.33852
1.28564
1.2217
1.14873
1.06801
0.981987
0.89219
3.61453
3.40297
3.19469
2.98487
2.76675
2.53701
2.29673
2.05215
1.81629
1.60727
1.44197
1.32908
1.26599
1.24203
1.24415
1.26239
1.29021
1.32252
1.35231
1.37342
1.38135
1.37487
1.35409
1.31953
1.2724
1.21411
1.1466
1.07134
0.990584
0.906152
3.88189
3.6697
3.46318
3.25969
3.04693
2.82162
2.58247
2.33173
2.07736
1.83394
1.62001
1.45177
1.33652
1.27083
1.24392
1.2437
1.26012
1.28564
1.31272
1.33463
1.34606
1.34431
1.32887
1.29993
1.25844
1.20567
1.14351
1.07352
0.997822
0.918378
4.13131
3.92059
3.71833
3.52191
3.31687
3.09895
2.86538
2.6159
2.35441
2.09096
1.84168
1.62535
1.45703
1.342
1.27576
1.2476
1.24557
1.25944
1.28024
1.30016
1.31298
1.31466
1.30376
1.27993
1.24384
1.1964
1.13944
1.07448
1.00362
0.928834
4.35834
4.15278
3.96264
3.77234
3.57498
3.36545
3.13996
2.89645
2.63585
2.36405
2.09314
1.8406
1.62518
1.4593
1.34659
1.28145
1.25269
1.2485
1.25816
1.27242
1.28384
1.2871
1.27955
1.26008
1.22893
1.18654
1.13453
1.07435
1.0081
0.937691
4.56116
4.36943
4.18616
4.00352
3.81546
3.61624
3.40128
3.16737
2.91353
2.64237
2.36192
2.08639
1.83426
1.62208
1.46086
1.3521
1.28859
1.25884
1.25122
1.25501
1.26137
1.26358
1.25762
1.24138
1.21438
1.17659
1.12921
1.07357
1.0116
0.94528
4.73497
4.55286
4.37971
4.20833
4.03265
3.84675
3.64555
3.42514
3.18314
2.91985
2.63985
2.35366
2.0771
1.82761
1.62109
1.46599
1.36123
1.2983
1.26617
1.25339
1.2498
1.24732
1.24037
1.22562
1.20158
1.16763
1.12436
1.07286
1.01484
0.952295
4.87266
4.70378
4.54371
4.38662
4.2263
4.05712
3.87383
3.67162
3.44672
3.19776
2.92683
2.64086
2.35219
2.0766
1.83196
1.63183
1.48174
1.37847
1.31375
1.27676
1.2567
1.24424
1.2323
1.21619
1.19318
1.16162
1.12146
1.07337
1.01889
0.959795
4.98192
4.83045
4.68696
4.54732
4.40589
4.25946
4.10143
3.92413
3.72139
3.49243
3.23899
2.96342
2.67455
2.38477
2.11122
1.87023
1.67275
1.52203
1.41516
1.34389
1.29793
1.26737
1.24383
1.22099
1.19467
1.16257
1.12362
1.07777
1.02595
0.969708
5.07217
4.94489
4.82542
4.71036
4.59577
4.47753
4.35035
4.20758
4.04228
3.84968
3.62731
3.375
3.09776
2.80619
2.51384
2.23705
1.99009
1.78319
1.62117
1.50051
1.41342
1.35059
1.30304
1.26328
1.22573
1.1867
1.14386
1.09633
1.0442
0.988686
5.19165
5.10601
5.0273
4.95395
4.88362
4.81292
4.73689
4.64862
4.54017
4.40349
4.23166
4.02057
3.7709
3.48977
3.1898
2.88167
2.57946
2.30248
2.06411
1.86869
1.71351
1.59197
1.49578
1.41705
1.34918
1.28704
1.22696
1.16679
1.10547
1.04376
5.55071
5.54025
5.53422
5.53439
5.54287
5.55828
5.57574
5.58582
5.57713
5.53725
5.45257
5.31429
5.11873
4.86865
4.57492
4.23917
3.86855
3.49585
3.14376
2.82804
2.55418
2.32136
2.12446
1.95729
1.81359
1.68669
1.57164
1.46525
1.36548
1.27532
7.20114
7.31009
7.41199
7.53978
7.7074
7.90771
8.12132
8.32448
8.49888
8.6317
8.69087
8.67108
8.56885
8.38772
8.12772
7.77843
7.32504
6.82661
6.31915
5.82844
5.36821
4.94437
4.55908
4.21187
3.90089
3.60898
3.33471
3.07967
2.84668
2.65113
16.5461
16.5261
16.5945
16.8809
17.2858
17.6887
18.0079
18.2538
18.4385
18.586
18.6005
18.5636
18.4773
18.357
18.1674
17.9042
17.4667
17.0341
16.6189
16.2496
15.9165
15.6226
15.3632
15.1405
14.9546
14.6439
14.2811
13.9072
13.5686
13.2963
4.608
5.80996
6.574
7.07697
7.35143
7.42778
7.34112
7.13224
6.83806
6.48993
6.10886
5.71938
5.33855
4.98157
4.64902
4.34375
4.06275
3.82076
3.63937
3.53002
3.45492
3.33978
3.11863
2.75991
2.27723
1.71741
1.161
0.675371
0.128606
0.114514
3.09095
3.47856
3.70204
3.82505
3.85519
3.80313
3.68228
3.51255
3.31308
3.10052
2.8878
2.68215
2.49156
2.32234
2.17815
2.061
1.97326
1.92384
1.92794
1.98989
2.07819
2.13373
2.10419
1.96651
1.73035
1.41655
1.06688
0.717067
0.419228
0.227742
2.85612
3.1048
3.20916
3.23776
3.20438
3.12142
2.99721
2.84301
2.67114
2.49291
2.31749
2.15143
1.9998
1.86737
1.75756
1.67503
1.62352
1.61177
1.65283
1.74914
1.8717
1.96774
1.98831
1.91201
1.7371
1.48493
1.18786
0.868592
0.591033
0.361422
2.73441
2.90728
2.96041
2.95451
2.90207
2.81521
2.69982
2.56319
2.41364
2.25953
2.10812
1.96543
1.83549
1.72258
1.63026
1.56457
1.53021
1.53582
1.59161
1.69701
1.82675
1.93446
1.97597
1.92707
1.78791
1.57079
1.30464
1.00464
0.732386
0.489805
2.61115
2.71302
2.73442
2.71447
2.66124
2.5828
2.48331
2.36745
2.24063
2.10947
1.98
1.85765
1.74619
1.64969
1.57223
1.52028
1.49931
1.51822
1.58327
1.69212
1.8202
1.92829
1.97676
1.94434
1.82824
1.63777
1.39704
1.11684
0.85346
0.608416
2.4509
2.48638
2.48411
2.46201
2.41927
2.35819
2.27981
2.18734
2.08463
1.97702
1.86953
1.76711
1.67358
1.59312
1.52997
1.49123
1.48256
1.51279
1.58529
1.69472
1.81835
1.92136
1.96986
1.94463
1.84636
1.67885
1.46163
1.20377
0.953227
0.713911
2.25069
2.20734
2.19081
2.18099
2.15947
2.12249
2.06999
2.0038
1.92706
1.84379
1.75857
1.67614
1.60062
1.53631
1.48742
1.46173
1.46483
1.505
1.58403
1.69278
1.80946
1.90419
1.95029
1.92991
1.84247
1.69496
1.50011
1.26579
1.03218
0.804695
2.07158
1.93745
1.88925
1.88388
1.88527
1.87739
1.8538
1.81482
1.76417
1.70517
1.64227
1.57987
1.5222
1.47396
1.43928
1.42628
1.44057
1.48939
1.57199
1.67876
1.78772
1.87524
1.91764
1.90038
1.82242
1.69008
1.51613
1.30551
1.09067
0.878107
1.939
1.74917
1.66507
1.64293
1.64718
1.65296
1.64805
1.62891
1.60102
1.56381
1.52153
1.47822
1.4378
1.40507
1.38429
1.38333
1.40785
1.46399
1.54901
1.65226
1.75444
1.83448
1.87299
1.85797
1.78909
1.67058
1.51355
1.32607
1.13076
0.934581
1.90619
1.67385
1.5353
1.47482
1.46128
1.466
1.47054
1.46637
1.45215
1.42788
1.40139
1.37417
1.34923
1.33077
1.3229
1.33301
1.36646
1.42824
1.51441
1.614
1.70957
1.78279
1.81785
1.80492
1.74433
1.63891
1.49837
1.33035
1.15465
0.975289
1.94118
1.69025
1.50444
1.39241
1.34248
1.32727
1.32716
1.32812
1.32346
1.30994
1.29095
1.27324
1.26001
1.25354
1.25683
1.27652
1.31727
1.38295
1.46908
1.56468
1.654
1.72138
1.7538
1.74324
1.69047
1.59769
1.47284
1.32285
1.16513
1.00225
2.03126
1.76517
1.55169
1.40008
1.30427
1.25092
1.22966
1.22199
1.21787
1.21007
1.1975
1.18319
1.17531
1.17693
1.18859
1.21573
1.26183
1.3296
1.41434
1.50561
1.5892
1.65171
1.6824
1.67459
1.62943
1.54892
1.43896
1.30631
1.16426
1.01736
2.16859
1.89093
1.65933
1.47828
1.34458
1.25348
1.19371
1.16084
1.14446
1.13317
1.12205
1.10998
1.10172
1.10548
1.12149
1.15317
1.20222
1.27012
1.3521
1.4386
1.51689
1.57546
1.60534
1.6008
1.56312
1.49417
1.39853
1.28257
1.15606
1.02436
2.34461
2.06273
1.8252
1.62489
1.46102
1.33258
1.23217
1.16294
1.11833
1.08934
1.07062
1.05583
1.04552
1.04494
1.05985
1.09221
1.14123
1.20708
1.28485
1.366
1.4392
1.49451
1.52435
1.52352
1.49334
1.43557
1.35411
1.2545
1.14385
1.02593
2.55229
2.27533
2.03859
1.82875
1.64421
1.48544
1.34583
1.23356
1.1503
1.09267
1.05389
1.02736
1.00979
1.00214
1.00891
1.03725
1.08254
1.14373
1.21567
1.29064
1.35866
1.41109
1.44135
1.44475
1.42215
1.37581
1.30884
1.22426
1.12791
1.02285
2.78869
2.52683
2.29823
2.08336
1.88482
1.70219
1.52924
1.37613
1.24981
1.15269
1.08246
1.03371
1.00095
0.980959
0.976604
0.994152
1.03096
1.08423
1.14832
1.21599
1.2784
1.32805
1.35908
1.36755
1.3535
1.31816
1.26358
1.19197
1.10842
1.0155
3.04886
2.81013
2.59523
2.38189
2.17227
1.96888
1.76963
1.58247
1.41589
1.27634
1.16666
1.08531
1.02683
0.987984
0.968923
0.969961
0.992719
1.03392
1.08758
1.14648
1.20258
1.25001
1.2827
1.29615
1.28923
1.26312
1.21914
1.15889
1.08661
1.00482
3.31925
3.10355
2.90196
2.6935
2.481
2.26609
2.05005
1.83842
1.63936
1.46123
1.31069
1.19061
1.09831
1.03273
0.991903
0.972834
0.976145
1.00029
1.04024
1.08884
1.13827
1.18227
1.21487
1.23169
1.23044
1.21184
1.17672
1.1263
1.06391
0.991936
3.57595
3.37845
3.19282
2.99768
2.79249
2.57765
2.35504
2.12929
1.9079
1.69955
1.51295
1.35409
1.22505
1.12434
1.05498
1.0105
0.990256
0.99355
1.01559
1.05019
1.08973
1.12761
1.15818
1.17648
1.17903
1.16601
1.1379
1.0956
1.0417
0.978203
3.79883
3.62715
3.46461
3.28984
3.10011
2.89448
2.67483
2.44526
2.2126
1.98501
1.77152
1.57944
1.41414
1.27565
1.17178
1.09594
1.0466
1.0236
1.02309
1.03824
1.06295
1.09151
1.1172
1.13392
1.13787
1.12816
1.10498
1.06892
1.02177
0.965277
3.99681
3.85479
3.71998
3.57107
3.40361
3.21562
3.00875
2.78673
2.55562
2.32239
2.09489
1.87997
1.68445
1.51251
1.36643
1.25302
1.16685
1.10939
1.07755
1.06621
1.07031
1.08384
1.09943
1.11044
1.11227
1.10278
1.08191
1.04953
1.00663
0.955269
4.17903
4.07131
3.96882
3.85167
3.71426
3.55405
3.37272
3.17401
2.9628
2.74354
2.52113
2.29972
2.08546
1.88401
1.69894
1.53674
1.40172
1.29516
1.21689
1.16503
1.13628
1.1248
1.12214
1.11987
1.11293
1.09832
1.07453
1.04129
0.999533
0.950827
4.36658
4.29948
4.23679
4.16116
4.06681
3.95175
3.81835
3.6708
3.51186
3.34118
3.15738
2.95837
2.74704
2.52786
2.30846
2.08847
1.88048
1.69387
1.53649
1.41322
1.32436
1.26472
1.2247
1.19334
1.16472
1.13438
1.09957
1.05875
1.01148
0.960649
4.60853
4.59485
4.58825
4.5752
4.55181
4.51881
4.48083
4.44227
4.40218
4.35125
4.27575
4.16113
4.00183
3.79694
3.55593
3.26982
2.94224
2.60999
2.29793
2.02791
1.80982
1.64234
1.51529
1.4143
1.33138
1.25944
1.19331
1.12949
1.06583
1.00418
5.02409
5.09613
5.18688
5.2891
5.40503
5.54202
5.70906
5.91083
6.14015
6.3693
6.56073
6.67552
6.68938
6.5899
6.37856
6.03093
5.5155
4.89856
4.25878
3.65661
3.12683
2.68477
2.32494
2.03592
1.80502
1.61862
1.46523
1.336
1.22393
1.13007
5.94592
6.18848
6.48677
6.84481
7.27787
7.80326
8.43592
9.17664
10.0041
10.8526
11.6429
12.2907
12.745
12.9614
12.9216
12.5618
11.791
10.6992
9.42569
8.10931
6.84122
5.69409
4.70643
3.88794
3.22756
2.70311
2.28976
1.96425
1.7053
1.51203
8.46728
9.1308
9.93674
10.9023
12.0606
13.4337
15.043
16.8701
18.8572
20.8564
22.7092
24.2906
25.5149
26.3194
26.6517
26.3688
25.3112
23.5815
21.3761
18.9168
16.3416
13.818
11.4767
9.40478
7.64449
6.19611
5.03486
4.11826
3.40046
2.8905
16.3021
17.9436
19.7212
21.7794
24.17
26.8852
29.9621
33.3052
36.7707
40.0488
42.9663
45.417
47.2689
48.5017
49.0542
48.7019
47.4061
45.262
42.4001
38.9968
35.1673
31.1326
27.0709
23.1716
19.6007
16.4544
13.7667
11.5078
9.63994
8.29676
35.1968
36.8767
39.1618
41.9735
45.179
48.7156
52.6915
56.5611
60.1323
63.1986
65.6462
67.519
68.5052
68.8259
68.4242
67.0301
65.22
63.0815
60.6345
57.6812
54.3795
50.8702
47.2263
43.5548
39.953
36.4615
33.111
29.9336
26.9791
24.7413
48.993
48.0166
48.7573
50.6954
53.2029
55.7755
58.1383
60.1116
61.6627
62.734
63.3605
63.6798
63.515
62.9563
61.614
59.1925
56.9802
54.7087
52.5943
50.6306
48.8841
47.4068
46.2942
45.5856
45.2114
44.9399
44.675
44.3701
43.8794
43.0975
7.91786
9.63891
10.4089
10.8662
11.0688
11.0116
10.7327
10.2922
9.7464
9.14468
8.52181
7.91509
7.33943
6.81923
6.35541
5.96022
5.63555
5.44017
5.47251
5.75486
6.0981
6.23483
6.00857
5.40537
4.51447
3.45351
2.37844
1.39153
0.697714
0.523309
4.69688
5.19106
5.3798
5.46711
5.46513
5.36121
5.1637
4.8967
4.58625
4.2574
3.93012
3.61841
3.3335
3.08252
2.87481
2.71638
2.62308
2.63076
2.80415
3.1527
3.54655
3.80201
3.81142
3.57412
3.14825
2.60427
1.9963
1.36253
0.842772
0.48005
4.32058
4.57351
4.64907
4.64612
4.57101
4.43476
4.24277
4.00695
3.74341
3.46843
3.19679
2.9399
2.70604
2.50177
2.33505
2.2158
2.15837
2.19518
2.37995
2.71895
3.10568
3.38596
3.46172
3.32488
3.02467
2.59385
2.09297
1.5469
1.06245
0.657325
4.21118
4.32782
4.33945
4.29402
4.19683
4.05686
3.87743
3.66557
3.43228
3.18965
2.94982
2.72254
2.51514
2.33438
2.18898
2.08997
2.05185
2.10429
2.28738
2.6017
2.96319
3.23782
3.33702
3.24775
3.00556
2.64452
2.20654
1.7132
1.25275
0.834566
4.14125
4.13291
4.08569
4.01433
3.91315
3.78252
3.62218
3.43589
3.23129
3.01784
2.80581
2.60374
2.41866
2.25849
2.13204
2.05165
2.03233
2.10251
2.28848
2.57575
2.89964
3.15393
3.25624
3.19148
2.98565
2.67344
2.28618
1.83992
1.4077
0.995261
4.04657
3.91582
3.81576
3.72699
3.63067
3.51681
3.38048
3.22275
3.04856
2.86497
2.68082
2.50391
2.3414
2.20182
2.09474
2.0339
2.03422
2.12031
2.30676
2.57511
2.86212
3.08577
3.17914
3.12616
2.94617
2.6681
2.32596
1.92513
1.52657
1.13349
3.91143
3.6723
3.51935
3.41459
3.32702
3.23454
3.12666
3.0005
2.8583
2.70563
2.55042
2.39974
2.261
2.14277
2.05598
2.01569
2.03665
2.13791
2.32416
2.57418
2.82644
3.01743
3.09539
3.04685
2.88633
2.63769
2.32882
1.97287
1.61054
1.24389
3.74189
3.40797
3.20027
3.07796
2.99989
2.93086
2.85403
2.7622
2.65365
2.53334
2.40794
2.28429
2.17018
2.07436
2.00853
1.98934
2.03089
2.14691
2.33297
2.56332
2.78141
2.94176
3.00218
2.95391
2.80942
2.58565
2.30775
1.9895
1.6636
1.32721
3.56752
3.12836
2.86321
2.72372
2.65454
2.60908
2.56543
2.5107
2.43603
2.34844
2.25317
2.15686
2.06775
1.9949
1.95033
1.95206
2.01327
2.1441
2.32895
2.53649
2.72496
2.85627
2.89928
2.84932
2.7173
2.51574
2.26707
1.98157
1.69048
1.38568
3.38338
2.88397
2.58627
2.42271
2.34658
2.31106
2.28703
2.25704
2.21156
2.15613
2.08969
2.02003
1.95537
1.9051
1.88167
1.90319
1.98198
2.1219
2.30192
2.49096
2.65429
2.75994
2.78729
2.7354
2.61384
2.43325
2.2111
1.957
1.69589
1.42206
3.24544
2.73467
2.39524
2.19832
2.09864
2.05527
2.03743
2.02296
1.99951
1.96594
1.92383
1.8785
1.83656
1.80754
1.80386
1.84326
1.93657
2.08236
2.25617
2.428
2.56829
2.65254
2.66695
2.61409
2.50241
2.34133
2.14347
1.91947
1.68814
1.44561
3.18532
2.68121
2.31137
2.06653
1.93231
1.86262
1.83408
1.8215
1.80953
1.79165
1.76696
1.73903
1.71642
1.70616
1.71916
1.77368
1.8778
2.02565
2.19109
2.34704
2.46742
2.5346
2.53957
2.48755
2.38608
2.24315
2.06845
1.87376
1.67237
1.45725
3.19953
2.71084
2.33232
2.05363
1.86398
1.75119
1.69629
1.66888
1.65481
1.64273
1.62853
1.6122
1.60177
1.60566
1.63129
1.69694
1.807
1.95257
2.10832
2.24908
2.35298
2.40737
2.40666
2.35774
2.26732
2.14208
1.99142
1.8244
1.64884
1.45628
3.27054
2.80201
2.42221
2.12086
1.89689
1.74261
1.64229
1.5818
1.55099
1.53173
1.51822
1.50677
1.50171
1.51239
1.54536
1.61697
1.72756
1.86656
2.0108
2.13712
2.22758
2.27301
2.27028
2.22677
2.14865
2.04265
1.91568
1.77111
1.61701
1.44577
3.40244
2.95506
2.57783
2.26056
2.0077
1.81468
1.67374
1.57771
1.51417
1.47281
1.44814
1.4323
1.42591
1.43431
1.46828
1.53959
1.64487
1.77308
1.9035
2.01588
2.09535
2.13503
2.13368
2.09823
2.03583
1.94802
1.83975
1.71444
1.57941
1.42771
3.59293
3.16643
2.79895
2.47625
2.20186
1.975
1.79321
1.65391
1.55151
1.47964
1.43156
1.4005
1.384
1.38447
1.40967
1.47325
1.56699
1.67986
1.79411
1.89241
1.96276
1.99924
2.00422
1.97965
1.92968
1.85687
1.76511
1.65705
1.53868
1.40437
3.83486
3.4344
3.08159
2.75866
2.46943
2.21498
1.99643
1.81491
1.66997
1.55923
1.47873
1.4229
1.38823
1.37351
1.38327
1.42994
1.50564
1.59834
1.69372
1.77726
1.84099
1.87784
1.88673
1.87011
1.83096
1.77116
1.69372
1.60087
1.49704
1.37785
4.12019
3.74785
3.41259
3.09428
2.79682
2.52216
2.27367
2.05506
1.8695
1.71819
1.60054
1.51309
1.45269
1.41645
1.40572
1.42679
1.47813
1.546
1.61957
1.68851
1.74244
1.77542
1.7856
1.77427
1.74338
1.69397
1.6282
1.54798
1.45654
1.35028
4.43319
4.09059
3.77613
3.46801
3.16969
2.88355
2.61421
2.36721
2.14818
1.96095
1.80781
1.68736
1.59776
1.53556
1.50061
1.49328
1.51496
1.55302
1.59917
1.6448
1.68195
1.70478
1.71096
1.70025
1.67337
1.63048
1.57276
1.50206
1.41996
1.32411
4.7557
4.44663
4.158
3.86719
3.57706
3.29018
3.01213
2.74962
2.50993
2.29858
2.11955
1.97264
1.85731
1.76997
1.7102
1.67289
1.66045
1.66138
1.66969
1.68014
1.68781
1.68939
1.68184
1.66301
1.63304
1.5905
1.53508
1.46838
1.39113
1.30241
5.07799
4.80806
4.5521
4.2881
4.01829
3.74541
3.47579
3.21714
2.97781
2.76384
2.57957
2.42437
2.29817
2.19666
2.119
2.05559
2.00333
1.95336
1.90448
1.85801
1.81466
1.77422
1.73418
1.69129
1.64261
1.586
1.52246
1.45215
1.37478
1.28922
5.40946
5.18549
4.97158
4.74805
4.51649
4.27988
4.04543
3.82187
3.61825
3.44002
3.28998
3.16492
3.06359
2.97919
2.90843
2.83383
2.73762
2.61325
2.46914
2.32063
2.18034
2.05426
1.94252
1.84194
1.7481
1.6574
1.56785
1.47653
1.38401
1.29161
5.79099
5.62384
5.46811
5.30796
5.14476
4.98222
4.82885
4.69537
4.59145
4.52097
4.48209
4.46564
4.46763
4.47525
4.47735
4.43493
4.29929
4.06109
3.7468
3.40039
3.06057
2.74947
2.47763
2.24457
2.0445
1.87117
1.71877
1.58186
1.45616
1.34143
6.32864
6.24046
6.17567
6.1231
6.08494
6.06701
6.08122
6.14278
6.26224
6.44024
6.66504
6.91488
7.1813
7.43785
7.66205
7.74846
7.59968
7.19254
6.57797
5.84684
5.09344
4.37998
3.74727
3.2091
2.76173
2.3952
2.09658
1.85226
1.64888
1.48353
7.27349
7.31677
7.41757
7.56742
7.77144
8.04278
8.40106
8.86311
9.44195
10.1291
10.8916
11.682
12.4865
13.2536
13.941
14.3068
14.1914
13.5505
12.4582
11.0709
9.5612
8.05707
6.66971
5.46429
4.45977
3.65055
3.01401
2.51958
2.13517
1.85328
9.26586
9.59399
10.0322
10.5839
11.2637
12.098
13.116
14.3305
15.7479
17.3333
19.0044
20.6694
22.3206
23.8601
25.2156
25.9333
25.832
24.8748
23.1649
20.9033
18.3168
15.5791
12.9127
10.4862
8.39081
6.66516
5.29961
4.24578
3.44265
2.88703
14.04
15.0122
16.1389
17.394
18.8893
20.6624
22.731
25.0813
27.6853
30.4508
33.221
35.8565
38.3785
40.6014
42.4038
43.1431
42.7612
41.3444
39.0446
36.0357
32.4804
28.5034
24.4155
20.4553
16.796
13.6044
10.9776
8.86814
7.2067
6.06407
25.4383
27.1994
29.1938
31.4739
33.9881
36.7923
39.9274
43.3065
46.8251
50.3187
53.5882
56.492
58.8389
60.4009
61.211
60.5074
58.9697
56.796
54.2557
51.3625
48.1281
44.6214
40.5871
36.2157
31.7802
27.4953
23.6926
20.3646
17.5249
15.474
45.2823
46.2597
48.0862
50.6522
53.735
57.0845
60.5123
63.7765
66.7289
69.2625
71.3145
72.8271
73.6457
73.5183
72.4705
69.7166
66.7566
63.6847
60.8487
58.1663
55.6456
53.2895
51.1483
49.202
47.4173
45.5303
43.1544
40.6085
37.9999
35.7475
54.8605
54.3572
55.3558
57.459
60.1641
62.9761
65.5626
67.7164
69.3354
70.3625
70.8307
70.7911
70.0505
68.4133
65.6262
61.4406
57.6176
54.0526
51.1203
48.7849
47.0935
45.983
45.5124
45.6778
46.3872
47.362
48.4251
49.3324
49.8296
49.7459
11.6931
14.0236
14.7741
15.0122
15.0554
14.8196
14.3187
13.6206
12.7966
11.9166
11.0244
10.1668
9.35619
8.63254
7.99726
7.48163
7.11058
7.08474
7.73633
9.03154
10.2906
10.8525
10.5313
9.47573
7.95319
6.19275
4.41967
2.78153
1.59417
0.848855
6.50296
7.10308
7.26189
7.25468
7.18654
7.01574
6.7357
6.36618
5.93899
5.48746
5.03788
4.60703
4.21212
3.86086
3.5709
3.35292
3.25178
3.38066
3.9313
4.87377
5.78942
6.27731
6.23395
5.77877
5.07149
4.23391
3.34089
2.40474
1.59043
0.991841
5.94161
6.17793
6.20125
6.13045
5.99713
5.80213
5.54291
5.22759
4.8737
4.50227
4.1328
3.77856
3.45249
3.16308
2.92628
2.75771
2.69253
2.82671
3.31599
4.12495
4.93067
5.41107
5.46365
5.17345
4.66631
4.03622
3.31708
2.53644
1.81986
1.21918
5.83575
5.86429
5.80219
5.69072
5.53775
5.34301
5.10298
4.82114
4.50852
4.18046
3.85282
3.53663
3.24382
2.98438
2.77503
2.63279
2.59306
2.74511
3.20012
3.90329
4.61897
5.06845
5.15467
4.94034
4.52774
3.98888
3.3706
2.6815
2.02164
1.43145
5.80153
5.65384
5.51407
5.37103
5.21357
5.03103
4.81544
4.56628
4.29027
3.99903
3.70588
3.42003
3.15524
2.92164
2.73693
2.621
2.61116
2.78954
3.23353
3.85683
4.47067
4.86895
4.95525
4.77844
4.41964
3.94311
3.39401
2.78082
2.17355
1.60387
5.74292
5.43837
5.22239
5.05108
4.89586
4.73283
4.54734
4.33397
4.09584
3.84166
3.58286
3.32779
3.09124
2.88424
2.726
2.6399
2.66505
2.87545
3.30602
3.86779
4.38605
4.72007
4.78649
4.62596
4.30262
3.87366
3.37661
2.82966
2.27542
1.73594
5.63404
5.19263
4.9031
4.70383
4.55354
4.41389
4.26169
4.08637
3.888
3.67277
3.45028
3.22857
3.02206
2.84383
2.71525
2.66313
2.72783
2.97234
3.39177
3.8901
4.32586
4.58974
4.62495
4.46826
4.1715
3.77902
3.32743
2.83009
2.33141
1.82958
5.47312
4.91721
4.55792
4.3299
4.1831
4.06718
3.94978
3.81431
3.65735
3.48227
3.29762
3.11172
2.93798
2.79075
2.69496
2.68046
2.78792
3.06484
3.47147
3.90846
4.26574
4.46205
4.46185
4.30231
4.02452
3.66242
3.25166
2.80215
2.35139
1.89046
5.28374
4.62054
4.20056
3.94204
3.7951
3.70075
3.61647
3.51976
3.40449
3.27017
3.12463
2.97561
2.83668
2.72259
2.66201
2.68754
2.83858
3.14268
3.53121
3.91329
4.19573
4.32814
4.29417
4.12878
3.86533
3.53041
3.15677
2.75313
2.34772
1.93116
5.075
4.32655
3.85105
3.56686
3.41559
3.33352
3.27514
3.2123
3.13635
3.04175
2.9348
2.8227
2.71924
2.64018
2.61615
2.68233
2.87469
3.19715
3.5647
3.89125
4.10833
4.18338
4.12008
3.94995
3.6995
3.39096
3.05093
2.69241
2.33257
1.95443
4.85757
4.08227
3.56432
3.25005
3.08193
2.99889
2.95441
2.91587
2.8686
2.80654
2.73528
2.65817
2.58969
2.54607
2.55816
2.66382
2.89116
3.22272
3.57021
3.83786
3.99734
4.02487
3.93917
3.7676
3.53098
3.24814
2.94244
2.6279
2.30531
1.95647
4.68497
3.90934
3.35648
3.01173
2.81607
2.71729
2.67185
2.64484
2.61749
2.5805
2.53612
2.48957
2.45386
2.44426
2.48978
2.6317
2.88999
3.22181
3.52882
3.75071
3.86038
3.85195
3.7518
3.58347
3.36333
3.10735
2.83989
2.55964
2.267
1.94595
4.5815
3.82473
3.26149
2.86883
2.63772
2.50898
2.44682
2.41605
2.39665
2.37558
2.35188
2.32713
2.31954
2.3391
2.41479
2.58659
2.85927
3.17563
3.44808
3.62827
3.69833
3.66638
3.56035
3.40117
3.20151
2.97952
2.74179
2.48805
2.22189
1.92665
4.5607
3.83779
3.27721
2.85992
2.56982
2.3911
2.29824
2.24704
2.22177
2.20524
2.1935
2.18525
2.1953
2.23799
2.33849
2.5314
2.8052
3.09609
3.33193
3.47529
3.51681
3.47296
3.37072
3.22892
3.0578
2.86131
2.64672
2.41612
2.17302
1.90104
4.60544
3.91617
3.36387
2.93068
2.60983
2.38899
2.24194
2.15326
2.10912
2.0842
2.07377
2.07416
2.09576
2.15125
2.26908
2.47283
2.7346
2.99257
3.19142
3.30368
3.32743
3.28265
3.19751
3.07795
2.92648
2.75013
2.5562
2.34563
2.12238
1.87125
4.71966
4.06541
3.52482
3.07824
2.72692
2.46461
2.27801
2.1542
2.07411
2.02748
2.00689
2.00646
2.03249
2.09184
2.21912
2.42341
2.6625
2.88298
3.04602
3.13438
3.15186
3.12156
3.04889
2.94285
2.80755
2.64833
2.47208
2.27824
2.07163
1.839
4.90711
4.28594
3.75703
3.30695
2.93406
2.63558
2.40631
2.23868
2.12209
2.04736
2.00876
1.99765
2.02186
2.08261
2.2078
2.40447
2.61447
2.79608
2.92707
3.00327
3.02313
2.99507
2.92827
2.83099
2.70681
2.56039
2.39705
2.21604
2.02259
1.8059
5.16189
4.57054
4.06322
3.61422
3.22543
2.89697
2.62894
2.41916
2.2636
2.15644
2.09413
2.0686
2.08626
2.14679
2.26849
2.45099
2.6311
2.77741
2.8892
2.95103
2.95846
2.92256
2.85151
2.75577
2.63467
2.49389
2.33546
2.16207
1.97768
1.77401
5.47061
4.91756
4.43155
3.9884
3.59112
3.24162
2.94334
2.69854
2.50855
2.37148
2.28681
2.24792
2.26124
2.32429
2.45144
2.62266
2.78126
2.90751
2.99352
3.02394
2.99635
2.92916
2.84566
2.73322
2.60098
2.45453
2.29269
2.12053
1.94022
1.746
5.82261
5.31094
4.84954
4.41929
4.02397
3.66633
3.35199
3.08651
2.87552
2.72096
2.62557
2.58437
2.60682
2.68762
2.83896
3.02552
3.18073
3.287
3.33026
3.29567
3.20558
3.09518
2.96776
2.81227
2.63801
2.45457
2.27594
2.09708
1.91474
1.72539
6.21679
5.74439
5.31388
4.90763
4.52957
4.18288
3.8747
3.61315
3.40722
3.26231
3.18433
3.17015
3.23592
3.3714
3.59082
3.83465
4.01472
4.09546
4.06043
3.925
3.73644
3.53731
3.30445
3.05347
2.80128
2.55689
2.32304
2.10667
1.90774
1.71642
6.66641
6.23675
5.84689
5.48155
5.14399
4.83769
4.57098
4.35425
4.19929
4.11525
4.11066
4.18902
4.36914
4.63673
5.01427
5.38757
5.63526
5.6861
5.53002
5.23217
4.87962
4.47913
4.02815
3.58307
3.17263
2.80719
2.48526
2.20158
1.9532
1.73786
7.22734
6.85196
6.52177
6.22549
5.96666
5.74907
5.58221
5.47995
5.45575
5.5267
5.7081
5.99993
6.43022
6.97529
7.67604
8.29422
8.67075
8.71004
8.38564
7.85499
7.16515
6.32831
5.45915
4.64117
3.92612
3.32756
2.836
2.43427
2.10296
1.83834
8.04446
7.74712
7.51357
7.33853
7.22677
7.18195
7.21591
7.35047
7.60562
8.00041
8.55448
9.26435
10.1673
11.2189
12.4867
13.4855
14.0884
14.1702
13.6881
12.6849
11.3213
9.74391
8.14726
6.66931
5.39976
4.36907
3.55855
2.93089
2.44509
2.08522
9.44328
9.28233
9.21875
9.2644
9.42704
9.7108
10.1298
10.7061
11.471
12.4441
13.6398
15.039
16.6872
18.507
20.5657
22.0061
22.8039
22.8401
21.9591
20.3365
18.1271
15.5412
12.8983
10.3983
8.22729
6.45253
5.06779
4.01679
3.23097
2.69047
12.1541
12.2703
12.5407
13.0032
13.6506
14.495
15.5526
16.8417
18.3948
20.2208
22.3014
24.5933
27.1431
29.8278
32.5889
33.5844
33.8301
33.1807
31.8148
29.8213
27.27
24.144
20.5084
16.8091
13.4714
10.612
8.30647
6.51814
5.17182
4.28317
17.7802
18.4372
19.3455
20.4409
21.7723
23.3885
25.2777
27.4424
29.8945
32.6114
35.5158
38.5554
41.7209
44.3691
46.6429
46.1926
45.1215
43.3908
41.4035
39.1029
36.4786
33.5008
30.1738
26.4748
22.3912
18.5112
15.1391
12.3319
10.1144
8.64159
28.9301
30.0665
31.5646
33.4015
35.4845
37.7761
40.3104
43.0617
45.9938
49.0463
52.0442
54.6883
57.206
58.7299
59.4156
56.5793
53.6466
50.6186
48.0516
45.6807
43.4358
41.2464
38.9859
36.6142
34.0738
31.0501
27.6241
24.2891
21.3874
19.3032
44.7607
45.3828
46.8055
48.8528
51.3045
53.9565
56.6457
59.2318
61.6482
63.8115
65.6483
67.0408
67.8359
67.3608
65.6154
60.073
55.4315
51.3292
48.2404
45.9249
44.2563
43.136
42.501
42.2569
42.242
42.196
41.7876
40.8127
39.2002
37.5668
50.2694
50.6109
51.9515
54.0882
56.6699
59.3055
61.75
63.8363
65.4715
66.5955
67.1803
67.1963
66.3426
64.0026
60.0196
52.8499
47.4444
42.9795
39.7884
37.5204
36.2414
35.8114
36.2059
37.3766
39.1515
41.2508
43.3957
45.2944
46.6627
47.2582
16.0576
19.0584
19.6995
19.7504
19.5031
19.022
18.2509
17.2515
16.1073
14.9027
13.6813
12.5004
11.371
10.3553
9.46301
8.76315
8.34277
8.74932
10.8681
14.2634
17.0316
18.0027
17.2521
15.3647
12.9053
10.2225
7.5768
5.10483
3.21745
1.87323
8.52838
9.25186
9.36289
9.27313
9.07648
8.81236
8.43599
7.95344
7.40304
6.81931
6.23414
5.6624
5.13021
4.64086
4.23634
3.92553
3.80543
4.15353
5.48335
7.48714
9.11598
9.74213
9.45236
8.61079
7.51956
6.34015
5.14899
3.92001
2.81594
1.92454
7.73161
7.96467
7.91565
7.76399
7.5413
7.26887
6.93161
6.53061
6.08416
5.61336
5.13983
4.67594
4.24153
3.84513
3.51728
3.2768
3.19893
3.52842
4.63938
6.26885
7.62124
8.21186
8.07963
7.49703
6.69648
5.82295
4.90843
3.90502
2.98007
2.19237
7.6112
7.55701
7.40304
7.21119