/*--------------------------------*- C++ -*----------------------------------*\
  =========                 |
  \\      /  F ield         | OpenFOAM: The Open Source CFD Toolbox
   \\    /   O peration     | Website:  https://openfoam.org
    \\  /    A nd           | Version:  12
     \\/     M anipulation  |
\*---------------------------------------------------------------------------*/
FoamFile
{
    format      ascii;
    class       volScalarField;
    location    "1700/air";
    object      k;
}
// * * * * * * * * * * * * * * * * * * * * * * * * * * * * * * * * * * * * * //

dimensions      [0 2 -2 0 0 0 0];

internalField   nonuniform List<scalar> 
243000
(
0.0534837
0.061461
0.066771
0.0703193
0.0722932
0.0729195
0.0724591
0.0711637
0.0692481
0.0668989
0.0642457
0.0614042
0.0585059
0.0556695
0.0529003
0.0501825
0.0474787
0.0448271
0.0422858
0.0399232
0.0377393
0.0356208
0.0333503
0.0320177
0.0290708
0.0272844
0.024238
0.0214843
0.0168367
0.0132965
0.0821948
0.0935456
0.098542
0.0997502
0.0987751
0.0964411
0.0932365
0.0895074
0.0854907
0.0813581
0.0772134
0.0731695
0.069303
0.0656751
0.0623
0.0591771
0.0562783
0.0536813
0.0514437
0.0496424
0.0482452
0.0470743
0.045783
0.043872
0.0412859
0.0375996
0.0328811
0.0273318
0.0215755
0.0157433
0.0879925
0.105567
0.113232
0.115731
0.115196
0.112795
0.109235
0.104994
0.100389
0.0956462
0.0908999
0.0862906
0.0818935
0.0777705
0.0739542
0.07046
0.0672752
0.0645152
0.0622243
0.0604539
0.0591433
0.0581005
0.0569604
0.0552296
0.0524634
0.0483158
0.0428989
0.0360819
0.029035
0.0213471
0.084076
0.104046
0.115386
0.120652
0.121935
0.120622
0.11772
0.113841
0.109392
0.104669
0.0998593
0.0951323
0.0905822
0.0863023
0.082349
0.0787601
0.0755401
0.0728246
0.0706327
0.0689681
0.0677257
0.0667075
0.0655802
0.0638725
0.0610998
0.0568769
0.0512318
0.0439976
0.0362938
0.0277621
0.0767416
0.0955671
0.10954
0.117813
0.121666
0.122379
0.120961
0.118161
0.114492
0.110314
0.105887
0.101412
0.097017
0.09284
0.0889675
0.0854694
0.0823711
0.0798194
0.0778027
0.0762702
0.0750715
0.0740083
0.0727945
0.0710186
0.0682232
0.0640201
0.0583561
0.0510864
0.0431225
0.0342637
0.0712395
0.0839019
0.0983037
0.109136
0.115854
0.11914
0.11983
0.118676
0.11623
0.113018
0.109362
0.105454
0.10148
0.0976274
0.0940152
0.0907589
0.0879036
0.0856003
0.083805
0.0824196
0.0812601
0.0801283
0.0787863
0.0768945
0.0740531
0.0699009
0.0643329
0.0572331
0.049286
0.0404018
0.0734406
0.0785132
0.0881984
0.0981946
0.106406
0.112066
0.115037
0.11588
0.11512
0.113257
0.110611
0.107521
0.104198
0.100861
0.0976607
0.0947712
0.0922539
0.0902562
0.0887113
0.0874838
0.0863678
0.0851691
0.0836911
0.0816648
0.0787631
0.074668
0.0692554
0.0624303
0.054688
0.0459782
0.0803055
0.0785382
0.0826788
0.0898635
0.0974707
0.103724
0.107965
0.110613
0.111598
0.11127
0.109919
0.107862
0.105367
0.102702
0.100048
0.0976282
0.095524
0.0938726
0.0925968
0.0915373
0.0904752
0.0892252
0.0876242
0.0854676
0.0825014
0.0784626
0.0732318
0.0667291
0.0593274
0.0509067
0.0887842
0.0834053
0.081905
0.0848946
0.090377
0.096212
0.10102
0.104473
0.106542
0.107591
0.107583
0.106703
0.105181
0.103308
0.101308
0.0994394
0.0978054
0.0965302
0.095538
0.0946563
0.0936631
0.0923852
0.0906887
0.0884219
0.0853993
0.081416
0.0763806
0.0702332
0.063211
0.0551612
0.0981599
0.0913335
0.08595
0.0841773
0.0861387
0.0902099
0.0946708
0.0985008
0.101288
0.103066
0.104075
0.104313
0.103824
0.10283
0.101561
0.100305
0.099183
0.0983081
0.0976111
0.0969177
0.0960112
0.0947344
0.0929775
0.090632
0.0875726
0.0836582
0.0788209
0.0729911
0.066365
0.0587469
0.108066
0.101082
0.0935759
0.0880402
0.0858018
0.0868005
0.0896863
0.0931045
0.0961661
0.0985019
0.100097
0.101097
0.101532
0.101427
0.100928
0.100323
0.09974
0.0992821
0.0988912
0.098398
0.097599
0.0963539
0.0945757
0.0921907
0.0891309
0.0852834
0.0806099
0.0750833
0.0688515
0.0617276
0.118249
0.111072
0.102965
0.0953995
0.0897389
0.087019
0.087135
0.0890491
0.0916344
0.0941124
0.0961215
0.0975876
0.0986295
0.0992933
0.099545
0.0995952
0.0995586
0.0995289
0.0994524
0.0991754
0.0985072
0.0973234
0.0955627
0.0931836
0.0901343
0.0863553
0.081845
0.0765995
0.0707412
0.0640995
0.128546
0.121271
0.11336
0.104913
0.0971609
0.0912542
0.0880145
0.0873512
0.0884521
0.090364
0.0923838
0.094136
0.0955251
0.0966864
0.0975721
0.0982373
0.0987345
0.0991294
0.099371
0.0993188
0.0988029
0.0977195
0.0960131
0.0936649
0.0906535
0.0869586
0.0826082
0.0776224
0.0721068
0.0659218
0.138856
0.131548
0.123823
0.115291
0.106697
0.0988023
0.0926266
0.0888873
0.0875528
0.0879765
0.0893393
0.0909831
0.0925365
0.0939119
0.0952135
0.0963895
0.0973736
0.0981735
0.0987292
0.0989086
0.0985578
0.0975839
0.0959476
0.0936615
0.0907284
0.0871504
0.0829737
0.0782314
0.0730301
0.0672726
0.149082
0.141782
0.134166
0.125867
0.117178
0.10843
0.10035
0.0938802
0.089681
0.0877788
0.0876476
0.0885594
0.0898987
0.0913141
0.0927202
0.0942266
0.0956007
0.0967613
0.0976135
0.0980268
0.0978538
0.0970228
0.095503
0.0933068
0.0904735
0.0870242
0.08302
0.0785085
0.0736136
0.0682877
0.159122
0.151876
0.14441
0.136444
0.127962
0.119058
0.110083
0.101765
0.0949909
0.0903911
0.0880282
0.0874539
0.0880054
0.0891097
0.0904377
0.0919747
0.0935727
0.0950095
0.09612
0.0967564
0.0967676
0.096097
0.0947218
0.0926625
0.0899681
0.0867125
0.0829708
0.0787552
0.0741641
0.0692086
0.168858
0.161712
0.154442
0.146857
0.138705
0.129981
0.120788
0.111535
0.102955
0.0959075
0.0909896
0.0882805
0.0873716
0.0876495
0.0885852
0.0899135
0.0914881
0.0930613
0.0943593
0.0951874
0.0953809
0.0948825
0.0936771
0.091826
0.0893843
0.0863889
0.0829069
0.0789699
0.0746645
0.0700353
0.178144
0.171125
0.164074
0.156813
0.149088
0.140729
0.131712
0.122202
0.11266
0.103844
0.0965863
0.0914581
0.088519
0.0873809
0.0874696
0.0883183
0.0896111
0.0911031
0.0924689
0.0934308
0.09379
0.0934945
0.0925461
0.0909594
0.088774
0.0860353
0.082809
0.0791387
0.0751041
0.0707683
0.186814
0.179944
0.173131
0.166286
0.158978
0.151052
0.142406
0.133049
0.123203
0.113391
0.104393
0.0970242
0.0918008
0.0887475
0.0874741
0.087454
0.088218
0.0894044
0.0906571
0.0916645
0.0921877
0.0921063
0.0913965
0.0900603
0.0881277
0.0856408
0.0826653
0.0792509
0.0754741
0.0714077
0.194722
0.188044
0.181522
0.175077
0.168221
0.16078
0.15261
0.143634
0.133913
0.123743
0.113712
0.104623
0.0972589
0.0920527
0.0889795
0.0876505
0.0875466
0.0881909
0.0891586
0.0900817
0.0906731
0.0907492
0.0902446
0.0891379
0.0874489
0.0852058
0.0824733
0.0793028
0.0757709
0.0719532
0.201781
0.195386
0.189376
0.183268
0.176826
0.169857
0.162195
0.153713
0.144367
0.134282
0.123833
0.113669
0.104616
0.0973595
0.0922628
0.0892455
0.0878923
0.0876882
0.0881357
0.0887994
0.0893293
0.0894791
0.0891267
0.0882171
0.086753
0.0847412
0.0822411
0.0793014
0.0760009
0.0724145
0.207982
0.202111
0.196421
0.190669
0.184656
0.17818
0.171059
0.163139
0.15432
0.144609
0.134206
0.12357
0.11341
0.104483
0.0974284
0.0925146
0.0895786
0.0881828
0.0878192
0.0879926
0.0882874
0.0883889
0.0881088
0.0873458
0.086071
0.0842712
0.0819884
0.0792675
0.0761817
0.0728093
0.213221
0.207717
0.202418
0.197106
0.191587
0.185661
0.179141
0.17186
0.163683
0.154548
0.144523
0.133898
0.123206
0.113136
0.10444
0.0976553
0.0929308
0.0900303
0.0885282
0.0879247
0.0877521
0.0876333
0.087305
0.0866089
0.0854691
0.0838476
0.0817584
0.0792369
0.0763488
0.073174
0.217323
0.212272
0.207429
0.202623
0.197661
0.192358
0.186532
0.179997
0.172586
0.164191
0.154801
0.144566
0.133847
0.123189
0.113316
0.1049
0.0983532
0.093715
0.0907453
0.0890245
0.0880827
0.0874952
0.0869311
0.0861683
0.0850745
0.0835638
0.081622
0.0792673
0.076557
0.0735626
0.220549
0.216055
0.211756
0.207531
0.203211
0.198696
0.193765
0.188155
0.181635
0.174119
0.165608
0.156096
0.1458
0.135084
0.124556
0.114889
0.106646
0.100128
0.0953724
0.0921312
0.0900096
0.0885846
0.0874793
0.0864011
0.0851509
0.0836146
0.0817322
0.0794891
0.0769155
0.0740734
0.223194
0.219444
0.215895
0.212452
0.208997
0.205406
0.20151
0.197092
0.191913
0.185784
0.178578
0.170219
0.160786
0.150551
0.139919
0.129458
0.119746
0.111289
0.104432
0.0991722
0.0952863
0.0924324
0.0902432
0.0883924
0.0866273
0.0847739
0.0827169
0.0804049
0.0778307
0.0750422
0.226675
0.224174
0.221866
0.219705
0.217626
0.215529
0.213265
0.210622
0.20735
0.203186
0.197885
0.19127
0.18329
0.174084
0.163978
0.153253
0.142348
0.131966
0.122688
0.114808
0.10835
0.103155
0.0989485
0.095438
0.09236
0.0894961
0.086684
0.0838212
0.0808532
0.0778103
0.236999
0.236702
0.236533
0.236543
0.236791
0.237239
0.237747
0.238048
0.237818
0.236702
0.234303
0.230347
0.224682
0.217325
0.208512
0.198197
0.18648
0.174307
0.162397
0.151329
0.141387
0.132651
0.125031
0.118375
0.112501
0.107184
0.102247
0.0975738
0.0930871
0.088937
0.28192
0.284762
0.287407
0.290707
0.295006
0.300105
0.305497
0.310585
0.314923
0.318214
0.319686
0.319219
0.316724
0.312262
0.305791
0.296978
0.285333
0.272243
0.258579
0.24501
0.23193
0.219549
0.207982
0.197276
0.187435
0.177957
0.168818
0.160092
0.151906
0.144861
0.490983
0.490588
0.491938
0.497578
0.505502
0.513336
0.5195
0.524227
0.527765
0.530595
0.530883
0.530192
0.528556
0.526268
0.522643
0.517587
0.509122
0.50068
0.492506
0.485176
0.478515
0.472599
0.467346
0.462811
0.459007
0.452625
0.445117
0.437309
0.430175
0.424396
0.0900104
0.10243
0.108511
0.111281
0.111545
0.10989
0.106825
0.102828
0.0982841
0.093497
0.0886492
0.0839488
0.0795362
0.0755396
0.0719427
0.068759
0.0659421
0.0636406
0.062106
0.0614966
0.0614025
0.0609379
0.0592175
0.0555975
0.0499468
0.0423001
0.0333239
0.0236426
0.0211836
0.0199484
0.152289
0.171677
0.175086
0.171303
0.163702
0.154238
0.14407
0.133896
0.124124
0.11499
0.106617
0.0991503
0.0925521
0.0868652
0.0820225
0.0780217
0.0747765
0.0725805
0.071732
0.0724082
0.0741349
0.0759299
0.0766156
0.0751087
0.0707074
0.0632612
0.0535109
0.0418943
0.0329912
0.0274316
0.183212
0.204739
0.209454
0.205901
0.197865
0.187431
0.175902
0.164146
0.152692
0.14189
0.131933
0.123046
0.115205
0.108491
0.102874
0.098386
0.0949562
0.0929099
0.0924066
0.0934528
0.0954881
0.0975843
0.0985931
0.0973338
0.0928949
0.0848691
0.0739009
0.0602932
0.0481024
0.0381878
0.199433
0.220065
0.22495
0.222329
0.215231
0.205484
0.194399
0.182847
0.171335
0.160311
0.150047
0.140806
0.132637
0.125675
0.119954
0.115556
0.112454
0.110955
0.111012
0.112407
0.114485
0.116406
0.117198
0.115786
0.111197
0.102895
0.0913867
0.0767294
0.0625698
0.050028
0.205006
0.221959
0.227663
0.226513
0.220938
0.212568
0.202888
0.192585
0.181929
0.171563
0.161802
0.15291
0.145029
0.138358
0.132991
0.129069
0.126617
0.125884
0.126595
0.128344
0.130404
0.132016
0.132424
0.130721
0.12601
0.117689
0.106121
0.0911875
0.0760922
0.0620628
0.203057
0.216225
0.221293
0.221527
0.217966
0.212144
0.204273
0.195362
0.186024
0.176978
0.168327
0.160278
0.153136
0.147146
0.142458
0.139279
0.13768
0.137817
0.139203
0.141287
0.143309
0.144591
0.144579
0.142551
0.137748
0.129588
0.118258
0.103592
0.0882934
0.0736226
0.196802
0.202862
0.206755
0.208512
0.207536
0.204209
0.199028
0.192517
0.185471
0.177954
0.170569
0.163666
0.157625
0.152617
0.148845
0.146604
0.145991
0.14702
0.149072
0.151472
0.153457
0.154444
0.154027
0.151677
0.146815
0.138916
0.128023
0.113983
0.0989835
0.0842349
0.18948
0.187218
0.18791
0.189773
0.190981
0.190766
0.188782
0.184983
0.180278
0.174878
0.169269
0.163928
0.159094
0.155243
0.152561
0.151403
0.151831
0.153743
0.156435
0.159142
0.161117
0.161868
0.161106
0.158477
0.153581
0.146
0.13568
0.122481
0.108118
0.0936463
0.18407
0.175745
0.172563
0.172717
0.174112
0.175259
0.175334
0.173969
0.171854
0.168676
0.16503
0.161367
0.158014
0.155459
0.153976
0.15398
0.155444
0.158211
0.161507
0.164517
0.166524
0.167121
0.16611
0.163276
0.158394
0.151157
0.141516
0.129305
0.115783
0.101765
0.184917
0.171686
0.163181
0.159715
0.159535
0.160625
0.161694
0.162039
0.161624
0.160304
0.158573
0.156635
0.154844
0.153675
0.153431
0.154592
0.157062
0.160645
0.164503
0.16781
0.169898
0.170439
0.169295
0.166358
0.161567
0.154745
0.145719
0.13446
0.121877
0.108558
0.18989
0.173971
0.160977
0.152737
0.149336
0.148737
0.149452
0.150428
0.15113
0.15123
0.150838
0.150385
0.150071
0.150278
0.15125
0.153522
0.156946
0.161241
0.165621
0.169223
0.171449
0.17203
0.170884
0.167986
0.163333
0.156836
0.148432
0.138125
0.12656
0.114153
0.199027
0.180795
0.164879
0.153079
0.145412
0.141502
0.140343
0.140635
0.141498
0.142339
0.142942
0.143434
0.144275
0.145685
0.147777
0.151057
0.155314
0.160229
0.165069
0.169053
0.171494
0.172108
0.170923
0.168045
0.163585
0.157537
0.149852
0.140496
0.129958
0.118552
0.211558
0.191838
0.17397
0.159248
0.14817
0.140722
0.136197
0.134348
0.134123
0.134735
0.135669
0.136745
0.138165
0.140422
0.143406
0.14752
0.152457
0.157868
0.163084
0.167363
0.170053
0.170858
0.16983
0.167128
0.162872
0.157199
0.15016
0.141774
0.132271
0.121976
0.227235
0.206969
0.188215
0.171516
0.157567
0.146702
0.138552
0.133364
0.130671
0.12978
0.130079
0.131079
0.13268
0.13514
0.138632
0.143301
0.148701
0.154452
0.159942
0.164456
0.167394
0.168465
0.167696
0.165304
0.161415
0.156196
0.149775
0.142348
0.133965
0.124723
0.245552
0.225576
0.20673
0.18904
0.173104
0.159401
0.147708
0.138716
0.13257
0.128999
0.127476
0.127456
0.128557
0.130703
0.134059
0.138887
0.144446
0.150327
0.155939
0.160604
0.163763
0.165141
0.164713
0.162729
0.159331
0.154735
0.149081
0.142452
0.135051
0.12676
0.265973
0.247266
0.229126
0.211072
0.193908
0.17804
0.163347
0.150722
0.140746
0.133623
0.129198
0.12707
0.126745
0.127889
0.130532
0.13491
0.140202
0.145914
0.151447
0.156139
0.15946
0.161161
0.161144
0.159692
0.156953
0.153035
0.148026
0.142049
0.135387
0.12798
0.288056
0.27129
0.254446
0.23673
0.218851
0.201355
0.1844
0.168773
0.155222
0.144297
0.136264
0.131068
0.128279
0.127613
0.128981
0.132134
0.136619
0.141756
0.146941
0.151496
0.154892
0.156954
0.157474
0.156556
0.154355
0.151026
0.146629
0.141258
0.135201
0.128555
0.310697
0.295989
0.280609
0.263703
0.245906
0.227683
0.209385
0.191641
0.175208
0.160825
0.149065
0.140249
0.134217
0.130918
0.130164
0.131525
0.134539
0.138594
0.143076
0.147322
0.150734
0.152991
0.153845
0.153333
0.151625
0.14882
0.145008
0.14021
0.134711
0.128652
0.332313
0.319417
0.305771
0.290364
0.273502
0.255527
0.236807
0.217881
0.199467
0.182348
0.167273
0.154825
0.145251
0.138529
0.134945
0.133841
0.134805
0.137299
0.140653
0.144187
0.147236
0.149412
0.150471
0.150283
0.148969
0.146615
0.143324
0.139051
0.134054
0.128505
0.351596
0.340892
0.329396
0.315981
0.300698
0.283725
0.265399
0.246179
0.226721
0.207776
0.190136
0.174511
0.161433
0.151072
0.144085
0.139909
0.138203
0.138571
0.140238
0.142533
0.144821
0.146667
0.147736
0.147701
0.146656
0.144651
0.141778
0.137951
0.133388
0.128286
0.368822
0.360387
0.351212
0.340075
0.326815
0.311449
0.294243
0.275581
0.25603
0.236256
0.216996
0.198971
0.182878
0.169272
0.158362
0.150705
0.14572
0.143248
0.142623
0.14314
0.144192
0.145328
0.146109
0.146011
0.145052
0.143258
0.140633
0.137126
0.132898
0.128155
0.384143
0.377991
0.37118
0.362494
0.351596
0.338368
0.322992
0.305788
0.287199
0.267732
0.247989
0.228597
0.210306
0.19388
0.179533
0.167909
0.159135
0.153046
0.149254
0.147228
0.146436
0.146355
0.146373
0.145868
0.144684
0.142791
0.140174
0.136812
0.13278
0.128323
0.397917
0.394051
0.389667
0.383631
0.375493
0.365047
0.352402
0.337815
0.321558
0.303887
0.28515
0.265777
0.246484
0.228058
0.211069
0.195605
0.182317
0.171547
0.163342
0.157532
0.153761
0.151488
0.149969
0.14841
0.146534
0.144193
0.141269
0.137741
0.133684
0.129369
0.411155
0.409728
0.408051
0.405135
0.400509
0.393959
0.385554
0.375433
0.363626
0.350019
0.334558
0.317346
0.29895
0.280015
0.261467
0.242773
0.224101
0.20712
0.19244
0.180575
0.171578
0.165088
0.160323
0.156306
0.152625
0.148981
0.145157
0.141043
0.136594
0.132124
0.426396
0.428077
0.430082
0.431633
0.43234
0.432026
0.430743
0.428432
0.424784
0.419096
0.410704
0.399216
0.384953
0.368263
0.350118
0.329483
0.305201
0.279737
0.255212
0.23317
0.214428
0.199226
0.187011
0.177055
0.168779
0.16165
0.155239
0.149262
0.143506
0.138321
0.450579
0.457438
0.465866
0.475408
0.485868
0.497
0.508512
0.519899
0.530359
0.538366
0.542558
0.54173
0.536067
0.52553
0.511041
0.490684
0.461899
0.427332
0.38987
0.352402
0.316772
0.284552
0.256515
0.232773
0.213002
0.196622
0.182987
0.171516
0.161659
0.153951
0.506988
0.524918
0.546639
0.571666
0.599572
0.629523
0.660815
0.692299
0.722541
0.748898
0.769135
0.78196
0.787121
0.784813
0.776085
0.758197
0.727246
0.685725
0.6367
0.583654
0.528512
0.47395
0.422141
0.374715
0.332683
0.296359
0.265618
0.239908
0.218539
0.203156
0.666711
0.705436
0.746999
0.79201
0.839548
0.888142
0.937507
0.985704
1.03065
1.06816
1.09682
1.11619
1.12577
1.12661
1.11999
1.10267
1.0728
1.03226
0.982581
0.925828
0.863096
0.796873
0.728955
0.661619
0.59725
0.537582
0.483745
0.435865
0.394055
0.364197
0.989566
1.0238
1.0669
1.11575
1.16612
1.21602
1.26681
1.3111
1.34757
1.37473
1.39238
1.40163
1.39954
1.39076
1.375
1.34888
1.31855
1.28471
1.2481
1.20641
1.16144
1.11451
1.06587
1.01626
0.966377
0.916337
0.866551
0.817695
0.770738
0.736587
1.20199
1.19765
1.21427
1.24509
1.27939
1.31112
1.33774
1.3574
1.37027
1.37626
1.37627
1.37181
1.36105
1.34665
1.32378
1.28997
1.25938
1.22851
1.20026
1.1749
1.15338
1.13631
1.12461
1.1185
1.1167
1.11572
1.11437
1.1127
1.10804
1.09823
0.129156
0.143564
0.147419
0.148113
0.146537
0.142875
0.137606
0.131308
0.124474
0.117508
0.110671
0.104246
0.0983323
0.0931233
0.0886091
0.084898
0.0820114
0.0805387
0.0815063
0.0851732
0.0896703
0.0923864
0.0916917
0.087076
0.07882
0.0673833
0.0537713
0.0385274
0.0249191
0.0206425
0.214581
0.239026
0.242679
0.237693
0.227358
0.214371
0.200289
0.186088
0.172351
0.159431
0.14753
0.136853
0.127346
0.119132
0.112104
0.106335
0.101839
0.0998486
0.101752
0.107947
0.116236
0.123344
0.126668
0.124803
0.117361
0.104738
0.0882772
0.0688048
0.0510241
0.036538
0.259749
0.286887
0.292983
0.28831
0.27759
0.263515
0.247713
0.231344
0.215204
0.199818
0.185514
0.172598
0.16108
0.151162
0.142849
0.136273
0.131497
0.129825
0.132411
0.139449
0.148664
0.156784
0.161073
0.159884
0.152356
0.138712
0.120153
0.097389
0.0754463
0.0559273
0.288701
0.312795
0.318916
0.315013
0.305197
0.291807
0.276303
0.259825
0.243268
0.227233
0.21215
0.198409
0.186128
0.175596
0.166967
0.160446
0.156177
0.155322
0.15854
0.165774
0.174807
0.182674
0.186886
0.185864
0.17853
0.164817
0.145689
0.121687
0.0974742
0.0748019
0.306894
0.325454
0.329926
0.326504
0.31797
0.306056
0.291801
0.276301
0.260497
0.244914
0.230067
0.21642
0.204201
0.193794
0.185493
0.179588
0.176277
0.176433
0.180166
0.187191
0.195488
0.202471
0.206064
0.204887
0.197823
0.184583
0.165869
0.141961
0.116992
0.0926253
0.31697
0.327551
0.330191
0.327568
0.320398
0.31004
0.297262
0.28345
0.269312
0.254961
0.241067
0.228204
0.216661
0.20693
0.199431
0.194546
0.192486
0.193706
0.197857
0.204411
0.211651
0.217428
0.220106
0.21854
0.211708
0.199213
0.181459
0.158534
0.1339
0.109044
0.321231
0.323536
0.322765
0.319525
0.313804
0.305686
0.295922
0.284398
0.271794
0.258737
0.246351
0.234844
0.224448
0.21583
0.209486
0.205936
0.20531
0.207587
0.212073
0.218046
0.224089
0.228511
0.230123
0.227994
0.221307
0.209647
0.193175
0.17181
0.148267
0.123604
0.321102
0.314747
0.309248
0.304733
0.300162
0.294341
0.287161
0.278475
0.268473
0.258022
0.247363
0.237235
0.228265
0.221086
0.216183
0.214209
0.215088
0.218395
0.223151
0.228525
0.23337
0.236427
0.236925
0.234138
0.227501
0.216705
0.201698
0.182103
0.160015
0.136144
0.31846
0.302017
0.29098
0.284767
0.281035
0.277434
0.273185
0.267707
0.260527
0.252585
0.244213
0.236011
0.228811
0.223249
0.219971
0.219704
0.222081
0.226368
0.231358
0.236169
0.239907
0.241704
0.241119
0.237649
0.231059
0.220907
0.207122
0.18941
0.169113
0.146611
0.313417
0.289875
0.274746
0.266008
0.26167
0.259098
0.25673
0.253561
0.249037
0.243868
0.237903
0.231885
0.226583
0.2228
0.221247
0.222689
0.226513
0.231715
0.236921
0.241247
0.244022
0.244726
0.243182
0.239006
0.232141
0.222523
0.209966
0.194123
0.175855
0.15525
0.310731
0.283449
0.263523
0.251345
0.244849
0.241719
0.240101
0.238506
0.23611
0.233
0.229301
0.225487
0.222174
0.220237
0.220398
0.223451
0.228559
0.234609
0.240028
0.243982
0.24598
0.245753
0.243196
0.238455
0.231473
0.222218
0.210746
0.196754
0.180695
0.162362
0.312505
0.283999
0.260359
0.243078
0.233254
0.227852
0.225497
0.224299
0.22315
0.221634
0.219682
0.217637
0.216219
0.216066
0.21779
0.222296
0.228593
0.235241
0.240847
0.24458
0.246038
0.245074
0.241937
0.236807
0.229782
0.220933
0.210299
0.198001
0.184203
0.167992
0.318091
0.2891
0.26386
0.243724
0.228985
0.219785
0.215282
0.212963
0.211853
0.211082
0.210292
0.209533
0.209508
0.210819
0.213879
0.219575
0.226704
0.233851
0.239623
0.243261
0.244317
0.242904
0.239425
0.234167
0.227309
0.218961
0.209294
0.198483
0.18653
0.172156
0.327859
0.299014
0.272795
0.2503
0.232592
0.2201
0.21169
0.206559
0.204127
0.202922
0.20239
0.202315
0.20301
0.205211
0.209226
0.21573
0.223369
0.230779
0.236661
0.240224
0.241066
0.23945
0.235879
0.230722
0.224257
0.216647
0.208018
0.198238
0.187617
0.174884
0.341877
0.313513
0.287151
0.26335
0.243182
0.227224
0.21526
0.207078
0.201872
0.198859
0.197424
0.197123
0.197892
0.200079
0.204521
0.211331
0.219065
0.226461
0.232299
0.235796
0.23658
0.234974
0.231572
0.226777
0.221014
0.214187
0.206346
0.197447
0.187776
0.176471
0.359751
0.33287
0.307256
0.28294
0.261013
0.242157
0.226671
0.214721
0.20608
0.200295
0.196853
0.195247
0.195218
0.196792
0.200647
0.207116
0.21444
0.221457
0.227042
0.230432
0.231281
0.229874
0.227003
0.222838
0.217641
0.211492
0.204391
0.196287
0.187432
0.177253
0.38167
0.356585
0.332176
0.308013
0.285064
0.264026
0.245474
0.229881
0.217471
0.208192
0.201795
0.197879
0.196115
0.196317
0.198802
0.204029
0.210348
0.216537
0.221605
0.224788
0.225863
0.224889
0.222438
0.218802
0.214184
0.208695
0.202293
0.194916
0.186785
0.177468
0.406357
0.383356
0.360536
0.337093
0.313832
0.291403
0.270501
0.251793
0.235811
0.222849
0.212978
0.206008
0.201687
0.199747
0.200226
0.203236
0.207904
0.212777
0.217024
0.21993
0.220987
0.220239
0.218148
0.214981
0.210893
0.20599
0.200219
0.193484
0.185974
0.177365
0.432274
0.41163
0.390729
0.368515
0.345614
0.322605
0.300208
0.279186
0.260261
0.243963
0.230638
0.220324
0.212938
0.208254
0.206195
0.206559
0.208911
0.211891
0.214776
0.216838
0.21747
0.216647
0.214713
0.211847
0.20816
0.203711
0.198401
0.19217
0.185155
0.177151
0.45804
0.439931
0.421215
0.400681
0.378786
0.356014
0.333069
0.310736
0.28983
0.271017
0.254816
0.241432
0.230978
0.223322
0.218461
0.215835
0.215405
0.215896
0.216656
0.217077
0.216657
0.215241
0.213044
0.210161
0.2066
0.202233
0.19711
0.191181
0.1845
0.176972
0.482636
0.467126
0.450787
0.432355
0.412122
0.390465
0.368038
0.345609
0.32401
0.30394
0.285994
0.270451
0.257582
0.247341
0.239859
0.234332
0.23061
0.227812
0.225465
0.223199
0.220697
0.217826
0.214599
0.210911
0.206638
0.201911
0.196638
0.190751
0.184198
0.176972
0.505568
0.492684
0.478916
0.463064
0.445258
0.425766
0.405168
0.384182
0.363602
0.344076
0.326172
0.310148
0.296364
0.284795
0.275653
0.267829
0.260624
0.253581
0.246648
0.239972
0.233642
0.227642
0.221923
0.216317
0.210619
0.204755
0.198456
0.191822
0.18484
0.177648
0.527244
0.517099
0.506275
0.493724
0.479429
0.463555
0.446593
0.429185
0.412042
0.395702
0.38058
0.366823
0.354828
0.344462
0.335837
0.327269
0.316965
0.304683
0.29103
0.277078
0.263727
0.251411
0.24033
0.230354
0.221195
0.212623
0.204337
0.196184
0.188066
0.180256
0.549745
0.542827
0.535833
0.527902
0.518908
0.508936
0.498385
0.487774
0.477697
0.468509
0.460339
0.453076
0.447081
0.441966
0.437522
0.430958
0.418772
0.400682
0.377912
0.352637
0.327185
0.30303
0.281209
0.262033
0.245323
0.230757
0.217912
0.20641
0.195858
0.186485
0.578633
0.576328
0.575184
0.574516
0.574081
0.573866
0.574111
0.575154
0.577409
0.580867
0.585131
0.589548
0.594515
0.599204
0.602956
0.60107
0.588474
0.564797
0.531524
0.491823
0.449307
0.406628
0.366325
0.33007
0.298483
0.271618
0.249053
0.230145
0.214134
0.201485
0.627629
0.633574
0.642692
0.654273
0.667841
0.683156
0.700166
0.718684
0.738759
0.759802
0.780537
0.799659
0.817869
0.833803
0.846506
0.848664
0.835299
0.806616
0.764281
0.711537
0.652077
0.588551
0.524861
0.464458
0.409605
0.361754
0.321358
0.287927
0.260525
0.240782
0.731405
0.753389
0.779931
0.809311
0.84185
0.876799
0.91345
0.950967
0.988859
1.0259
1.06005
1.08965
1.11594
1.13681
1.15108
1.15002
1.13136
1.09754
1.05068
0.992957
0.926228
0.851531
0.772466
0.692648
0.61506
0.543304
0.480229
0.425975
0.380352
0.348701
0.953507
0.991453
1.03462
1.0819
1.13006
1.17825
1.22611
1.27217
1.31542
1.35447
1.38743
1.41296
1.42994
1.43636
1.43313
1.41062
1.37678
1.33544
1.29016
1.2411
1.18823
1.13195
1.06739
0.996586
0.922299
0.847146
0.77627
0.710518
0.651475
0.610092
1.28203
1.30672
1.34419
1.39052
1.43996
1.48758
1.53053
1.56632
1.59424
1.61432
1.6266
1.63034
1.62518
1.6096
1.58217
1.53418
1.48441
1.43446
1.38908
1.34776
1.31082
1.27786
1.24922
1.22549
1.20419
1.18092
1.14921
1.11382
1.07623
1.04606
1.41195
1.41764
1.44111
1.47669
1.51601
1.55242
1.5821
1.60308
1.61486
1.61793
1.61266
1.59943
1.5773
1.54419
1.49688
1.43238
1.37295
1.31829
1.27331
1.23844
1.21486
1.20169
1.19929
1.20863
1.22658
1.24873
1.27214
1.29346
1.30782
1.31318
0.167506
0.184345
0.186198
0.183733
0.179896
0.174162
0.166764
0.158277
0.149249
0.14019
0.131394
0.123178
0.115605
0.108972
0.103275
0.0987884
0.0957568
0.0960399
0.102655
0.115013
0.127095
0.133685
0.133299
0.126607
0.114984
0.0994691
0.0812859
0.0611451
0.0432504
0.0291325
0.27846
0.307032
0.307419
0.299637
0.286339
0.270078
0.252444
0.234638
0.217333
0.200989
0.185813
0.172044
0.159546
0.148575
0.138934
0.130962
0.125275
0.125775
0.136163
0.155495
0.175949
0.190235
0.195216
0.190719
0.178127
0.158958
0.13495
0.107034
0.0809795
0.0594068
0.339655
0.369245
0.371908
0.36492
0.351259
0.333752
0.314126
0.293727
0.273464
0.25401
0.235734
0.218965
0.203689
0.190274
0.178802
0.169672
0.163654
0.164808
0.176729
0.197998
0.220582
0.23696
0.243656
0.240131
0.227324
0.206634
0.179778
0.147394
0.115439
0.0873706
0.380949
0.404883
0.407867
0.401581
0.388766
0.371872
0.352492
0.331859
0.310929
0.290495
0.27106
0.253031
0.236561
0.222124
0.210091
0.20093
0.195594
0.197737
0.210116
0.231009
0.252972
0.269081
0.276038
0.273167
0.260979
0.240606
0.213355
0.179644
0.144832
0.112737
0.409619
0.425182
0.426673
0.420526
0.408791
0.393263
0.375237
0.355659
0.335372
0.31525
0.295869
0.2777
0.261081
0.246595
0.234877
0.226455
0.22237
0.225573
0.237774
0.257001
0.276891
0.291394
0.297665
0.29501
0.283669
0.264441
0.238233
0.205167
0.169678
0.135232
0.428627
0.434731
0.433182
0.426648
0.415788
0.401999
0.386118
0.368483
0.349726
0.330866
0.312426
0.294972
0.279008
0.265231
0.254512
0.247433
0.244976
0.249225
0.26086
0.277748
0.294725
0.306822
0.311753
0.308867
0.298302
0.280575
0.256195
0.225034
0.19048
0.154897
0.439709
0.436618
0.430947
0.42325
0.414076
0.402711
0.388734
0.372756
0.355744
0.338939
0.322131
0.306096
0.29143
0.278995
0.269836
0.264604
0.26402
0.269243
0.280068
0.294329
0.307985
0.317235
0.320381
0.316897
0.306928
0.290837
0.268701
0.239944
0.207072
0.171701
0.44444
0.432714
0.421525
0.411869
0.403204
0.39391
0.382893
0.370346
0.356355
0.341315
0.326007
0.312
0.299137
0.288569
0.281434
0.278463
0.279844
0.285934
0.295799
0.307349
0.317621
0.323872
0.324958
0.320673
0.310955
0.295955
0.275737
0.249751
0.219465
0.185763
0.446393
0.424403
0.40727
0.394973
0.386421
0.37906
0.370893
0.361307
0.350349
0.338165
0.325922
0.313648
0.302843
0.294525
0.289788
0.289337
0.292675
0.299463
0.308276
0.317141
0.324237
0.327586
0.326539
0.32075
0.310752
0.296571
0.278455
0.255453
0.228504
0.197457
0.445792
0.413518
0.390269
0.37532
0.366414
0.360288
0.354508
0.347783
0.339955
0.330823
0.321262
0.31161
0.303337
0.297435
0.295315
0.297463
0.302661
0.309932
0.317635
0.324041
0.328271
0.328948
0.325831
0.319071
0.308861
0.295206
0.278361
0.258389
0.235072
0.206841
0.441515
0.403305
0.375113
0.357155
0.346839
0.340891
0.336596
0.332119
0.326789
0.320391
0.313627
0.306735
0.301062
0.297811
0.298397
0.303041
0.309917
0.317423
0.324016
0.328376
0.330064
0.328412
0.3237
0.316178
0.305826
0.292767
0.277325
0.259953
0.23941
0.213687
0.437877
0.396581
0.364533
0.343023
0.330297
0.323274
0.319262
0.316079
0.312653
0.30852
0.304071
0.299795
0.296802
0.296224
0.299417
0.306326
0.314503
0.322054
0.327612
0.330271
0.329849
0.326369
0.320401
0.312322
0.30209
0.289815
0.27602
0.260254
0.241766
0.218416
0.438091
0.396192
0.361644
0.335521
0.319149
0.309844
0.304745
0.301613
0.299162
0.29662
0.294087
0.291825
0.291327
0.293194
0.298785
0.307602
0.316637
0.324002
0.328649
0.329946
0.327908
0.323097
0.316297
0.307966
0.29816
0.287063
0.27441
0.259712
0.242808
0.221529
0.441377
0.399964
0.364805
0.336759
0.316241
0.302746
0.295215
0.290732
0.288084
0.28621
0.28492
0.284263
0.285436
0.289394
0.297009
0.307258
0.316801
0.323778
0.327535
0.327665
0.324539
0.31894
0.311809
0.303699
0.294735
0.284375
0.272471
0.258696
0.242918
0.223425
0.448668
0.408474
0.373279
0.3437
0.320504
0.303883
0.292448
0.285272
0.281189
0.278882
0.277928
0.278166
0.280451
0.285686
0.294743
0.305852
0.31533
0.321729
0.324718
0.324006
0.320277
0.314455
0.307703
0.300143
0.291545
0.281665
0.27038
0.257381
0.242544
0.224476
0.460402
0.421941
0.387144
0.356472
0.331134
0.311357
0.296674
0.286591
0.280018
0.276162
0.274479
0.274693
0.277417
0.283003
0.292825
0.304196
0.313175
0.318798
0.321069
0.319883
0.316089
0.310828
0.304303
0.296916
0.288601
0.279092
0.268279
0.255902
0.241845
0.224937
0.476593
0.440089
0.406592
0.375903
0.349016
0.326485
0.308484
0.294915
0.285303
0.279068
0.275823
0.275055
0.277377
0.282821
0.292357
0.30344
0.311545
0.316209
0.317929
0.316772
0.313268
0.308058
0.301624
0.294362
0.286124
0.276817
0.266308
0.254386
0.240935
0.224948
0.496675
0.46296
0.431192
0.400953
0.37315
0.348479
0.327506
0.310534
0.297597
0.288454
0.282943
0.280572
0.281804
0.286565
0.29515
0.305228
0.312195
0.315877
0.31743
0.316166
0.312252
0.306726
0.300021
0.292688
0.284337
0.275022
0.26462
0.25297
0.23995
0.224776
0.520326
0.489339