/*--------------------------------*- C++ -*----------------------------------*\
  =========                 |
  \\      /  F ield         | OpenFOAM: The Open Source CFD Toolbox
   \\    /   O peration     | Website:  https://openfoam.org
    \\  /    A nd           | Version:  12
     \\/     M anipulation  |
\*---------------------------------------------------------------------------*/
FoamFile
{
    format      ascii;
    class       volScalarField;
    location    "1700/air";
    object      nut;
}
// * * * * * * * * * * * * * * * * * * * * * * * * * * * * * * * * * * * * * //

dimensions      [0 2 -1 0 0 0 0];

internalField   nonuniform List<scalar> 
243000
(
0.000121881
0.000125829
0.000126405
0.000125158
0.00012261
0.00011918
0.000115216
0.000110997
0.000106721
0.00010255
9.85726e-05
9.48568e-05
9.14812e-05
8.85157e-05
8.59346e-05
8.37012e-05
8.17538e-05
8.00887e-05
7.87303e-05
7.77148e-05
7.70251e-05
7.65316e-05
7.59576e-05
7.61672e-05
7.3197e-05
0.0003239
6.80579e-05
0.00028583
0.000242752
0.000206941
0.000453817
0.000466318
0.000461308
0.000447823
0.000430576
0.000411793
0.00039269
0.00037404
0.000356326
0.000339845
0.000324747
0.000311181
0.000299231
0.000288943
0.000280282
0.000273178
0.000267508
0.000263403
0.000260975
0.000260427
0.000261709
0.000264381
0.000267424
0.000267566
0.00026984
0.000267018
0.000255967
0.000242592
0.00022376
0.00019849
0.000554234
0.000607361
0.000629215
0.000636213
0.000634805
0.000628205
0.000618252
0.000606167
0.000592756
0.000578615
0.000564106
0.000549647
0.00053549
0.000521864
0.000508925
0.000496779
0.000485437
0.000475375
0.000466837
0.000460099
0.000455009
0.000450892
0.000446334
0.000439265
0.000428246
0.000411023
0.000387037
0.000354959
0.000318386
0.00027292
0.000541752
0.000602838
0.000635024
0.000649491
0.000653033
0.000649578
0.000641771
0.000631151
0.000618736
0.000605266
0.000591232
0.000577103
0.000563165
0.000549732
0.000537022
0.000525213
0.00051438
0.000505049
0.000497367
0.00049142
0.000486897
0.000483131
0.000478927
0.000472558
0.000462139
0.000445828
0.000423052
0.000391999
0.000355983
0.000311274
0.000517734
0.000577632
0.000618564
0.000641658
0.000652202
0.000654205
0.000650476
0.00064296
0.000632953
0.00062134
0.00060879
0.000595825
0.000582811
0.000570162
0.000558177
0.000547119
0.000537126
0.00052874
0.000521993
0.000516775
0.000512621
0.000508886
0.000504596
0.000498315
0.00048834
0.000472994
0.000451527
0.000422416
0.000388049
0.000345842
0.000499241
0.000541274
0.000585841
0.000617411
0.000636278
0.000645367
0.00064733
0.000644292
0.000637682
0.000628865
0.000618664
0.000607558
0.000596047
0.000584666
0.000573784
0.000563788
0.000554866
0.000547546
0.000541749
0.000537202
0.000533335
0.000529517
0.000524967
0.000518536
0.000508789
0.000494252
0.000474101
0.000447124
0.000414875
0.000375574
0.000507463
0.000524118
0.000555135
0.000585681
0.000609671
0.000625784
0.000634139
0.000636559
0.000634553
0.000629474
0.000622142
0.000613451
0.000603954
0.000594254
0.000584792
0.000576109
0.000568425
0.000562236
0.000557379
0.000553461
0.000549847
0.00054593
0.000541078
0.000534396
0.000524736
0.000510843
0.000491921
0.000467001
0.000437039
0.000400681
0.000530923
0.000524669
0.000537873
0.000560461
0.000583582
0.000602037
0.00061425
0.000621829
0.000624683
0.000623854
0.000620136
0.000614384
0.000607304
0.000599632
0.000591885
0.00058472
0.000578406
0.000573387
0.000569455
0.000566141
0.000562779
0.000558793
0.000553665
0.000546717
0.000537064
0.000523681
0.000505863
0.000482829
0.000455219
0.000421631
0.000558227
0.000540985
0.000535746
0.000545072
0.000562121
0.000579885
0.000594182
0.000604304
0.000610302
0.000613382
0.000613449
0.000611022
0.000606725
0.000601372
0.000595581
0.000590107
0.000585266
0.000581443
0.000578429
0.000575711
0.000572618
0.000568618
0.000563284
0.000556109
0.000546437
0.000533466
0.000516643
0.000495362
0.000469899
0.000438915
0.000586936
0.000566278
0.000549178
0.000543137
0.000549092
0.00056167
0.000575281
0.000586791
0.000595061
0.000600322
0.000603314
0.000604087
0.000602756
0.000599943
0.0005963
0.000592655
0.000589364
0.00058677
0.000584673
0.000582554
0.000579763
0.00057582
0.000570369
0.00056304
0.00055337
0.000540785
0.000524851
0.000505012
0.000481497
0.000452974
0.000615791
0.000595644
0.000573135
0.000555785
0.000548362
0.000551224
0.000560097
0.000570567
0.000579846
0.000586874
0.000591656
0.000594661
0.00059602
0.000595801
0.000594411
0.000592687
0.000591005
0.000589665
0.000588495
0.000586993
0.000584551
0.00058074
0.000575274
0.000567887
0.000558299
0.000546038
0.000530797
0.000512219
0.000490452
0.000464341
0.000644096
0.000624314
0.00060119
0.000578696
0.000561126
0.000552304
0.000552357
0.000558174
0.000566105
0.000573679
0.000579791
0.000584241
0.000587409
0.000589464
0.000590292
0.000590511
0.000590453
0.000590391
0.000590164
0.000589316
0.000587279
0.000583674
0.000578293
0.000570965
0.000561461
0.000549487
0.000534873
0.000517387
0.000497156
0.000473196
0.0006715
0.000652281
0.000630776
0.000606888
0.000584031
0.000565872
0.000555479
0.000553105
0.000556368
0.000562233
0.000568445
0.000573825
0.000578087
0.000581649
0.000584384
0.000586447
0.000587987
0.000589196
0.000589922
0.00058975
0.000588175
0.000584884
0.000579683
0.000572471
0.000563108
0.000551433
0.00053739
0.000520855
0.000501954
0.000479894
0.000697854
0.000679288
0.000659114
0.0006361
0.000612014
0.000588945
0.000570123
0.000558268
0.000553805
0.000554938
0.000559101
0.00056418
0.000568987
0.000573243
0.000577258
0.000580882
0.000583902
0.000586338
0.000588012
0.000588538
0.00058746
0.000584497
0.000579511
0.00057249
0.000563376
0.000552077
0.000538609
0.000522923
0.000505182
0.000484808
0.000723037
0.00070515
0.000686005
0.000664538
0.000641288
0.00061697
0.000593547
0.00057399
0.000560797
0.000554577
0.000553964
0.000556719
0.00056087
0.000565278
0.000569643
0.000574311
0.000578545
0.000582095
0.000584678
0.000585914
0.000585373
0.000582836
0.000578192
0.000571435
0.000562617
0.000551712
0.000538798
0.000523882
0.000507237
0.000488492
0.000746929
0.000729755
0.000711637
0.000691824
0.000670057
0.000646425
0.000621666
0.000597729
0.000577397
0.00056305
0.000555414
0.00055341
0.000555038
0.000558466
0.000562615
0.000567406
0.000572365
0.000576791
0.000580184
0.000582111
0.000582129
0.000580071
0.000575852
0.00056949
0.000561079
0.000550769
0.000538687
0.000524756
0.000509174
0.000491817
0.000769382
0.000752946
0.000735865
0.000717625
0.000697506
0.000675317
0.000651111
0.000625761
0.000601229
0.000580195
0.000564941
0.000556253
0.000553203
0.000553973
0.000556879
0.00056104
0.000565957
0.000570843
0.000574844
0.000577377
0.000577956
0.000576416
0.000572696
0.000566955
0.000559301
0.000549785
0.000538526
0.000525519
0.000510934
0.000494788
0.000790191
0.000774483
0.000758386
0.000741449
0.00072303
0.000702567
0.000679803
0.000654922
0.000628924
0.00060383
0.00058226
0.000566416
0.000557038
0.00055328
0.000553459
0.000556096
0.00056015
0.000564813
0.00056906
0.000572031
0.000573129
0.000572207
0.00056926
0.000564311
0.000557431
0.000548704
0.000538255
0.000526129
0.000512482
0.000497414
0.000809127
0.000794119
0.000778963
0.000763448
0.000746542
0.000727776
0.000706747
0.00068326
0.000657618
0.000630977
0.000605438
0.000583587
0.000567491
0.000557785
0.000553616
0.000553459
0.000555832
0.000559553
0.000563474
0.000566611
0.000568229
0.000567965
0.000565742
0.00056155
0.000555439
0.000547488
0.000537833
0.000526549
0.00051379
0.000499702
0.00082601
0.000811727
0.000797543
0.000783287
0.00076785
0.000750748
0.000731521
0.000709803
0.000685498
0.000659083
0.000631888
0.000606112
0.000584296
0.000568279
0.000558537
0.000554211
0.000553798
0.000555794
0.000558828
0.000561719
0.000563561
0.000563788
0.000562194
0.000558701
0.000553334
0.000546139
0.000537254
0.000526771
0.000514848
0.000501654
0.000840782
0.000827351
0.000814535
0.000801318
0.000787154
0.000771552
0.000754039
0.000734169
0.000711634
0.000686472
0.000659349
0.000631787
0.000606096
0.000584596
0.000568931
0.00055939
0.000555008
0.000554287
0.000555663
0.000557739
0.000559395
0.000559853
0.000558729
0.000555842
0.000551167
0.000544691
0.000536543
0.000526813
0.000515677
0.000503308
0.000853532
0.000841394
0.000829473
0.000817261
0.000804312
0.000790141
0.000774272
0.000756239
0.000735641
0.000712265
0.000686313
0.000658676
0.000631077
0.000605707
0.000584796
0.000569709
0.000560451
0.000555956
0.000554739
0.000555249
0.000556159
0.000556463
0.00055556
0.000553124
0.000549036
0.000543221
0.000535764
0.000526747
0.000516339
0.000504727
0.000864143
0.000852911
0.000841968
0.000830867
0.000819189
0.000806475
0.000792262
0.000776092
0.000757525
0.000736221
0.000712094
0.000685562
0.00065773
0.000630323
0.000605575
0.000585469
0.000570993
0.000561881
0.000557075
0.000555107
0.000554522
0.00055412
0.000553057
0.000550822
0.000547154
0.000541897
0.000535058
0.000526691
0.000516954
0.000506039
0.000872348
0.000862144
0.000852257
0.000842345
0.000832
0.000820818
0.000808364
0.000794173
0.000777768
0.000758744
0.000736873
0.000712247
0.000685469
0.000657704
0.000630825
0.0006069
0.000587553
0.000573406
0.000564131
0.000558666
0.000555639
0.00055374
0.000551919
0.00054946
0.000545928
0.000541021
0.000534655
0.000526841
0.000517708
0.000507432
0.000878733
0.000869729
0.000861036
0.00085242
0.000843533
0.000834194
0.000823867
0.000811956
0.000797881
0.00078128
0.000762067
0.000740004
0.000715327
0.000688664
0.00066136
0.000635189
0.000611924
0.000592835
0.000578471
0.000568451
0.000561783
0.000557256
0.00055372
0.000550259
0.000546226
0.000541238
0.000535069
0.000527631
0.000518972
0.000509245
0.000883922
0.00087646
0.000869349
0.000862405
0.000855394
0.000848069
0.000840066
0.000830901
0.000820022
0.000806931
0.000791252
0.000772652
0.000751086
0.000726929
0.000700902
0.000674254
0.000648473
0.000625104
0.000605451
0.000589907
0.00057814
0.000569336
0.000562489
0.00055664
0.000551008
0.000545039
0.000538342
0.00053072
0.000522109
0.00051262
0.000890723
0.000885795
0.000881229
0.000876945
0.000872817
0.000868652
0.000864146
0.000858864
0.000852273
0.000843786
0.000832833
0.000818934
0.000801815
0.000781563
0.000758664
0.000733528
0.000706998
0.000680726
0.000656314
0.000634815
0.00061662
0.000601572
0.000589105
0.000578497
0.000569035
0.000560093
0.000551174
0.000541948
0.000532216
0.000522053
0.000910722
0.000910159
0.000909852
0.000909896
0.000910412
0.000911324
0.000912368
0.000913032
0.000912688
0.000910652
0.000906144
0.000898589
0.000887603
0.000873078
0.000855308
0.000833979
0.000809022
0.000782202
0.000755002
0.000728784
0.000704385
0.000682212
0.000662264
0.000644333
0.000628086
0.000613011
0.000598676
0.000584785
0.00057113
0.000558198
0.000993328
0.000998351
0.00100301
0.00100878
0.00101624
0.00102503
0.00103426
0.00104291
0.00105024
0.00105581
0.00105834
0.00105766
0.00105362
0.00104626
0.00103543
0.00102047
0.00100031
0.000977124
0.000952292
0.000926951
0.000901835
0.000877391
0.000853919
0.000831602
0.000810549
0.000789752
0.00076917
0.000748989
0.000729549
0.000712383
0.00131123
0.00131071
0.0013125
0.00131998
0.00133045
0.00134076
0.00134881
0.00135496
0.00135956
0.00136327
0.00136369
0.00136284
0.00136078
0.00135786
0.0013532
0.00134665
0.0013356
0.00132447
0.0013136
0.00130376
0.00129475
0.00128669
0.00127949
0.00127324
0.00126797
0.00125911
0.00124861
0.0012376
0.00122744
0.00121914
0.00015824
0.000162528
0.000161198
0.000157483
0.000152326
0.000146319
0.000139902
0.000133426
0.000127138
0.000121227
0.00011578
0.000110898
0.000106647
0.000103092
0.000100197
9.79573e-05
9.63269e-05
9.5403e-05
9.53856e-05
9.64201e-05
9.82145e-05
0.000100069
0.0001012
0.0001008
9.85943e-05
9.37672e-05
8.60839e-05
7.44886e-05
0.000314035
0.000312755
0.000675285
0.000762548
0.000745251
0.000690452
0.000625615
0.000562971
0.000507306
0.000459363
0.000418526
0.000383819
0.000354265
0.000329874
0.000309417
0.00029242
0.000277984
0.000265824
0.000255029
0.000246442
0.000240201
0.000237131
0.000238014
0.00024318
0.000251068
0.000258182
0.000260039
0.000254264
0.000241552
0.000220289
0.000233663
0.000297373
0.00105773
0.0012151
0.00123035
0.00117847
0.0010996
0.00101291
0.000929113
0.000852953
0.000785552
0.000726836
0.000675979
0.000633362
0.000597309
0.000567282
0.000541926
0.0005201
0.000499841
0.000482018
0.000464966
0.000449369
0.000438435
0.000435547
0.000439998
0.000445944
0.000447096
0.000436551
0.000413786
0.000376672
0.000352342
0.000363142
0.0013091
0.00149919
0.00153837
0.00150573
0.00143663
0.00134985
0.00125979
0.00117391
0.00109461
0.00102364
0.000961173
0.000907883
0.000862625
0.000825211
0.000794355
0.000768124
0.000743774
0.00072143
0.000696859
0.000670104
0.000645748
0.000630426
0.000625613
0.000626121
0.000622415
0.000606609
0.000576128
0.000527419
0.000481096
0.000459881
0.00144857
0.00163431
0.00170593
0.00170116
0.00165082
0.00157451
0.00149184
0.00140996
0.00132945
0.00125579
0.00119
0.0011328
0.00108408
0.00104436
0.00101244
0.000986185
0.000962352
0.000939393
0.000911001
0.000876109
0.000840832
0.000813442
0.000798405
0.000790967
0.000781657
0.000761135
0.000725506
0.000670072
0.000610575
0.000569777
0.00151409
0.00169233
0.00177422
0.00179394
0.0017674
0.00171761
0.00164727
0.00157039
0.001494
0.00142583
0.00136401
0.00130837
0.0012611
0.00122319
0.00119381
0.00117076
0.00115072
0.00112998
0.00110009
0.00106011
0.00101651
0.000979304
0.000955029
0.00094047
0.000924902
0.000900244
0.00086112
0.000802325
0.000736041
0.000683314
0.00154877
0.00167793
0.00175609
0.00179412
0.00179508
0.00176826
0.00172228
0.00166466
0.00160657
0.00154578
0.00148895
0.00143829
0.00139703
0.0013645
0.00134053
0.00132333
0.00130952
0.00129258
0.00126261
0.00121985
0.0011713
0.00112739
0.0010948
0.00107287
0.00105289
0.00102467
0.000983323
0.000923769
0.000854301
0.000793588
0.0015598
0.00162819
0.00168211
0.00172051
0.00174121
0.00174458
0.00173022
0.00169697
0.00165801
0.00161416
0.00157019
0.00153083
0.00149651
0.00147157
0.0014554
0.00144646
0.00144022
0.00142832
0.00140107
0.00135776
0.00130685
0.00125749
0.00121814
0.00118942
0.00116485
0.00113512
0.00109279
0.00103419
0.000964605
0.000898827
0.00157265
0.0015892
0.00160955
0.00163415
0.00165638
0.0016724
0.00167883
0.00167221
0.00166021
0.00163744
0.00161096
0.00158537
0.00156292
0.00154802
0.00154143
0.00154258
0.00154467
0.00153878
0.00151555
0.00147431
0.00142251
0.00137023
0.00132587
0.00129137
0.00126208
0.00123092
0.00119086
0.00113476
0.00106699
0.000997296
0.00161447
0.00158488
0.00156095
0.00155665
0.00156754
0.00158392
0.00160012
0.00161154
0.00161898
0.00161973
0.00161489
0.00160686
0.00159936
0.00159715
0.00160156
0.00161356
0.00162476
0.00162621
0.00160823
0.00157027
0.00151962
0.00146649
0.00141896
0.00137997
0.00134685
0.00131499
0.00127543
0.00122309
0.0011578
0.00108751
0.00167179
0.00161156
0.00155023
0.00150787
0.00149508
0.00150011
0.00151469
0.00153343
0.00155321
0.00157132
0.0015862
0.0015986
0.00160864
0.00162142
0.00163817
0.0016617
0.00168293
0.00169195
0.00168046
0.00164716
0.00159948
0.0015473
0.00149852
0.00145691
0.00142031
0.00138562
0.0013463
0.001298
0.00123725
0.00117015
0.0017551
0.00166659
0.00157678
0.00150634
0.00145906
0.00144058
0.00144157
0.00145667
0.0014796
0.00150689
0.00153564
0.00156491
0.00159394
0.00162301
0.00165357
0.00168921
0.00172052
0.00173783
0.00173389
0.00170834
0.00166557
0.00161403
0.00156283
0.00151769
0.00147806
0.00144205
0.00140448
0.00135995
0.00130557
0.00124332
0.00185748
0.00175161
0.00164158
0.00154395
0.00146952
0.00142184
0.00139855
0.00139937
0.00141464
0.00144182
0.00147636
0.00151617
0.00155943
0.00160532
0.00165038
0.00169845
0.00174001
0.00176599
0.00177033
0.00175236
0.00171576
0.00166766
0.00161697
0.00157039
0.00152736
0.00148848
0.00145105
0.00141044
0.00136205
0.0013072
0.00198209
0.00186901
0.00174678
0.00162941
0.0015294
0.00145353
0.00140217
0.00137645
0.00137414
0.00139153
0.00142241
0.00146459
0.00151537
0.00157295
0.00163202
0.00169213
0.00174379
0.00177867
0.0017919
0.00178195
0.00175227
0.00170908
0.00166036
0.00161422
0.00157025
0.00152953
0.00149097
0.0014537
0.00141207
0.00136463
0.00212618
0.00201273
0.00188678
0.00175871
0.00164021
0.00153945
0.00145902
0.00140389
0.00137506
0.00137065
0.00138773
0.00142313
0.001473
0.0015342
0.00160317
0.00167373
0.00173465
0.00177825
0.00180027
0.00179867
0.00177649
0.0017394
0.00169405
0.00164961
0.00160657
0.00156625
0.00152827
0.00149178
0.00145533
0.00141381
0.00228307
0.00217769
0.00205588
0.0019246
0.00179542
0.00167598
0.00157031
0.00148573
0.0014265
0.00139408
0.00138785
0.00140581
0.00144441
0.00150059
0.00157022
0.0016477
0.00171597
0.00176732
0.00179764
0.00180442
0.0017901
0.00176015
0.0017196
0.00167829
0.00163804
0.00159904
0.00156069
0.00152354
0.00148832
0.00145161
0.0024494
0.00235714
0.00224522
0.00211752
0.00198438
0.0018533
0.00172935
0.00162
0.00153151
0.00146823
0.00143239
0.00142457
0.0014423
0.00148348
0.00154528
0.00162001
0.00169216
0.0017492
0.00178676
0.00180168
0.0017955
0.00177367
0.00173995
0.00170186
0.00166324
0.00162518
0.00158719
0.00154963
0.00151402
0.00148023
0.00261743
0.00254059
0.00244205
0.00232357
0.00219359
0.00205886
0.00192474
0.00179793
0.00168531
0.00159306
0.0015258
0.00148686
0.00147616
0.00149367
0.00153728
0.00160038
0.00166887
0.00172824
0.00177109
0.00179398
0.00179646
0.0017818
0.00175339
0.00171796
0.0016816
0.00164483
0.00160825
0.0015709
0.00153512
0.00150173
0.00277938
0.00271794
0.00263549
0.00253129
0.00241086
0.00227978
0.00214306
0.00200653
0.00187684
0.0017608
0.00166444
0.00159323
0.00154999
0.00153613
0.0015535
0.00159545
0.00165161
0.0017076
0.00175317
0.00178166
0.00179041
0.00178178
0.00175943
0.00172772
0.00169399
0.00165919
0.00162469
0.00158831
0.0015526
0.00151932
0.00292874
0.00288344
0.00281854
0.00273143
0.00262498
0.00250304
0.00236998
0.0022306
0.00209085
0.00195736
0.00183666
0.00173534
0.00165858
0.0016102
0.00159452
0.00160748
0.00164246
0.00168833
0.00173006
0.00176107
0.00177579
0.0017737
0.00175827
0.00173151
0.00170117
0.00166923
0.00163722
0.00160231
0.0015672
0.00153443
0.00306312
0.00303235
0.00298428
0.0029147
0.00282427
0.00271489
0.00258982
0.00245271
0.00230849
0.00216308
0.00202296
0.00189528
0.00178693
0.00170496
0.00165181
0.00163132
0.00163781
0.00166471
0.00169897
0.00172949
0.0017483
0.00175379
0.00174756
0.00172791
0.00170248
0.00167489
0.00164523
0.00161246
0.00157909
0.00154735
0.00317799
0.00315843
0.00312428
0.00307039
0.00299542
0.00289933
0.00278386
0.00265139
0.00250557
0.00235144
0.00219539
0.00204508
0.00190873
0.00179566
0.00170747
0.00165118
0.00162597
0.00162767
0.00164757
0.0016745
0.00169845
0.00171389
0.00171837
0.00171001
0.00169284
0.00167076
0.00164573
0.00161778
0.00158749
0.00155865
0.00326352
0.00325036
0.00322547
0.00318314
0.00312026
0.00303494
0.00292713
0.00279794
0.00264986
0.00248752
0.00231773
0.00214894
0.00199047
0.00185175
0.00173687
0.00164882
0.00159086
0.0015636
0.00156282
0.00158041
0.00160667
0.00163307
0.00165279
0.00166112
0.00165919
0.00164958
0.00163348
0.00161279
0.00159018
0.00156798
0.00330135
0.00328824
0.00326605
0.00322873
0.00317163
0.00309115
0.00298576
0.00285563
0.00270323
0.00253402
0.00235598
0.00217819
0.00200993
0.00185854
0.0017303
0.00162226
0.00153622
0.00147926
0.00145043
0.00144712
0.00146397
0.00149352
0.00152664
0.00155471
0.00157467
0.00158608
0.00158915
0.00158512
0.00157549
0.00156456
0.00325695
0.00323627
0.00320952
0.00317023
0.0031124
0.00303106
0.00292492
0.00279484
0.00264484
0.00248186
0.00231392
0.00214869
0.00199375
0.00185216
0.00172961
0.00162004
0.00151995
0.00143772
0.00137644
0.00133817
0.00132343
0.00133053
0.00135384
0.00138579
0.00142035
0.00145294
0.00148026
0.00150084
0.00151435
0.00152373
0.00307302
0.00304314
0.00301118
0.00297176
0.00291927
0.00284892
0.00275875
0.00265092
0.00253049
0.0024036
0.0022755
0.00214898
0.00202927
0.00191772
0.00181902
0.00172502
0.00162849
0.00153611
0.00145134
0.00137827
0.00132009
0.0012798
0.00125828
0.00125426
0.00126513
0.00128719
0.00131611
0.00134789
0.00137924
0.00141074
0.00273209
0.00271592
0.00270645
0.00269779
0.00268261
0.00265502
0.00261258
0.00255688
0.00249168
0.00242019
0.00234448
0.00226555
0.0021854
0.00210619
0.00203393
0.00196208
0.00188058
0.00179461
0.0017068
0.00162071
0.00153836
0.00146306
0.00139747
0.00134368
0.00130303
0.00127573
0.00126116
0.00125782
0.00126404
0.00128508
0.002454
0.00249602
0.00254654
0.00259214
0.00262456
0.00264055
0.00264009
0.00262557
0.00259995
0.00256404
0.00251989
0.00246888
0.00241305
0.00235522
0.00230139
0.00224693
0.00218496
0.00211878
0.00204933
0.00197822
0.00190643
0.00183572
0.00176661
0.00170021
0.00163788
0.00158071
0.00152984
0.00148578
0.00144971
0.00143882
0.00250397
0.00255814
0.00261595
0.00266935
0.00270889
0.00273184
0.0027411
0.00273527
0.00271793
0.00269136
0.00265797
0.00261868
0.00257329
0.00252928
0.0024868
0.00244299
0.00239913
0.00235478
0.00231218
0.00227091
0.00223255
0.00219757
0.00216504
0.00213411
0.00210371
0.00207261
0.00204107
0.00201033
0.00198166
0.00197364
0.00265406
0.00268848
0.00272166
0.00275216
0.00276894
0.00277386
0.00277028
0.00275868
0.0027405
0.00271733
0.00269048
0.00265968
0.00262491
0.00259248
0.00255974
0.00253009
0.00250515
0.00248281
0.00246519
0.00245377
0.00244919
0.0024513
0.00245879
0.00246993
0.00248236
0.002493
0.00250172
0.00251134
0.00251822
0.00251869
0.000189611
0.000192445
0.000187907
0.000181698
0.000174597
0.000166842
0.000158783
0.000150771
0.000143073
0.000135897
0.000129354
0.000123568
0.000118569
0.000114452
0.000111187
0.000108837
0.000107413
0.00010731
0.000109254
0.000113452
0.000118671
0.000123207
0.000125931
0.000126245
0.000123854
0.000118328
0.000109409
9.60038e-05
8.00994e-05
7.32842e-05
0.000882298
0.000990548
0.000985239
0.000930076
0.000851264
0.000771454
0.000699188
0.000636466
0.000582926
0.000537335
0.000498423
0.000465839
0.000437836
0.000414373
0.000393435
0.000374632
0.000355844
0.000341072
0.000332298
0.000332643
0.000342862
0.000360135
0.000378869
0.000392212
0.000393751
0.000379107
0.000351328
0.000312703
0.000278025
0.000250291
0.00140543
0.00161963
0.00166173
0.00161017
0.00151718
0.00140923
0.00130165
0.00120211
0.00111346
0.00103604
0.000968907
0.000911972
0.000862958
0.000822016
0.000786501
0.000754275
0.000721017
0.000691015
0.000663015
0.000643687
0.000640467
0.000653379
0.000674524
0.000691951
0.000690687
0.000667617
0.000620792
0.000551824
0.000482183
0.000428263
0.00178129
0.00203466
0.00210941
0.00207987
0.00199747
0.00188905
0.00177202
0.00165754
0.00155178
0.00145694
0.0013732
0.00130134
0.00123967
0.00118878
0.0011462
0.00110857
0.00106987
0.00103182
0.000988964
0.000950646
0.000928117
0.00092756
0.000941968
0.000957305
0.000954419
0.000924484
0.000865737
0.000777895
0.000682584
0.000603403
0.00204686
0.00230657
0.00239779
0.00239005
0.00232535
0.00222876
0.00211566
0.00199971
0.00189004
0.00178885
0.00169782
0.00161897
0.00155161
0.00149659
0.00145246
0.0014148
0.00137606
0.00133249
0.00127656
0.00122435
0.00118614
0.00116982
0.00117363
0.00118381
0.00117966
0.00114698
0.00108308
0.000985784
0.000875065
0.000775827
0.00223456
0.00246592
0.00257153
0.00259112
0.00254469
0.00245997
0.00235258
0.00224372
0.00214121
0.00204206
0.00195098
0.00187185
0.00180438
0.00175028
0.00170883
0.00167479
0.00163924
0.00159267
0.00152737
0.00146035
0.00140863
0.00137883
0.00137151
0.00137497
0.00136918
0.00133867
0.00127409
0.00117497
0.00105703
0.000944126
0.00237434
0.00256537
0.00266412
0.00269101
0.00266381
0.00260004
0.00252067
0.00242606
0.00232603
0.00222685
0.0021416
0.00206841
0.00200528
0.00195654
0.00192102
0.00189358
0.00186272
0.00181406
0.00174159
0.00166226
0.00159898
0.00155747
0.00153973
0.00153546
0.00152717
0.00149967
0.00144214
0.0013466
0.00122846
0.00110542
0.00247992
0.0026162
0.00268949
0.00271531
0.00270302
0.00266041
0.00260037
0.00252674
0.00244455
0.00236517
0.002287
0.00221743
0.00216086
0.00212071
0.00209415
0.0020759
0.00205016
0.00199946
0.00192101
0.0018336
0.00176225
0.00171013
0.00168278
0.00167028
0.00165802
0.0016346
0.00158657
0.00150014
0.0013852
0.0012569
0.00255851
0.00262416
0.00266142
0.00267953
0.00267777
0.00265507
0.00261816
0.00256901
0.00250764
0.002445
0.00238225
0.00232425
0.00227877
0.00224853
0.00223288
0.00222548
0.00220476
0.00215094
0.00206849
0.00197905
0.00190093
0.00184082
0.00180475
0.00178392
0.00176828
0.0017458
0.00170306
0.00162945
0.0015226
0.00139609
0.00261299
0.00262224
0.00262683
0.00262864
0.00262612
0.00261432
0.00259373
0.00256371
0.0025239
0.00248244
0.0024376
0.00239569
0.00236302
0.00234507
0.00234129
0.00234509
0.00232987
0.00227734
0.00219463
0.00210281
0.00201908
0.001953
0.00190952
0.00187948
0.00185552
0.00183149
0.00179445
0.00173304
0.00164117
0.00152542
0.00267755
0.00264416
0.00260934
0.00258638
0.00257099
0.00255856
0.00254652
0.00253078
0.00250926
0.00248532
0.00245973
0.00243597
0.00241892
0.0024151
0.00242356
0.00243792
0.00242777
0.00237891
0.00229824
0.00220653
0.00212029
0.00204918
0.0019959
0.00195765
0.00192701
0.00189819
0.00186485
0.00181513
0.00174072
0.00164119
0.00275933
0.00270735
0.00263949
0.00257331
0.00253409
0.00250854
0.00249521
0.0024858
0.00247667
0.00246754
0.00245812
0.00245132
0.00245136
0.00246261
0.00248315
0.00250744
0.00250448
0.0024587
0.00238269
0.00229384
0.00220802
0.00213269
0.00207437
0.00202889
0.00199153
0.00195842
0.00192431
0.00188306
0.00182601
0.00174296
0.00284616
0.00277481
0.00268659
0.00260325
0.00253172
0.00248261
0.002459
0.00244582
0.00244098
0.00244107
0.00244395
0.00245092
0.00246629
0.00249122
0.00252376
0.00255706
0.00255978
0.00252065
0.00245111
0.00236799
0.00228313
0.00220581
0.00214371
0.00209314
0.00205099
0.00201439
0.00197967
0.00194342
0.00189917
0.00183165
0.00295799
0.00287182
0.00276506
0.00265859
0.0025668
0.00250197
0.00245581
0.0024276
0.00241788
0.00241946
0.00242822
0.00244485
0.00246998
0.00250599
0.00254943
0.00259038
0.00259928
0.00256799
0.00250685
0.00243022
0.00234792
0.00227024
0.00220567
0.00215153
0.00210654
0.00206801
0.00203293
0.00199698
0.00195919
0.00190389
0.00309166
0.00299355
0.00287877
0.00276115
0.00265099
0.00256066
0.00249162
0.00244614
0.00242226
0.0024165
0.00242232
0.00244164
0.00247176
0.0025119
0.00256394
0.00261075
0.00262577
0.00260317
0.00255142
0.00248229
0.00240405
0.00232744
0.00226197
0.0022059
0.00215945
0.0021195
0.00208293
0.00204653
0.00200922
0.00196314
0.00324189
0.00314936
0.00303562
0.00290962
0.0027847
0.00267221
0.0025787
0.00250889
0.00246355
0.0024402
0.00243621
0.00244978
0.00247826
0.00251753
0.00257034
0.00262057
0.00264113
0.00262754
0.00258588
0.00252529
0.00245276
0.00237879
0.00231397
0.00225753
0.00220922
0.00216795
0.00213007
0.00209261
0.00205486
0.00201349
0.00341877
0.00333209
0.00322257
0.00309516
0.00296163
0.00283248
0.00271643
0.00262056
0.0025488
0.00250184
0.00247841
0.00247667
0.00249347
0.00252537
0.00257146
0.00262005
0.00264482
0.00264019
0.00260951
0.00255881
0.00249391
0.00242394
0.00236021
0.00230397
0.00225495
0.00221315
0.00217451
0.0021359
0.00209746
0.00205722
0.00360696
0.00352911
0.00342811
0.0033051
0.00316936
0.00303009
0.00289638
0.00277656
0.00267699
0.00260132
0.00255061
0.00252433
0.00252015
0.00253514
0.00256675
0.00260545
0.00263182
0.00263562
0.00261734
0.00257816
0.00252243
0.00245885
0.00239862
0.00234435
0.00229601
0.00225439
0.00221588
0.00217655
0.00213711
0.0020968
0.00379353
0.00372796
0.00363871
0.00352429
0.00339164
0.00324832
0.00310275
0.00296342
0.00283785
0.00273164
0.00264822
0.00258916
0.0025541
0.00254193
0.00254995
0.00257152
0.00259276
0.00260189
0.00259607
0.00257277
0.00253062
0.00247786
0.00242504
0.00237562
0.00233047
0.00229063
0.00225251
0.00221271
0.00217288
0.00213307
0.00397041
0.00391725
0.00384031
0.00373632
0.00360998
0.00346703
0.00331464
0.00316048
0.00301208
0.0028759
0.00275709
0.0026594
0.00258524
0.00253595
0.00251156
0.00250622
0.00251494
0.00252501
0.00253016
0.0025242
0.00250301
0.00246809
0.00242884
0.00239029
0.00235237
0.00231425
0.00227787
0.00224024
0.00220225
0.00216423
0.00412847
0.00408452
0.00401767
0.00392337
0.00380411
0.00366361
0.00350731
0.0033415
0.00317294
0.00300819
0.00285371
0.00271533
0.00259832
0.00250651
0.00244356
0.00240419
0.00238916
0.00239118
0.00240228
0.00241311
0.00241568
0.00240688
0.00239003
0.00236713
0.00233954
0.00231346
0.00228577
0.00225509
0.00222115
0.00218637
0.00425253
0.00421299
0.0041521
0.00406453
0.00395062
0.003812
0.00365215
0.00347568
0.00328848
0.00309735
0.00291032
0.00273537
0.00258026
0.00245024
0.00235131
0.00227816
0.00223305
0.0022146
0.00221743
0.00223336
0.0022533
0.00227035
0.00228181
0.00228638
0.00228387
0.00227659
0.00226084
0.00224282
0.00222176
0.00219905
0.0043203
0.00427914
0.0042187
0.00413317
0.00402092
0.00388171
0.00371726
0.00353071
0.00332794
0.00311708
0.0029084
0.00271188
0.0025363
0.00238621
0.00226714
0.00217353
0.00210315
0.0020573
0.0020345
0.00203196
0.00204527
0.002069
0.00209808
0.00212765
0.00215381
0.00217446
0.00218634
0.00218979
0.00218603
0.00217998
0.00429789
0.0042496
0.00418425
0.00409618
0.00398259
0.00384232
0.00367605
0.00348591
0.00327957
0.00306744
0.00286151
0.00267178
0.00250502
0.00236359
0.00224852
0.00215723
0.00207684
0.00200891
0.00195403
0.00191415
0.00189155
0.00188686
0.00189927
0.00192563
0.00196128
0.00200083
0.00203841
0.00207015
0.00209381
0.00210976
0.00414292
0.00408566
0.00401416
0.00392553
0.0038167
0.00368517
0.00353102
0.00335912
0.00317796
0.00299794
0.00282915
0.00267772
0.00254757
0.00243815
0.00234703
0.00227273
0.00219621
0.00211872
0.00204095
0.00196643
0.00190028
0.00184697
0.0018108
0.0017944
0.00179792
0.00181887
0.00185217
0.00189199
0.00193278
0.00197145
0.00382616
0.00376563
0.00370553
0.00364013
0.00356377
0.0034719
0.0033639
0.00324382
0.00311908
0.00299753
0.00288519
0.00278435
0.00269715
0.00262239
0.00255761
0.00249952
0.00243091
0.00235405
0.00226943
0.00217983
0.00208925
0.0020011
0.00192005
0.00185147
0.00179957
0.00176709
0.00175379
0.00175731
0.00177438
0.00180733
0.00342919
0.00340281
0.00339219
0.00338901
0.00337674
0.00334859
0.00330364
0.00324506
0.00317879
0.00311069