/*--------------------------------*- C++ -*----------------------------------*\
  =========                 |
  \\      /  F ield         | OpenFOAM: The Open Source CFD Toolbox
   \\    /   O peration     | Website:  https://openfoam.org
    \\  /    A nd           | Version:  12
     \\/     M anipulation  |
\*---------------------------------------------------------------------------*/
FoamFile
{
    format      ascii;
    class       volScalarField;
    location    "1700/air";
    object      p_rgh;
}
// * * * * * * * * * * * * * * * * * * * * * * * * * * * * * * * * * * * * * //

dimensions      [1 -1 -2 0 0 0 0];

internalField   nonuniform List<scalar> 
243000
(
30.168
30.0998
30.0071
29.8541
29.7009
29.5637
29.4456
29.3493
29.2747
29.2216
29.1868
29.1731
29.1712
29.1843
29.205
29.2444
29.2975
29.3693
29.4521
29.547
29.6473
29.7467
29.8383
29.9221
29.992
30.0412
30.0901
30.118
30.1617
30.154
30.1653
30.0743
29.992
29.8474
29.7026
29.5686
29.4526
29.3576
29.2833
29.2304
29.1976
29.1851
29.1835
29.1961
29.216
29.2546
29.3063
29.3767
29.4594
29.5545
29.6548
29.7545
29.8483
29.9309
29.9965
30.0487
30.0996
30.1233
30.1649
30.1426
30.1512
30.0176
29.9339
29.7921
29.6542
29.5278
29.4196
29.3326
29.2648
29.2172
29.1882
29.1788
29.1796
29.1928
29.2128
29.2512
29.302
29.3721
29.4547
29.5498
29.6503
29.7511
29.846
29.9267
29.9942
30.0471
30.0969
30.1182
30.1653
30.1367
30.1238
29.9505
29.8627
29.7197
29.5893
29.4725
29.3738
29.2952
29.2344
29.1923
29.1674
29.1613
29.1641
29.1783
29.1982
29.2361
29.2858
29.3541
29.4341
29.5267
29.6253
29.7253
29.8205
29.9042
29.977
30.0343
30.0897
30.1094
30.1615
30.1296
30.0885
29.8924
29.7935
29.6499
29.5256
29.4166
29.3255
29.2537
29.1985
29.161
29.1396
29.1363
29.1406
29.1555
29.1749
29.212
29.2602
29.3265
29.4037
29.4936
29.59
29.6891
29.7848
29.8707
29.9478
30.0092
30.0702
30.0911
30.1515
30.1191
30.0464
29.8454
29.7304
29.5887
29.47
29.367
29.2818
29.2149
29.1633
29.1289
29.1099
29.1084
29.1137
29.1287
29.1473
29.183
29.2292
29.2931
29.367
29.4536
29.5475
29.6457
29.742
29.8302
29.9116
29.9772
30.044
30.0676
30.1359
30.1048
29.9972
29.8037
29.6801
29.5433
29.4247
29.3263
29.245
29.1811
29.131
29.0977
29.0791
29.0781
29.0834
29.0979
29.1152
29.1489
29.1925
29.2534
29.3234
29.4064
29.4977
29.595
29.6921
29.7829
29.8684
29.9386
30.0112
30.0391
30.1141
30.0846
29.9392
29.758
29.6373
29.5086
29.3951
29.2965
29.2167
29.1539
29.1038
29.0696
29.0495
29.0468
29.0508
29.0641
29.0793
29.1104
29.1509
29.2081
29.2737
29.3528
29.4415
29.5379
29.636
29.7295
29.8192
29.894
29.9726
30.0059
30.0869
30.0601
29.8732
29.6996
29.5947
29.4794
29.372
29.2766
29.1966
29.133
29.0821
29.0456
29.0228
29.0164
29.017
29.028
29.0405
29.0684
29.1052
29.1579
29.2188
29.2939
29.3799
29.4756
29.5749
29.6711
29.765
29.8446
29.9289
29.9684
30.0546
30.0317
29.8007
29.6282
29.5402
29.4479
29.3499
29.2607
29.1818
29.1161
29.0643
29.0254
28.9991
28.9883
28.9836
28.9907
28.9997
29.0237
29.0561
29.1038
29.1597
29.2306
29.3141
29.4091
29.5098
29.6089
29.707
29.7914
29.8812
29.9271
30.0181
30.0002
29.7223
29.5492
29.4782
29.403
29.321
29.2412
29.1675
29.1023
29.0485
29.0077
28.9779
28.9624
28.9517
28.9532
28.9576
28.977
29.0042
29.0465
29.0971
29.1639
29.2449
29.3395
29.4418
29.5439
29.6461
29.7353
29.8302
29.883
29.9783
29.9663
29.6395
29.4665
29.4104
29.3505
29.282
29.2133
29.1481
29.0869
29.0335
28.991
28.9581
28.938
28.9214
28.9164
28.9148
28.9289
28.9504
28.9868
29.0321
29.0948
29.1734
29.2678
29.3717
29.477
29.5833
29.6773
29.7767
29.8367
29.936
29.931
29.5521
29.383
29.339
29.2935
29.2367
29.1795
29.1227
29.0677
29.0172
28.9744
28.9386
28.9144
28.8921
28.8804
28.8717
28.8801
28.8954
28.9256
28.9654
29.024
29.1005
29.1948
29.3005
29.409
29.5194
29.6181
29.7217
29.7893
29.8917
29.895
29.4598
29.2986
29.2631
29.2312
29.1861
29.1394
29.0915
29.0433
28.9975
28.9564
28.9188
28.8905
28.863
28.845
28.8288
28.8309
28.8398
28.8635
28.8977
28.9523
29.0267
29.1211
29.2287
29.3405
29.4548
29.5583
29.6662
29.7409
29.845
29.8586
29.3631
29.2132
29.1849
29.1633
29.1295
29.093
29.0541
29.013
28.9721
28.9345
28.897
28.8658
28.8332
28.8093
28.7864
28.7815
28.7839
28.8011
28.8296
28.8802
28.9527
29.0472
29.1568
29.272
29.3902
29.4985
29.6103
29.6918
29.7968
29.8219
29.2618
29.1255
29.105
29.0914
29.0665
29.0397
29.0095
28.976
28.9403
28.9065
28.8712
28.8388
28.802
28.7722
28.7434
28.7319
28.7279
28.7385
28.7614
28.8081
28.8787
28.9734
29.085
29.2035
29.3257
29.4388
29.554
29.6422
29.7477
29.785
29.1554
29.0347
29.0215
29.0158
28.9984
28.9794
28.9572
28.9313
28.9018
28.8716
28.8392
28.8075
28.7681
28.7334
28.6987
28.6815
28.6718
28.676
28.6932
28.736
28.8048
28.8997
29.0135
29.1354
29.2613
29.3792
29.4975
29.5922
29.6982
29.7475
29.0441
28.941
28.9338
28.9351
28.9253
28.9127
28.8975
28.8783
28.8552
28.8296
28.8001
28.7702
28.7298
28.6915
28.6517
28.6292
28.6148
28.6132
28.6249
28.6638
28.731
28.8261
28.9418
29.067
29.1967
29.3194
29.4404
29.5411
29.648
29.7083
28.9274
28.8435
28.8413
28.8479
28.846
28.8395
28.8307
28.8176
28.7999
28.7793
28.7531
28.7253
28.6852
28.6447
28.6013
28.5739
28.5555
28.5495
28.5561
28.5911
28.6563
28.7515
28.8691
28.9979
29.1313
29.2583
29.3826
29.4887
29.5971
29.6675
28.8041
28.7409
28.7427
28.7537
28.7583
28.7582
28.7553
28.7485
28.7362
28.7201
28.6977
28.6721
28.6328
28.5915
28.5456
28.5147
28.4927
28.483
28.4853
28.5165
28.5796
28.6748
28.7949
28.9273
29.064
29.1955
29.3235
29.4349
29.5456
29.6243
28.6729
28.6308
28.6368
28.6525
28.6621
28.6674
28.6698
28.6688
28.6623
28.6513
28.6328
28.6097
28.5717
28.5302
28.4828
28.4501
28.4253
28.4124
28.411
28.4387
28.5002
28.5959
28.7185
28.8538
28.9941
29.1301
29.2619
29.3788
29.4924
29.5786
28.5312
28.5109
28.5216
28.5414
28.556
28.5668
28.5744
28.5784
28.5774
28.5715
28.5572
28.5371
28.5011
28.46
28.4116
28.378
28.3516
28.3363
28.332
28.3571
28.4175
28.5137
28.6383
28.7763
28.9201
29.0607
29.1967
29.3191
29.436
29.5291
28.3802
28.3789
28.3941
28.4187
28.4392
28.4562
28.4695
28.4785
28.4823
28.481
28.4709
28.454
28.4202
28.3801
28.3313
28.297
28.2697
28.2531
28.2473
28.2707
28.3303
28.4267
28.5529
28.6935
28.8407
28.9858
29.1262
29.2541
29.3751
29.4749
28.2153
28.2247
28.2468
28.2783
28.3066
28.3317
28.3523
28.3674
28.3765
28.3799
28.3743
28.3605
28.3289
28.2903
28.2415
28.2066
28.1787
28.1619
28.1557
28.1782
28.2372
28.3337
28.4608
28.6034
28.7537
28.9031
29.0477
29.181
29.3062
29.4122
28.0367
28.0555
28.0864
28.126
28.1635
28.1978
28.2261
28.2477
28.2625
28.2706
28.2693
28.2586
28.2292
28.1919
28.1437
28.1088
28.0805
28.064
28.0579
28.08
28.1385
28.2347
28.362
28.5061
28.6591
28.8122
28.9608
29.0992
29.2288
29.3416
27.8104
27.8378
27.8821
27.9369
27.9915
28.0418
28.0834
28.1158
28.1395
28.1544
28.1581
28.1514
28.1247
28.0894
28.0416
28.0065
27.9772
27.9604
27.954
27.9751
28.032
28.1266
28.2519
28.3956
28.5495
28.7046
28.8554
28.9973
29.1298
29.2475
27.6042
27.6453
27.7047
27.775
27.8461
27.9103
27.9625
28.0033
28.0341
28.0539
28.0608
28.0565
28.0312
27.9977
27.951
27.916
27.8857
27.8686
27.8617
27.8815
27.9361
28.0272
28.1498
28.2926
28.4471
28.6042
28.7576
28.9038
29.0411
29.167
27.1833
27.2618
27.3685
27.4889
27.6084
27.7114
27.7921
27.8543
27.9022
27.9356
27.9516
27.9539
27.9324
27.9016
27.8552
27.8181
27.7833
27.7635
27.7535
27.7693
27.8164
27.8962
28.0059
28.138
28.2844
28.4338
28.5788
28.7185
28.8477
28.9703
27.1936
27.3025
27.4339
27.5732
27.7018
27.803
27.8758
27.9279
27.9635
27.9868
27.9945
27.9907
27.9653
27.9309
27.8805
27.8421
27.8089
27.7937
27.7894
27.8127
27.8657
27.9503
28.0642
28.2006
28.3528
28.511
28.6648
28.8159
28.9584
29.099
25.9062
26.1025
26.3667
26.6475
26.8987
27.0888
27.229
27.3355
27.4135
27.4648
27.4894
27.4973
27.4805
27.4505
27.4019
27.3556
27.3066
27.2742
27.2483
27.244
27.2634
27.3091
27.3814
27.4747
27.5795
27.6805
27.7744
27.8674
27.9542
28.0653
29.961
29.81
29.6958
29.5241
29.3738
29.2514
29.1573
29.0876
29.0378
29.0058
28.988
28.9862
28.9924
29.01
29.0291
29.0654
29.1114
29.1788
29.2593
29.3573
29.4642
29.5757
29.6842
29.7849
29.8809
29.9626
30.0393
30.0847
30.1431
30.1364
29.948
29.78
29.669
29.5066
29.3692
29.2535
29.1618
29.0933
29.044
29.0128
28.9963
28.9954
29.0015
29.0185
29.0369
29.0723
29.117
29.1838
29.2645
29.363
29.4705
29.5826
29.6916
29.7929
29.8883
29.9696
30.0465
30.0913
30.1513
30.1271
29.932
29.7465
29.6376
29.4801
29.3493
29.2382
29.1506
29.085
29.0374
29.0074
28.9924
28.9929
28.9989
29.0153
29.0325
29.0668
29.1094
29.1738
29.2513
29.3467
29.4532
29.5662
29.6773
29.7809
29.8786
29.9611
30.0408
30.0831
30.1496
30.1184
29.9094
29.7101
29.5982
29.4438
29.3194
29.2148
29.1331
29.0718
29.0274
29.0003
28.9869
28.9883
28.9941
29.0096
29.0252
29.0576
29.0974
29.1587
29.2322
29.3235
29.4265
29.5375
29.6492
29.7556
29.8568
29.9421
30.0269
30.067
30.1417
30.1066
29.8764
29.6737
29.5582
29.408
29.2887
29.1892
29.1123
29.0557
29.0149
28.99
28.9775
28.9793
28.9844
28.9985
29.0118
29.0417
29.0778
29.1351
29.204
29.291
29.3904
29.4994
29.6107
29.7179
29.8214
29.9108
30.0001
30.0422
30.1267
30.0908
29.8333
29.6366
29.5203
29.3759
29.2617
29.1667
29.0939
29.0406
29.0023
28.9787
28.9665
28.9677
28.9714
28.9837
28.9941
29.0206
29.0521
29.1049
29.1684
29.2506
29.3463
29.4536
29.5648
29.6733
29.7794
29.8715
29.9663
30.0109
30.1055
30.0708
29.7813
29.5951
29.4851
29.3493
29.2397
29.149
29.0797
29.0278
28.9914
28.9679
28.9549
28.9547
28.9561
28.966
28.9729
28.9954
29.0216
29.0691
29.1265
29.2035
29.2957
29.4015
29.5131
29.6232
29.7322
29.8275
29.9275
29.9753
30.0788
30.0464
29.7223
29.5473
29.4544
29.3303
29.2259
29.138
29.07
29.0188
28.9825
28.9586
28.944
28.9412
28.9395
28.9462
28.9491
28.9668
28.9872
29.0284
29.0794
29.1512
29.24
29.3446
29.4568
29.5689
29.681
29.7797
29.8848
29.9365
30.0474
30.0182
29.6603
29.4871
29.4174
29.3143
29.2194
29.1351
29.0673
29.0149
28.9754
28.9507
28.9342
28.9282
28.9223
28.9252
28.9231
28.9357
28.9496
28.9839
29.0283
29.0949
29.1805
29.2842
29.3973
29.5115
29.6269
29.7291
29.839
29.8957
30.0119
29.9871
29.5965
29.4197
29.3699
29.2913
29.2123
29.1357
29.069
29.0157
28.973
28.9443
28.9253
28.9157
28.9052
28.9035
28.8956
28.9026
28.9096
28.9366
28.9741
29.0356
29.1182
29.2213
29.3355
29.4522
29.5709
29.6767
29.7911
29.8536
29.9734
29.954
29.5301
29.3527
29.3189
29.2566
29.1972
29.1343
29.0712
29.018
28.9739
28.9406
28.9179
28.9036
28.8884
28.8814
28.8672
28.868
28.8679
28.8874
28.918
28.9744
29.0544
29.157
29.2726
29.3918
29.5138
29.6232
29.7416
29.8108
29.9326
29.9196
29.4614
29.2864
29.266
29.2187
29.1722
29.1242
29.0718
29.0203
28.9758
28.9404
28.912
28.8924
28.8715
28.8591
28.8383
28.8324
28.8253
28.8373
28.8609
28.9123
28.9898
29.0923
29.2094
29.3312
29.4565
29.5693
29.6912
29.7678
29.8903
29.8847
29.3914
29.2205
29.2114
29.1764
29.1416
29.1045
29.0642
29.0205
28.9771
28.9406
28.9069
28.8823
28.8552
28.8366
28.8091
28.7962
28.7821
28.7868
28.8036
28.8502
28.9253
29.0278
29.1465
29.2711
29.3995
29.5156
29.6404
29.7247
29.8468
29.8499
29.3208
29.1552
29.1552
29.1302
29.1056
29.0782
29.0469
29.0116
28.9742
28.9389
28.9015
28.8727
28.8394
28.8141
28.7795
28.7595
28.7385
28.7364
28.7468
28.7886
28.8617
28.9644
29.0848
29.2121
29.3435
29.4629
29.5893
29.6812
29.8022
29.8169
29.2489
29.0897
29.0967
29.082
29.0657
29.0463
29.0229
28.9955
28.9637
28.9314
28.8942
28.8625
28.8237
28.7916
28.7495
28.7228
28.6946
28.6865
28.6909
28.7282
28.7994
28.9024
29.0246
29.1548
29.2889
29.4117
29.5385
29.6373
29.7568
29.7852
29.1735
29.0222
29.0354
29.0306
29.0217
29.0093
28.993
28.9727
28.9473
28.9193
28.8837
28.8505
28.8073
28.769
28.7196
28.6859
28.6507
28.6371
28.6362
28.6694
28.7389
28.8424
28.9665
29.0992
29.2357
29.3617
29.4894
29.593
29.7109
29.7548
29.094
28.9529
28.9705
28.9739
28.9725
28.9669
28.9568
28.9431
28.9239
28.9013
28.8685
28.8352
28.7887
28.7455
28.6897
28.6487
28.6067
28.5882
28.5829
28.6122
28.6804
28.7844
28.91
29.0449
29.1835
29.3131
29.4421
29.5497
29.6649
29.725
29.01
28.8822
28.9035
28.9134
28.9181
28.9189
28.9149
28.9071
28.8937
28.8762
28.8474
28.815
28.7667
28.7203
28.6586
28.6111
28.5624
28.5396
28.5305
28.5565
28.6236
28.7283
28.8549
28.9918
29.1322
29.2661
29.3969
29.5085
29.6224
29.6941
28.9204
28.8096
28.8344
28.8499
28.86
28.866
28.8674
28.865
28.857
28.8444
28.8196
28.7893
28.7401
28.6915
28.6252
28.5722
28.5178
28.491
28.4787
28.5021
28.569
28.6737
28.8004
28.9394
29.0826
29.2203
29.3531
29.4686
29.5821
29.6627
28.8243
28.7339
28.7623
28.783
28.7977
28.8084
28.8144
28.8169
28.814
28.8059
28.7851
28.7573
28.7076
28.6582
28.5889
28.5316
28.4727
28.4427
28.428
28.4493
28.5153
28.6189
28.746
28.8875
29.0341
29.1754
29.3104
29.4295
29.5431
29.6307
28.7206
28.6541
28.6859
28.7116
28.7308
28.7462
28.7567
28.7634
28.765
28.7613
28.7441
28.719
28.6694
28.6196
28.549
28.4898
28.4269
28.3942
28.3775
28.3964
28.4606
28.5636
28.6921
28.8361
28.9859
29.1307
29.2681
29.3906
29.5047
29.5977
28.6083
28.5683
28.604
28.6349
28.6589
28.6791
28.6944
28.7056
28.7112
28.7114
28.6976
28.6748
28.626
28.576
28.5053
28.4451
28.3789
28.3438
28.3249
28.3418
28.4055
28.5085
28.6382
28.7842
28.9372
29.0854
29.2255
29.3513
29.4662
29.5636
28.4882
28.4758
28.5158
28.552
28.5815
28.6072
28.6279
28.644
28.654
28.6575
28.647
28.6261
28.5783
28.5287
28.4566
28.3958
28.3272
28.2901
28.2699
28.2863
28.3504
28.4537
28.5839
28.7315
28.8871
29.0389
29.1818
29.311
29.4271
29.5286
28.3613
28.3727
28.4186
28.4608
28.4971
28.5297
28.5574
28.5798
28.5948
28.6017
28.5942
28.5748
28.5283
28.4795
28.4047
28.3427
28.2716
28.2337
28.2133
28.2306
28.2949
28.3982
28.5295
28.6786
28.8356
28.9905
29.1358
29.2682
29.3856
29.4909
28.2298
28.2622
28.315
28.3638
28.4081
28.4495
28.4861
28.5163
28.5368
28.5473
28.5421
28.5238
28.4791
28.4311
28.3549
28.2898
28.2157
28.1761
28.1562
28.1756
28.2399
28.3431
28.4754
28.6264
28.7853
28.9439
29.0917
29.226
29.344
29.4534
28.0823
28.1371
28.198
28.2561
28.312
28.3661
28.4151
28.4555
28.483
28.4979
28.4947
28.477
28.4338
28.3867
28.3096
28.243
28.1657
28.123
28.1037
28.1256
28.1892
28.292
28.4236
28.5743
28.7339
28.894
29.0447
29.1815
29.3003
29.4135
27.9507
28.0291
28.0956
28.162
28.23
28.2982
28.3607
28.4117
28.4464
28.4634
28.4602
28.4429
28.4021
28.3562
28.278
28.2093
28.1286
28.083
28.0637
28.0879
28.1504
28.253
28.3839
28.5352
28.6978
28.8605
29.0134
29.1522
29.2715
29.3894
27.7932
27.8926
27.9695
28.0552
28.1499
28.2444
28.3279
28.3949
28.4418
28.467
28.4648
28.4507
28.4147
28.3727
28.2958
28.2262
28.1408
28.0901
28.0678
28.0905
28.1475
28.2396
28.3642
28.5116
28.6702
28.8283
28.9742
29.1092
29.2242
29.3427
27.8416
27.9464
28.0316
28.14
28.2628
28.3816
28.4815
28.5586
28.6121
28.6441
28.6464
28.6369
28.605
28.5659
28.4934
28.4243
28.3317
28.2751
28.2441
28.2591
28.3075
28.3902
28.5027
28.6377
28.7861
28.9377
29.0824
29.2152
29.3253
29.4423
28.488
28.5898
28.6526
28.7499
28.8648
28.9737
29.0598
29.1208
29.1551
29.1673
29.1542
29.1314
29.0892
29.0449
28.971
28.9058
28.8157
28.7621
28.7343
28.7559
28.8115
28.9024
29.0218
29.1637
29.3195
29.4777
29.6281
29.7665
29.8819
30.0079
29.9463
29.7435
29.6479
29.4545
29.2921
29.1642
29.0731
29.0117
28.9722
28.9512
28.9417
28.9482
28.9577
28.9789
28.9901
29.0158
29.0342
29.0708
29.1124
29.1759
29.2561
29.3564
29.4691
29.5893
29.7146
29.8329
29.9501
30.0302
30.114
30.1063
29.9323
29.6949
29.61
29.4273
29.2824
29.1655
29.0774
29.0175
28.9787
28.9597
28.9514
28.9585
28.9678
28.9888
28.9998
29.0257
29.0442
29.0811
29.1226
29.1859
29.2669
29.3676
29.4805
29.6005
29.7255
29.8429
29.9593
30.0366
30.1223
30.1093
29.9088
29.6528
29.576
29.403
29.2687
29.1583
29.0756
29.0181
28.98
28.9613
28.9537
28.9613
28.9703
28.9908
29.0007
29.0263
29.0434
29.0786
29.116
29.1758
29.2545
29.3563
29.4711
29.593
29.7191
29.836
29.9542
30.0286
30.1231
30.1026
29.8675
29.6066
29.5326
29.3673
29.2435
29.1418
29.0664
29.0143
28.9792
28.9616
28.9543
28.9625
28.9704
28.9907
28.9994
29.0242
29.0387
29.0711
29.104
29.1587
29.2321
29.3304
29.4472
29.5718
29.6999
29.8171
29.9376
30.0105
30.1143
30.089
29.8116
29.5573
29.4836
29.3282
29.2147
29.1213
29.0527
29.0054
28.973
28.9578
28.9516
28.9602
28.9671
28.9865
28.9929
29.0162
29.0268
29.0553
29.0821
29.1309
29.1992
29.2938
29.4084
29.5334
29.6654
29.7843
29.9095
29.9819
30.0949
30.0683
29.7457
29.5058
29.4314
29.2884
29.1852
29.0999
29.0378
28.995
28.9659
28.9528
28.9471
28.9557
28.9613
28.9793
28.9828
29.0037
29.0092
29.0324
29.0524
29.0948
29.158
29.2496
29.3626
29.4872
29.6206
29.7427
29.8717
29.9463
30.068
30.0419
29.6746
29.4537
29.3792
29.2508
29.1571
29.0801
29.024
28.9853
28.9591
28.9474
28.9415
28.9497
28.9534
28.9696
28.9694
28.9873
28.9868
29.0036
29.0163
29.0519
29.1102
29.1993
29.3116
29.4364
29.5707
29.6952
29.8278
29.9064
30.0355
30.0116
29.601
29.3978
29.3285
29.2158
29.1319
29.0627
29.0122
28.9771
28.9531
28.9422
28.9355
28.9429
28.9441
28.9581
28.9534
28.9675
28.9604
28.9699
28.9751
29.0038
29.0574
29.1446
29.2567
29.3824
29.518
29.6442
29.7802
29.8639
29.9985
29.9784
29.526
29.3386
29.2801
29.1838
29.1102
29.0489
29.003
28.9704
28.9479
28.9374
28.9296
28.9359
28.9338
28.9454
28.9351
28.9449
28.9305
28.9323
28.93
28.9519
29.001
29.0868
29.1994
29.3264
29.4637
29.5914
29.7302
29.8199
29.9581
29.9433
29.4521
29.2782
29.2344
29.1539
29.0918
29.0381
28.9963
28.9656
28.9436
28.933
28.9239
28.9287
28.9227
28.9316
28.9153
28.92
28.8975
28.8917
28.8823
28.8976
28.9423
29.0272
29.1408
29.2697
29.4086
29.538
29.6793
29.7753
29.9152
29.9074
29.3824
29.2186
29.1893
29.1218
29.072
29.0272
28.9904
28.9622
28.9404
28.9291
28.9185
28.9216
28.9112
28.9171
28.8942
28.8935
28.8621
28.8489
28.8327
28.8418
28.8822
28.9667
29.0818
29.2131
29.3538
29.4856
29.6283
29.7308
29.8712
29.8713
29.3159
29.1604
29.1441
29.09
29.0509
29.0145
28.9833
28.9584
28.9372
28.9256
28.9132
28.9144
28.8994
28.902
28.8722
28.8658
28.8251
28.8047
28.782
28.7853
28.8218
28.9064
29.0233
29.1574
29.2998
29.4353
29.578
29.6866
29.8257
29.8368
29.2517
29.1026
29.0985
29.0575
29.0288
29.0001
28.9744
28.9529
28.9331
28.9217
28.9078
28.907
28.8873
28.8863
28.8494
28.8372
28.7869
28.7596
28.7307
28.7288
28.7618
28.8468
28.9662
29.1036
29.2475
29.3866
29.5295
29.6425
29.7791
29.8036
29.1889
29.0459
29.0515
29.0231
29.0043
28.9834
28.9635
28.9454
28.9277
28.9171
28.9019
28.8992
28.875
28.8699
28.8259
28.8081
28.7482
28.7141
28.6794
28.6731
28.7029
28.7886
28.911
29.0514
29.1979
29.3404
29.4826
29.5983
29.7318
29.772
29.1255
28.9883
29.0028
28.9868
28.9771
28.9635
28.9492
28.9353
28.9202
28.911
28.8949
28.8906
28.8623
28.853
28.8018
28.7787
28.7093
28.6687
28.6284
28.6182
28.6453
28.7321
28.8575
29.0006
29.1505
29.2952
29.4373
29.5558
29.6858
29.7425
29.0617
28.9305
28.953
28.9479
28.9463
28.9398
28.9314
28.9219
28.9098
28.9023
28.8861
28.8807
28.8486
28.8357
28.7772
28.7493
28.6707
28.6235
28.578
28.5645
28.5893
28.6776
28.8052
28.9508
29.1039
29.2511
29.3945
29.5158
29.643
29.7139
28.9962
28.8717
28.9009
28.9056
28.9109
28.9116
28.9091
28.9044
28.8958
28.8905
28.8746
28.8688
28.8333
28.8173
28.7522
28.7198
28.6325
28.5789
28.5286
28.512
28.5346
28.6242
28.7538
28.9019
29.0585
29.209
29.354
29.4784
29.6038
29.6852
28.9258
28.8103
28.8459
28.8591
28.8712
28.8783
28.8817
28.8822
28.8777
28.8748
28.86
28.8542
28.8159
28.7974
28.7264
28.6907
28.5949
28.535
28.4798
28.4602
28.4808
28.5714
28.7028
28.8546
29.0145
29.1686
29.3153
29.4429
29.567
29.6568
28.8483
28.7465
28.788
28.809
28.8275
28.8408
28.8498
28.8552
28.8552
28.8553
28.842
28.8367
28.7961
28.776
28.6994
28.6619
28.558
28.4921
28.4313
28.4093
28.4279
28.5188
28.6521
28.8081
28.9715
29.1292
29.278
29.4087
29.5318
29.6284
28.7621
28.6801
28.7269
28.7553
28.7798
28.7992
28.8137
28.8241
28.8286
28.8317
28.8206
28.8162
28.7739
28.7529
28.6712
28.6328
28.5217
28.4501
28.3836
28.3585
28.3745
28.4655
28.6015
28.7613
28.9288
29.0902
29.2414
29.3753
29.4979
29.5998
28.6666
28.6101
28.662
28.6978
28.7285
28.754
28.7741
28.7898
28.7988
28.8052
28.7967
28.7935
28.7501
28.7289
28.6428
28.6039
28.4863
28.409
28.3353
28.3064
28.3203
28.4122
28.5501
28.7137
28.8853
29.0509
29.2049
29.342
29.4646
29.5711
28.5618
28.5357
28.5931
28.6366
28.674
28.706
28.7322
28.7534
28.7672
28.7771
28.7716
28.7698
28.726
28.705
28.615
28.5761
28.4521
28.3683
28.2865
28.2537
28.2673
28.3598
28.4981
28.6645
28.8405
29.0106
29.1676
29.3082
29.4314
29.5419
28.4499
28.456
28.52
28.572
28.6171
28.6565
28.6895
28.7168
28.7359
28.7499
28.7476
28.747
28.7029
28.6825
28.589
28.5507
28.4197
28.3284
28.2381
28.2038
28.2184
28.3092
28.4466
28.6144
28.7937
28.9688
29.1299
29.2737
29.398
29.5127
28.3332
28.3689
28.443
28.5051
28.5594
28.6072
28.6481
28.6824
28.7077
28.7262
28.7264
28.7264
28.682
28.6625
28.5655
28.5289
28.3905
28.2932
28.1956
28.16
28.1738
28.261
28.3964
28.5648
28.7462
28.9246
29.09
29.2384
29.3642
29.4828
28.2104
28.2788
28.3668
28.4398
28.5039
28.5611
28.611
28.6533
28.6851
28.7077
28.7089
28.7088
28.6644
28.6462
28.5456
28.5108
28.3646
28.2629
28.1589
28.1187
28.1313
28.2152
28.348
28.5167
28.7001
28.8818
29.0503
29.2023
29.3302
29.4549
28.0826
28.1913
28.2928
28.3766
28.4517
28.5203
28.5809
28.6313
28.6697
28.6963
28.6976
28.6975
28.6538
28.6388
28.5358
28.5069
28.3547
28.2498
28.1368
28.0886
28.0962
28.1722
28.3009
28.469
28.655
28.8411
29.0136
29.1691
29.2986
29.4277
27.9661
28.1157
28.2282
28.3242
28.4115
28.4922
28.5637
28.6214
28.6662
28.6993
28.7015
28.7032
28.6619
28.6528
28.5503
28.529
28.37
28.2619
28.1354
28.0837
28.0876
28.1606
28.2809
28.4427
28.6286
28.816
28.9907
29.1484
29.2781
29.4087
27.8736
28.0501
28.1707
28.2789
28.3813
28.4769
28.5604
28.6337
28.6871
28.7255
28.7285
28.7337
28.698
28.6974
28.5975
28.5899
28.4267
28.3176
28.1815
28.1203
28.1195
28.1798
28.2926
28.4496
28.6318
28.8201
28.9956
29.153
29.28
29.4073
27.8558
28.0435
28.1733
28.2961
28.4108
28.5156
28.6066
28.6845
28.7422
28.7845
28.7907
28.8006
28.7712
28.785
28.6937
28.7113
28.5532
28.452
28.3102
28.2392
28.2249
28.2726
28.3685
28.5109
28.6798
28.8563
29.0233
29.1779
29.305
29.4369
27.9348
28.1067
28.2358
28.3645
28.4844
28.5934
28.6857
28.7626
28.8191
28.8613
28.8719
28.8883
28.8666
28.8965
28.8196
28.8705
28.7253
28.6399
28.5012
28.4287
28.4061
28.4448
28.5276
28.6549
28.8129
28.9864
29.1587
29.3214
29.4575
29.5909
29.8709
29.6336
29.5648
29.3371
29.1567
29.022
28.9346
28.888
28.8667
28.8625
28.869
28.8933
28.9076
28.9299
28.9201
28.918
28.8831
28.8672
28.8467
28.8602
28.9124
29.0139
29.1485
29.3027
29.4693
29.6334
29.8
29.9251
30.0517
30.0613
29.8478
29.5469
29.4981
29.2871
29.1318
29.015
28.9362
28.8921
28.8731
28.8708
28.8784
28.9029
28.9166
28.9383
28.9278
28.9265
28.893
28.8802
28.8618
28.8742
28.9243
29.0261
29.1608
29.3148
29.4807
29.6438
29.8102
29.9333
30.061
30.068
29.813
29.4822
29.4413
29.2498
29.1121
29.006
28.935
28.8937
28.8762
28.8761
28.8848
28.9089
28.9211
28.9415
28.9288
28.9265
28.8909
28.8763
28.8549
28.8623
28.9079
29.0138
29.1524
29.308
29.4745
29.6368
29.804
29.9258
30.0619
30.0632
29.7538
29.4189
29.3799
29.2037
29.0832
28.9893
28.9278
28.8935
28.8779
28.8806
28.8903
28.9141
28.9246
28.9437
28.9279
28.9233
28.8832
28.865
28.8395
28.8413
28.8812
28.9832
29.1265
29.2853
29.4526
29.6143
29.7824
29.9051
30.05
30.0472
29.676
29.3553
29.3166
29.1567
29.0524
28.9706
28.9179
28.8902
28.8783
28.8836
28.894
28.9174
28.9255
28.9428
28.9226
28.914
28.8668
28.8425
28.8112
28.8075
28.8427
28.9414
29.0825
29.2458
29.4152
29.5776
29.7473
29.8722
30.0257
30.0229
29.5855
29.2897
29.2521
29.1088
29.0197
28.9507
28.9071
28.8858
28.8781
28.8857
28.8966
28.9195
28.9247
28.9398
28.914
28.9
28.8431
28.8111
28.7729
28.764
28.7953
28.8923
29.0322
29.1962
29.3679
29.5319
29.7038
29.8306
29.9909
29.9912
29.4888
29.2227
29.1883
29.062
28.9884
28.9315
28.897
28.8818
28.8778
28.8874
28.8981
28.9203
28.9227
28.9351
28.9026
28.8819
28.8134
28.772
28.7263
28.7129
28.741
28.8377
28.9778
29.1412
29.3152
29.4808
29.6543
29.784
29.9477
29.9548
29.3908
29.1555
29.1269
29.0186
28.9604
28.9148
28.8884
28.8786
28.8776
28.8886
28.8988
28.9202
28.9198
28.9291
28.8888
28.8603
28.7784
28.7264
28.6731
28.6559
28.6819
28.7796
28.921
29.0844
29.2599
29.4272
29.6013
29.7342
29.8992
29.9162
29.2945
29.0895
29.0697
28.9802
28.9361
28.9007
28.8816
28.8765
28.8775
28.8898
28.8993
28.92
28.9159
28.922
28.873
28.8357
28.739
28.6757
28.6151
28.594
28.6195
28.7195
28.8634
29.0273
29.2043
29.3732
29.5469
29.6836
29.8477
29.8771
29.203
29.0279
29.0174
28.9462
28.915
28.8891
28.8765
28.8753
28.8777
28.8912
28.8998
28.9197
28.9115
28.9142
28.8556
28.8086
28.6961
28.6211
28.5534
28.5293
28.5558
28.659
28.8065
28.9722
29.1509
29.3211
29.4939
29.6345
29.7957
29.8386
29.1193
28.9712
28.97
28.9164
28.8969
28.8798
28.873
28.875
28.8789
28.8934
28.9005
28.9195
28.9066
28.9056
28.8368
28.7796
28.6503
28.5638
28.4894
28.4638
28.4919
28.5994
28.7512
28.9201
29.1011
29.273
29.4455
29.5871
29.7439
29.8016
29.0445
28.9174
28.9252
28.889
28.8803
28.8717
28.8703
28.8752
28.8811
28.8961
28.9015
28.9193
28.9015
28.8964
28.8167
28.7491
28.6025
28.505
28.4246
28.3984
28.4288
28.5418
28.6977
28.8713
29.055
29.2302
29.4008
29.5417
29.6943
29.7672
28.9765
28.8664
28.8828
28.8632
28.8645
28.8638
28.8675
28.8752
28.8836
28.8991
28.9028
28.9187
28.8958
28.8866
28.7957
28.7174
28.5533
28.446
28.36
28.3338
28.3675
28.4866
28.6461
28.8262
29.0143
29.1913
29.3585
29.5
29.649
29.7351
28.9141
28.8185
28.8428
28.8387
28.8483
28.8549
28.8636
28.8745
28.8855
28.902
28.9044
28.9181
28.8895
28.8763
28.7738
28.6849
28.5037
28.3875
28.2965
28.2707
28.3084
28.4338
28.598
28.7855
28.9767
29.1536
29.3201
29.4632
29.609
29.704
28.8559
28.7718
28.8049
28.8135
28.831
28.8446
28.8584
28.8728
28.8857
28.9042
28.9057
28.918
28.883
28.8653
28.7511
28.6519
28.4542
28.3305
28.2345
28.2096
28.2523
28.3838
28.5536
28.7462
28.9397
29.1188
29.2861
29.4306
29.5734
29.6749
28.7996
28.7256
28.7679
28.7871
28.8121
28.8325
28.8514
28.8697
28.8847
28.9049
28.906
28.9174
28.8762
28.8539
28.7277
28.6189
28.4055
28.2754
28.1744
28.1513
28.199
28.3351
28.5098
28.7073
28.9053
29.0877
29.2558
29.4016
29.5417
29.6479
28.7431
28.6797
28.7307
28.7591
28.7911
28.8181
28.8422
28.8649
28.8823
28.9042
28.9054
28.9162
28.8692
28.8425
28.7037
28.5863
28.3584
28.2224
28.1175
28.0955
28.1468
28.286
28.4675
28.6708
28.8734
29.0597
29.2289
29.376
29.5135
29.6229
28.6856
28.6337
28.6924
28.7291
28.7678
28.8013
28.8307
28.8582
28.8784
28.9023
28.9037
28.9139
28.8618
28.8313
28.6799
28.5548
28.3133
28.1729
28.0627
28.0401
28.0941
28.2383
28.4269
28.6355
28.8433
29.0338
29.2048
29.3532
29.4884
29.6003
28.6236
28.5858
28.652
28.6968
28.7421
28.782
28.817
28.8494
28.873
28.8991
28.9007
28.9108
28.8541
28.8206
28.6572
28.5257
28.2712
28.126
28.0082
27.9853
28.0439
28.1922
28.3841
28.6002
28.8141
29.0096
29.1828
29.3327
29.4659
29.5799
28.5539
28.5349
28.609
28.662
28.7139
28.7604
28.8014
28.8387
28.8663
28.8947
28.8969
28.9073
28.8467
28.8109
28.6361
28.4996
28.2313
28.081
27.9558
27.935
27.9966
28.1436
28.3402
28.5645
28.7846
28.9857
29.1622
29.3139
29.4458
29.5616
28.4766
28.4797
28.5624
28.6241
28.6837
28.7373
28.7842
28.8267
28.8586
28.8899
28.8931
28.9042
28.8403
28.8031
28.6171
28.4767
28.1936
28.0435
27.9112
27.8893
27.9475
28.0923
28.296
28.5272
28.7539
28.961
29.142
29.2963
29.4273
29.5451
28.3919
28.4178
28.5112
28.5839
28.652
28.713
28.7662
28.8142
28.8507
28.8855
28.8905
28.9037
28.836
28.799
28.6008
28.4584
28.1639
28.0147
27.8739
27.8465
27.8973
28.0413
28.2507
28.4879
28.7211
28.934
29.1204
29.2796
29.4104
29.5302
28.2977
28.3511
28.4574
28.5422
28.6196
28.6885
28.7485
28.8021
28.8433
28.882
28.8893
28.9049
28.8362
28.7997
28.5872
28.447
28.1434
27.9892
27.8362
27.8026
27.8513
27.9951
28.2038
28.4465
28.6862
28.9053
29.0961
29.2605
29.3941
29.5169
28.1952
28.2826
28.4025
28.5002
28.5875
28.6649
28.7317
28.7911
28.8371
28.8799
28.8894
28.9077
28.838
28.803
28.5781
28.4446
28.1284
27.9687
27.8036
27.7679
27.8155
27.9532
28.1592
28.4026
28.6495
28.8752
29.0715
29.2401
29.3764
29.5048
28.0869
28.2162
28.3493
28.46
28.5576
28.643
28.7166
28.7818
28.8325
28.8791
28.8924
28.9127
28.8418
28.8102
28.5785
28.4522
28.1161
27.956
27.7825
27.7453
27.7898
27.9243
28.1233
28.3626
28.6128
28.846
29.0484
29.2221
29.3614
29.4944
27.9802
28.1529
28.2996
28.4229
28.5295
28.623
28.7034
28.7744
28.8297
28.8823
28.8989
28.9226
28.8516
28.8251
28.5876
28.4696
28.1114
27.955
27.7746
27.7362
27.7761
27.9066
28.099
28.3366
28.5832
28.8213
29.0305
29.2097
29.3524
29.4879
27.8841
28.0967
28.2552
28.3893
28.5049
28.6064
28.6935
28.77
28.831
28.8929
28.9136
28.9429
28.8705
28.8535
28.6126
28.517
28.1474
27.9996
27.8053
27.7589
27.7881
27.9144
28.1021
28.3309
28.5722
28.8089
29.023
29.2079
29.3532
29.4889
27.8161
28.0501
28.2162
28.3616
28.4855
28.595
28.6893
28.7743
28.8463
28.9132
28.9372
28.974
28.9024
28.9004
28.6572
28.5974
28.2198
28.0821
27.877
27.8261
27.8462
27.9563
28.1295
28.3486
28.5822
28.8122
29.0243
29.2129
29.3622
29.5001
27.773
28.0144
28.1871
28.3405
28.4737
28.5917
28.6951
28.7898
28.8657
28.935
28.9618
29.0055
28.9386
28.9573
28.7165
28.7061
28.3266
28.2035
27.9908
27.9347
27.9424
28.0332
28.1857
28.3899
28.6148
28.8408
29.0469
29.2296
29.3766
29.5178
27.7801
28.0011
28.1731
28.33
28.4675
28.5909
28.701
28.8009
28.8804
28.9521
28.9831
29.032
28.9729
29.0137
28.7846
28.8358
28.4651
28.363
28.1489
28.0895
28.084
28.158
28.2865
28.4668
28.671
28.8831
29.0844
29.2703
29.4266
29.5721
29.8875
29.6084
29.5534
29.3003
29.0957
28.9464
28.8536
28.8138
28.8017
28.818
28.8456
28.8979
28.9344
28.9933
28.9958
29.0092
28.9317
28.8447
28.7158
28.6467
28.6486
28.736
28.8826
29.055
29.2408
29.4271
29.6247
29.7879
29.9681
30.0029
29.8497
29.4928
29.4667
29.2314
29.0585
28.9317
28.8534
28.8172
28.8092
28.8285
28.8574
28.9099
28.9458
29.0044
29.0057
29.0215
28.9474
28.8675
28.7416
28.6684
28.6601
28.7445
28.89
29.0619
29.2482
29.4353
29.6345
29.7976
29.98
30.0128
29.8035
29.398
29.3903
29.1779
29.0296
28.9182
28.8506
28.8191
28.8151
28.8374
28.8672
28.9199
28.9541
29.0131
29.0123
29.03
28.9538
28.8688
28.738
28.6638
28.6486
28.7315
28.8804
29.0541
29.2418
29.4291
29.6286
29.7887
29.9763
30.0082
29.7251
29.3107
29.3099
29.1146
28.9896
28.8957
28.8407
28.8187
28.8195
28.8451
28.8756
28.929
28.9614
29.0214
29.0173
29.0367
28.9532
28.8634
28.7261
28.6473
28.624
28.6981
28.8493
29.0266
29.2157
29.4031
29.603