/*--------------------------------*- C++ -*----------------------------------*\
  =========                 |
  \\      /  F ield         | OpenFOAM: The Open Source CFD Toolbox
   \\    /   O peration     | Website:  https://openfoam.org
    \\  /    A nd           | Version:  12
     \\/     M anipulation  |
\*---------------------------------------------------------------------------*/
FoamFile
{
    format      ascii;
    class       volScalarField;
    location    "1700/air";
    object      T;
}
// * * * * * * * * * * * * * * * * * * * * * * * * * * * * * * * * * * * * * //

dimensions      [0 0 0 1 0 0 0];

internalField   nonuniform List<scalar> 
243000
(
301.07
301.02
300.99
300.968
300.95
300.934
300.92
300.906
300.894
300.882
300.87
300.858
300.847
300.836
300.824
300.812
300.799
300.785
300.77
300.752
300.731
300.706
300.678
300.647
300.618
300.59
300.565
300.545
300.527
300.495
301.218
301.096
301.035
300.996
300.968
300.946
300.928
300.912
300.897
300.883
300.871
300.858
300.846
300.833
300.821
300.808
300.795
300.781
300.765
300.747
300.727
300.703
300.676
300.647
300.618
300.591
300.565
300.544
300.526
300.504
301.406
301.199
301.097
301.035
300.994
300.963
300.94
300.92
300.902
300.887
300.873
300.859
300.846
300.833
300.82
300.806
300.792
300.778
300.762
300.744
300.724
300.701
300.676
300.648
300.62
300.593
300.568
300.545
300.526
300.508
301.624
301.342
301.186
301.092
301.032
300.989
300.957
300.932
300.911
300.893
300.877
300.862
300.847
300.833
300.819
300.805
300.791
300.776
300.76
300.742
300.722
300.7
300.676
300.649
300.623
300.596
300.571
300.548
300.528
300.51
301.854
301.533
301.316
301.179
301.089
301.028
300.984
300.951
300.925
300.903
300.884
300.867
300.851
300.836
300.821
300.806
300.79
300.775
300.758
300.74
300.721
300.7
300.676
300.651
300.625
300.6
300.575
300.552
300.531
300.513
302.064
301.762
301.494
301.303
301.173
301.085
301.024
300.979
300.945
300.917
300.894
300.874
300.856
300.839
300.823
300.807
300.791
300.775
300.758
300.74
300.72
300.7
300.677
300.653
300.629
300.604
300.579
300.556
300.535
300.517
302.195
301.964
301.694
301.464
301.29
301.167
301.08
301.018
300.973
300.937
300.909
300.885
300.864
300.845
300.827
300.81
300.793
300.775
300.758
300.739
300.72
300.7
300.678
300.655
300.632
300.608
300.584
300.561
300.54
300.521
302.271
302.119
301.889
301.646
301.437
301.276
301.159
301.074
301.012
300.965
300.929
300.9
300.875
300.853
300.833
300.814
300.796
300.777
300.759
300.74
300.721
300.701
300.68
300.658
300.635
300.612
300.589
300.566
300.545
300.526
302.311
302.221
302.055
301.834
301.609
301.415
301.263
301.149
301.066
301.004
300.957
300.92
300.89
300.864
300.841
300.82
300.8
300.78
300.761
300.741
300.722
300.702
300.682
300.661
300.639
300.616
300.594
300.572
300.55
300.531
302.337
302.285
302.18
302.009
301.795
301.581
301.397
301.251
301.139
301.056
300.994
300.946
300.909
300.878
300.852
300.828
300.806
300.785
300.764
300.744
300.724
300.704
300.684
300.663
300.642
300.621
300.599
300.578
300.556
300.537
302.359
302.326
302.264
302.149
301.974
301.765
301.559
301.381
301.238
301.128
301.045
300.983
300.935
300.897
300.866
300.839
300.814
300.791
300.769
300.748
300.727
300.707
300.687
300.667
300.646
300.625
300.604
300.583
300.563
300.543
302.381
302.355
302.317
302.247
302.123
301.946
301.741
301.54
301.366
301.224
301.115
301.032
300.97
300.922
300.884
300.852
300.824
300.799
300.775
300.752
300.731
300.71
300.69
300.67
300.65
300.63
300.61
300.589
300.569
300.549
302.402
302.38
302.354
302.311
302.232
302.101
301.922
301.719
301.521
301.348
301.208
301.1
301.018
300.956
300.908
300.87
300.837
300.809
300.783
300.759
300.736
300.715
300.695
300.675
300.655
300.635
300.615
300.596
300.576
300.556
302.424
302.404
302.382
302.353
302.303
302.216
302.079
301.898
301.696
301.5
301.328
301.189
301.082
301.001
300.94
300.892
300.854
300.821
300.792
300.766
300.742
300.72
300.699
300.679
300.66
300.641
300.621
300.602
300.582
300.563
302.444
302.425
302.405
302.382
302.349
302.293
302.199
302.055
301.871
301.669
301.474
301.304
301.168
301.062
300.983
300.923
300.876
300.837
300.805
300.776
300.75
300.727
300.705
300.685
300.665
300.646
300.627
300.608
300.589
300.57
302.461
302.443
302.425
302.405
302.38
302.342
302.28
302.177
302.027
301.839
301.636
301.442
301.276
301.143
301.04
300.963
300.905
300.858
300.82
300.788
300.76
300.735
300.712
300.691
300.671
300.652
300.633
300.615
300.596
300.578
302.475
302.457
302.44
302.422
302.401
302.373
302.331
302.261
302.149
301.991
301.799
301.596
301.406
301.244
301.115
301.017
300.943
300.886
300.84
300.803
300.772
300.745
300.72
300.698
300.678
300.659
300.64
300.621
300.603
300.585
302.485
302.467
302.45
302.433
302.415
302.392
302.362
302.314
302.235
302.114
301.948
301.753
301.552
301.366
301.21
301.087
300.993
300.921
300.866
300.823
300.787
300.756
300.73
300.707
300.685
300.666
300.647
300.628
300.61
300.592
302.49
302.473
302.456
302.44
302.423
302.403
302.38
302.346
302.291
302.202
302.07
301.898
301.701
301.502
301.323
301.174
301.058
300.969
300.901
300.848
300.806
300.771
300.742
300.717
300.694
300.674
300.654
300.635
300.617
300.6
302.488
302.473
302.458
302.442
302.426
302.409
302.388
302.362
302.323
302.26
302.161
302.019
301.841
301.643
301.45
301.279
301.139
301.03
300.945
300.881
300.83
300.79
300.757
300.729
300.705
300.683
300.662
300.643
300.625
300.608
302.479
302.465
302.451
302.436
302.422
302.407
302.39
302.369
302.34
302.296
302.223
302.113
301.961
301.778
301.583
301.397
301.236
301.106
301.003
300.924
300.862
300.814
300.776
300.744
300.717
300.694
300.672
300.653
300.634
300.616
302.461
302.448
302.435
302.423
302.41
302.397
302.383
302.367
302.346
302.313
302.262
302.179
302.057
301.897
301.712
301.523
301.347
301.197
301.075
300.979
300.904
300.846
300.801
300.764
300.733
300.707
300.684
300.663
300.644
300.625
302.433
302.422
302.411
302.401
302.391
302.381
302.37
302.358
302.342
302.319
302.282
302.222
302.128
301.996
301.831
301.648
301.466
301.301
301.161
301.048
300.958
300.888
300.833
300.789
300.754
300.724
300.698
300.675
300.655
300.636
302.394
302.386
302.379
302.372
302.365
302.358
302.351
302.342
302.331
302.315
302.289
302.246
302.176
302.072
301.931
301.764
301.587
301.415
301.261
301.131
301.025
300.941
300.875
300.822
300.78
300.745
300.716
300.691
300.668
300.648
302.344
302.34
302.337
302.334
302.331
302.328
302.325
302.32
302.314
302.304
302.287
302.256
302.205
302.125
302.011
301.866
301.701
301.531
301.37
301.227
301.106
301.008
300.928
300.865
300.815
300.773
300.739
300.71
300.685
300.662
302.281
302.283
302.285
302.287
302.289
302.291
302.292
302.291
302.289
302.284
302.274
302.254
302.217
302.158
302.069
301.949
301.803
301.643
301.483
301.333
301.2
301.088
300.995
300.92
300.859
300.809
300.768
300.734
300.705
300.68
302.202
302.21
302.219
302.227
302.235
302.242
302.247
302.251
302.252
302.251
302.245
302.231
302.206
302.163
302.096
302
301.879
301.737
301.587
301.438
301.3
301.178
301.073
300.986
300.914
300.854
300.805
300.765
300.73
300.701
302.095
302.109
302.124
302.138
302.15
302.159
302.166
302.17
302.171
302.169
302.162
302.15
302.131
302.098
302.048
301.977
301.883
301.769
301.64
301.506
301.375
301.253
301.144
301.049
300.968
300.9
300.844
300.796
300.756
300.722
301.875
301.886
301.899
301.91
301.917
301.919
301.915
301.907
301.895
301.88
301.863
301.844
301.821
301.793
301.756
301.707
301.646
301.57
301.481
301.384
301.284
301.186
301.095
301.013
300.94
300.877
300.824
300.778
300.739
300.706
300.94
300.935
300.949
300.962
300.965
300.96
300.949
300.936
300.921
300.904
300.888
300.873
300.857
300.838
300.817
300.794
300.77
300.74
300.704
300.665
300.624
300.585
300.549
300.517
300.488
300.462
300.441
300.422
300.406
300.391
301
300.967
300.945
300.927
300.912
300.898
300.885
300.872
300.86
300.849
300.837
300.825
300.814
300.801
300.789
300.775
300.76
300.743
300.723
300.697
300.666
300.631
300.595
300.56
300.529
300.504
300.483
300.466
300.452
300.43
301.042
300.995
300.965
300.941
300.921
300.904
300.889
300.875
300.862
300.849
300.836
300.824
300.811
300.798
300.785
300.771
300.755
300.738
300.718
300.693
300.664
300.632
300.598
300.565
300.535
300.509
300.488
300.469
300.453
300.435
301.082
301.028
300.99
300.961
300.937
300.917
300.898
300.882
300.867
300.853
300.839
300.825
300.812
300.798
300.783
300.768
300.752
300.734
300.713
300.69
300.663
300.633
300.601
300.57
300.541
300.516
300.493
300.474
300.457
300.44
301.125
301.068
301.025
300.99
300.961
300.936
300.914
300.895
300.877
300.861
300.845
300.829
300.814
300.799
300.783
300.767
300.749
300.73
300.71
300.687
300.662
300.634
300.604
300.575
300.547
300.522
300.499
300.479
300.461
300.444
301.175
301.119
301.072
301.031
300.996
300.965
300.939
300.915
300.893
300.873
300.855
300.837
300.82
300.803
300.785
300.767
300.749
300.729
300.708
300.685
300.661
300.634
300.607
300.579
300.552
300.528
300.505
300.485
300.466
300.449
301.239
301.189
301.139
301.09
301.047
301.008
300.974
300.943
300.917
300.892
300.87
300.849
300.829
300.81
300.79
300.77
300.75
300.729
300.707
300.684
300.66
300.635
300.609
300.583
300.558
300.534
300.511
300.491
300.472
300.454
301.327
301.291
301.235
301.174
301.117
301.067
301.022
300.984
300.949
300.919
300.891
300.866
300.842
300.82
300.798
300.776
300.753
300.73
300.707
300.684
300.66
300.636
300.612
300.587
300.563
300.54
300.518
300.497
300.478
300.46
301.418
301.406
301.356
301.286
301.214
301.146
301.088
301.037
300.993
300.955
300.92
300.889
300.861
300.834
300.809
300.784
300.759
300.734
300.709
300.685
300.662
300.638
300.615
300.591
300.568
300.545
300.524
300.504
300.484
300.466
301.503
301.511
301.476
301.409
301.327
301.245
301.171
301.106
301.05
301.001
300.958
300.92
300.885
300.854
300.824
300.795
300.767
300.74
300.714
300.688
300.664
300.641
300.618
300.595
300.573
300.551
300.531
300.51
300.491
300.473
301.576
301.6
301.584
301.53
301.449
301.359
301.27
301.19
301.12
301.06
301.006
300.959
300.917
300.879
300.844
300.811
300.779
300.749
300.72
300.693
300.668
300.645
300.622
300.6
300.578
300.558
300.537
300.517
300.498
300.48
301.644
301.673
301.674
301.64
301.572
301.481
301.384
301.29
301.205
301.131
301.065
301.008
300.957
300.911
300.87
300.831
300.795
300.761
300.73
300.701
300.674
300.65
300.627
300.605
300.584
300.564
300.544
300.525
300.506
300.488
301.709
301.738
301.749
301.733
301.684
301.604
301.506
301.403
301.305
301.216
301.137
301.067
301.006
300.951
300.902
300.857
300.815
300.777
300.742
300.711
300.682
300.657
300.633
300.611
300.59
300.57
300.551
300.532
300.513
300.496
301.775
301.799
301.813
301.809
301.779
301.718
301.63
301.526
301.418
301.315
301.222
301.139
301.065
301.001
300.942
300.889
300.841
300.797
300.758
300.723
300.693
300.665
300.641
300.618
300.597
300.578
300.558
300.54
300.521
300.504
301.841
301.858
301.871
301.874
301.857
301.815
301.743
301.648
301.539
301.427
301.32
301.223
301.136
301.06
300.991
300.929
300.873
300.823
300.778
300.74
300.706
300.676
300.65
300.627
300.606
300.585
300.566
300.548
300.529
300.512
301.908
301.918
301.927
301.93
301.921
301.893
301.84
301.761
301.659
301.546
301.43
301.32
301.22
301.13
301.05
300.977
300.912
300.855
300.804
300.76
300.722
300.69
300.662
300.637
300.615
300.594
300.575
300.556
300.538
300.52
301.974
301.977
301.98
301.981
301.974
301.956
301.918
301.856
301.769
301.663
301.546
301.428
301.315
301.212
301.119
301.035
300.96
300.894
300.836
300.786
300.743
300.707
300.676
300.649
300.626
300.604
300.584
300.565
300.547
300.529
302.037
302.034
302.032
302.028
302.021
302.006
301.978
301.932
301.862
301.769
301.659
301.539
301.419
301.304
301.199
301.103
301.018
300.941
300.875
300.817
300.769
300.728
300.693
300.664
300.638
300.615
300.595
300.575
300.556
300.539
302.094
302.086
302.079
302.071
302.061
302.047
302.025
301.989
301.934
301.858
301.761
301.647
301.526
301.404
301.289
301.182
301.085
300.998
300.922
300.856
300.8
300.754
300.715
300.682
300.654
300.629
300.607
300.586
300.567
300.549
302.143
302.131
302.12
302.108
302.095
302.08
302.06
302.03
301.988
301.926
301.845
301.744
301.628
301.506
301.385
301.269
301.161
301.064
300.978
300.903
300.839
300.786
300.741
300.704
300.672
300.645
300.621
300.599
300.579
300.561
302.181
302.166
302.152
302.137
302.122
302.105
302.085
302.059
302.024
301.975
301.909
301.823
301.72
301.604
301.482
301.361
301.246
301.139
301.043
300.959
300.886
300.825
300.774
300.731
300.695
300.665
300.638
300.614
300.593
300.574
302.205
302.189
302.173
302.156
302.139
302.12
302.1
302.076
302.047
302.007
301.953
301.883
301.794
301.69
301.575
301.455
301.336
301.222
301.118
301.024
300.942
300.872
300.814
300.765
300.724
300.689
300.659
300.632
300.609
300.588
302.213
302.197
302.18
302.162
302.144
302.126
302.105
302.083
302.056
302.024
301.981
301.924
301.851
301.761
301.657
301.544
301.426
301.31
301.2
301.098
301.008
300.929
300.862
300.806
300.759
300.718
300.684
300.654
300.628
300.606
302.203
302.187
302.17
302.154
302.136
302.118
302.099
302.079
302.056
302.028
301.993
301.948
301.889
301.815
301.725
301.624
301.513
301.4
301.287
301.18
301.082
300.996
300.92
300.856
300.801
300.755
300.716
300.682
300.652
300.626
302.171
302.157
302.143
302.128
302.112
302.096
302.08
302.062
302.042
302.019
301.991
301.955
301.908
301.849
301.776
301.689
301.591
301.485
301.375
301.267
301.165
301.071
300.988
300.916
300.853
300.8
300.754
300.715
300.68
300.651
302.117
302.106
302.095
302.083
302.07
302.057
302.044
302.029
302.013
301.994
301.972
301.943
301.907
301.861
301.803
301.731
301.648
301.555
301.454
301.351
301.249
301.152
301.063
300.984
300.913
300.853
300.8
300.754
300.715
300.681
302.037
302.029
302.022
302.013
302.004
301.995
301.985
301.973
301.96
301.944
301.926
301.903
301.875
301.838
301.792
301.736
301.668
301.59
301.504
301.412
301.317
301.223
301.133
301.051
300.976
300.909
300.85
300.799
300.754
300.716
301.923
301.918
301.912
301.906
301.9
301.894
301.887
301.878
301.866
301.851
301.834
301.814
301.79
301.76
301.721
301.675
301.62
301.557
301.486
301.408
301.326
301.243
301.162
301.084
301.012
300.946
300.887
300.834
300.787
300.745
301.747
301.737
301.731
301.728
301.726
301.723
301.717
301.707
301.693
301.676
301.657
301.636
301.611
301.583
301.547
301.506
301.462
301.412
301.356
301.292
301.225
301.157
301.09
301.026
300.966
300.911
300.861
300.816
300.774
300.737
301.43
301.403
301.391
301.392
301.395
301.395
301.389
301.376
301.357
301.335
301.313
301.291
301.267
301.24
301.207
301.17
301.132
301.089
301.042
300.994
300.945
300.896
300.85
300.808
300.77
300.737
300.706
300.679
300.654
300.63
300.794
300.788
300.796
300.808
300.819
300.825
300.826
300.822
300.814
300.803
300.79
300.777
300.761
300.742
300.718
300.691
300.663
300.632
300.599
300.565
300.531
300.498
300.468
300.441
300.418
300.397
300.379
300.363
300.35
300.337
300.966
300.941
300.922
300.906
300.891
300.878
300.865
300.852
300.84
300.828
300.817
300.805
300.792
300.78
300.766
300.751
300.734
300.714
300.687
300.653
300.613
300.572
300.534
300.503
300.477
300.458
300.442
300.43
300.418
300.397
300.975
300.946
300.924
300.905
300.889
300.874
300.861
300.848
300.835
300.823
300.811
300.799
300.786
300.773
300.759
300.743
300.726
300.705
300.679
300.648
300.612
300.575
300.54
300.509
300.484
300.464
300.447
300.433
300.42
300.402
300.985
300.955
300.932
300.912
300.894
300.878
300.864
300.85
300.837
300.824
300.811
300.798
300.784
300.77
300.754
300.738
300.719
300.698
300.673
300.644
300.612
300.578
300.545
300.516
300.491
300.47
300.452
300.437
300.423
300.407
300.998
300.969
300.945
300.924
300.906
300.888
300.872
300.857
300.843
300.828
300.814
300.8
300.785
300.769
300.753
300.734
300.715
300.693
300.668
300.641
300.611
300.58
300.549
300.522
300.497
300.476
300.458
300.442
300.427
300.411
301.016
300.989
300.966
300.944
300.924
300.905
300.887
300.87
300.854
300.838
300.822
300.806
300.789
300.772
300.754
300.734
300.713
300.69
300.665
300.639
300.611
300.582
300.553
300.527
300.504
300.483
300.464
300.447
300.432
300.416
301.04
301.017
300.994
300.972
300.951
300.93
300.909
300.89
300.871
300.853
300.834
300.816
300.797
300.778
300.758
300.736
300.712
300.688
300.664
300.638
300.611
300.584
300.557
300.533
300.51
300.489
300.471
300.453
300.437
300.421
301.073
301.054
301.033
301.011
300.988
300.964
300.941
300.918
300.896
300.874
300.852
300.831
300.81
300.788
300.765
300.741
300.715
300.689
300.663
300.638
300.612
300.586
300.561
300.538
300.516
300.496
300.477
300.459
300.443
300.426
301.115
301.101
301.084
301.062
301.038
301.011
300.983
300.955
300.928
300.902
300.877
300.852
300.827
300.802
300.776
300.749
300.721
300.693
300.665
300.639
300.614
300.589
300.566
300.544
300.523
300.503
300.484
300.466
300.449
300.432
301.165
301.163
301.152
301.132
301.105
301.073
301.038
301.004
300.971
300.94
300.909
300.879
300.85
300.821
300.792
300.761
300.729
300.699
300.67
300.643
300.617
300.594
300.571
300.549
300.529
300.51
300.491
300.473
300.456
300.439
301.227
301.234
301.23
301.213
301.184
301.148
301.107
301.066
301.026
300.987
300.95
300.914
300.88
300.846
300.812
300.777
300.742
300.709
300.678
300.649
300.623
300.599
300.577
300.556
300.536
300.517
300.498
300.481
300.463
300.446
301.296
301.309
301.31
301.298
301.272
301.233
301.187
301.139
301.091
301.045
301
300.958
300.917
300.878
300.838
300.798
300.759
300.722
300.688
300.658
300.631
300.606
300.584
300.563
300.543
300.525
300.506
300.488
300.47
300.453
301.368
301.384
301.39
301.384
301.362
301.325
301.277
301.223
301.167
301.113
301.06
301.01
300.962
300.916
300.871
300.825
300.781
300.74
300.703
300.67
300.641
300.616
300.593
300.571
300.552
300.533
300.515
300.497
300.478
300.461
301.444
301.46
301.469
301.467
301.451
301.418
301.371
301.314
301.253
301.191
301.13
301.071
301.016
300.962
300.91
300.859
300.809
300.763
300.722
300.686
300.655
300.627
300.603
300.581
300.561
300.542
300.523
300.505
300.487
300.47
301.524
301.537
301.547
301.547
301.535
301.508
301.465
301.409
301.345
301.277
301.208
301.142
301.078
301.017
300.957
300.899
300.843
300.792
300.746
300.706
300.672
300.642
300.616
300.592
300.571
300.552
300.533
300.514
300.496
300.479
301.605
301.616
301.623
301.624
301.615
301.593
301.555
301.503
301.44
301.369
301.294
301.22
301.148
301.079
301.012
300.947
300.885
300.828
300.776
300.731
300.693
300.66
300.631
300.606
300.584
300.563
300.543
300.524
300.506
300.489
301.687
301.694
301.698
301.697
301.688
301.67
301.638
301.592
301.532
301.461
301.384
301.305
301.225
301.149
301.075
301.002
300.933
300.87
300.813
300.762
300.719
300.682
300.65
300.622
300.598
300.576
300.555
300.536
300.517
300.499
301.768
301.77
301.77
301.766
301.757
301.74
301.712
301.671
301.617
301.55
301.474
301.392
301.308
301.225
301.144
301.065
300.99
300.92
300.856
300.8
300.751
300.709
300.673
300.642
300.615
300.591
300.569
300.549
300.529
300.511
301.844
301.842
301.838
301.83
301.819
301.802
301.777
301.741
301.692
301.631
301.558
301.477
301.392
301.305
301.219
301.134
301.053
300.977
300.907
300.844
300.789
300.742
300.701
300.666
300.636
300.61
300.586
300.563
300.543
300.524
301.912
301.907
301.899
301.888
301.874
301.856
301.832
301.799
301.756
301.701
301.634
301.557
301.474
301.386
301.297
301.208
301.122
301.041
300.964
300.895
300.834
300.781
300.735
300.696
300.661
300.631
300.605
300.581
300.558
300.538
301.969
301.961
301.95
301.936
301.92
301.901
301.877
301.846
301.807
301.759
301.699
301.628
301.549
301.464
301.375
301.285
301.197
301.111
301.029
300.954
300.886
300.827
300.775
300.731
300.692
300.658
300.628
300.601
300.576
300.555
302.011
302.001
301.988
301.973
301.955
301.934
301.91
301.882
301.847
301.803
301.751
301.688
301.616
301.536
301.451
301.363
301.274
301.186
301.101
301.02
300.947
300.881
300.823
300.772
300.728
300.69
300.655
300.625
300.598
300.574
302.035
302.023
302.01
301.994
301.976
301.955
301.932
301.905
301.873
301.835
301.789
301.734
301.671
301.599
301.521
301.438
301.352
301.265
301.178
301.094
301.015
300.943
300.879
300.822
300.772
300.727
300.688
300.654
300.623
300.596
302.037
302.026
302.013
301.998
301.981
301.961
301.939
301.914
301.885
301.851
301.812
301.765
301.711
301.648
301.579
301.504
301.424
301.342
301.257
301.172
301.09
301.013
300.943
300.879
300.822
300.772
300.727
300.688
300.653
300.622
302.015
302.005
301.994
301.981
301.966
301.949
301.929
301.907
301.882
301.853
301.818
301.777
301.731
301.677
301.617
301.551
301.481
301.406
301.327
301.247
301.165
301.087
301.012
300.943
300.88
300.823
300.772
300.727
300.687
300.652
301.964
301.957
301.949
301.939
301.926
301.912
301.895
301.876
301.854
301.828
301.797
301.762
301.721
301.674
301.622
301.564
301.503
301.438
301.37
301.299
301.224
301.149
301.076
301.005
300.938
300.877
300.821
300.77
300.725
300.686
301.882
301.877
301.87
301.862
301.852
301.841
301.827
301.81
301.79
301.766
301.738
301.705
301.668
301.625
301.576
301.523
301.469
301.413
301.356
301.296
301.235
301.171
301.107
301.042
300.978
300.918
300.862
300.809
300.761
300.718
301.754
301.746
301.739
301.732
301.725
301.717
301.707
301.692
301.673
301.649
301.621
301.589
301.552
301.509
301.459
301.405
301.353
301.304
301.256
301.209
301.163
301.116
301.066
301.016
300.965
300.914
300.865
300.818
300.774
300.733
301.553
301.538
301.526
301.519
301.517
301.514
301.508
301.496
301.477
301.452
301.423
301.39
301.353
301.311
301.263
301.21
301.161
301.115
301.071
301.03
300.99
300.951
300.917
300.886
300.857
300.827
300.794
300.76
300.727
300.696
301.228
301.209
301.2
301.2
301.204
301.207
301.205
301.196
301.181
301.159
301.133
301.104
301.072
301.034
300.989
300.94
300.895
300.852
300.813
300.776
300.743
300.712
300.685
300.661
300.64
300.622
300.608
300.594
300.578
300.561
300.722
300.725
300.734
300.75
300.766
300.78
300.788
300.791
300.787
300.777
300.762
300.744
300.721
300.692
300.656
300.615
300.579
300.543
300.51
300.48
300.453
300.429
300.408
300.39
300.375
300.362
300.35
300.339
300.328
300.318
300.958
300.931
300.911
300.894
300.879
300.864
300.851
300.838
300.825
300.813
300.801
300.789
300.776
300.762
300.748
300.732
300.712
300.688
300.653
300.61
300.565
300.523
300.49
300.465
300.446
300.433
300.422
300.413
300.404
300.393
300.955
300.923
300.901
300.882
300.866
300.852
300.84
300.827
300.815
300.803
300.791
300.779
300.766
300.752
300.737
300.72
300.701
300.676
300.645
300.606
300.566
300.528
300.497
300.472
300.453
300.439
300.427
300.416
300.406
300.393
300.953
300.923
300.901
300.882
300.866
300.851
300.838
300.825
300.812
300.8
300.787
300.774
300.761
300.746
300.73
300.712
300.691
300.667
300.637
300.603
300.566
300.532
300.503
300.479
300.46
300.445
300.431
300.42
300.408
300.395
300.956
300.929
300.907
300.888
300.871
300.856
300.842
300.828
300.815
300.801
300.788
300.774
300.759
300.743
300.726
300.706
300.685
300.66
300.631
300.6
300.567
300.536
300.509
300.486
300.467
300.451
300.437
300.424
300.411
300.398
300.964
300.94
300.918
300.9
300.882
300.866
300.851
300.836
300.822
300.807
300.792
300.777
300.761
300.743
300.724
300.703
300.68
300.655
300.627
300.598
300.568
300.539
300.514
300.492
300.474
300.457
300.442
300.428
300.415
300.401
300.977
300.956
300.937
300.918
300.901
300.883
300.867
300.85
300.834
300.818
300.801
300.784
300.766
300.747
300.726
300.702
300.678
300.652
300.625
300.597
300.569
300.543
300.52
300.499
300.481
300.464
300.449
300.434
300.419
300.404
300.999
300.981
300.963
300.944
300.926
300.907
300.889
300.871
300.852
300.834
300.815
300.796
300.776
300.754
300.73
300.705
300.677
300.65
300.624
300.597
300.571
300.547
300.526
300.506
300.488
300.471
300.455
300.439
300.424
300.408
301.028
301.013
300.997
300.979
300.96
300.939
300.919
300.898
300.877
300.856
300.835
300.813
300.79
300.765
300.739
300.71
300.68
300.652
300.624
300.598
300.574
300.552
300.532
300.513
300.496
300.479
300.462
300.446
300.429
300.413
301.066
301.055
301.04
301.023
301.003
300.981
300.957
300.933
300.909
300.885
300.86
300.835
300.809
300.781
300.751
300.719
300.687
300.656
300.628
300.603
300.579
300.558
300.539
300.521
300.503
300.487
300.47
300.453
300.435
300.419
301.113
301.106
301.094
301.077
301.057
301.032
301.006
300.978
300.95
300.921
300.893
300.864
300.833
300.802
300.768
300.732
300.697
300.664
300.635
300.609
300.586
300.565
300.546
300.529
300.512
300.495
300.477
300.46
300.442
300.425
301.168
301.165
301.156
301.141
301.12
301.094
301.064
301.032
300.999
300.966
300.933
300.899
300.864
300.829
300.79
300.75
300.711
300.676
300.645
300.618
300.595
300.574
300.555
300.537
300.52
300.503
300.486
300.468
300.449
300.432
301.232
301.231
301.224
301.211
301.19
301.163
301.131
301.095
301.058
301.02
300.981
300.942
300.902
300.861
300.818
300.773
300.73
300.692
300.659
300.631
300.606
300.585
300.565
300.547
300.53
300.512
300.495
300.476
300.457
300.439
301.3
301.302
301.297
301.285
301.266
301.239
301.205
301.166
301.124
301.081
301.037
300.992
300.947
300.901
300.852
300.802
300.755
300.714
300.678
300.647
300.621
300.598
300.578
300.559
300.54
300.522
300.504
300.485
300.466
300.448
301.375
301.377
301.373
301.363
301.345
301.319
301.284
301.243
301.198
301.149
301.1
301.05
300.999
300.947
300.892
300.838
300.787
300.741
300.702
300.669
300.64
300.615
300.592
300.572
300.552
300.534
300.515
300.496
300.476
300.457
301.453
301.455
301.451
301.442
301.425
301.399
301.365
301.323
301.276
301.224
301.169
301.114
301.057
300.999
300.94
300.88
300.825
300.776
300.733
300.695
300.663
300.635
300.61
300.588
300.567
300.547
300.527
300.507
300.487
300.468
301.533
301.535
301.53
301.52
301.503
301.479
301.446
301.404
301.355
301.301
301.243
301.183
301.121
301.059
300.994
300.93
300.87
300.817
300.769
300.728
300.691
300.66
300.632
300.607
300.584
300.562
300.541
300.52
300.499
300.479
301.614
301.613
301.608
301.597
301.58
301.555
301.523
301.483
301.434
301.379
301.319
301.255
301.189
301.122
301.054
300.986
300.922
300.865
300.813
300.766
300.726
300.69
300.659
300.631
300.605
300.581
300.558
300.535
300.513
300.492
301.691
301.689
301.682
301.669
301.651
301.627
301.596
301.556
301.509
301.454
301.394
301.328
301.259
301.19
301.119
301.048
300.981
300.92
300.863
300.812
300.767
300.727
300.691
300.659
300.63
300.603
300.577
300.552
300.528
300.507
301.761
301.757
301.749
301.735
301.716
301.692
301.661
301.623
301.578
301.525
301.465
301.4
301.331
301.259
301.187
301.115
301.046
300.981
300.921
300.865
300.815
300.77
300.73
300.693
300.659
300.628
300.6
300.572
300.546
300.523
301.82
301.815
301.806
301.791
301.772
301.747
301.717
301.681
301.638
301.588
301.53
301.467
301.4
301.329
301.257
301.185
301.115
301.048
300.985
300.925
300.87
300.82
300.775
300.733
300.694
300.659
300.626
300.596
300.567
300.541
301.864
301.859
301.849
301.835
301.816
301.792
301.763
301.728
301.688
301.641
301.588
301.528
301.464
301.396
301.326
301.256
301.187
301.12
301.054
300.992
300.933
300.878
300.827
300.779
300.735
300.695
300.657
300.623
300.591
300.562
301.89
301.885
301.876
301.863
301.845
301.822
301.795
301.763
301.726
301.683
301.634
301.58
301.521
301.457
301.391
301.324
301.258
301.192
301.126
301.062
301
300.941
300.884
300.831
300.781
300.735
300.693
300.654
300.618
300.586
301.894
301.891
301.883
301.872
301.856
301.836
301.811
301.782
301.748
301.71
301.666
301.617
301.564
301.505
301.444
301.381
301.317
301.254
301.191
301.128
301.066
301.005
300.945
300.887
300.832
300.78
300.733
300.689
300.649
300.614
301.873
301.872
301.868
301.86
301.847
301.83
301.809
301.783
301.753
301.718
301.678
301.633
301.584
301.53
301.473
301.412
301.35
301.29
301.231
301.175
301.117
301.058
300.999
300.94
300.882
300.827
300.775
300.727
300.682
300.644
301.824
301.826
301.825
301.82
301.81
301.796
301.778
301.756
301.729
301.697
301.66
301.618
301.572
301.519
301.462
301.398
301.335
301.276
301.224
301.174
301.127
301.079
301.028
300.975
300.922
300.867
300.813
300.763
300.716
300.675
301.741
301.744
301.745
301.741
301.734
301.724
301.709
301.69
301.665
301.635
301.6
301.559
301.512
301.456
301.396
301.326
301.261
301.203
301.155
301.112
301.075
301.039
301.005
300.967
300.925
300.88
300.833
300.786
300.741
300.7
301.61
301.611
301.609
301.607
301.603
301.596
301.586
301.57
301.548
301.519
301.484
301.442
301.393
301.335
301.272
301.197
301.131
301.074
301.028
300.991
300.961
300.935
300.911
300.89
300.868
300.841
300.809
300.774
300.736
300.7
301.406
301.401
301.397
301.396
301.396
301.397
301.393
301.382
301.364
301.336
301.301
301.26
301.214
301.157
301.093
301.016
300.951
300.896
300.853
300.819
300.793
300.772
300.757
300.744
300.734
300.724
300.713
300.695
300.672
300.647
301.093
301.091
301.093
301.099
301.109
301.117
301.12
301.117
301.105
301.084
301.056
301.021
300.98
300.928
300.867
300.793
300.733
300.682
300.643
300.612
300.589
300.571
300.559
300.55
300.544
300.54
300.535
300.529
300.522
300.51
300.673
300.685
300.702
300.724
300.746
300.766
300.78
300.788
300.788
300.779
300.762
300.739
300.707
300.665
300.612
300.55
300.499
300.456
300.422
300.396
300.376
300.36
300.349
300.341
300.335
300.331
300.326
300.32
300.314
300.306
300.958
300.926
300.904
300.886
300.869
300.854
300.84
300.826
300.813
300.801
300.788
300.775
300.762
300.748
300.733
300.715
300.693
300.663
300.619
300.569
300.522
300.484
300.458
300.44
300.428
300.418
300.41
300.403
300.396
300.386
300.944
300.908
300.885
300.866
300.85
300.836
300.823
300.81
300.798
300.786
300.774
300.762
300.749
300.734
300.719
300.701
300.679
300.65
300.61
300.566
300.525
300.491
300.466
300.448
300.435
300.425
300.415
300.407
300.398
300.387
300.931
300.898
300.875
300.857
300.842
300.828
300.815
300.803
300.791
300.779
300.767
300.754
300.74
300.725
300.709
300.69
300.667
300.638
300.603
300.564
300.527
300.496
300.473
300.456
300.443
300.431
300.421
300.411
300.4
300.388
300.924
300.897
300.876
300.858
300.843
300.829
300.816
300.803
300.79
300.777
300.764
300.75
300.736
300.72
300.702
300.681
300.658
300.629
300.597
300.562
300.529
300.502
300.48
300.464
300.45
300.438
300.426
300.415
300.403
300.39
300.926
300.903