/*--------------------------------*- C++ -*----------------------------------*\
  =========                 |
  \\      /  F ield         | OpenFOAM: The Open Source CFD Toolbox
   \\    /   O peration     | Website:  https://openfoam.org
    \\  /    A nd           | Version:  12
     \\/     M anipulation  |
\*---------------------------------------------------------------------------*/
FoamFile
{
    format      ascii;
    class       volScalarField;
    location    "1750/porous";
    object      T;
}
// * * * * * * * * * * * * * * * * * * * * * * * * * * * * * * * * * * * * * //

dimensions      [0 0 0 1 0 0 0];

internalField   nonuniform List<scalar> 
140000
(
400
400
400
400
400
400
400
400
400
399.993
399.691
399.453
399.24
399.039
398.846
398.659
398.475
398.295
398.117
397.941
397.768
397.596
397.425
397.256
397.089
396.923
396.759
396.596
396.435
396.275
396.117
395.96
395.805
395.652
395.5
395.35
395.201
395.054
394.908
394.764
394.621
394.479
394.338
394.198
394.06
393.923
393.787
393.653
393.521
393.39
393.26
393.133
393.007
392.883
392.762
392.643
392.527
392.415
392.309
392.236
392.677
392.959
393.176
393.356
393.511
393.648
393.77
393.881
393.982
394.07
400
400
400
400
400
400
400
400
400
399.995
399.765
399.577
399.407
399.245
399.089
398.937
398.788
398.64
398.495
398.351
398.208
398.066
397.925
397.785
397.646
397.507
397.369
397.232
397.095
396.96
396.824
396.69
396.556
396.423
396.291
396.159
396.028
395.898
395.768
395.639
395.51
395.382
395.254
395.127
395.001
394.876
394.751
394.627
394.504
394.383
394.262
394.142
394.024
393.907
393.792
393.679
393.568
393.46
393.356
393.271
393.535
393.708
393.844
393.959
394.06
394.151
394.234
394.311
394.383
394.446
400
400
400
400
400
400
400
400
400
399.996
399.784
399.616
399.464
399.323
399.187
399.055
398.927
398.801
398.677
398.555
398.435
398.316
398.197
398.08
397.964
397.848
397.733
397.619
397.506
397.392
397.28
397.168
397.056
396.945
396.834
396.724
396.614
396.505
396.395
396.287
396.178
396.069
395.961
395.853
395.746
395.638
395.532
395.425
395.32
395.215
395.11
395.007
394.904
394.803
394.703
394.604
394.508
394.412
394.322
394.242
394.452
394.584
394.684
394.766
394.837
394.9
394.957
395.009
395.056
395.098
400
400
400
400
400
400
400
400
400
399.996
399.79
399.625
399.48
399.345
399.216
399.092
398.972
398.855
398.74
398.628
398.518
398.409
398.301
398.195
398.09
397.986
397.883
397.781
397.68
397.579
397.479
397.38
397.281
397.183
397.085
396.988
396.892
396.796
396.7
396.605
396.51
396.415
396.32
396.226
396.132
396.039
395.946
395.853
395.761
395.67
395.579
395.489
395.4
395.313
395.226
395.141
395.056
394.975
394.896
394.828
395.024
395.148
395.24
395.316
395.381
395.438
395.488
395.534
395.575
395.613
400
400
400
400
400
400
400
400
400
399.996
399.791
399.628
399.484
399.351
399.224
399.102
398.985
398.871
398.76
398.651
398.544
398.439
398.336
398.234
398.134
398.035
397.936
397.839
397.743
397.648
397.554
397.46
397.368
397.276
397.184
397.094
397.004
396.914
396.825
396.737
396.649
396.561
396.474
396.387
396.301
396.215
396.129
396.045
395.96
395.877
395.794
395.712
395.631
395.552
395.473
395.396
395.321
395.247
395.177
395.116
395.31
395.432
395.525
395.602
395.667
395.724
395.775
395.822
395.864
395.902
400
400
400
400
400
400
400
400
400
399.996
399.79
399.628
399.485
399.351
399.225
399.104
398.987
398.873
398.763
398.655
398.55
398.446
398.344
398.244
398.145
398.048
397.951
397.856
397.762
397.669
397.577
397.486
397.396
397.306
397.218
397.13
397.043
396.956
396.87
396.785
396.7
396.616
396.532
396.449
396.366
396.284
396.202
396.121
396.04
395.961
395.882
395.804
395.728
395.652
395.578
395.506
395.435
395.366
395.3
395.244
395.436
395.559
395.653
395.731
395.797
395.856
395.908
395.956
395.999
396.039
400
400
400
400
400
400
400
400
400
399.996
399.791
399.628
399.484
399.351
399.224
399.103
398.986
398.873
398.763
398.655
398.549
398.446
398.344
398.244
398.146
398.049
397.953
397.859
397.766
397.673
397.582
397.492
397.403
397.314
397.227
397.14
397.054
396.968
396.884
396.8
396.717
396.634
396.551
396.469
396.388
396.307
396.227
396.148
396.069
395.991
395.914
395.838
395.764
395.69
395.618
395.548
395.479
395.413
395.349
395.296
395.487
395.611
395.705
395.784
395.851
395.91
395.964
396.012
396.057
396.097
400
400
400
400
400
400
400
400
400
399.996
399.79
399.628
399.484
399.35
399.223
399.102
398.985
398.871
398.761
398.653
398.547
398.443
398.342
398.242
398.143
398.046
397.951
397.857
397.763
397.671
397.58
397.49
397.401
397.313
397.226
397.139
397.054
396.969
396.885
396.802
396.719
396.636
396.554
396.473
396.392
396.312
396.233
396.154
396.076
395.999
395.923
395.848
395.774
395.702
395.631
395.561
395.494
395.429
395.367
395.314
395.505
395.629
395.724
395.802
395.87
395.93
395.984
396.033
396.078
396.118
400
400
400
400
400
400
400
400
400
399.996
399.79
399.627
399.483
399.35
399.223
399.101
398.984
398.87
398.759
398.651
398.545
398.441
398.339
398.239
398.14
398.043
397.948
397.853
397.76
397.668
397.577
397.487
397.398
397.31
397.223
397.136
397.051
396.966
396.882
396.799
396.716
396.634
396.552
396.471
396.391
396.311
396.231
396.153
396.075
395.998
395.923
395.848
395.774
395.702
395.632
395.563
395.496
395.432
395.37
395.318
395.509
395.633
395.728
395.807
395.875
395.935
395.989
396.038
396.084
396.124
400
400
400
400
400
400
400
400
400
399.996
399.79
399.627
399.483
399.349
399.222
399.1
398.982
398.868
398.757
398.649
398.543
398.439
398.336
398.236
398.137
398.04
397.944
397.85
397.756
397.664
397.573
397.483
397.394
397.306
397.219
397.132
397.047
396.962
396.878
396.795
396.712
396.63
396.548
396.467
396.387
396.307
396.227
396.149
396.071
395.995
395.919
395.844
395.771
395.699
395.629
395.56
395.494
395.429
395.368
395.317
395.508
395.632
395.727
395.806
395.874
395.934
395.988
396.038
396.083
396.124
400
400
400
400
400
400
400
400
400
399.996
399.79
399.627
399.483
399.349
399.222
399.1
398.982
398.867
398.756
398.647
398.541
398.437
398.334
398.234
398.135
398.037
397.941
397.847
397.753
397.661
397.57
397.48
397.39
397.302
397.215
397.129
397.043
396.959
396.875
396.791
396.709
396.626
396.545
396.463
396.383
396.303
396.223
396.145
396.067
395.991
395.915
395.84
395.767
395.695
395.625
395.556
395.49
395.426
395.365
395.313
395.505
395.629
395.724
395.803
395.871
395.931
395.986
396.035
396.08
396.121
400
400
400
400
400
400
400
400
400
399.996
399.79
399.626
399.483
399.349
399.221
399.099
398.981
398.866
398.755
398.646
398.54
398.435
398.333
398.232
398.133
398.035
397.939
397.844
397.751
397.658
397.567
397.477
397.388
397.299
397.212
397.126
397.04
396.955
396.872
396.788
396.705
396.623
396.541
396.46
396.379
396.299
396.219
396.141
396.063
395.986
395.911
395.836
395.763
395.691
395.621
395.552
395.486
395.422
395.361
395.31
395.502
395.626
395.721
395.8
395.868
395.928
395.982
396.032
396.077
396.118
400
400
400
400
400
400
400
400
400
399.996
399.79
399.627
399.482
399.349
399.222
399.099
398.981
398.866
398.754
398.645
398.539
398.434
398.331
398.231
398.131
398.034
397.937
397.843
397.749
397.656
397.565
397.475
397.385
397.297
397.21
397.123
397.038
396.953
396.869
396.786
396.703
396.62
396.538
396.457
396.376
396.296
396.216
396.138
396.06
395.983
395.907
395.833
395.759
395.688
395.617
395.549
395.483
395.419
395.359
395.307
395.499
395.623
395.718
395.797
395.865
395.925
395.98
396.029
396.075
396.116
400
400
400
400
400
400
400
400
400
399.996
399.789
399.626
399.483
399.349
399.221
399.099
398.981
398.866
398.754
398.645
398.538
398.433
398.33
398.229
398.13
398.032
397.936
397.841
397.747
397.655
397.563
397.473
397.384
397.295
397.208
397.121
397.036
396.951
396.867
396.784
396.7
396.618
396.536
396.454
396.373
396.293
396.214
396.135
396.057
395.98
395.904
395.83
395.756
395.685
395.615
395.546
395.48
395.417
395.356
395.305
395.496
395.62
395.716
395.794
395.863
395.923
395.977
396.027
396.072
396.113
400
400
400
400
400
400
400
400
400
399.996
399.79
399.627
399.482
399.349
399.222
399.099
398.981
398.866
398.754
398.645
398.538
398.433
398.33
398.229
398.129
398.032
397.935
397.84
397.746
397.654
397.562
397.472
397.383
397.294
397.207
397.12
397.035
396.95
396.866
396.782
396.699
396.616
396.534
396.452
396.371
396.291
396.211
396.133
396.055
395.978
395.902
395.827
395.754
395.682
395.612
395.544
395.478
395.414
395.354
395.303
395.495
395.619
395.714
395.793
395.861
395.921
395.975
396.025
396.07
396.111
400
400
400
400
400
400
400
400
400
399.996
399.79
399.627
399.483
399.349
399.222
399.1
398.981
398.866
398.754
398.645
398.537
398.432
398.329
398.228
398.129
398.031
397.934
397.839
397.746
397.653
397.562
397.471
397.382
397.293
397.206
397.119
397.034
396.949
396.864
396.781
396.697
396.615
396.532
396.451
396.37
396.289
396.21
396.131
396.053
395.976
395.9
395.825
395.752
395.68
395.61
395.542
395.476
395.413
395.353
395.302
395.493
395.617
395.712
395.791
395.859
395.92
395.974
396.023
396.069
396.11
400
400
400
400
400
400
400
400
400
399.996
399.789
399.627
399.483
399.349
399.222
399.1
398.981
398.866
398.754
398.645
398.537
398.432
398.329
398.228
398.128
398.03
397.934
397.839
397.745
397.653
397.561
397.471
397.381
397.293
397.205
397.119
397.033
396.948
396.863
396.78
396.696
396.613
396.531
396.449
396.368
396.288
396.208
396.129
396.052
395.975
395.899
395.824
395.751
395.679
395.609
395.541
395.475
395.412
395.351
395.301
395.492
395.616
395.711
395.79
395.858
395.919
395.973
396.022
396.068
396.109
400
400
400
400
400
400
400
400
400
399.996
399.79
399.627
399.483
399.349
399.222
399.1
398.982
398.867
398.754
398.645
398.537
398.432
398.329
398.228
398.128
398.03
397.934
397.839
397.745
397.652
397.561
397.47
397.381
397.292
397.205
397.118
397.032
396.947
396.862
396.779
396.695
396.612
396.53
396.448
396.367
396.287
396.207
396.128
396.05
395.973
395.897
395.823
395.749
395.678
395.608
395.54
395.474
395.411
395.351
395.3
395.492
395.616
395.711
395.789
395.858
395.918
395.972
396.022
396.067
396.108
400
400
400
400
400
400
400
400
400
399.996
399.79
399.627
399.483
399.35
399.223
399.1
398.982
398.867
398.755
398.645
398.537
398.432
398.329
398.228
398.128
398.03
397.933
397.838
397.744
397.652
397.56
397.47
397.381
397.292
397.204
397.117
397.031
396.946
396.862
396.778
396.694
396.611
396.529
396.447
396.366
396.286
396.206
396.127
396.049
395.972
395.896
395.822
395.748
395.677
395.607
395.539
395.473
395.41
395.35
395.3
395.491
395.615
395.71
395.789
395.857
395.917
395.972
396.021
396.067
396.108
400
400
400
400
400
400
400
400
400
399.996
399.79
399.627
399.483
399.35
399.223
399.101
398.982
398.867
398.755
398.645
398.537
398.432
398.329
398.227
398.128
398.029
397.933
397.838
397.744
397.651
397.56
397.47
397.38
397.291
397.203
397.117
397.03
396.945
396.861
396.777
396.693
396.61
396.528
396.446
396.365
396.285
396.205
396.126
396.048
395.971
395.895
395.821
395.748
395.676
395.606
395.538
395.473
395.41
395.35
395.299
395.491
395.614
395.71
395.788
395.857
395.917
395.971
396.021
396.066
396.107
400
400
400
400
400
400
400
400
400
399.996
399.79
399.627
399.484
399.35
399.223
399.101
398.983
398.867
398.755
398.645
398.538
398.432
398.329
398.227
398.127
398.029
397.933
397.837
397.744
397.651
397.56
397.469
397.379
397.291
397.203
397.116
397.03
396.944
396.86
396.776
396.692
396.61
396.527
396.445
396.364
396.284
396.204
396.125
396.048
395.971
395.895
395.82
395.747
395.675
395.605
395.538
395.472
395.409
395.35
395.299
395.491
395.614
395.709
395.788
395.856
395.916
395.971
396.02
396.066
396.107
400
400
400
400
400
400
400
400
400
399.996
399.79
399.627
399.484
399.35
399.223
399.101
398.983
398.868
398.755
398.645
398.538
398.432
398.329
398.227
398.127
398.029
397.932
397.837
397.743
397.651
397.559
397.468
397.379
397.29
397.202
397.115
397.029
396.943
396.859
396.775
396.691
396.609
396.526
396.445
396.364
396.283
396.204
396.125
396.047
395.97
395.894
395.819
395.746
395.675
395.605
395.537
395.472
395.409
395.349
395.299
395.49
395.614
395.709
395.788
395.856
395.916
395.97
396.02
396.065
396.106
400
400
400
400
400
400
400
400
400
399.996
399.79
399.627
399.484
399.35
399.223
399.101
398.983
398.868
398.755
398.645
398.538
398.432
398.328
398.227
398.127
398.029
397.932
397.837
397.743
397.65
397.559
397.468
397.378
397.289
397.201
397.114
397.028
396.943
396.858
396.774
396.691
396.608
396.526
396.444
396.363
396.283
396.203
396.124
396.046
395.969
395.893
395.819
395.746
395.674
395.604
395.537
395.471
395.409
395.349
395.299
395.49
395.614
395.709
395.787
395.856
395.916
395.97
396.02
396.065
396.106
400
400
400
400
400
400
400
400
400
399.996
399.79
399.627
399.484
399.35
399.223
399.101
398.983
398.868
398.755
398.645
398.538
398.432
398.328
398.227
398.127
398.028
397.932
397.836
397.742
397.65
397.558
397.467
397.378
397.289
397.201
397.114
397.028
396.942
396.857
396.774
396.69
396.607
396.525
396.444
396.363
396.282
396.203
396.124
396.046
395.969
395.893
395.819
395.745
395.674
395.604
395.537
395.471
395.409
395.349
395.299
395.49
395.614
395.709
395.787
395.856
395.916
395.97
396.02
396.065
396.106
400
400
400
400
400
400
400
400
400
399.996
399.79
399.627
399.484
399.35
399.223
399.101
398.983
398.868
398.755
398.645
398.537
398.432
398.328
398.227
398.127
398.028
397.931
397.836
397.742
397.649
397.558
397.467
397.377
397.289
397.201
397.114
397.027
396.942
396.857
396.773
396.69
396.607
396.525
396.444
396.363
396.282
396.203
396.124
396.046
395.969
395.893
395.819
395.745
395.674
395.604
395.537
395.471
395.409
395.349
395.299
395.49
395.614
395.709
395.787
395.856
395.916
395.97
396.02
396.065
396.106
400
400
400
400
400
400
400
400
400
399.996
399.79
399.627
399.484
399.35
399.223
399.101
398.983
398.868
398.755
398.645
398.537
398.432
398.328
398.226
398.126
398.028
397.931
397.836
397.742
397.649
397.557
397.467
397.377
397.288
397.2
397.113
397.027
396.942
396.857
396.773
396.69
396.607
396.525
396.444
396.363
396.282
396.203
396.124
396.046
395.969
395.893
395.819
395.746
395.674
395.605
395.537
395.472
395.409
395.349
395.3
395.49
395.614
395.709
395.788
395.856
395.916
395.97
396.02
396.065
396.106
400
400
400
400
400
400
400
400
400
399.996
399.79
399.627
399.484
399.35
399.223
399.101
398.983
398.868
398.755
398.645
398.537
398.432
398.328
398.226
398.126
398.028
397.931
397.836
397.742
397.649
397.557
397.467
397.377
397.288
397.2
397.113
397.027
396.942
396.857
396.773
396.69
396.608
396.525
396.444
396.363
396.283
396.203
396.124
396.047
395.97
395.894
395.819
395.746
395.675
395.605
395.537
395.472
395.409
395.35
395.3
395.491
395.614
395.709
395.788
395.856
395.916
395.971
396.02
396.065
396.106
400
400
400
400
400
400
400
400
400
399.996
399.79
399.627
399.484
399.35
399.223
399.101
398.983
398.867
398.755
398.645
398.537
398.432
398.328
398.226
398.126
398.028
397.931
397.836
397.742
397.649
397.557
397.467
397.377
397.288
397.201
397.114
397.027
396.942
396.858
396.774
396.691
396.608
396.526
396.445
396.364
396.283
396.204
396.125
396.047
395.97
395.894
395.82
395.747
395.675
395.605
395.538
395.472
395.41
395.35
395.3
395.491
395.615
395.71
395.788
395.856
395.917
395.971
396.02
396.066
396.107
400
400
400
400
400
400
400
400
400
399.996
399.79
399.627
399.483
399.35
399.223
399.101
398.983
398.867
398.755
398.645
398.537
398.432
398.328
398.227
398.126
398.028
397.931
397.836
397.742
397.649
397.558
397.467
397.378
397.289
397.201
397.114
397.028
396.943
396.858
396.774
396.691
396.609
396.527
396.445
396.365
396.284
396.205
396.126
396.048
395.971
395.895
395.821
395.747
395.676
395.606
395.538
395.473
395.41
395.35
395.3
395.491
395.615
395.71
395.789
395.857
395.917
395.971
396.021
396.066
396.107
400
400
400
400
400
400
400
400
400
399.996
399.79
399.627
399.483
399.35
399.223
399.101
398.983
398.868
398.755
398.645
398.538
398.432
398.328
398.227
398.127
398.028
397.932
397.836
397.742
397.65
397.558
397.468
397.378
397.29
397.202
397.115
397.029
396.944
396.859
396.775
396.692
396.61
396.528
396.446
396.366
396.285
396.206
396.127
396.049
395.972
395.896
395.822
395.748
395.677
395.607
395.539
395.473
395.411
395.351
395.301
395.492
395.616
395.711
395.789
395.857
395.918
395.972
396.021
396.067
396.108
400
400
400
400
400
400
400
400
400
399.996
399.789
399.627
399.483
399.35
399.223
399.101
398.983
398.868
398.755
398.645
398.538
398.432
398.329
398.227
398.127
398.029
397.932
397.837
397.743
397.65
397.559
397.469
397.379
397.291
397.203
397.116
397.03
396.945
396.86
396.777
396.693
396.611
396.529
396.448
396.367
396.287
396.207
396.128
396.05
395.973
395.897
395.823
395.749
395.677
395.608
395.54
395.474
395.411
395.351
395.301
395.492
395.616
395.711
395.79
395.858
395.918
395.972
396.022
396.067
396.108
400
400
400
400
400
400
400
400
400
399.996
399.789
399.627
399.483
399.35
399.223
399.101
398.983
398.868
398.755
398.646
398.538
398.433
398.329
398.228
398.128
398.029
397.933
397.837
397.743
397.651
397.56
397.469
397.38
397.292
397.204
397.117
397.031
396.946
396.862
396.778
396.695
396.612
396.53
396.449
396.368
396.288
396.208
396.13
396.052
395.975
395.899
395.824
395.75
395.678
395.608
395.54
395.475
395.412
395.352
395.302
395.493
395.616
395.711
395.79
395.858
395.919
395.973
396.022
396.068
396.109
400
400
400
400
400
400
400
400
400
399.996
399.79
399.627
399.483
399.35
399.223
399.101
398.983
398.868
398.756
398.646
398.539
398.433
398.33
398.228
398.128
398.03
397.934
397.838
397.744
397.652
397.561
397.471
397.381
397.293
397.205
397.119
397.033
396.947
396.863
396.779
396.696
396.613
396.531
396.45
396.369
396.289
396.21
396.131
396.053
395.976
395.9
395.825
395.751
395.679
395.609
395.541
395.475
395.412
395.352
395.302
395.493
395.617
395.712
395.791
395.859
395.919
395.973
396.023
396.068
396.109
400
400
400
400
400
400
400
400
400
399.996
399.789
399.627
399.483
399.35
399.223
399.101
398.983
398.868
398.756
398.647
398.539
398.434
398.331
398.229
398.129
398.031
397.935
397.839
397.746
397.653
397.562
397.472
397.383
397.295
397.207
397.12
397.034
396.949
396.864
396.781
396.697
396.615
396.533
396.451
396.371
396.291
396.211
396.132
396.054
395.977
395.901
395.826
395.753
395.68
395.61
395.542
395.476
395.412
395.352
395.302
395.493
395.617
395.712
395.791
395.859
395.92
395.974
396.023
396.069
396.11
400
400
400
400
400
400
400
400
400
399.996
399.789
399.627
399.483
399.35
399.223
399.102
398.984
398.869
398.757
398.647
398.54
398.435
398.332
398.23
398.131
398.033
397.936
397.841
397.747
397.655
397.564
397.474
397.385
397.297
397.209
397.122
397.036
396.951
396.866
396.782
396.699
396.616
396.534
396.453
396.372
396.292
396.213
396.134
396.056
395.979
395.903
395.828
395.754
395.682
395.611
395.543
395.476
395.413
395.353
395.302
395.494
395.618
395.713
395.792
395.86
395.92
395.975
396.024
396.07
396.111
400
400
400
400
400
400
400
400
400
399.996
399.79
399.627
399.483
399.35
399.224
399.102
398.984
398.87
398.758
398.648
398.541
398.436
398.333
398.232
398.132
398.034
397.938
397.843
397.749
397.657
397.566
397.476
397.387
397.299
397.211
397.124
397.038
396.953
396.868
396.784
396.701
396.618
396.536
396.455
396.374
396.294
396.215
396.136
396.058
395.981
395.905
395.83
395.756
395.683
395.613
395.544
395.478
395.414
395.354
395.303
395.495
395.619
395.714
395.793
395.861
395.922
395.976
396.025
396.071
396.112
400
400
400
400
400
400
400
400
400
399.996
399.789
399.627
399.484
399.35
399.224
399.103
398.985
398.87
398.759
398.649
398.542
398.438
398.335
398.233
398.134
398.036
397.94
397.845
397.751
397.659
397.568
397.478
397.389
397.301
397.214
397.127
397.041
396.955
396.871
396.787
396.703
396.621
396.539
396.457
396.377
396.297
396.217
396.139
396.061
395.984
395.908
395.832
395.758
395.686
395.615
395.546
395.479
395.416
395.355
395.304
395.496
395.62
395.715
395.794
395.863
395.923
395.977
396.027
396.072
396.114
400
400
400
400
400
400
400
400
400
399.996
399.79
399.627
399.484
399.351
399.225
399.103
398.986
398.872
398.76
398.651
398.544
398.439
398.337
398.235
398.136
398.038
397.942
397.847
397.754
397.662
397.571
397.481
397.392
397.304
397.216
397.13
397.044
396.958
396.874
396.79
396.706
396.624
396.542
396.46
396.38
396.3
396.22
396.142
396.064
395.987
395.911
395.835
395.761
395.688
395.617
395.548
395.481
395.417
395.357
395.306
395.498
395.622
395.717
395.796
395.865
395.925
395.979
396.029
396.075
396.116
400
400
400
400
400
400
400
400
400
399.996
399.79
399.627
399.484
399.351
399.225
399.104
398.987
398.873
398.761
398.652
398.546
398.441
398.339
398.238
398.138
398.041
397.945
397.85
397.757
397.665
397.574
397.484
397.395
397.307
397.219
397.133
397.047
396.961
396.877
396.793
396.71
396.627
396.545
396.464
396.383
396.303
396.224
396.145
396.067
395.99
395.914
395.839
395.765
395.692
395.62
395.551
395.484
395.42
395.359
395.308
395.5
395.624
395.72
395.799
395.867
395.928
395.982
396.031
396.077
396.118
400
400
400
400
400
400
400
400
400
399.996
399.79
399.628
399.485
399.352
399.226
399.105
398.988
398.874
398.763
398.654
398.548
398.444
398.341
398.24
398.141
398.044
397.948
397.853
397.76
397.668
397.577
397.488
397.399
397.31
397.223
397.136
397.05
396.965
396.881
396.797
396.714
396.631
396.549
396.468
396.387
396.307
396.228
396.15
396.072
395.995
395.918
395.843
395.769
395.696
395.624
395.554
395.487
395.423
395.362
395.311
395.503
395.627
395.723
395.802
395.87
395.93
395.985
396.034
396.08
396.121
400
400
400
400
400
400
400
400
400
399.996
399.79
399.628
399.485
399.353
399.227
399.106
398.99
398.876
398.765
398.657
398.55
398.446
398.344
398.243
398.144
398.047
397.951
397.857
397.764
397.672
397.581
397.491
397.402
397.314
397.227
397.14
397.054
396.969
396.885
396.801
396.718
396.635
396.553
396.472
396.392
396.312
396.233
396.154
396.076
395.999
395.923
395.847
395.773
395.7
395.628
395.558
395.491
395.426
395.365
395.313
395.506
395.63
395.725
395.804
395.873
395.933
395.987
396.037
396.082
396.123
400
400
400
400
400
400
400
400
400
399.996
399.79
399.628
399.486
399.353
399.228
399.108
398.991
398.878
398.767
398.659
398.553
398.449
398.347
398.247
398.148
398.051
397.955
397.861
397.768
397.676
397.585
397.495
397.406
397.318
397.231
397.144
397.058
396.973
396.889
396.805
396.722
396.639
396.558
396.476
396.396
396.316
396.237
396.158
396.08
396.003
395.927
395.851
395.776
395.703
395.631
395.56
395.492
395.428
395.366
395.314
395.506
395.631
395.726
395.805
395.873
395.933
395.988
396.037
396.082
396.123
400
400
400
400
400
400
400
400
400
399.996
399.791
399.629
399.486
399.354
399.229
399.109
398.993
398.88
398.769
398.661
398.555
398.452
398.35
398.249
398.151
398.054
397.958
397.864
397.771
397.679
397.588
397.499
397.41
397.321
397.234
397.147
397.061
396.976
396.892
396.808
396.724
396.642
396.56
396.478
396.398
396.318
396.238
396.159
396.081
396.004
395.927
395.851
395.776
395.702
395.629
395.558
395.49
395.424
395.362
395.31
395.502
395.626
395.721
395.8
395.868
395.928
395.982
396.031
396.076
396.117
400
400
400
400
400
400
400
400
400
399.996
399.791
399.629
399.487
399.355
399.23
399.111
398.995
398.882
398.771
398.663
398.558
398.454
398.352
398.252
398.153
398.056
397.96
397.866
397.773
397.681
397.59
397.5
397.41
397.322
397.234
397.147
397.061
396.975
396.89
396.806
396.722
396.639
396.557
396.475
396.393
396.313
396.233
396.153
396.074
395.996
395.918
395.842
395.766
395.691
395.617
395.545
395.475
395.408
395.345
395.291
395.484
395.608
395.703
395.781
395.849
395.908
395.962
396.01
396.055
396.095
400
400
400
400
400
400
400
400
400
399.996
399.791
399.63
399.487
399.356
399.231
399.111
398.995
398.882
398.772
398.664
398.558
398.454
398.351
398.251
398.152
398.054
397.958
397.863
397.769
397.676
397.584
397.493
397.403
397.313
397.225
397.137
397.049
396.962
396.876
396.791
396.706
396.621
396.537
396.454
396.371
396.289
396.207
396.126
396.046
395.966
395.886
395.808
395.73
395.653
395.577
395.503
395.43
395.361
395.295
395.239
395.432
395.556
395.65
395.728
395.795
395.854
395.906
395.954
395.998
396.037
400
400
400
400
400
400
400
400
400
399.996
399.791
399.63
399.487
399.355
399.23
399.109
398.993
398.879
398.768
398.659
398.551
398.446
398.343
398.24
398.14
398.04
397.942
397.845
397.749
397.654
397.56
397.466
397.374
397.282
397.19
397.099
397.009
396.919
396.83
396.741
396.653
396.566
396.478
396.392
396.306
396.22
396.134
396.05
395.965
395.882
395.798
395.716
395.634
395.552
395.472
395.393
395.317
395.243
395.172
395.112
395.306
395.429
395.523
395.599
395.665
395.722
395.774
395.82
395.862
395.9
400
400
400
400
400
400
400
400
400
399.996
399.79
399.627
399.483
399.349
399.221
399.098
398.979
398.862
398.747
398.635
398.524
398.415
398.307
398.2
398.095
397.99
397.887
397.785
397.684
397.583
397.483
397.384
397.286
397.187
397.09
396.993
396.896
396.8
396.704
396.608
396.513
396.418
396.324
396.23
396.137
396.043
395.951
395.858
395.766
395.675
395.583
395.493
395.403
395.314
395.225
395.138
395.053
394.971
394.891
394.824
395.021
395.145
395.238
395.314
395.379
395.436
395.487
395.532
395.574
395.611
400
400
400
400
400
400
400
400
400
399.996
399.785
399.617
399.466
399.326
399.191
399.061
398.933
398.807
398.683
398.561
398.44
398.32
398.201
398.084
397.967
397.851
397.736
397.621
397.508
397.395
397.282
397.171
397.059
396.948
396.837
396.727
396.617
396.507
396.398
396.289
396.18
396.072
395.964
395.857
395.749
395.643
395.536
395.43
395.325
395.219
395.115
395.011
394.907
394.805
394.703
394.603
394.505
394.409
394.318
394.239
394.45
394.582
394.682
394.765
394.836
394.899
394.956
395.008
395.055
395.098
400
400
400
400
400
400
400
400
400
399.995
399.765
399.578
399.409
399.248
399.094
398.942
398.793
398.645
398.499
398.355
398.211
398.069
397.927
397.786
397.646
397.507
397.369
397.232
397.095
396.96
396.825
396.69
396.557
396.424
396.292
396.16
396.029
395.898
395.769
395.64
395.511
395.384
395.257
395.13
395.005
394.88
394.756
394.633
394.51
394.388
394.267
394.147
394.028
393.911
393.794
393.679
393.567
393.458
393.354
393.269
393.534
393.707
393.843
393.958
394.059
394.151
394.234
394.311
394.382
394.446
400
400
400
400
400
400
400
400
400
399.993
399.691
399.454
399.242
399.042
398.85
398.663
398.479
398.299
398.12
397.944
397.769
397.596
397.425
397.255
397.087
396.92
396.756
396.593
396.432
396.272
396.114
395.958
395.803
395.65
395.499
395.349
395.201
395.054
394.908
394.764
394.621
394.48
394.34
394.202
394.065
393.929
393.794
393.661
393.529
393.399
393.269
393.141
393.014
392.888
392.765
392.644
392.527
392.414
392.308
392.235
392.677
392.959
393.176
393.356
393.511
393.648
393.77
393.881
393.982
394.071
400
400
400
400
400
400
400
400
400
399.995
399.767
399.551
399.347
399.151
398.96
398.774
398.591
398.412
398.234
398.058
397.884
397.712
397.541
397.371
397.204
397.037
396.872
396.708
396.546
396.386
396.227
396.07
395.914
395.76
395.607
395.457
395.307
395.16
395.013
394.868
394.725
394.582
394.441
394.301
394.162
394.025
393.889
393.754
393.621
393.49
393.36
393.232
393.105
392.98
392.859
392.739
392.622
392.51
392.402
392.322
392.686
392.955
393.169
393.348
393.503
393.639
393.762
393.873
393.974
394.064
400
400
400
400
400
400
400
400
400
399.997
399.835
399.672
399.514
399.36
399.209
399.061
398.915
398.77
398.626
398.484
398.342
398.201
398.061
397.922
397.784
397.646
397.508
397.372
397.236
397.1
396.965
396.831
396.698
396.565
396.433
396.301
396.17
396.04
395.91
395.781
395.652
395.524
395.396
395.269
395.143
395.017
394.892
394.768
394.645
394.523
394.402
394.282
394.163
394.046
393.93
393.816
393.704
393.595
393.489
393.398
393.584
393.735
393.862
393.971
394.069
394.158
394.239
394.314
394.384
394.447
400
400
400
400
400
400
400
400
400
399.998
399.851
399.707
399.568
399.434
399.303
399.175
399.05
398.927
398.805
398.685
398.566
398.448
398.331
398.215
398.1
397.985
397.871
397.758
397.645
397.533
397.421
397.31
397.199
397.088
396.978
396.868
396.759
396.65
396.541
396.433
396.324
396.216
396.108
396.001
395.894
395.787
395.68
395.574
395.469
395.364
395.259
395.156
395.053
394.951
394.851
394.752
394.655
394.558
394.466
394.382
394.519
394.629
394.72
394.797
394.864
394.924
394.978
395.028
395.074
395.115
400
400
400
400
400
400
400
400
400
399.998
399.856
399.716
399.582
399.454
399.33
399.21
399.093
398.978
398.866
398.755
398.646
398.538
398.432
398.327
398.223
398.12
398.018
397.916
397.815
397.715
397.616
397.517
397.419
397.322
397.225
397.128
397.032
396.936
396.841
396.746
396.652
396.557
396.463
396.37
396.276
396.183
396.09
395.998
395.906
395.815
395.724
395.635
395.546
395.457
395.37
395.285
395.2
395.118
395.037
394.965
395.09
395.193
395.277
395.348
395.41
395.464
395.512
395.556
395.596
395.632
400
400
400
400
400
400
400
400
400
399.998
399.856
399.718
399.586
399.46
399.338
399.22
399.105
398.993
398.884
398.777
398.672
398.568
398.466
398.365
398.265
398.167
398.069
397.973
397.878
397.783
397.689
397.596
397.504
397.412
397.321
397.231
397.141
397.052
396.964
396.875
396.788
396.7
396.614
396.527
396.441
396.355
396.27
396.185
396.101
396.018
395.935
395.853
395.772
395.692
395.614
395.536
395.46
395.386
395.314
395.25
395.372
395.474
395.559
395.63
395.692
395.747
395.796
395.841
395.882
395.919
400
400
400
400
400
400
400
400
400
399.998
399.856
399.718
399.586
399.46
399.338
399.221
399.107
398.996
398.887
398.781
398.677
398.574
398.473
398.374
398.276
398.179
398.084
397.989
397.896
397.803
397.712
397.621
397.531
397.442
397.354
397.266
397.179
397.093
397.007
396.922
396.838
396.754
396.67
396.587
396.504
396.422
396.341
396.26
396.179
396.1
396.021
395.943
395.866
395.79
395.716
395.643
395.571
395.501
395.434
395.374
395.496
395.599
395.684
395.756
395.82
395.876
395.927
395.973
396.015
396.054
400
400
400
400
400
400
400
400
400
399.998
399.856
399.718
399.586
399.459
399.338
399.22
399.106
398.995
398.887
398.781
398.677
398.574
398.474
398.375
398.277
398.181
398.086
397.992
397.899
397.807
397.716
397.626
397.537
397.449
397.362
397.275
397.19
397.105
397.02
396.937
396.853
396.771
396.688
396.607
396.526
396.445
396.365
396.286
396.207
396.129
396.052
395.976
395.901
395.827
395.755