/*--------------------------------*- C++ -*----------------------------------*\
  =========                 |
  \\      /  F ield         | OpenFOAM: The Open Source CFD Toolbox
   \\    /   O peration     | Website:  https://openfoam.org
    \\  /    A nd           | Version:  12
     \\/     M anipulation  |
\*---------------------------------------------------------------------------*/
FoamFile
{
    format      ascii;
    class       volScalarField;
    location    "950/porous";
    object      rho;
}
// * * * * * * * * * * * * * * * * * * * * * * * * * * * * * * * * * * * * * //

dimensions      [1 -3 0 0 0 0 0];

internalField   nonuniform List<scalar> 
140000
(
933.891
933.891
933.891
933.891
933.891
933.891
933.891
933.891
933.892
933.898
934.187
934.411
934.61
934.797
934.975
935.148
935.318
935.484
935.647
935.809
935.968
936.126
936.282
936.437
936.59
936.742
936.892
937.041
937.187
937.333
937.476
937.618
937.758
937.897
938.033
938.167
938.3
938.431
938.561
938.691
938.819
938.947
939.074
939.2
939.325
939.449
939.571
939.691
939.81
939.928
940.044
940.158
940.27
940.381
940.489
940.595
940.698
940.798
940.895
940.964
940.568
940.315
940.119
939.957
939.818
939.695
939.584
939.484
939.393
939.313
933.891
933.891
933.891
933.891
933.891
933.891
933.891
933.891
933.891
933.896
934.117
934.295
934.454
934.604
934.749
934.89
935.028
935.163
935.298
935.43
935.562
935.692
935.822
935.951
936.078
936.206
936.332
936.457
936.582
936.706
936.829
936.951
937.073
937.193
937.313
937.431
937.549
937.666
937.782
937.899
938.015
938.131
938.246
938.362
938.476
938.59
938.703
938.815
938.926
939.035
939.144
939.252
939.358
939.463
939.566
939.667
939.767
939.864
939.958
940.035
939.797
939.642
939.519
939.415
939.324
939.241
939.166
939.096
939.031
938.974
933.891
933.891
933.891
933.891
933.891
933.891
933.891
933.891
933.891
933.895
934.098
934.258
934.4
934.532
934.658
934.78
934.899
935.015
935.129
935.241
935.352
935.462
935.57
935.678
935.785
935.891
935.996
936.101
936.205
936.308
936.411
936.513
936.614
936.715
936.815
936.914
937.013
937.112
937.21
937.308
937.406
937.505
937.604
937.702
937.8
937.898
937.995
938.091
938.187
938.283
938.377
938.471
938.563
938.655
938.745
938.834
938.921
939.007
939.089
939.161
938.971
938.851
938.761
938.686
938.621
938.564
938.513
938.465
938.422
938.383
933.891
933.891
933.891
933.891
933.891
933.891
933.891
933.891
933.891
933.895
934.093
934.249
934.386
934.512
934.632
934.746
934.857
934.965
935.07
935.174
935.276
935.376
935.474
935.572
935.668
935.764
935.858
935.952
936.044
936.136
936.227
936.318
936.407
936.496
936.584
936.671
936.758
936.844
936.93
937.016
937.102
937.188
937.275
937.361
937.447
937.532
937.617
937.701
937.785
937.868
937.95
938.032
938.112
938.192
938.271
938.347
938.423
938.497
938.569
938.63
938.452
938.34
938.255
938.186
938.127
938.075
938.029
937.988
937.95
937.916
933.891
933.891
933.891
933.891
933.891
933.891
933.891
933.891
933.891
933.895
934.093
934.247
934.383
934.507
934.625
934.737
934.846
934.951
935.053
935.153
935.251
935.348
935.443
935.536
935.628
935.719
935.809
935.898
935.985
936.072
936.158
936.243
936.327
936.41
936.492
936.573
936.654
936.734
936.813
936.893
936.973
937.053
937.133
937.212
937.291
937.37
937.448
937.525
937.602
937.678
937.753
937.827
937.901
937.973
938.044
938.114
938.182
938.248
938.312
938.367
938.191
938.08
937.995
937.925
937.866
937.813
937.767
937.724
937.686
937.651
933.891
933.891
933.891
933.891
933.891
933.891
933.891
933.891
933.891
933.895
934.093
934.248
934.383
934.507
934.625
934.737
934.844
934.949
935.051
935.15
935.247
935.342
935.435
935.527
935.618
935.707
935.795
935.882
935.968
936.052
936.136
936.219
936.3
936.381
936.46
936.539
936.616
936.693
936.77
936.847
936.924
937.001
937.078
937.154
937.23
937.305
937.38
937.454
937.527
937.6
937.671
937.742
937.811
937.88
937.947
938.012
938.077
938.139
938.198
938.249
938.075
937.962
937.877
937.806
937.745
937.692
937.644
937.6
937.56
937.524
933.891
933.891
933.891
933.891
933.891
933.891
933.891
933.891
933.891
933.895
934.093
934.248
934.384
934.508
934.626
934.738
934.846
934.95
935.051
935.151
935.247
935.342
935.435
935.527
935.617
935.706
935.793
935.879
935.965
936.048
936.131
936.213
936.293
936.373
936.451
936.528
936.605
936.681
936.756
936.832
936.908
936.983
937.059
937.134
937.208
937.282
937.355
937.428
937.499
937.57
937.64
937.709
937.777
937.843
937.908
937.972
938.034
938.094
938.152
938.2
938.026
937.913
937.827
937.756
937.694
937.64
937.591
937.547
937.506
937.469
933.891
933.891
933.891
933.891
933.891
933.891
933.891
933.891
933.891
933.895
934.094
934.249
934.385
934.509
934.627
934.739
934.848
934.952
935.054
935.153
935.25
935.345
935.438
935.53
935.62
935.708
935.796
935.882
935.967
936.05
936.133
936.214
936.294
936.373
936.451
936.527
936.603
936.678
936.753
936.829
936.904
936.979
937.054
937.129
937.203
937.276
937.348
937.42
937.491
937.561
937.63
937.699
937.766
937.831
937.895
937.958
938.019
938.078
938.134
938.181
938.007
937.895
937.808
937.737
937.675
937.62
937.571
937.526
937.485
937.447
933.891
933.891
933.891
933.891
933.891
933.891
933.891
933.891
933.891
933.895
934.094
934.249
934.385
934.51
934.628
934.741
934.849
934.954
935.056
935.155
935.252
935.348
935.441
935.533
935.623
935.711
935.799
935.885
935.97
936.053
936.136
936.217
936.297
936.375
936.453
936.529
936.604
936.679
936.754
936.829
936.905
936.98
937.055
937.129
937.203
937.276
937.348
937.42
937.49
937.56
937.629
937.697
937.764
937.829
937.893
937.955
938.015
938.073
938.129
938.176
938.002
937.889
937.802
937.731
937.668
937.613
937.564
937.519
937.477
937.44
933.891
933.891
933.891
933.891
933.891
933.891
933.891
933.891
933.891
933.895
934.094
934.25
934.386
934.511
934.629
934.742
934.851
934.956
935.058
935.157
935.255
935.35
935.444
935.535
935.626
935.714
935.802
935.888
935.973
936.056
936.139
936.22
936.299
936.378
936.455
936.531
936.606
936.681
936.756
936.831
936.907
936.982
937.057
937.131
937.205
937.278
937.35
937.421
937.492
937.562
937.631
937.698
937.765
937.83
937.894
937.955
938.015
938.073
938.129
938.175
938.001
937.888
937.801
937.73
937.667
937.612
937.563
937.517
937.476
937.438
933.891
933.891
933.891
933.891
933.891
933.891
933.891
933.891
933.891
933.895
934.094
934.25
934.386
934.511
934.63
934.743
934.852
934.957
935.059
935.159
935.257
935.352
935.446
935.537
935.628
935.717
935.804
935.89
935.975
936.059
936.141
936.222
936.302
936.38
936.457
936.533
936.608
936.683
936.758
936.833
936.909
936.984
937.059
937.133
937.207
937.28
937.352
937.423
937.494
937.564
937.633
937.7
937.767
937.832
937.896
937.957
938.017
938.075
938.13
938.176
938.002
937.889
937.803
937.731
937.668
937.613
937.563
937.518
937.477
937.439
933.891
933.891
933.891
933.891
933.891
933.891
933.891
933.891
933.891
933.895
934.094
934.25
934.386
934.512
934.63
934.743
934.852
934.958
935.06
935.16
935.258
935.353
935.447
935.539
935.629
935.718
935.806
935.892
935.977
936.061
936.143
936.224
936.303
936.381
936.458
936.534
936.609
936.684
936.759
936.834
936.91
936.985
937.06
937.135
937.208
937.281
937.354
937.425
937.496
937.566
937.634
937.702
937.769
937.834
937.897
937.959
938.019
938.076
938.131
938.177
938.003
937.891
937.804
937.732
937.67
937.614
937.565
937.519
937.478
937.44
933.891
933.891
933.891
933.891
933.891
933.891
933.891
933.891
933.891
933.895
934.094
934.25
934.386
934.512
934.63
934.743
934.852
934.958
935.061
935.161
935.259
935.354
935.448
935.54
935.63
935.719
935.807
935.893
935.978
936.062
936.144
936.224
936.304
936.381
936.458
936.534
936.609
936.684
936.759
936.835
936.91
936.986
937.061
937.135
937.209
937.282
937.354
937.426
937.497
937.567
937.635
937.703
937.77
937.835
937.899
937.96
938.02
938.078
938.132
938.178
938.004
937.891
937.805
937.733
937.671
937.615
937.566
937.52
937.479
937.441
933.891
933.891
933.891
933.891
933.891
933.891
933.891
933.891
933.891
933.895
934.094
934.25
934.386
934.511
934.63
934.743
934.852
934.958
935.061
935.161
935.259
935.355
935.448
935.541
935.631
935.72
935.808
935.894
935.979
936.062
936.144
936.224
936.303
936.381
936.457
936.533
936.608
936.683
936.759
936.834
936.91
936.986
937.061
937.135
937.209
937.282
937.354
937.426
937.497
937.567
937.636
937.704
937.77
937.836
937.899
937.961
938.021
938.078
938.133
938.179
938.005
937.892
937.805
937.733
937.671
937.616
937.566
937.521
937.48
937.442
933.891
933.891
933.891
933.891
933.891
933.891
933.891
933.891
933.891
933.895
934.094
934.249
934.385
934.511
934.629
934.743
934.852
934.958
935.061
935.161
935.259
935.354
935.448
935.54
935.631
935.72
935.807
935.893
935.978
936.062
936.143
936.223
936.302
936.379
936.456
936.531
936.607
936.682
936.757
936.833
936.909
936.984
937.06
937.134
937.208
937.281
937.354
937.425
937.496
937.566
937.635
937.703
937.77
937.836
937.899
937.961
938.021
938.078
938.133
938.179
938.005
937.892
937.806
937.734
937.671
937.616
937.567
937.522
937.48
937.442
933.891
933.891
933.891
933.891
933.891
933.891
933.891
933.891
933.891
933.895
934.093
934.248
934.384
934.51
934.629
934.742
934.851
934.957
935.06
935.16
935.258
935.354
935.448
935.54
935.63
935.719
935.807
935.893
935.977
936.06
936.142
936.222
936.3
936.377
936.454
936.529
936.605
936.68
936.756
936.831
936.907
936.983
937.058
937.132
937.206
937.28
937.352
937.424
937.495
937.565
937.634
937.703
937.769
937.835
937.899
937.961
938.021
938.078
938.133
938.178
938.005
937.892
937.805
937.734
937.671
937.616
937.567
937.522
937.48
937.443
933.891
933.891
933.891
933.891
933.891
933.891
933.891
933.891
933.891
933.895
934.093
934.248
934.384
934.509
934.628
934.741
934.85
934.956
935.059
935.16
935.258
935.353
935.447
935.539
935.629
935.718
935.805
935.891
935.976
936.059
936.14
936.219
936.297
936.374
936.451
936.527
936.603
936.678
936.753
936.829
936.905
936.981
937.056
937.13
937.204
937.278
937.35
937.422
937.493
937.564
937.633
937.701
937.768
937.834
937.898
937.96
938.02
938.077
938.132
938.178
938.004
937.891
937.805
937.733
937.671
937.616
937.567
937.522
937.48
937.443
933.891
933.891
933.891
933.891
933.891
933.891
933.891
933.891
933.891
933.895
934.092
934.247
934.383
934.508
934.627
934.74
934.849
934.955
935.058
935.159
935.257
935.352
935.446
935.538
935.628
935.717
935.804
935.89
935.974
936.056
936.137
936.216
936.294
936.371
936.449
936.525
936.601
936.676
936.751
936.827
936.902
936.978
937.053
937.128
937.202
937.275
937.348
937.42
937.491
937.562
937.631
937.699
937.767
937.832
937.896
937.959
938.019
938.076
938.131
938.177
938.003
937.891
937.804
937.733
937.671
937.616
937.566
937.521
937.48
937.443
933.891
933.891
933.891
933.891
933.891
933.891
933.891
933.891
933.891
933.895
934.092
934.246
934.382
934.507
934.625
934.739
934.848
934.954
935.057
935.158
935.256
935.351
935.445
935.537
935.627
935.715
935.802
935.888
935.972
936.054
936.134
936.213
936.291
936.369
936.446
936.523
936.599
936.674
936.749
936.825
936.9
936.976
937.051
937.125
937.199
937.273
937.346
937.418
937.489
937.56
937.629
937.698
937.765
937.831
937.895
937.957
938.017
938.075
938.13
938.176
938.002
937.89
937.803
937.732
937.67
937.615
937.566
937.521
937.48
937.442
933.891
933.891
933.891
933.891
933.891
933.891
933.891
933.891
933.891
933.895
934.092
934.246
934.381
934.506
934.624
934.738
934.847
934.953
935.056
935.157
935.255
935.35
935.444
935.536
935.626
935.714
935.801
935.886
935.97
936.051
936.131
936.21
936.289
936.367
936.445
936.523
936.599
936.674
936.748
936.823
936.898
936.974
937.049
937.123
937.197
937.271
937.344
937.416
937.487
937.558
937.627
937.696
937.763
937.829
937.893
937.956
938.016
938.074
938.129
938.175
938.001
937.889
937.802
937.731
937.669
937.614
937.565
937.52
937.479
937.442
933.891
933.891
933.891
933.891
933.891
933.891
933.891
933.891
933.891
933.895
934.091
934.244
934.379
934.504
934.623
934.736
934.846
934.952
935.055
935.155
935.254
935.349
935.443
935.535
935.625
935.713
935.799
935.884
935.968
936.049
936.129
936.208
936.287
936.366
936.445
936.522
936.599
936.674
936.748
936.823
936.897
936.972
937.047
937.121
937.195
937.269
937.342
937.414
937.485
937.556
937.625
937.694
937.761
937.827
937.892
937.954
938.015
938.073
938.127
938.173
938
937.887
937.801
937.73
937.668
937.613
937.564
937.519
937.478
937.441
933.891
933.891
933.891
933.891
933.891
933.891
933.891
933.891
933.891
933.895
934.091
934.244
934.379
934.504
934.622
934.735
934.845
934.951
935.054
935.155
935.253
935.349
935.442
935.534
935.624
935.712
935.799
935.883
935.966
936.048
936.128
936.207
936.287
936.366
936.445
936.522
936.599
936.675
936.749
936.823
936.897
936.972
937.046
937.12
937.194
937.267
937.34
937.412
937.483
937.554
937.624
937.692
937.76
937.826
937.89
937.953
938.013
938.071
938.126
938.172
937.999
937.886
937.8
937.729
937.667
937.612
937.563
937.518
937.477
937.44
933.891
933.891
933.891
933.891
933.891
933.891
933.891
933.891
933.891
933.895
934.089
934.243
934.377
934.502
934.621
934.734
934.844
934.95
935.053
935.154
935.252
935.348
935.442
935.534
935.624
935.712
935.798
935.883
935.965
936.047
936.127
936.207
936.287
936.367
936.445
936.523
936.6
936.675
936.75
936.824
936.897
936.971
937.045
937.119
937.193
937.266
937.339
937.411
937.482
937.553
937.622
937.691
937.758
937.825
937.889
937.952
938.012
938.07
938.126
938.172
937.998
937.886
937.8
937.728
937.666
937.612
937.563
937.518
937.477
937.439
933.891
933.891
933.891
933.891
933.891
933.891
933.891
933.891
933.891
933.895
934.089
934.242
934.376
934.501
934.619
934.733
934.842
934.949
935.052
935.153
935.251
935.347
935.441
935.533
935.623
935.712
935.798
935.882
935.965
936.047
936.127
936.208
936.288
936.367
936.446
936.524
936.601
936.676
936.751
936.824
936.898
936.971
937.045
937.119
937.192
937.265
937.338
937.41
937.481
937.552
937.621
937.69
937.757
937.823
937.888
937.951
938.012
938.07
938.125
938.171
937.998
937.885
937.799
937.728
937.666
937.611
937.562
937.517
937.476
937.439
933.891
933.891
933.891
933.891
933.891
933.891
933.891
933.891
933.891
933.895
934.089
934.242
934.376
934.501
934.619
934.732
934.842
934.948
935.052
935.152
935.251
935.347
935.441
935.533
935.623
935.712
935.798
935.883
935.965
936.047
936.128
936.208
936.288
936.368
936.447
936.524
936.601
936.677
936.751
936.825
936.898
936.971
937.045
937.118
937.192
937.265
937.337
937.409
937.48
937.551
937.62
937.689
937.756
937.823
937.887
937.95
938.011
938.069
938.125
938.171
937.997
937.885
937.799
937.727
937.666
937.611
937.562
937.517
937.476
937.439
933.891
933.891
933.891
933.891
933.891
933.891
933.891
933.891
933.891
933.895
934.088
934.24
934.374
934.499
934.617
934.731
934.84
934.947
935.05
935.151
935.25
935.346
935.44
935.533
935.623
935.712
935.798
935.883
935.966
936.048
936.128
936.209
936.289
936.368
936.447
936.525
936.602
936.677
936.752
936.825
936.898
936.971
937.045
937.118
937.191
937.264
937.336
937.408
937.479
937.55
937.619
937.688
937.756
937.822
937.887
937.95
938.011
938.07
938.126
938.173
937.999
937.886
937.8
937.728
937.667
937.612
937.563
937.518
937.477
937.44
933.891
933.891
933.891
933.891
933.891
933.891
933.891
933.891
933.891
933.895
934.088
934.24
934.374
934.499
934.617
934.73
934.84
934.946
935.05
935.151
935.249
935.346
935.44
935.533
935.623
935.712
935.799
935.884
935.967
936.048
936.129
936.209
936.29
936.369
936.448
936.525
936.602
936.678
936.752
936.825
936.898
936.971
937.045
937.118
937.191
937.264
937.336
937.408
937.479
937.549
937.619
937.688
937.755
937.822
937.887
937.95
938.011
938.07
938.126
938.173
937.999
937.887
937.8
937.729
937.667
937.613
937.563
937.519
937.478
937.44
933.891
933.891
933.891
933.891
933.891
933.891
933.891
933.891
933.891
933.895
934.088
934.24
934.374
934.498
934.616
934.73
934.839
934.946
935.049
935.15
935.249
935.346
935.44
935.533
935.623
935.712
935.799
935.884
935.968
936.049
936.13
936.21
936.29
936.369
936.448
936.526
936.602
936.678
936.752
936.825
936.898
936.971
937.045
937.118
937.191
937.263
937.336
937.407
937.479
937.549
937.619
937.688
937.755
937.822
937.887
937.951
938.012
938.072
938.128
938.175
938.001
937.888
937.802
937.73
937.669
937.614
937.565
937.52
937.479
937.442
933.891
933.891
933.891
933.891
933.891
933.891
933.891
933.891
933.891
933.895
934.087
934.239
934.373
934.497
934.615
934.729
934.839
934.945
935.049
935.15
935.249
935.345
935.44
935.532
935.623
935.712
935.8
935.885
935.969
936.05
936.131
936.211
936.29
936.369
936.448
936.525
936.602
936.677
936.751
936.824
936.897
936.971
937.045
937.118
937.191
937.264
937.336
937.408
937.479
937.549
937.619
937.688
937.756
937.822
937.888
937.951
938.013
938.073
938.13
938.178
938.004
937.891
937.804
937.732
937.67
937.616
937.566
937.522
937.48
937.443
933.891
933.891
933.891
933.891
933.891
933.891
933.891
933.891
933.891
933.895
934.087
934.239
934.373
934.497
934.615
934.728
934.838
934.944
935.048
935.149
935.248
935.345
935.439
935.532
935.623
935.712
935.8
935.886
935.969
936.052
936.132
936.211
936.291
936.369
936.448
936.525
936.601
936.676
936.749
936.823
936.897
936.971
937.045
937.118
937.191
937.264
937.336
937.408
937.479
937.55
937.62
937.689
937.757
937.823
937.889
937.953
938.015
938.075
938.132
938.18
938.005
937.892
937.806
937.734
937.672
937.617
937.568
937.523
937.482
937.445
933.891
933.891
933.891
933.891
933.891
933.891
933.891
933.891
933.891
933.895
934.087
934.239
934.373
934.497
934.615
934.728
934.838
934.944
935.048
935.149
935.248
935.344
935.439
935.532
935.623
935.712
935.8
935.886
935.97
936.052
936.133
936.212
936.291
936.369
936.447
936.524
936.6
936.675
936.748
936.823
936.897
936.972
937.046
937.119
937.192
937.265
937.338
937.409
937.48
937.551
937.621
937.69
937.758
937.825
937.89
937.954
938.017
938.077
938.135
938.184
938.009
937.895
937.809
937.737
937.675
937.62
937.57
937.525
937.484
937.447
933.891
933.891
933.891
933.891
933.891
933.891
933.891
933.891
933.891
933.895
934.087
934.239
934.372
934.496
934.614
934.727
934.837
934.943
935.047
935.148
935.247
935.344
935.439
935.532
935.623
935.712
935.8
935.886
935.971
936.053
936.134
936.213
936.291
936.369
936.447
936.524
936.599
936.674
936.748
936.823
936.898
936.973
937.047
937.121
937.194
937.267
937.339
937.411
937.482
937.552
937.622
937.691
937.759
937.826
937.892
937.956
938.019
938.079
938.137
938.187
938.011
937.898
937.811
937.739
937.676
937.621
937.572
937.527
937.485
937.448
933.891
933.891
933.891
933.891
933.891
933.891
933.891
933.891
933.891
933.895
934.087
934.238
934.372
934.496
934.614
934.727
934.836
934.943
935.046
935.148
935.246
935.343
935.438
935.531
935.622
935.712
935.8
935.886
935.971
936.053
936.134
936.214
936.292
936.37
936.447
936.523
936.598
936.673
936.748
936.824
936.899
936.974
937.048
937.122
937.196
937.268
937.341
937.412
937.484
937.554
937.624
937.693
937.761
937.828
937.894
937.958
938.021
938.082
938.14
938.189
938.013
937.9
937.813
937.74
937.678
937.623
937.573
937.528
937.487
937.449
933.891
933.891
933.891
933.891
933.891
933.891
933.891
933.891
933.891
933.895
934.087
934.238
934.372
934.496
934.613
934.726
934.836
934.942
935.046
935.147
935.246
935.342
935.437
935.53
935.621
935.711
935.799
935.886
935.97
936.053
936.135
936.214
936.292
936.37
936.446
936.523
936.598
936.674
936.749
936.825
936.9
936.975
937.05
937.124
937.197
937.27
937.342
937.414
937.485
937.556
937.625
937.694
937.762
937.829
937.896
937.96
938.023
938.084
938.143
938.193
938.016
937.902
937.815
937.742
937.68
937.625
937.575
937.53
937.488
937.45
933.891
933.891
933.891
933.891
933.891
933.891
933.891
933.891
933.891
933.895
934.087
934.238
934.372
934.495
934.613
934.726
934.835
934.941
935.045
935.146
935.245
935.341
935.436
935.529
935.62
935.71
935.798
935.885
935.97
936.053
936.134
936.214
936.292
936.369
936.446
936.522
936.598
936.674
936.75
936.826
936.901
936.977
937.051
937.125
937.199
937.271
937.344
937.415
937.486
937.557
937.627
937.695
937.764
937.831
937.897
937.961
938.025
938.086
938.144
938.195
938.018
937.904
937.816
937.744
937.681
937.626
937.576
937.53
937.489
937.451
933.891
933.891
933.891
933.891
933.891
933.891
933.891
933.891
933.891
933.895
934.087
934.238
934.371
934.495
934.612
934.725
934.834
934.94
935.044
935.145
935.243
935.34
935.435
935.528
935.619
935.709
935.797
935.884
935.969
936.052
936.133
936.213
936.291
936.368
936.445
936.521
936.597
936.674
936.75
936.826
936.902
936.977
937.052
937.126
937.199
937.272
937.344
937.416
937.487
937.557
937.627
937.696
937.764
937.832
937.898
937.962
938.025
938.087
938.146
938.197
938.019
937.905
937.817
937.745
937.682
937.626
937.576
937.531
937.489
937.451
933.891
933.891
933.891
933.891
933.891
933.891
933.891
933.891
933.891
933.895
934.087
934.238
934.371
934.494
934.612
934.724
934.833
934.939
935.043
935.143
935.242
935.339
935.433
935.526
935.618
935.707
935.796
935.882
935.967
936.05
936.132
936.212
936.29
936.367
936.444
936.52
936.597
936.673
936.75
936.826
936.902
936.977
937.052
937.126
937.2
937.272
937.345
937.416
937.487
937.558
937.627
937.696
937.764
937.832
937.898
937.963
938.026
938.088
938.147
938.198
938.021
937.906
937.818
937.745
937.682
937.627
937.577
937.531
937.489
937.451
933.891
933.891
933.891
933.891
933.891
933.891
933.891
933.891
933.891
933.895
934.087
934.237
934.371
934.494
934.611
934.723
934.832
934.938
935.041
935.142
935.241
935.337
935.432
935.525
935.616
935.706
935.794
935.88
935.965
936.048
936.13
936.21
936.288
936.365
936.442
936.519
936.596
936.673
936.749
936.826
936.901
936.977
937.051
937.126
937.199
937.272
937.344
937.416
937.487
937.557
937.627
937.696
937.764
937.831
937.898
937.962
938.026
938.088
938.147
938.198
938.02
937.906
937.818
937.745
937.682
937.626
937.576
937.531
937.489
937.451
933.891
933.891
933.891
933.891
933.891
933.891
933.891
933.891
933.891
933.895
934.087
934.237
934.37
934.493
934.61
934.723
934.831
934.937
935.04
935.141
935.239
935.335
935.43
935.523
935.614
935.704
935.792
935.878
935.963
936.046
936.128
936.207
936.285
936.363
936.44
936.517
936.594
936.671
936.748
936.824
936.9
936.976
937.05
937.124
937.198
937.271
937.343
937.414
937.485
937.556
937.626
937.695
937.763
937.83
937.896
937.962
938.025
938.087
938.147
938.198
938.02
937.905
937.817
937.744
937.681
937.626
937.576
937.53
937.488
937.45
933.891
933.891
933.891
933.891
933.891
933.891
933.891
933.891
933.891
933.895
934.086
934.237
934.37
934.493
934.609
934.721
934.83
934.935
935.038
935.139
935.237
935.333
935.428
935.521
935.612
935.701
935.789
935.876
935.96
936.043
936.125
936.204
936.283
936.36
936.438
936.515
936.593
936.67
936.746
936.823
936.899
936.974
937.049
937.123
937.196
937.269
937.341
937.413
937.484
937.554
937.624
937.693
937.761
937.828
937.895
937.96
938.024
938.086
938.146
938.198
938.019
937.904
937.816
937.743
937.68
937.625
937.575
937.529
937.487
937.449
933.891
933.891
933.891
933.891
933.891
933.891
933.891
933.891
933.891
933.895
934.086
934.237
934.369
934.492
934.609
934.72
934.829
934.934
935.037
935.137
935.235
935.331
935.426
935.518
935.609
935.699
935.787
935.873
935.958
936.041
936.122
936.201
936.28
936.358
936.436
936.513
936.591
936.668
936.745
936.821
936.897
936.972
937.047
937.121
937.194
937.267
937.339
937.41
937.481
937.552
937.621
937.691
937.759
937.826
937.893
937.958
938.022
938.085
938.145
938.197
938.018
937.903
937.815
937.742
937.68
937.624
937.574
937.528
937.486
937.448
933.891
933.891
933.891
933.891
933.891
933.891
933.891
933.891
933.891
933.895
934.086
934.237
934.369
934.491
934.608
934.719
934.827
934.932
935.035
935.135
935.233
935.329
935.423
935.516
935.606
935.696
935.784
935.87
935.954
936.037
936.118
936.198
936.277
936.355
936.433
936.511
936.588
936.666
936.743
936.819
936.895
936.97
937.045
937.119
937.192
937.265
937.337
937.409
937.48
937.55
937.62
937.689
937.758
937.825
937.892
937.958
938.022
938.085
938.145
938.198
938.019
937.904
937.816
937.743
937.68
937.625
937.575
937.529
937.488
937.45
933.891
933.891
933.891
933.891
933.891
933.891
933.891
933.891
933.891
933.895
934.086
934.236
934.369
934.491
934.607
934.718
934.826
934.931
935.033
935.133
935.231
935.327
935.421
935.513
935.604
935.693
935.781
935.867
935.952
936.035
936.116
936.196
936.275
936.353
936.432
936.51
936.588
936.665
936.742
936.818
936.894
936.97
937.044
937.119
937.192
937.265
937.338
937.41
937.481
937.551
937.622
937.691
937.76
937.828
937.895
937.961
938.026
938.089
938.15
938.203
938.025
937.91
937.822
937.749
937.687
937.631
937.581
937.536
937.495
937.457
933.891
933.891
933.891
933.891
933.891
933.891
933.891
933.891
933.891
933.895
934.086
934.236
934.368
934.49
934.606
934.717
934.825
934.93
935.032
935.131
935.229
935.325
935.419
935.511
935.602
935.692
935.78
935.866
935.951
936.034
936.115
936.196
936.275
936.354
936.433
936.512
936.59
936.668
936.745
936.822
936.899
936.974
937.05
937.124
937.198
937.272
937.345
937.417
937.489
937.561
937.631
937.702
937.771
937.84
937.908
937.975
938.041
938.105
938.168
938.221
938.043
937.928
937.841
937.768
937.706
937.651
937.602
937.557
937.516
937.479
933.891
933.891
933.891
933.891
933.891
933.891
933.891
933.891
933.891
933.895
934.086
934.236
934.368
934.49
934.606
934.717
934.825
934.93
935.032
935.132
935.23
935.326
935.42
935.513
935.604
935.694
935.783
935.87
935.955
936.039
936.122
936.203
936.284
936.364
936.444
936.523
936.603
936.682
936.76
936.838
936.916
936.993
937.069
937.145
937.221
937.296
937.37
937.444
937.518
937.591
937.663
937.735
937.806
937.877
937.946
938.015
938.083
938.15
938.214
938.27
938.091
937.977
937.89
937.818
937.757
937.703
937.654
937.61
937.57
937.533
933.891
933.891
933.891
933.891
933.891
933.891
933.891
933.891
933.891
933.895
934.086
934.236
934.369
934.491
934.607
934.719
934.827
934.933
935.036
935.137
935.236
935.333
935.429
935.523
935.616
935.708
935.798
935.887
935.974
936.06
936.145
936.229
936.312
936.395
936.477
936.56
936.642
936.723
936.805
936.886
936.966
937.046
937.126
937.205
937.283
937.361
937.439
937.516
937.593
937.67
937.745
937.821
937.896
937.97
938.044
938.117
938.188
938.259
938.327
938.387
938.208
938.094
938.008
937.937
937.877
937.824
937.777
937.734
937.695
937.66
933.891
933.891
933.891
933.891
933.891
933.891
933.891
933.891
933.891
933.895
934.087
934.239
934.373
934.497
934.616
934.73
934.841
934.949
935.055
935.159
935.262
935.363
935.463
935.561
935.659
935.755
935.849
935.943
936.035
936.127
936.217
936.306
936.395
936.483
936.571
936.66
936.748
936.835
936.923
937.01
937.097
937.183
937.269
937.355
937.44
937.525
937.609
937.693
937.777
937.86
937.943
938.026
938.108
938.189
938.27
938.35
938.429
938.507
938.583
938.65
938.468
938.354
938.268
938.198
938.138
938.086
938.039
937.997
937.959
937.924
933.891
933.891
933.891
933.891
933.891
933.891
933.891
933.891
933.891
933.895
934.092
934.249
934.389
934.519
934.644
934.765
934.884
935.001
935.115
935.229
935.341
935.451
935.561
935.67
935.778
935.884
935.99
936.095
936.198
936.301
936.403
936.504
936.604
936.705
936.805
936.905
937.005
937.105
937.205
937.304
937.403
937.501
937.6
937.697
937.795
937.892
937.988
938.084
938.18
938.275
938.37
938.465
938.558
938.652
938.744
938.836
938.927
939.016
939.103
939.18
938.986
938.865
938.773
938.697
938.632
938.574
938.522
938.474
938.431
938.392
933.891
933.891
933.891
933.891
933.891
933.891
933.891
933.891
933.891
933.896
934.111
934.286
934.443
934.592
934.736
934.877
935.015
935.151
935.286
935.42
935.553
935.685
935.815
935.945
936.074
936.202
936.329
936.454
936.579
936.702
936.824
936.945
937.066
937.186
937.305
937.424
937.543
937.662
937.78
937.897
938.013
938.129
938.244
938.358
938.472
938.585
938.697
938.808
938.919
939.028
939.137
939.246
939.353
939.459
939.565
939.669
939.772
939.873
939.972
940.054
939.813
939.655
939.532
939.427
939.334
939.251
939.175
939.105
939.04
938.982
933.891
933.891
933.891
933.891
933.891
933.891
933.891
933.891
933.892
933.898
934.182
934.403
934.6
934.785
934.963
935.136
935.306
935.473
935.638
935.801
935.962
936.121
936.279
936.435
936.589
936.742
936.893
937.041
937.187
937.331
937.474
937.614
937.753
937.89
938.027
938.162
938.296
938.429
938.56
938.691
938.819
938.947
939.073
939.198
939.321
939.443
939.564
939.683
939.802
939.919
940.035
940.15
940.264
940.376
940.487
940.597
940.704
940.809
940.91
940.984
940.584
940.328
940.132
939.969
939.828
939.704
939.593
939.493
939.401
939.321
933.891
933.891
933.891
933.891
933.891
933.891
933.891
933.891
933.891
933.896
934.114
934.318
934.51
934.693
934.869
935.041
935.21
935.376
935.539
935.701
935.861
936.019
936.176
936.331
936.485
936.638
936.788
936.938
937.085
937.232
937.376
937.519
937.66
937.798
937.936
938.071
938.204
938.336
938.467
938.597
938.726
938.854
938.981
939.108
939.233
939.357
939.48
939.601
939.72
939.838
939.955
940.069
940.182
940.294
940.402
940.509
940.613
940.714
940.812
940.887
940.56
940.318
940.126
939.965
939.825
939.702
939.592
939.491
939.4
939.319
933.891
933.891
933.891
933.891
933.891
933.891
933.891
933.891
933.891
933.894
934.05
934.204
934.352
934.496
934.637
934.774
934.91
935.044
935.176
935.308
935.438
935.567
935.696
935.824
935.951
936.078
936.204
936.329
936.454
936.577
936.7
936.823
936.944
937.064
937.184
937.303
937.42
937.538
937.654
937.77
937.887
938.002
938.118
938.233
938.348
938.462
938.575
938.687
938.798
938.909
939.018
939.126
939.233
939.338
939.442
939.544
939.645
939.742
939.838
939.92
939.754
939.617
939.503
939.404
939.315
939.235
939.162
939.094
939.03
938.973
933.891
933.891
933.891
933.891
933.891
933.891
933.891
933.891
933.891
933.894
934.034
934.171
934.302
934.428
934.55
934.668
934.784
934.898
935.01
935.121
935.231
935.339
935.447
935.554
935.66
935.765
935.869
935.973
936.077
936.179
936.282
936.383
936.484
936.584
936.684
936.783
936.882
936.98
937.078
937.176
937.274
937.372
937.47
937.568
937.666
937.763
937.86
937.957
938.052
938.148
938.242
938.336
938.429
938.52
938.611
938.7
938.788
938.875
938.958
939.034
938.911
938.81
938.728
938.658
938.597
938.542
938.493
938.448
938.406
938.368