/*--------------------------------*- C++ -*----------------------------------*\
  =========                 |
  \\      /  F ield         | OpenFOAM: The Open Source CFD Toolbox
   \\    /   O peration     | Website:  https://openfoam.org
    \\  /    A nd           | Version:  12
     \\/     M anipulation  |
\*---------------------------------------------------------------------------*/
FoamFile
{
    format      ascii;
    class       volScalarField;
    location    "950/porous";
    object      T;
}
// * * * * * * * * * * * * * * * * * * * * * * * * * * * * * * * * * * * * * //

dimensions      [0 0 0 1 0 0 0];

internalField   nonuniform List<scalar> 
140000
(
400
400
400
400
400
400
400
400
400
399.992
399.683
399.442
399.228
399.027
398.834
398.648
398.464
398.285
398.108
397.933
397.76
397.589
397.419
397.251
397.084
396.919
396.755
396.593
396.432
396.273
396.116
395.96
395.807
395.655
395.505
395.358
395.211
395.067
394.923
394.781
394.639
394.498
394.357
394.217
394.079
393.942
393.806
393.673
393.54
393.41
393.28
393.153
393.028
392.905
392.785
392.666
392.551
392.439
392.33
392.253
392.696
392.979
393.196
393.377
393.532
393.669
393.792
393.903
394.004
394.093
400
400
400
400
400
400
400
400
400
399.995
399.758
399.567
399.396
399.234
399.079
398.927
398.778
398.631
398.486
398.343
398.201
398.059
397.919
397.779
397.64
397.502
397.365
397.228
397.093
396.958
396.823
396.69
396.557
396.426
396.295
396.165
396.036
395.908
395.78
395.653
395.525
395.398
395.27
395.144
395.017
394.892
394.767
394.644
394.521
394.4
394.279
394.16
394.042
393.926
393.812
393.7
393.589
393.481
393.376
393.291
393.555
393.728
393.864
393.979
394.081
394.172
394.256
394.333
394.404
394.468
400
400
400
400
400
400
400
400
400
399.996
399.778
399.606
399.454
399.312
399.176
399.045
398.917
398.792
398.669
398.548
398.428
398.309
398.191
398.075
397.959
397.844
397.73
397.616
397.503
397.391
397.279
397.168
397.058
396.948
396.839
396.73
396.623
396.515
396.408
396.3
396.192
396.084
395.976
395.868
395.761
395.654
395.547
395.441
395.335
395.231
395.127
395.024
394.921
394.82
394.721
394.623
394.527
394.431
394.341
394.261
394.471
394.603
394.704
394.786
394.857
394.921
394.977
395.029
395.077
395.12
400
400
400
400
400
400
400
400
400
399.996
399.783
399.616
399.469
399.333
399.205
399.081
398.962
398.845
398.732
398.62
398.51
398.402
398.295
398.19
398.085
397.982
397.88
397.778
397.678
397.578
397.479
397.381
397.283
397.187
397.091
396.996
396.901
396.807
396.714
396.62
396.525
396.431
396.337
396.242
396.148
396.055
395.962
395.869
395.778
395.686
395.596
395.506
395.418
395.33
395.244
395.159
395.076
394.994
394.915
394.847
395.044
395.167
395.261
395.337
395.402
395.458
395.509
395.555
395.596
395.634
400
400
400
400
400
400
400
400
400
399.996
399.784
399.618
399.473
399.339
399.212
399.091
398.974
398.861
398.75
398.642
398.536
398.432
398.33
398.229
398.129
398.03
397.933
397.837
397.742
397.647
397.554
397.462
397.371
397.28
397.191
397.102
397.015
396.928
396.841
396.754
396.666
396.579
396.492
396.405
396.318
396.232
396.147
396.062
395.978
395.895
395.812
395.731
395.65
395.571
395.493
395.416
395.342
395.268
395.198
395.138
395.331
395.454
395.547
395.623
395.689
395.746
395.798
395.844
395.886
395.925
400
400
400
400
400
400
400
400
400
399.996
399.784
399.618
399.472
399.338
399.212
399.092
398.976
398.863
398.753
398.646
398.541
398.438
398.337
398.238
398.14
398.043
397.948
397.854
397.761
397.669
397.578
397.488
397.399
397.312
397.225
397.14
397.055
396.971
396.888
396.804
396.72
396.636
396.552
396.468
396.385
396.303
396.221
396.14
396.06
395.981
395.902
395.825
395.748
395.673
395.6
395.528
395.457
395.389
395.323
395.267
395.459
395.583
395.677
395.754
395.821
395.88
395.932
395.98
396.024
396.063
400
400
400
400
400
400
400
400
400
399.996
399.784
399.617
399.472
399.338
399.211
399.091
398.974
398.862
398.752
398.645
398.541
398.438
398.337
398.238
398.141
398.045
397.95
397.856
397.764
397.673
397.583
397.494
397.407
397.32
397.235
397.151
397.068
396.985
396.903
396.82
396.738
396.655
396.573
396.491
396.409
396.328
396.248
396.169
396.091
396.013
395.936
395.861
395.786
395.713
395.642
395.572
395.504
395.438
395.375
395.321
395.513
395.637
395.731
395.809
395.877
395.937
395.99
396.039
396.083
396.124
400
400
400
400
400
400
400
400
400
399.996
399.783
399.617
399.471
399.336
399.21
399.089
398.972
398.859
398.75
398.643
398.538
398.435
398.334
398.235
398.138
398.042
397.947
397.854
397.762
397.671
397.582
397.493
397.406
397.32
397.236
397.152
397.07
396.988
396.906
396.824
396.742
396.659
396.578
396.496
396.415
396.335
396.256
396.177
396.1
396.023
395.947
395.872
395.799
395.727
395.656
395.588
395.521
395.456
395.394
395.342
395.533
395.657
395.752
395.831
395.898
395.959
396.013
396.062
396.107
396.148
400
400
400
400
400
400
400
400
400
399.996
399.783
399.616
399.47
399.335
399.208
399.087
398.97
398.857
398.747
398.64
398.535
398.432
398.331
398.232
398.135
398.039
397.944
397.851
397.759
397.668
397.578
397.49
397.403
397.318
397.234
397.151
397.068
396.987
396.905
396.823
396.741
396.659
396.577
396.496
396.415
396.335
396.256
396.178
396.101
396.024
395.949
395.874
395.801
395.729
395.659
395.591
395.525
395.461
395.4
395.348
395.539
395.663
395.758
395.837
395.905
395.966
396.02
396.069
396.115
396.156
400
400
400
400
400
400
400
400
400
399.996
399.783
399.616
399.469
399.335
399.207
399.086
398.969
398.856
398.745
398.638
398.533
398.43
398.329
398.229
398.132
398.035
397.941
397.847
397.755
397.664
397.575
397.487
397.4
397.315
397.231
397.148
397.066
396.985
396.903
396.821
396.739
396.657
396.575
396.494
396.413
396.333
396.254
396.176
396.099
396.022
395.947
395.873
395.8
395.728
395.658
395.59
395.524
395.461
395.4
395.349
395.54
395.664
395.759
395.838
395.906
395.967
396.021
396.071
396.116
396.158
400
400
400
400
400
400
400
400
400
399.996
399.782
399.615
399.469
399.334
399.207
399.085
398.968
398.854
398.744
398.636
398.531
398.428
398.326
398.227
398.129
398.033
397.938
397.845
397.753
397.662
397.572
397.484
397.398
397.313
397.229
397.146
397.065
396.983
396.901
396.819
396.737
396.655
396.573
396.492
396.411
396.331
396.252
396.174
396.096
396.02
395.945
395.87
395.797
395.726
395.656
395.588
395.522
395.459
395.399
395.348
395.539
395.663
395.758
395.837
395.906
395.966
396.02
396.07
396.116
396.157
400
400
400
400
400
400
400
400
400
399.996
399.782
399.615
399.469
399.334
399.206
399.085
398.967
398.853
398.743
398.635
398.529
398.426
398.325
398.225
398.127
398.031
397.936
397.843
397.75
397.66
397.57
397.483
397.396
397.311
397.228
397.145
397.064
396.982
396.9
396.818
396.735
396.653
396.571
396.49
396.409
396.329
396.25
396.172
396.095
396.018
395.943
395.868
395.795
395.724
395.654
395.586
395.521
395.457
395.397
395.346
395.538
395.662
395.757
395.836
395.904
395.965
396.019
396.069
396.114
396.156
400
400
400
400
400
400
400
400
400
399.996
399.783
399.616
399.469
399.334
399.207
399.084
398.967
398.853
398.742
398.634
398.529
398.425
398.324
398.224
398.126
398.03
397.935
397.841
397.749
397.659
397.569
397.482
397.396
397.311
397.228
397.145
397.064
396.982
396.9
396.817
396.735
396.652
396.57
396.489
396.408
396.329
396.249
396.171
396.094
396.017
395.941
395.867
395.794
395.723
395.653
395.585
395.519
395.456
395.396
395.345
395.537
395.661
395.756
395.835
395.903
395.963
396.018
396.068
396.113
396.155
400
400
400
400
400
400
400
400
400
399.996
399.782
399.616
399.469
399.334
399.207
399.085
398.967
398.853
398.742
398.634
398.528
398.425
398.323
398.224
398.126
398.029
397.934
397.841
397.749
397.658
397.569
397.482
397.396
397.312
397.228
397.146
397.064
396.983
396.9
396.818
396.735
396.653
396.571
396.489
396.409
396.329
396.249
396.171
396.093
396.017
395.941
395.867
395.794
395.722
395.652
395.584
395.518
395.455
395.395
395.345
395.536
395.66
395.755
395.834
395.902
395.963
396.017
396.067
396.112
396.154
400
400
400
400
400
400
400
400
400
399.996
399.783
399.616
399.47
399.335
399.207
399.085
398.967
398.853
398.742
398.634
398.528
398.425
398.323
398.224
398.126
398.029
397.935
397.841
397.749
397.659
397.57
397.483
397.397
397.313
397.23
397.148
397.066
396.984
396.902
396.819
396.736
396.654
396.572
396.49
396.41
396.329
396.25
396.172
396.094
396.017
395.942
395.867
395.794
395.722
395.652
395.584
395.518
395.455
395.395
395.345
395.536
395.66
395.755
395.834
395.902
395.962
396.017
396.066
396.112
396.153
400
400
400
400
400
400
400
400
400
399.996
399.783
399.617
399.471
399.336
399.208
399.086
398.968
398.854
398.743
398.635
398.529
398.425
398.324
398.224
398.126
398.03
397.935
397.842
397.75
397.66
397.572
397.485
397.4
397.316
397.233
397.15
397.068
396.986
396.904
396.821
396.738
396.656
396.574
396.492
396.411
396.331
396.252
396.173
396.095
396.018
395.943
395.868
395.795
395.723
395.653
395.585
395.519
395.456
395.396
395.345
395.536
395.66
395.755
395.834
395.902
395.962
396.017
396.066
396.112
396.153
400
400
400
400
400
400
400
400
400
399.996
399.783
399.617
399.471
399.337
399.209
399.087
398.969
398.855
398.744
398.636
398.53
398.426
398.325
398.225
398.127
398.031
397.937
397.844
397.752
397.662
397.574
397.488
397.403
397.319
397.235
397.152
397.07
396.988
396.906
396.823
396.741
396.658
396.576
396.494
396.414
396.333
396.254
396.175
396.097
396.02
395.944
395.869
395.796
395.724
395.654
395.586
395.52
395.456
395.396
395.346
395.537
395.661
395.756
395.834
395.902
395.963
396.017
396.066
396.112
396.153
400
400
400
400
400
400
400
400
400
399.996
399.785
399.619
399.473
399.338
399.21
399.088
398.97
398.856
398.745
398.637
398.531
398.427
398.326
398.226
398.129
398.033
397.938
397.845
397.754
397.664
397.577
397.491
397.406
397.322
397.238
397.155
397.072
396.99
396.908
396.826
396.743
396.661
396.579
396.497
396.416
396.336
396.256
396.177
396.099
396.022
395.946
395.871
395.798
395.726
395.655
395.587
395.521
395.457
395.397
395.347
395.538
395.661
395.756
395.835
395.903
395.963
396.017
396.067
396.112
396.153
400
400
400
400
400
400
400
400
400
399.996
399.785
399.619
399.474
399.339
399.212
399.089
398.971
398.857
398.746
398.638
398.532
398.428
398.327
398.228
398.13
398.034
397.94
397.847
397.756
397.667
397.58
397.494
397.41
397.325
397.24
397.157
397.074
396.992
396.91
396.828
396.746
396.664
396.581
396.5
396.419
396.339
396.259
396.18
396.102
396.025
395.948
395.873
395.8
395.727
395.657
395.588
395.522
395.459
395.398
395.348
395.539
395.662
395.757
395.836
395.904
395.964
396.018
396.067
396.112
396.153
400
400
400
400
400
400
400
400
400
399.996
399.785
399.62
399.474
399.34
399.213
399.091
398.973
398.858
398.747
398.639
398.533
398.429
398.328
398.229
398.131
398.036
397.942
397.849
397.759
397.67
397.583
397.498
397.412
397.327
397.242
397.158
397.074
396.993
396.911
396.83
396.748
396.666
396.584
396.502
396.421
396.341
396.261
396.182
396.104
396.027
395.951
395.875
395.802
395.729
395.659
395.59
395.524
395.46
395.4
395.349
395.54
395.664
395.758
395.837
395.905
395.965
396.019
396.068
396.113
396.154
400
400
400
400
400
400
400
400
400
399.996
399.786
399.622
399.476
399.342
399.214
399.092
398.974
398.86
398.749
398.64
398.534
398.43
398.329
398.23
398.132
398.037
397.943
397.851
397.761
397.672
397.585
397.5
397.413
397.328
397.242
397.158
397.075
396.992
396.911
396.83
396.749
396.667
396.585
396.504
396.423
396.343
396.263
396.184
396.106
396.029
395.953
395.877
395.804
395.731
395.66
395.592
395.525
395.462
395.401
395.351
395.542
395.665
395.76
395.838
395.906
395.966
396.02
396.069
396.114
396.155
400
400
400
400
400
400
400
400
400
399.996
399.786
399.622
399.477
399.342
399.215
399.093
398.975
398.861
398.749
398.641
398.535
398.431
398.33
398.23
398.133
398.038
397.944
397.852
397.762
397.674
397.587
397.5
397.414
397.328
397.242
397.158
397.074
396.992
396.911
396.83
396.749
396.668
396.587
396.505
396.425
396.345
396.265
396.186
396.108
396.031
395.954
395.879
395.805
395.733
395.662
395.593
395.527
395.463
395.403
395.352
395.543
395.666
395.761
395.839
395.907
395.967
396.021
396.07
396.115
396.156
400
400
400
400
400
400
400
400
400
399.996
399.788
399.623
399.478
399.344
399.217
399.094
398.976
398.862
398.751
398.642
398.536
398.432
398.33
398.231
398.134
398.038
397.945
397.853
397.763
397.675
397.587
397.501
397.414
397.327
397.242
397.157
397.073
396.991
396.91
396.829
396.749
396.668
396.587
396.506
396.426
396.346
396.266
396.188
396.11
396.032
395.956
395.881
395.807
395.734
395.663
395.594
395.528
395.464
395.403
395.353
395.543
395.667
395.761
395.84
395.908
395.968
396.021
396.07
396.116
396.156
400
400
400
400
400
400
400
400
400
399.996
399.788
399.624
399.479
399.345
399.218
399.096
398.978
398.863
398.752
398.643
398.537
398.433
398.331
398.231
398.134
398.038
397.945
397.853
397.763
397.675
397.587
397.5
397.413
397.327
397.241
397.156
397.073
396.99
396.909
396.829
396.748
396.668
396.588
396.507
396.427
396.347
396.268
396.189
396.111
396.034
395.957
395.882
395.808
395.735
395.664
395.595
395.529
395.464
395.404
395.353
395.544
395.667
395.762
395.84
395.908
395.968
396.022
396.071
396.116
396.157
400
400
400
400
400
400
400
400
400
399.996
399.788
399.624
399.48
399.346
399.218
399.096
398.978
398.864
398.752
398.643
398.537
398.433
398.331
398.232
398.134
398.038
397.945
397.853
397.763
397.675
397.587
397.5
397.412
397.326
397.24
397.155
397.072
396.989
396.908
396.828
396.748
396.668
396.588
396.508
396.427
396.348
396.268
396.19
396.112
396.035
395.958
395.883
395.809
395.736
395.665
395.596
395.529
395.465
395.404
395.353
395.544
395.668
395.762
395.841
395.908
395.968
396.022
396.071
396.116
396.157
400
400
400
400
400
400
400
400
400
399.996
399.789
399.626
399.482
399.348
399.22
399.098
398.98
398.865
398.753
398.644
398.538
398.434
398.332
398.232
398.134
398.038
397.945
397.853
397.763
397.674
397.586
397.499
397.412
397.325
397.24
397.155
397.071
396.989
396.908
396.828
396.748
396.668
396.588
396.508
396.428
396.348
396.269
396.191
396.113
396.035
395.959
395.884
395.81
395.737
395.666
395.596
395.529
395.464
395.403
395.351
395.543
395.666
395.761
395.84
395.907
395.967
396.021
396.07
396.115
396.156
400
400
400
400
400
400
400
400
400
399.996
399.789
399.626
399.482
399.348
399.221
399.099
398.98
398.866
398.754
398.645
398.538
398.434
398.332
398.232
398.134
398.038
397.944
397.852
397.762
397.673
397.585
397.498
397.411
397.325
397.239
397.154
397.071
396.989
396.908
396.828
396.748
396.668
396.588
396.508
396.428
396.349
396.27
396.191
396.113
396.036
395.96
395.884
395.81
395.737
395.666
395.596
395.529
395.464
395.402
395.351
395.542
395.666
395.76
395.839
395.907
395.967
396.021
396.07
396.115
396.155
400
400
400
400
400
400
400
400
400
399.996
399.789
399.626
399.482
399.349
399.222
399.099
398.981
398.866
398.755
398.646
398.539
398.435
398.332
398.232
398.134
398.038
397.944
397.851
397.761
397.672
397.585
397.497
397.411
397.324
397.239
397.154
397.071
396.989
396.908
396.828
396.748
396.668
396.588
396.508
396.428
396.349
396.27
396.191
396.113
396.036
395.96
395.884
395.81
395.737
395.665
395.595
395.528
395.463
395.4
395.349
395.54
395.664
395.759
395.837
395.905
395.965
396.019
396.068
396.113
396.154
400
400
400
400
400
400
400
400
400
399.996
399.79
399.627
399.483
399.349
399.222
399.1
398.982
398.867
398.755
398.646
398.539
398.435
398.333
398.232
398.134
398.038
397.943
397.85
397.76
397.671
397.584
397.497
397.41
397.324
397.239
397.154
397.071
396.989
396.909
396.829
396.749
396.668
396.588
396.508
396.428
396.349
396.27
396.191
396.113
396.036
395.959
395.884
395.809
395.736
395.665
395.595
395.527
395.461
395.398
395.345
395.538
395.662
395.757
395.835
395.903
395.963
396.017
396.066
396.111
396.152
400
400
400
400
400
400
400
400
400
399.996
399.79
399.627
399.483
399.35
399.223
399.101
398.982
398.868
398.756
398.647
398.54
398.435
398.333
398.233
398.134
398.038
397.943
397.85
397.759
397.67
397.582
397.496
397.41
397.324
397.239
397.155
397.072
396.99
396.91
396.83
396.749
396.668
396.588
396.508
396.428
396.348
396.269
396.19
396.112
396.035
395.959
395.883
395.809
395.735
395.663
395.593
395.525
395.459
395.397
395.343
395.536
395.66
395.755
395.833
395.901
395.961
396.015
396.065
396.11
396.151
400
400
400
400
400
400
400
400
400
399.996
399.79
399.627
399.484
399.35
399.223
399.101
398.983
398.868
398.756
398.647
398.54
398.436
398.333
398.233
398.134
398.037
397.942
397.849
397.758
397.669
397.581
397.495
397.41
397.324
397.239
397.156
397.073
396.992
396.911
396.83
396.749
396.668
396.587
396.507
396.427
396.347
396.268
396.189
396.111
396.034
395.957
395.882
395.807
395.734
395.662
395.592
395.523
395.456
395.393
395.339
395.532
395.656
395.752
395.831
395.899
395.959
396.013
396.062
396.108
396.149
400
400
400
400
400
400
400
400
400
399.996
399.79
399.627
399.484
399.35
399.224
399.102
398.984
398.869
398.757
398.648
398.541
398.436
398.334
398.233
398.135
398.038
397.943
397.849
397.758
397.668
397.58
397.494
397.409
397.324
397.24
397.156
397.074
396.993
396.912
396.83
396.748
396.667
396.586
396.505
396.425
396.345
396.266
396.188
396.11
396.032
395.956
395.88
395.806
395.732
395.66
395.589
395.521
395.455
395.391
395.336
395.529
395.654
395.749
395.828
395.897
395.957
396.011
396.061
396.106
396.147
400
400
400
400
400
400
400
400
400
399.996
399.79
399.628
399.484
399.351
399.224
399.102
398.984
398.869
398.758
398.649
398.542
398.437
398.335
398.234
398.135
398.038
397.943
397.849
397.757
397.668
397.58
397.493
397.408
397.324
397.24
397.157
397.075
396.993
396.911
396.829
396.747
396.665
396.584
396.503
396.423
396.343
396.264
396.186
396.108
396.031
395.954
395.879
395.804
395.73
395.658
395.587
395.518
395.451
395.388
395.333
395.527
395.652
395.747
395.826
395.895
395.955
396.01
396.059
396.104
396.146
400
400
400
400
400
400
400
400
400
399.996
399.79
399.628
399.484
399.351
399.225
399.103
398.985
398.87
398.759
398.649
398.543
398.438
398.336
398.235
398.136
398.039
397.943
397.85
397.758
397.668
397.579
397.493
397.408
397.324
397.24
397.158
397.075
396.993
396.911
396.828
396.746
396.664
396.582
396.501
396.421
396.342
396.263
396.184
396.106
396.029
395.953
395.877
395.802
395.729
395.656
395.585
395.517
395.449
395.385
395.329
395.524
395.649
395.745
395.824
395.893
395.953
396.008
396.058
396.103
396.144
400
400
400
400
400
400
400
400
400
399.996
399.79
399.628
399.485
399.352
399.225
399.103
398.986
398.871
398.76
398.65
398.544
398.439
398.337
398.236
398.137
398.04
397.944
397.851
397.758
397.668
397.58
397.493
397.408
397.324
397.241
397.158
397.075
396.993
396.91
396.827
396.745
396.662
396.581
396.5
396.42
396.34
396.261
396.183
396.105
396.028
395.951
395.876
395.801
395.727
395.655
395.584
395.514
395.447
395.383
395.327
395.522
395.647
395.743
395.823
395.892
395.952
396.007
396.057
396.102
396.144
400
400
400
400
400
400
400
400
400
399.996
399.79
399.628
399.485
399.352
399.226
399.104
398.987
398.872
398.761
398.652
398.545
398.44
398.338
398.237
398.138
398.041
397.946
397.852
397.76
397.669
397.581
397.494
397.409
397.325
397.242
397.159
397.076
396.993
396.91
396.827
396.744
396.662
396.58
396.499
396.419
396.339
396.26
396.182
396.104
396.027
395.951
395.875
395.8
395.726
395.654
395.583
395.513
395.446
395.381
395.325
395.52
395.646
395.742
395.822
395.891
395.952
396.006
396.056
396.102
396.143
400
400
400
400
400
400
400
400
400
399.996
399.79
399.628
399.485
399.352
399.226
399.105
398.987
398.873
398.762
398.653
398.546
398.442
398.339
398.239
398.14
398.043
397.947
397.853
397.761
397.671
397.582
397.496
397.411
397.327
397.243
397.16
397.077
396.993
396.91
396.827
396.744
396.662
396.58
396.499
396.419
396.339
396.26
396.182
396.104
396.027
395.95
395.875
395.8
395.726
395.654
395.582
395.513
395.445
395.38
395.323
395.519
395.645
395.741
395.821
395.89
395.951
396.006
396.056
396.102
396.143
400
400
400
400
400
400
400
400
400
399.996
399.791
399.629
399.486
399.353
399.227
399.106
398.989
398.875
398.763
398.654
398.548
398.444
398.341
398.241
398.142
398.045
397.949
397.855
397.763
397.673
397.585
397.498
397.413
397.329
397.245
397.161
397.078
396.994
396.911
396.827
396.744
396.662
396.581
396.5
396.419
396.34
396.261
396.182
396.105
396.027
395.951
395.875
395.801
395.727
395.654
395.583
395.513
395.445
395.38
395.323
395.519
395.645
395.741
395.821
395.89
395.951
396.006
396.056
396.102
396.144
400
400
400
400
400
400
400
400
400
399.996
399.791
399.629
399.486
399.354
399.228
399.107
398.99
398.876
398.765
398.656
398.55
398.446
398.343
398.243
398.144
398.047
397.952
397.858
397.766
397.675
397.587
397.501
397.415
397.331
397.247
397.163
397.079
396.995
396.912
396.828
396.746
396.663
396.582
396.501
396.421
396.341
396.262
396.184
396.106
396.029
395.952
395.877
395.802
395.728
395.655
395.583
395.514
395.446
395.38
395.323
395.519
395.645
395.742
395.822
395.891
395.952
396.007
396.057
396.103
396.145
400
400
400
400
400
400
400
400
400
399.996
399.791
399.629
399.487
399.354
399.229
399.108
398.991
398.877
398.766
398.658
398.552
398.448
398.346
398.245
398.147
398.05
397.954
397.861
397.769
397.678
397.59
397.504
397.418
397.334
397.25
397.165
397.081
396.997
396.914
396.83
396.748
396.665
396.584
396.503
396.423
396.343
396.264
396.186
396.108
396.031
395.955
395.879
395.804
395.73
395.657
395.585
395.515
395.447
395.381
395.324
395.52
395.646
395.743
395.823
395.892
395.953
396.008
396.058
396.104
396.146
400
400
400
400
400
400
400
400
400
399.996
399.791
399.629
399.487
399.355
399.23
399.109
398.992
398.879
398.768
398.66
398.554
398.45
398.348
398.248
398.149
398.052
397.957
397.864
397.772
397.682
397.593
397.507
397.421
397.337
397.252
397.168
397.083
396.999
396.916
396.832
396.75
396.668
396.586
396.505
396.425
396.345
396.266
396.188
396.11
396.033
395.957
395.881
395.806
395.732
395.659
395.587
395.517
395.448
395.382
395.325
395.521
395.647
395.744
395.824
395.893
395.954
396.009
396.059
396.105
396.147
400
400
400
400
400
400
400
400
400
399.996
399.791
399.63
399.488
399.356
399.231
399.11
398.994
398.881
398.77
398.662
398.556
398.453
398.351
398.251
398.152
398.056
397.96
397.867
397.775
397.685
397.597
397.51
397.425
397.34
397.255
397.17
397.086
397.002
396.918
396.835
396.752
396.67
396.588
396.507
396.427
396.347
396.268
396.19
396.112
396.035
395.958
395.883
395.808
395.733
395.66
395.588
395.517
395.448
395.382
395.324
395.52
395.647
395.743
395.823
395.892
395.953
396.008
396.058
396.104
396.145
400
400
400
400
400
400
400
400
400
399.996
399.791
399.63
399.488
399.356
399.232
399.112
398.995
398.882
398.772
398.664
398.559
398.455
398.353
398.253
398.155
398.058
397.963
397.87
397.778
397.688
397.6
397.513
397.427
397.342
397.256
397.171
397.087
397.002
396.918
396.835
396.752
396.67
396.588
396.507
396.427
396.347
396.268
396.189
396.111
396.034
395.957
395.881
395.805
395.731
395.657
395.584
395.513
395.443
395.376
395.318
395.514
395.64
395.737
395.817
395.885
395.946
396.001
396.05
396.096
396.137
400
400
400
400
400
400
400
400
400
399.996
399.792
399.63
399.488
399.357
399.232
399.113
398.997
398.884
398.774
398.666
398.56
398.457
398.355
398.255
398.157
398.06
397.965
397.871
397.779
397.689
397.6
397.513
397.427
397.341
397.255
397.169
397.084
396.999
396.915
396.831
396.748
396.665
396.583
396.501
396.42
396.34
396.26
396.18
396.102
396.023
395.946
395.869
395.793
395.717
395.642
395.569
395.496
395.426
395.357
395.298
395.494
395.62
395.716
395.796
395.864
395.924
395.979
396.028
396.073
396.113
400
400
400
400
400
400
400
400
400
399.996
399.791
399.63
399.488
399.357
399.232
399.113
398.997
398.884
398.773
398.666
398.56
398.456
398.354
398.253
398.154
398.057
397.961
397.867
397.774
397.683
397.594
397.505
397.418
397.33
397.243
397.157
397.07
396.984
396.898
396.813
396.729
396.645
396.561
396.478
396.395
396.313
396.232
396.151
396.071
395.991
395.911
395.833
395.754
395.677
395.6
395.524
395.45
395.377
395.306
395.244
395.441
395.567
395.662
395.741
395.808
395.868
395.921
395.969
396.014
396.053
400
400
400
400
400
400
400
400
400
399.996
399.792
399.63
399.488
399.356
399.231
399.111
398.994
398.88
398.769
398.66
398.553
398.448
398.344
398.242
398.142
398.042
397.945
397.848
397.754
397.66
397.568
397.477
397.387
397.297
397.207
397.117
397.028
396.939
396.85
396.762
396.674
396.587
396.5
396.413
396.327
396.242
396.157
396.072
395.988
395.904
395.821
395.738
395.656
395.574
395.493
395.413
395.334
395.257
395.181
395.116
395.313
395.438
395.533
395.61
395.677
395.735
395.787
395.834
395.876
395.915
400
400
400
400
400
400
400
400
400
399.996
399.79
399.627
399.483
399.349
399.222
399.099
398.98
398.863
398.748
398.636
398.525
398.416
398.308
398.201
398.096
397.992
397.889
397.787
397.687
397.588
397.49
397.393
397.297
397.2
397.104
397.008
396.912
396.817
396.721
396.626
396.531
396.437
396.343
396.249
396.156
396.063
395.97
395.878
395.786
395.695
395.604
395.513
395.423
395.333
395.244
395.156
395.069
394.983
394.899
394.826
395.027
395.152
395.247
395.324
395.39
395.447
395.498
395.545
395.586
395.624
400
400
400
400
400
400
400
400
400
399.996
399.785
399.617
399.466
399.326
399.191
399.061
398.933
398.807
398.683
398.561
398.44
398.32
398.201
398.084
397.967
397.851
397.736
397.623
397.51
397.399
397.288
397.178
397.069
396.959
396.85
396.74
396.631
396.522
396.413
396.305
396.196
396.088
395.981
395.874
395.767
395.66
395.554
395.449
395.343
395.238
395.134
395.03
394.927
394.824
394.722
394.62
394.52
394.421
394.325
394.24
394.454
394.589
394.69
394.774
394.846
394.909
394.967
395.019
395.067
395.11
400
400
400
400
400
400
400
400
400
399.995
399.765
399.577
399.408
399.247
399.093
398.941
398.792
398.644
398.498
398.354
398.21
398.068
397.926
397.785
397.645
397.506
397.368
397.232
397.096
396.962
396.829
396.697
396.565
396.434
396.303
396.173
396.042
395.913
395.784
395.655
395.527
395.4
395.273
395.147
395.022
394.898
394.774
394.651
394.529
394.408
394.287
394.167
394.048
393.93
393.813
393.697
393.583
393.471
393.361
393.269
393.538
393.713
393.85
393.967
394.069
394.161
394.245
394.323
394.395
394.459
400
400
400
400
400
400
400
400
400
399.993
399.688
399.45
399.239
399.039
398.848
398.661
398.477
398.297
398.118
397.942
397.767
397.594
397.423
397.253
397.085
396.918
396.754
396.592
396.432
396.274
396.119
395.965
395.813
395.662
395.512
395.363
395.216
395.069
394.925
394.781
394.639
394.498
394.358
394.22
394.084
393.948
393.814
393.681
393.55
393.42
393.29
393.162
393.036
392.91
392.786
392.664
392.543
392.426
392.313
392.231
392.679
392.963
393.183
393.364
393.521
393.658
393.782
393.893
393.995
394.084
400
400
400
400
400
400
400
400
400
399.995
399.761
399.542
399.336
399.139
398.949
398.764
398.581
398.402
398.225
398.05
397.876
397.705
397.534
397.366
397.198
397.032
396.868
396.705
396.543
396.384
396.226
396.07
395.915
395.763
395.612
395.464
395.317
395.172
395.028
394.885
394.742
394.601
394.46
394.32
394.181
394.044
393.908
393.773
393.641
393.51
393.38
393.252
393.127
393.002
392.881
392.762
392.646
392.533
392.423
392.34
392.705
392.975
393.189
393.369
393.524
393.661
393.783
393.895
393.996
394.086
400
400
400
400
400
400
400
400
400
399.997
399.83
399.665
399.505
399.35
399.199
399.051
398.905
398.761
398.618
398.476
398.335
398.194
398.055
397.916
397.778
397.641
397.504
397.368
397.233
397.098
396.964
396.831
396.698
396.567
396.436
396.306
396.177
396.049
395.921
395.793
395.666
395.539
395.412
395.285
395.159
395.033
394.908
394.785
394.662
394.54
394.419
394.299
394.181
394.065
393.949
393.836
393.725
393.616
393.509
393.418
393.603
393.755
393.882
393.992
394.09
394.178
394.26
394.335
394.405
394.469
400
400
400
400
400
400
400
400
400
399.998
399.847
399.7
399.559
399.424
399.293
399.166
399.041
398.918
398.797
398.677
398.559
398.441
398.325
398.21
398.095
397.981
397.867
397.755
397.642
397.531
397.42
397.309
397.2
397.09
396.982
396.873
396.766
396.659
396.552
396.445
396.338
396.23
396.123
396.015
395.908
395.801
395.695
395.589
395.484
395.379
395.275
395.172
395.07
394.969
394.869
394.77
394.673
394.577
394.485
394.401
394.538
394.649
394.74
394.817
394.884
394.944
394.999
395.049
395.095
395.136
400
400
400
400
400
400
400
400
400
399.998
399.851
399.708
399.573
399.444
399.32
399.2
399.083
398.969
398.857
398.747
398.639
398.532
398.426
398.321
398.218
398.115
398.014
397.913
397.813
397.714
397.615
397.518
397.421
397.325
397.229
397.134
397.04
396.947
396.853
396.76
396.666
396.572
396.479
396.385
396.292
396.198
396.106
396.014
395.922
395.831
395.741
395.651
395.562
395.475
395.388
395.303
395.219
395.137
395.057
394.985
395.11
395.213
395.297
395.368
395.43
395.484
395.533
395.577
395.617
395.654
400
400
400
400
400
400
400
400
400
399.998
399.852
399.71
399.576
399.449
399.327
399.209
399.095
398.984
398.875
398.768
398.664
398.561
398.459
398.359
398.26
398.162
398.066
397.97
397.875
397.781
397.689
397.597
397.506
397.416
397.326
397.238
397.151
397.064
396.977
396.891
396.804
396.717
396.631
396.544
396.458
396.372
396.287
396.203
396.119
396.036
395.953
395.871
395.791
395.711
395.633
395.556
395.48
395.406
395.335
395.271
395.393
395.496
395.58
395.652
395.714
395.769
395.818
395.864
395.904
395.942
400
400
400
400
400
400
400
400
400
399.998
399.851
399.71
399.576
399.449
399.327
399.21
399.096
398.986
398.878
398.772
398.668
398.567
398.466
398.368
398.27
398.174
398.08
397.986
397.893
397.802
397.711
397.622
397.533
397.446
397.36
397.274
397.19
397.106
397.023
396.939
396.856
396.772
396.689
396.606
396.523
396.441
396.36
396.279
396.199
396.119
396.041
395.963
395.886
395.811
395.737
395.664
395.593
395.524
395.457
395.397
395.519
395.622
395.707
395.78
395.843
395.9
395.951
395.997
396.04
396.078
400
400
400
400
400
400
400
400
400
399.998
399.851
399.709
399.575
399.448
399.326
399.209
399.095
398.984
398.877
398.771
398.668
398.566
398.466
398.368
398.271
398.176
398.082
397.989
397.897
397.806
397.716
397.628
397.541
397.454
397.369
397.285
397.202
397.119
397.037
396.955
396.873
396.791
396.709
396.627
396.546
396.466
396.386
396.307
396.228
396.15