/*--------------------------------*- C++ -*----------------------------------*\
  =========                 |
  \\      /  F ield         | OpenFOAM: The Open Source CFD Toolbox
   \\    /   O peration     | Website:  https://openfoam.org
    \\  /    A nd           | Version:  12
     \\/     M anipulation  |
\*---------------------------------------------------------------------------*/
FoamFile
{
    format      ascii;
    class       volScalarField;
    location    "1300/air";
    object      alphat;
}
// * * * * * * * * * * * * * * * * * * * * * * * * * * * * * * * * * * * * * //

dimensions      [1 -1 -1 0 0 0 0];

internalField   nonuniform List<scalar> 
243000
(
0.000138108
0.000141818
0.000141078
0.000138479
0.000134542
0.000129775
0.000124598
0.00011931
0.000114114
0.000109166
0.000104565
0.000100431
9.68084e-05
9.37544e-05
9.12494e-05
8.93517e-05
8.81241e-05
8.7767e-05
8.84551e-05
9.01931e-05
9.26243e-05
9.5122e-05
9.69852e-05
9.75619e-05
9.64472e-05
9.33036e-05
8.83436e-05
8.2682e-05
0.000360337
0.000330837
0.000503851
0.000509746
0.000501025
0.000484352
0.000463906
0.000441908
0.000419737
0.000398227
0.000377906
0.000359136
0.00034218
0.000327272
0.000314503
0.000304111
0.000296226
0.000291298
0.000289841
0.000292725
0.000300235
0.000311919
0.000326045
0.000340307
0.000352374
0.000360224
0.000362302
0.000357459
0.000345928
0.000323504
0.000304103
0.000274739
0.000606175
0.000651251
0.00067169
0.000677215
0.000674021
0.000665202
0.000652766
0.000638033
0.000621993
0.000605375
0.00058877
0.000572795
0.000557886
0.000544839
0.000534282
0.000527534
0.000525958
0.000530986
0.000542368
0.0005582
0.000574785
0.000588275
0.000595447
0.000594048
0.000582472
0.000560101
0.000528217
0.000485321
0.000437999
0.000379868
0.000571765
0.000633363
0.000665628
0.000679872
0.000682657
0.000677905
0.00066848
0.000655813
0.000641486
0.000626155
0.000610546
0.000595428
0.000581353
0.000569293
0.000560083
0.000555415
0.000556858
0.000565698
0.000581064
0.000600289
0.000619307
0.000634412
0.000642763
0.000642537
0.000632139
0.000611025
0.000580273
0.000538691
0.000490842
0.000432552
0.000521892
0.000587219
0.000632358
0.000657274
0.000668452
0.00067038
0.000666027
0.0006576
0.000646296
0.000633624
0.000620191
0.000607101
0.000594817
0.00058456
0.000577382
0.000575367
0.000580162
0.000592844
0.00061188
0.000633925
0.000654707
0.000670781
0.000679725
0.000680152
0.000670649
0.000650786
0.000621432
0.000581865
0.000535365
0.000479565
0.000500129
0.000543295
0.000587919
0.000618329
0.000637014
0.000646593
0.000648799
0.000645709
0.000639025
0.000630207
0.000620185
0.000609709
0.000599922
0.000592106
0.000587517
0.000588595
0.000597021
0.000613594
0.000636096
0.00066064
0.000682867
0.000699617
0.000708897
0.000709714
0.000700925
0.000682247
0.000654413
0.000617145
0.000572806
0.000520257
0.000509406
0.000519423
0.000550783
0.000581065
0.000603237
0.000617038
0.000623583
0.000624544
0.000622476
0.000617994
0.000611757
0.000604744
0.000598008
0.000593061
0.000591445
0.000595914
0.000608206
0.000628737
0.000654588
0.00068147
0.000705015
0.00072235
0.000731889
0.000732997
0.000724817
0.000707235
0.000680944
0.000646015
0.000604214
0.000555066
0.000544176
0.000526812
0.000532385
0.000551366
0.000571802
0.000587695
0.000597656
0.000602256
0.000603118
0.000601276
0.000597762
0.000593988
0.000590378
0.000588474
0.00058998
0.000597989
0.000614241
0.000638732
0.000667963
0.000697138
0.000722002
0.000739958
0.000749797
0.000751206
0.000743599
0.000727039
0.000702258
0.000669596
0.000630504
0.000584636
0.000584331
0.00056548
0.000547102
0.000543717
0.000551995
0.000563593
0.000573696
0.000580325
0.000583589
0.000584184
0.000582782
0.000580556
0.000578961
0.000579578
0.000583962
0.000595408
0.000615566
0.000643845
0.00067647
0.000708127
0.000734419
0.000753136
0.000763403
0.000765195
0.000758192
0.000742618
0.000719297
0.000688821
0.000652456
0.00060966
0.000624763
0.000609259
0.000589182
0.000569146
0.000558526
0.000556692
0.000559812
0.000563897
0.000567006
0.000568564
0.000568564
0.000567614
0.000566786
0.00056822
0.000574526
0.000588836
0.00061257
0.00064481
0.000680399
0.00071454
0.000742625
0.000762366
0.000773267
0.000775589
0.000769273
0.000754697
0.000732834
0.000704413
0.000670523
0.000630674
0.000664383
0.000651856
0.000636362
0.000616618
0.000594955
0.000578372
0.000568065
0.000562776
0.000560352
0.000559127
0.000558042
0.000556898
0.000556097
0.000557197
0.00056336
0.000579214
0.00060582
0.000641427
0.000680617
0.000717101
0.000746886
0.00076795
0.000779787
0.000782846
0.000777354
0.00076384
0.00074343
0.000716819
0.000685235
0.000648199
0.000703255
0.000692865
0.000680194
0.000664909
0.000645245
0.000622454
0.000601761
0.000584844
0.0005721
0.000562967
0.000556506
0.000551994
0.000549095
0.000548648
0.000553052
0.000567996
0.000595984
0.000634332
0.000676649
0.000716129
0.000747922
0.000770308
0.000783271
0.000787312
0.000782822
0.000770501
0.000751416
0.000726535
0.000697084
0.000662827
0.000741556
0.000732571
0.00072163
0.000708519
0.000692713
0.000672233
0.000648658
0.000625253
0.000603531
0.000584659
0.000569264
0.000557489
0.000549222
0.000544825
0.000546003
0.000557277
0.000584245
0.00062401
0.000668921
0.000711268
0.000745597
0.000769909
0.000784176
0.000789295
0.000786006
0.000774914
0.000757209
0.000733982
0.000706475
0.000674745
0.000779312
0.000771125
0.000761158
0.000749213
0.000734989
0.000717874
0.000695567
0.000671412
0.000645938
0.000620553
0.00059681
0.000576161
0.000559727
0.000548527
0.000544127
0.000550326
0.000572546
0.000611411
0.000657902
0.000702773
0.000739742
0.00076637
0.000782478
0.000789027
0.000786994
0.000777334
0.000761102
0.000739499
0.000713794
0.000684387
0.000816397
0.000808517
0.000799008
0.000787646
0.000774175
0.000758239
0.00073923
0.00071575
0.000689937
0.000662236
0.000633729
0.000606081
0.000581338
0.0005617
0.000549489
0.000548581
0.000563928
0.000598211
0.000644346
0.00069106
0.000730573
0.000759711
0.000778054
0.000786455
0.00078595
0.000777853
0.000763286
0.000743353
0.000719379
0.000692119
0.000852632
0.00084467
0.000835249
0.000824107
0.000810981
0.000795556
0.000777483
0.00075563
0.000730983
0.00070347
0.000673478
0.000642128
0.000611376
0.000583997
0.000563163
0.000553488
0.000560354
0.000586945
0.00062961
0.000676748
0.000718421
0.000750182
0.000771078
0.000781689
0.000783086
0.000776708
0.000763892
0.000745753
0.000723518
0.000698277
0.000887882
0.000879489
0.000869903
0.000858754
0.000845749
0.000830559
0.000812874
0.000792222
0.000768715
0.000742062
0.000712215
0.000679666
0.000645742
0.000612898
0.00058449
0.000565709
0.000562862
0.000580231
0.000616036
0.000661013
0.000703802
0.000738003
0.000761614
0.000774763
0.00077844
0.000774077
0.000763132
0.000746891
0.000726445
0.000703153
0.000922102
0.000913059
0.000903091
0.00089177
0.000878749
0.000863662
0.000846207
0.000826489
0.000803879
0.000778065
0.000748842
0.000716317
0.000681235
0.00064532
0.000611467
0.000584739
0.000571989
0.000579191
0.000606405
0.000646322
0.000687894
0.000723703
0.000749907
0.00076578
0.000772052
0.000770021
0.000761213
0.000746971
0.000728503
0.000707201
0.000955351
0.000945554
0.000935065
0.000923461
0.000910336
0.000895299
0.000878114
0.000859236
0.000837414
0.000812341
0.000783777
0.000751658
0.000716406
0.000679084
0.000641877
0.000609137
0.000587487
0.000584141
0.000601443
0.000634693
0.000673477
0.000709212
0.000737022
0.000755263
0.000764168
0.000764713
0.000758509
0.000746684
0.000730453
0.000711183
0.000988028
0.000977331
0.000966262
0.000954343
0.000941146
0.000926306
0.000910091
0.000891949
0.000870852
0.000846432
0.000818404
0.000786651
0.000751456
0.000713484
0.000674289
0.000637378
0.000608574
0.000595263
0.000602209
0.000626956
0.000661307
0.000695844
0.000724543
0.000744824
0.000756248
0.000759382
0.000755666
0.000746235
0.00073224
0.000715016
0.00102001
0.00100897
0.000997634
0.000985682
0.000972873
0.000959267
0.000944764
0.00092761
0.000907309
0.000883461
0.000855714
0.000823966
0.000788397
0.000749593
0.000708641
0.000668654
0.000634282
0.000612244
0.000608845
0.000624265
0.000652251
0.000684146
0.000712812
0.00073457
0.000748268
0.000753948
0.00075269
0.000745629
0.000733864
0.000718693
0.00105041
0.00103949
0.00102863
0.00101758
0.00100673
0.000995233
0.000981573
0.000965219
0.000945669
0.00092249
0.000895248
0.000863785
0.00082816
0.000788849
0.000746516
0.000703634
0.00066432
0.000634819
0.000621547
0.000627001
0.000647216
0.000674915
0.000702387
0.000724878
0.000740367
0.000748407
0.000749538
0.000744838
0.0007353
0.000722198
0.00107909
0.00106851
0.00105889
0.00104999
0.00104048
0.00102964
0.00101689
0.00100161
0.000983237
0.000961284
0.000935215
0.000904784
0.000869891
0.000830822
0.000787928
0.000743157
0.000699448
0.000662985
0.000640507
0.000635913
0.000647485
0.000669045
0.000693871
0.000716134
0.000732817
0.000742855
0.000746292
0.000743897
0.000736572
0.000725556
0.00110653
0.00109743
0.00108878
0.00108014
0.00107105
0.00106097
0.0010493
0.00103541
0.00101867
0.000998533
0.00097436
0.000945835
0.000912648
0.000874848
0.000832437
0.000786867
0.000740082
0.000697078
0.000666243
0.000651665
0.000653736
0.000668147
0.00068837
0.000709065
0.000726124
0.000737618
0.000743116
0.000742898
0.000737744
0.000728834
0.00113067
0.00112178
0.0011135
0.00110544
0.00109712
0.00108805
0.00107764
0.00106531
0.00105044
0.00103245
0.00101064
0.000984678
0.000954029
0.000918558
0.000877893
0.000833031
0.000784889
0.000737664
0.000700009
0.000676148
0.00066815
0.000673852
0.000688186
0.000705481
0.00072138
0.000733431
0.000740435
0.000742188
0.000739081
0.000732241
0.00115084
0.00114193
0.00113376
0.00112592
0.00111797
0.00110957
0.00110016
0.00108922
0.00107607
0.00106016
0.00104074
0.00101748
0.000989731
0.000957412
0.000920504
0.000879162
0.000833841
0.000787283
0.000745498
0.000713794
0.000695575
0.000691109
0.000697138
0.000708833
0.000721855
0.000732939
0.000740263
0.000743146
0.000741677
0.000736619
0.00117329
0.00116333
0.00115411
0.00114567
0.00113792
0.0011306
0.00112328
0.00111534
0.00110602
0.00109454
0.00108
0.00106174
0.00103907
0.00101186
0.000979944
0.000943068
0.000901307
0.000856413
0.000812812
0.000775164
0.000747396
0.000731483
0.000726557
0.000729412
0.000736159
0.000743439
0.000748901
0.00075133
0.000750304
0.000746317
0.00121054
0.00120154
0.00119295
0.00118544
0.00117935
0.00117462
0.00117089
0.00116743
0.00116329
0.00115751
0.00114899
0.00113693
0.00112064
0.00109987
0.00107476
0.00104434
0.00100791
0.000967255
0.000925103
0.000885003
0.000850407
0.000823897
0.000806377
0.000796803
0.000792753
0.000791444
0.0007906
0.000788724
0.000784998
0.000779967
0.00129115
0.00128457
0.00127913
0.00127656
0.00127697
0.00127975
0.00128389
0.00128827
0.0012919
0.00129377
0.00129233
0.00128761
0.00127904
0.00126672
0.00125062
0.00122983
0.0012027
0.0011713
0.00113729
0.00110277
0.00106997
0.00104069
0.0010163
0.000997002
0.000981479
0.000967937
0.000955799
0.000944497
0.00093355
0.000923381
0.00156111
0.00155648
0.00155828
0.00156662
0.00157631
0.00158406
0.00159026
0.00159507
0.00159866
0.00160035
0.00159779
0.0015945
0.0015897
0.00158422
0.00157738
0.00156969
0.00155759
0.0015449
0.00153199
0.00152001
0.00150924
0.00150024
0.00149331
0.00148828
0.00148233
0.00147331
0.0014643
0.00145636
0.00145015
0.00144193
0.000173159
0.000179228
0.0001777
0.000173368
0.000167285
0.000160228
0.000152786
0.00014537
0.000138243
0.000131645
0.000125716
0.000120571
0.000116245
0.000112876
0.000110492
0.000109294
0.000109414
0.000111134
0.000114617
0.000119594
0.000125064
0.000129777
0.000132735
0.000133197
0.000130697
0.000124758
0.000115362
0.000101273
8.31276e-05
0.000372491
0.000678296
0.000752891
0.000732268
0.000677379
0.000615976
0.000558397
0.000507174
0.000462246
0.000422868
0.000389215
0.000360451
0.000336561
0.000317262
0.000303362
0.000294476
0.000292348
0.000296802
0.000308151
0.000323557
0.000340673
0.000358053
0.000374835
0.000389279
0.000397432
0.000394001
0.000378378
0.000352539
0.000316544
0.000288638
0.000301333
0.00102227
0.0011572
0.00116224
0.00111344
0.00104218
0.000965556
0.000891874
0.000823858
0.000762305
0.000708475
0.00066203
0.000623605
0.000593291
0.000573162
0.000563223
0.000567648
0.000584682
0.000611383
0.0006385
0.000661215
0.000679755
0.000696173
0.000710417
0.000716234
0.000706673
0.000676089
0.000627683
0.000559572
0.000497513
0.000463047
0.00114669
0.00132745
0.00138819
0.00137262
0.00131714
0.00124442
0.00116941
0.0010952
0.00102544
0.000962871
0.000908957
0.000864902
0.00083186
0.000813307
0.000810554
0.000830789
0.000869058
0.000916873
0.000957484
0.000984741
0.00100186
0.00101308
0.00102145
0.0010214
0.00100226
0.000958217
0.000891364
0.000799111
0.000706069
0.000640161
0.00118029
0.00137681
0.00146425
0.00148146
0.00145578
0.00140461
0.00133653
0.00126771
0.00119995
0.00113816
0.00108602
0.00104362
0.00101445
0.0010036
0.00101434
0.00105707
0.00112234
0.00119378
0.00124975
0.00128263
0.0012986
0.0013054
0.0013074
0.00130003
0.00127224
0.00121797
0.00113788
0.00102946
0.000914161
0.000825321
0.00114764
0.00130691
0.00141122
0.00146302
0.00147273
0.0014497
0.00140545
0.00135288
0.00129915
0.00124684
0.00119838
0.00116264
0.00114253
0.0011442
0.00117388
0.00124342
0.00133949
0.00143709
0.00150977
0.00154971
0.00156563
0.00156849
0.00156449
0.00155022
0.00151584
0.00145432
0.0013653
0.00124702
0.00111737
0.00101219
0.00107719
0.00118521
0.00128011
0.00134784
0.00138617
0.00139518
0.00138349
0.00135806
0.00132377
0.00128675
0.00125288
0.0012291
0.00122211
0.00123963
0.00129219
0.00139172
0.00151941
0.00164614
0.00173581
0.00178413
0.00180159
0.00180139
0.00179304
0.0017739
0.00173416
0.00166805
0.00157373
0.00145035
0.00131204
0.00119427
0.00104423
0.00108575
0.00114851
0.00121048
0.00126072
0.00129136
0.00130304
0.00130042
0.00128724
0.0012703
0.00125636
0.00124899
0.00125877
0.00129484
0.00137286
0.00150484
0.00166642
0.00182027
0.00192825
0.00198612
0.00200666
0.00200414
0.00199347
0.0019735
0.00193047
0.00186072
0.00176386
0.00163942
0.00149719
0.00136973
0.00105611
0.00103575
0.0010513
0.00108815
0.00113195
0.00116929
0.00119549
0.00121072
0.00121646
0.00121689
0.001218
0.00122913
0.00125773
0.00131445
0.00141981
0.00158566
0.00178034
0.00195765
0.00208667
0.00215583
0.0021807
0.00218004
0.0021695
0.00214891
0.0021053
0.00203492
0.00193718
0.00181497
0.00167331
0.00153731
0.00110593
0.00104234
0.00101226
0.00101317
0.00103532
0.00106369
0.00109134
0.00111458
0.00113221
0.00114605
0.00116041
0.00118269
0.00122508
0.00130344
0.0014367
0.00163656
0.00186204
0.00206474
0.00221143
0.00229553
0.00232893
0.00233312
0.00232341
0.00230294
0.00225971
0.00219122
0.00209588
0.00197641
0.00183619
0.00169514
0.00121121
0.00111647
0.00104848
0.00101134
0.00100007
0.00100558
0.00102108
0.0010399
0.001059
0.00107791
0.00109919
0.00112845
0.0011766
0.00126706
0.00142723
0.00166043
0.00192525
0.00214723
0.00230816
0.0024077
0.00245516
0.00246508
0.00245762
0.00243865
0.00239662
0.00233108
0.00223961
0.00212223
0.00198507
0.0018427
0.0013767
0.00126883
0.00117457
0.00110205
0.00105304
0.00102509
0.00101387
0.0010145
0.00102171
0.00103406
0.0010526
0.00108131
0.00112961
0.00121916
0.00139596
0.00166014
0.00195491
0.00221466
0.0023915
0.00250261
0.00255929
0.00257776
0.00257426
0.0025581
0.00251821
0.00245516
0.00236639
0.00225323
0.00212091
0.00198227
0.00160397
0.00149804
0.00139017
0.00129077
0.00120767
0.00114276
0.00109565
0.00106416
0.00104555
0.00103732
0.00103993
0.00105689
0.00109691
0.00118024
0.00135403
0.0016401
0.00196156
0.00225064
0.00246097
0.00258737
0.00265165
0.00267438
0.002676
0.00266336
0.00262681
0.00256556
0.00247981
0.00237217
0.00224469
0.00211208
0.00188209
0.00178779
0.00167881
0.00156549
0.00145792
0.00136093
0.00127673
0.0012064
0.00114997
0.00110787
0.00108099
0.00107328
0.00109263
0.00116081
0.00131741
0.00160621
0.00194903
0.00226118
0.00249969
0.00265327
0.00273367
0.00276454
0.00276665
0.00275668
0.00272335
0.00266466
0.00258231
0.00247991
0.00235817
0.00223244
0.00219409
0.00211677
0.00201614
0.00190047
0.00177974
0.00166003
0.00154519
0.00143807
0.00134128
0.00125723
0.00119009
0.00114551
0.00113296
0.00117277
0.00130429
0.00157333
0.00192163
0.00225409
0.00251498
0.00269125
0.00279103
0.00283535
0.00284567
0.00283554
0.00280794
0.00275423
0.00267613
0.00257894
0.00246476
0.00234749
0.00251759
0.00246386
0.0023759
0.00226618
0.00214265
0.00201083
0.00187534
0.00173954
0.00160721
0.0014826
0.00137119
0.0012825
0.00122783
0.00122865
0.00132405
0.00155596
0.0018899
0.00223276
0.0025141
0.00271236
0.00283087
0.00289113
0.00291284
0.00290758
0.00288289
0.00283403
0.00276269
0.00267375
0.00256928
0.00246047
0.00283361
0.00280095
0.00273562
0.0026374
0.00251913
0.00238472
0.00223846
0.00208405
0.00192531
0.00176709
0.00161597
0.00148251
0.00138113
0.00133658
0.00138439
0.00156711
0.00186712
0.00220298
0.00249854
0.00271778
0.0028564
0.00293401
0.00296912
0.00297229
0.00295429
0.0029113
0.00284879
0.00276864
0.00267339
0.0025728
0.00313828
0.00312275
0.00307636
0.00299508
0.00288772
0.00275765
0.00260866
0.00244465
0.00226904
0.00208662
0.001904
0.00173197
0.00158621
0.00149383
0.00149027
0.0016167
0.00186709
0.00217756
0.00247231
0.00270815
0.00286873
0.00296465
0.0030158
0.00303198
0.00302369
0.00299099
0.00293657
0.00286492
0.00277828
0.00268609
0.00342518
0.00342229
0.00339085
0.00332643
0.00323132
0.00310906
0.00296248
0.00279527
0.00261053
0.00241266
0.00220798
0.00200679
0.0018247
0.00168959
0.00163505
0.0017024
0.00189599
0.00216676
0.00244665
0.0026891
0.00286712
0.002983
0.0030523
0.00308512
0.00308897
0.00306818
0.00302288
0.00296048
0.002881
0.00279759
0.00368454
0.00369046
0.00366944
0.00361705
0.00353316
0.00341878
0.00327637
0.0031091
0.00291997
0.00271311
0.00249456
0.00227409
0.0020668
0.00189911
0.00180055
0.00181227
0.00194693
0.00217548
0.00243065
0.00266644
0.00285286
0.00298488
0.00307117
0.00311955
0.00313866
0.0031335
0.00310236
0.00305298
0.00298311
0.00290832
0.00391111
0.00391549
0.00389787
0.00385164
0.00377375
0.00366392
0.00352398
0.00335655
0.00316463
0.00295221
0.00272563
0.0024944
0.0022734
0.00208614
0.00195591
0.00191857
0.00200312
0.00218084
0.00241242
0.0026375
0.00282079
0.00296296
0.00306648
0.00313315
0.00317063
0.00318146
0.00317068
0.003136
0.00307969
0.00301515
0.00410393
0.00409825
0.00407417
0.00402448
0.00394508
0.00383544
0.00369604
0.00352801
0.00333361
0.00311678
0.00288455
0.00264675
0.00241768
0.00221799
0.00206422
0.00199108
0.00202602
0.00216175
0.00235798
0.00256961
0.0027667
0.0029249
0.00304184
0.00312378
0.00317343
0.00319967
0.00320726
0.00319136
0.00315331
0.0031056
0.00425166
0.00423103
0.00419435
0.00413435
0.00404852
0.00393523
0.00379314
0.00362171
0.00342274
0.00320094
0.00296444
0.0027237
0.00249177
0.00228511
0.0021168
0.0020118
0.00199612
0.00208331
0.00224313
0.00243624
0.00263148
0.00280318
0.00294162
0.00304685
0.00312133
0.00317063
0.00320306
0.00321112
0.00319631
0.00317171
0.00433177
0.00429337
0.00423849
0.00416612
0.00407223
0.0039536
0.00380703
0.00363094
0.00342802
0.003205
0.00297125
0.00273727
0.00251306
0.00230865
0.00213825
0.00200805
0.00194129
0.00196356
0.00206308
0.00221982
0.00240082
0.00258015
0.00274069
0.00287504
0.00298108
0.00306393
0.00312854
0.00316858
0.00318509
0.00318871
0.00430865
0.00424948
0.00418081
0.00409958
0.0040015
0.00388115
0.00373413
0.00356011
0.00336466
0.00315666
0.00294471
0.00273784
0.00254053
0.00235686
0.00219788
0.00205878
0.00195086
0.00190222
0.00191668
0.00199344
0.0021181
0.00227173
0.00243284
0.00258537
0.00272232
0.00284186
0.00294217
0.00302079
0.00307645
0.00311495
0.0041318
0.00406919
0.00400192
0.00392677
0.00383863
0.00373157
0.00360238
0.00345349
0.00329241
0.00312723
0.00296158
0.0028007
0.00264568
0.0024993
0.00236614
0.00223632
0.00210895
0.00200942
0.00194726
0.00193026
0.00195952
0.00203038
0.0021326
0.00225328
0.0023815
0.00250892
0.00262875
0.00273566
0.00282529
0.00289811
0.00381313
0.00377347
0.00373603
0.00369565
0.00364333
0.00357346
0.00348563
0.00338415
0.00327553
0.00316546
0.00305558
0.00294583
0.00283307
0.00272412
0.00262373
0.00251798
0.00239991
0.00228826
0.00219073
0.00211542
0.00206796
0.00205104
0.00206415
0.00210357
0.00216372
0.00223852
0.00232173
0.00240728
0.00248915
0.0025683
0.00351418
0.00351258
0.0035227
0.00353205
0.00352395
0.0034967
0.00345291
0.0033958
0.00332993
0.00326053
0.00318906
0.00311515
0.00303633
0.00295673
0.00288372
0.00280535
0.0027158
0.00262411
0.0025355
0.0024559
0.00238982
0.00233936
0.00230616
0.00228965
0.00228749
0.00229718
0.00231643
0.00234292
0.0023742
0.00242117
0.00335281
0.00336425
0.00339286
0.00342162
0.00343716
0.00343649
0.00342011
0.00338915
0.00334899
0.00330356
0.00325345
0.00319869
0.00313999
0.00308089
0.00302568
0.00296726
0.00290705
0.00284509
0.0027872
0.00273659
0.00269678
0.0026671
0.00264886
0.00264009
0.00263765
0.0026395
0.00264533
0.00265426
0.00266821
0.00269565
0.00326409
0.00328596
0.0033131
0.00333574
0.00334629
0.00334459
0.00333238
0.00331149
0.00328432
0.00325299
0.00321693
0.00317732
0.00313421
0.00309156
0.00304872
0.00300907
0.00297294
0.00294016
0.00291446
0.00289837
0.00289287
0.00289974
0.00291504
0.00293565
0.00295742
0.00297852
0.00300124
0.00302354
0.00304222
0.00304993
0.000205866
0.000211071
0.000207083
0.000201
0.000193311
0.000184644
0.000175598
0.00016664
0.000158099
0.000150248
0.000143206
0.000137122
0.000132054
0.000128218
0.000125685
0.000124804
0.000125781
0.000129197
0.000135568
0.000144277
0.000153183
0.000160235
0.000164324
0.000164884
0.000161633
0.000154105
0.000142085
0.000124167
0.000101868
9.10563e-05
0.00087694
0.000988339
0.000991563
0.000930503
0.000852181
0.000775453
0.00070665
0.000646365
0.000594006
0.000549298
0.000511141
0.000480089
0.000455226
0.000438183
0.000427354
0.000426024
0.000431881
0.000446783
0.000467812
0.000494296
0.000524904
0.00055539
0.000580396
0.000592188
0.000583382
0.000550133
0.000499794
0.000435721
0.000378984
0.000327103
0.00136397
0.00156882
0.00161614
0.00156632
0.00147725
0.00137616
0.00127647
0.00118446
0.00110191
0.00102994
0.000968153
0.000918438
0.000880644
0.000858578
0.000850816
0.000863895
0.000888847
0.000920488
0.000947946
0.000973554
0.00100431
0.00103738
0.00106705
0.00107886
0.00105394
0.000996288
0.000906509
0.000787452
0.000670764
0.000570811
0.00167842
0.00192646
0.00200056
0.00197339
0.00189787
0.00179933
0.0016931
0.00159076
0.00149624
0.00141204
0.0013396
0.00128296
0.00124373
0.00122779
0.0012358
0.0012769
0.00133088
0.00138133
0.00141114
0.00143383
0.00145794
0.00148119
0.00150566
0.00151169
0.00147875
0.0014019
0.00128371
0.00112669
0.000963348
0.000820768
0.00186015
0.00208545
0.00218708
0.00219868
0.00214812
0.00206437
0.0019635
0.00186629
0.00177355
0.00168839
0.00161524
0.00156137
0.00152985
0.00152855
0.00156214
0.00164001
0.0017262
0.00179327
0.00182351
0.00183407
0.00184942
0.00186854
0.00188486
0.00188617
0.00184789
0.00176046
0.00162614
0.00144558
0.00125102
0.00107454
0.00197126
0.00216157
0.00225791
0.00228439
0.00226102
0.00220161
0.00212884
0.00203823
0.00194894
0.00187079
0.00180438
0.00176245
0.00174625
0.00176685
0.00183555
0.00195543
0.00207398
0.00215321
0.00218145
0.00218324
0.00218687
0.00219781
0.00220867
0.00220682
0.00216745
0.00207578
0.00193465
0.00174328
0.00152953
0.001328
0.00203055
0.00214366
0.00221552
0.00225047
0.00225104
0.00222315
0.00217244
0.00210586
0.00203648
0.00197379
0.00192531
0.00189616
0.0019015
0.0019512
0.00206258
0.00222743
0.0023784
0.00246519
0.00248944
0.00248456
0.00247817
0.00247847
0.00248498
0.00248078
0.00244196
0.00235398
0.00221249
0.00201999
0.00179882
0.0015772
0.00201868
0.00205
0.00209375
0.00212902
0.00214725
0.00214457
0.00212306
0.00208664
0.00204478
0.00200539
0.00197762
0.00197212
0.00200364
0.00209014
0.00224847
0.00246066
0.00264228
0.00273442
0.00275403
0.00274392
0.00272956
0.00271951
0.00272231
0.00271558
0.00267794
0.00259666
0.0024633
0.00227808
0.00205453
0.0018186
0.00199018
0.00195874
0.00196468
0.00198415
0.0020064
0.00202034
0.00202146
0.00201064
0.00199256
0.00197658
0.00197516
0.0019986
0.00206026
0.00218614
0.00239843
0.00265903
0.00286772
0.00296625
0.00298203
0.00296816
0.00294707
0.00292964
0.00292861
0.00291818
0.00288203
0.00280864
0.00268904
0.00251002
0.00228942
0.00204863
0.0019939
0.00190456
0.00186631
0.00185682
0.00186673
0.00188348
0.00189806
0.00190641
0.00191016
0.00191527
0.00193349
0.00198301
0.0020783
0.00225121
0.00251849
0.00282411
0.00305834
0.00316475
0.00318023
0.00316321
0.00313515
0.00311478
0.00311024
0.00309609
0.00306067
0.00299527
0.00288254
0.00271624
0.00250435
0.00226762
0.00206666
0.00194563
0.00183989
0.00178601
0.00176807
0.00177165
0.00178588
0.00180312
0.00182131
0.00184278
0.00187752
0.00194301
0.00206686
0.0022898
0.00261028
0.00296137
0.00321889
0.00333422
0.00335373
0.00333334
0.00330114
0.00328011
0.00327205
0.00325488
0.00322104
0.00315619
0.00305097
0.00289923
0.00270002
0.00247628
0.00217284
0.00203598
0.00190635
0.00180848
0.00174766
0.00172434
0.00172295
0.00173475
0.00175467
0.00178261
0.00182661
0.00190346
0.00204185
0.00231085
0.00268412
0.00307276
0.00334686
0.00347411
0.0035013
0.00347923
0.00345239
0.00343113
0.0034193
0.00339972
0.00336343
0.00329946
0.00320063
0.00306166
0.00287883
0.00267294
0.00234491
0.0021991
0.00205679
0.00192988
0.00183448
0.00177584
0.00174494
0.00173572
0.00174161
0.0017617
0.00180321
0.00188234
0.00202779
0.00232372
0.00274336
0.00316105
0.00344338
0.00358269
0.00362029
0.00361337
0.00358954
0.00357084
0.00355596
0.00353462
0.00349511
0.00343145
0.003338
0.0032107
0.00304817
0.00285981
0.00259369
0.00246084
0.00231159
0.00216657
0.00204317
0.00194791
0.00187838
0.00183367
0.00180981
0.0018056
0.00183031
0.00189922
0.00204331
0.00234629
0.00279547
0.0032376
0.00352464
0.00367003
0.00372651
0.00373468
0.0037166
0.00370178
0.00368678
0.00366232
0.00362039
0.00355753
0.00346959
0.00335658
0.00321094
0.00303858
0.00291777
0.00279806
0.00265477
0.00250497
0.00236368
0.00223624
0.00212656
0.00203902
0.00197403
0.00193291
0.00192419
0.0019636
0.00209851
0.002395
0.00284702
0.00329934
0.00359887
0.00375689
0.00382683
0.00384528
0.00383526
0.00382545
0.00381149
0.003786
0.00374354
0.00368253
0.00360485
0.00350315
0.0033699
0.00321015
0.00328594
0.00318732
0.00305896
0.00291466
0.00276262
0.00261109
0.00246692
0.00233769
0.00222785
0.00214232
0.00209241
0.00209595
0.00220262
0.00246898
0.00290669
0.00335354
0.00366352
0.00384046
0.00392627
0.00395565
0.00395202
0.00394364
0.00393125
0.00390778
0.00386798
0.0038155
0.0037463
0.00365234
0.00352683
0.00337701
0.00368163
0.00360349
0.00349329
0.00335543
0.00319882
0.00303155
0.00286162
0.00269723
0.00254583
0.0024159
0.00232155
0.00228529
0.00234967
0.00258375
0.00297898
0.00340896
0.00371401
0.0039052
0.00400737
0.00404995
0.00405703
0.00405713
0.00404862
0.00403398
0.00400257
0.00395822
0.00389326
0.00380524
0.00368501
0.003543
0.00408448
0.00402217
0.00392544
0.0037944
0.00363667
0.00345953
0.00327092
0.00307914
0.00289293
0.00272304
0.0025859
0.00250801
0.00252508
0.00271457
0.00305534
0.00344514
0.00375646
0.00395353
0.00406832
0.00412719
0.00414854
0.00415985
0.00416382
0.00415676
0.00413596
0.00410251
0.00404759
0.00396173
0.00384567
0.00371114
0.00447463
0.00442096
0.00433199
0.00420538
0.00404706
0.00386318
0.00366078
0.00344774
0.00323308
0.00302859
0.00285221
0.00273209
0.00270344
0.00283485
0.00311678
0.00346251
0.00376023
0.00397438
0.00410909
0.00418631
0.00422316
0.00423894
0.00425435
0.00426045
0.00425871
0.00424232
0.00419631
0.00411712
0.00400619
0.00388215
0.00483273
0.00477997
0.00469251
0.00456658
0.0044065
0.00421674
0.00400314
0.00377251
0.00353364
0.00329876
0.00308659
0.00292529
0.00285239
0.00291487
0.00313635
0.00343299
0.00371264
0.00393115
0.00408512
0.00418473
0.00424151
0.00427712
0.00430615
0.00432833
0.00434086
0.00434172
0.00431504
0.00425373
0.00415731
0.00404582
0.00513847
0.00507927
0.00498763
0.0048587
0.00469491
0.00449892
0.00427492
0.00402844
0.00376786
0.00350583
0.0032616
0.00306222
0.00294414
0.00294117
0.00309407
0.00333414
0.00358929
0.00380707
0.00397408
0.00409731
0.00418297
0.0042453
0.00429763
0.00434171
0.00437323
0.00439013
0.00438335
0.0043443
0.00427553
0.00418489
0.00536797
0.00529793
0.00519814
0.00506345
0.00489441
0.00469177
0.00445799
0.00419723
0.0039181
0.00363425
0.00336552
0.00313709
0.00298114
0.00292359
0.00300055
0.00317569
0.00338257
0.00358311
0.00375788
0.0039027
0.00401822
0.00411357
0.00419841
0.00427152
0.00433066
0.00437284
0.00439157
0.00437767
0.00433649
0.00427567
0.00549663
0.00541293
0.00530351
0.00516258
0.00498883
0.00478118
0.00454081
0.00427082
0.00398147
0.0036884
0.00341178
0.00317352
0.0029983
0.00290439
0.002913
0.00301088
0.00314905
0.00330402
0.00345968
0.00360688
0.00374228
0.00386572
0.00398145
0.00408824
0.00418253
0.00425955
0.00431289
0.00433438
0.00432592
0.00430105
0.0054971
0.00540083
0.00528475
0.00514163
0.00496841
0.0047629
0.00452616
0.0042601
0.00397887
0.00370005
0.00344216
0.00322134
0.0030525
0.0029452
0.00290814
0.00293306
0.00299394
0.00307735
0.00317691
0.00328793
0.00340672
0.00353057
0.00365905
0.00378884
0.00391391
0.00402676
0.00411887
0.00418265
0.0042157
0.00422187
0.0053509
0.00524899
0.00513672
0.00500288
0.00484374
0.00465522
0.00443869
0.0042013
0.00395771
0.00372373
0.00351257
0.00333277
0.00319053
0.00308863
0.00303025
0.00300698
0.00299847
0.00300537
0.00302934
0.00307243
0.00313546
0.00321778
0.00331908
0.0034365
0.00356354
0.00369075
0.00380683
0.00390255
0.00397185
0.00401022
0.00507545
0.00497842
0.00488456
0.00477991
0.00465768
0.00451133
0.00434301
0.0041615
0.00397967
0.00380881
0.00365593
0.00352371
0.00341351
0.00332505
0.00325997
0.00321028
0.00315662
0.00310853
0.00307076
0.00304834
0.00304514
0.00306308
0.00310436
0.00316953
0.003255
0.00335331
0.00345322
0.00354487
0.003621
0.0036759
0.00473964
0.00467251
0.00461976
0.00457011
0.00450729
0.00441951
0.00431179
0.00419211
0.00407079
0.00395547
0.00384958
0.00375353
0.00366726
0.00358983
0.00352249
0.00345739
0.00338158
0.00330762
0.00324078
0.00318493
0.0031429
0.00311524
0.00310578