/*--------------------------------*- C++ -*----------------------------------*\
  =========                 |
  \\      /  F ield         | OpenFOAM: The Open Source CFD Toolbox
   \\    /   O peration     | Website:  https://openfoam.org
    \\  /    A nd           | Version:  12
     \\/     M anipulation  |
\*---------------------------------------------------------------------------*/
FoamFile
{
    format      ascii;
    class       volScalarField;
    location    "1300/air";
    object      epsilon;
}
// * * * * * * * * * * * * * * * * * * * * * * * * * * * * * * * * * * * * * //

dimensions      [0 2 -3 0 0 0 0];

internalField   nonuniform List<scalar> 
243000
(
1.94635
2.45557
2.80461
3.06253
3.2239
3.298
3.30001
3.24518
3.14678
3.01673
2.86541
2.70589
2.54465
2.38886
2.24004
2.10428
1.98698
1.90136
1.85568
1.84709
1.85137
1.83082
1.75012
1.58965
1.35764
1.07796
0.797927
0.154011
0.133882
0.105357
1.16054
1.39907
1.54103
1.60745
1.62099
1.59689
1.5468
1.47916
1.40038
1.31581
1.22982
1.14652
1.06814
0.998188
0.938418
0.893154
0.866504
0.865113
0.890469
0.937898
0.991431
1.02927
1.0307
0.982517
0.883628
0.744184
0.587752
0.425501
0.299187
0.189336
1.03751
1.2879
1.41397
1.45004
1.42959
1.37413
1.29842
1.21238
1.12321
1.0356
0.952801
0.877519
0.811064
0.755905
0.713376
0.687472
0.682345
0.703231
0.750457
0.818738
0.893961
0.957943
0.99269
0.984874
0.927692
0.824376
0.691354
0.536844
0.3943
0.257249
0.868394
1.18179
1.37336
1.46411
1.48286
1.45219
1.39257
1.3148
1.23069
1.14469
1.06143
0.984826
0.917069
0.861784
0.821432
0.802179
0.809853
0.850597
0.923206
1.01874
1.11876
1.20209
1.24929
1.24691
1.18638
1.07074
0.916764
0.733466
0.55476
0.379743
0.662754
0.938537
1.17372
1.31945
1.38875
1.40129
1.37451
1.32338
1.25656
1.18434
1.11114
1.04265
0.981253
0.932204
0.899371
0.89148
0.915806
0.979221
1.07838
1.20025
1.32237
1.42156
1.47815
1.4797
1.41736
1.29424
1.12639
0.92446
0.719912
0.51753
0.587195
0.74603
0.943769
1.09795
1.1988
1.25399
1.26736
1.24993
1.21192
1.16296
1.10887
1.05445
1.00539
0.967714
0.946807
0.953939
0.997868
1.08584
1.21192
1.359
1.50108
1.61363
1.67755
1.68199
1.61892
1.49187
1.31594
1.10335
0.881992
0.660883
0.626759
0.657333
0.778548
0.911881
1.01855
1.08953
1.12448
1.12989
1.11792
1.09435
1.06221
1.02705
0.994213
0.971128
0.964954
0.989353
1.05477
1.16836
1.3211
1.49221
1.65264
1.77692
1.84704
1.85397
1.79109
1.66269
1.48324
1.26604
1.03554
0.802843
0.766906
0.694015
0.709651
0.78317
0.869785
0.94239
0.990145
1.0128
1.01658
1.00735
0.989572
0.971655
0.955077
0.947366
0.95665
0.998944
1.08608
1.22501
1.40414
1.59814
1.77579
1.91099
1.98699
1.99667
1.93502
1.80726
1.62773
1.41044
1.17713
0.938436
0.950351
0.864132
0.779661
0.759645
0.789035
0.835556
0.878448
0.907596
0.921878
0.924202
0.917308
0.907071
0.899751
0.903798
0.9265
0.985172
1.09272
1.25464
1.45886
1.67561
1.8699
2.01597
2.09828
2.1115
2.05236
1.92702
1.75005
1.53618
1.30502
1.06461
1.1616
1.0803
0.98117
0.882593
0.829406
0.815415
0.823785
0.838041
0.849189
0.854411
0.853326
0.848537
0.844568
0.851125
0.881374
0.952013
1.07627
1.26024
1.48479
1.7223
1.93434
2.09218
2.18195
2.20003
2.14495
2.02379
1.85175
1.64377
1.4172
1.17908
1.39675
1.32245
1.23401
1.12799
1.01287
0.927361
0.87353
0.843792
0.827946
0.81856
0.810932
0.80398
0.799263
0.803437
0.830735
0.905432
1.04052
1.24035
1.48653
1.74157
1.96885
2.13982
2.23902
2.26381
2.21468
2.09953
1.93443
1.7332
1.5134
1.28078
1.65643
1.58731
1.50519
1.40983
1.29441
1.16289
1.04926
0.959518
0.893065
0.84555
0.811871
0.788271
0.773028
0.769207
0.787175
0.853818
0.99029
1.19948
1.46104
1.73531
1.97808
2.16083
2.27069
2.30434
2.26327
2.1564
1.99876
1.80577
1.59425
1.37018
1.94204
1.87544
1.7958
1.70298
1.59533
1.4642
1.31714
1.1794
1.0583
0.957862
0.878903
0.820086
0.779399
0.757193
0.759877
0.80761
0.933045
1.14191
1.41191
1.70108
1.96092
2.15893
2.27998
2.32345
2.29261
2.19522
2.04677
1.86311
1.66065
1.44634
2.25408
2.18675
2.10595
2.01126
1.90192
1.77576
1.62151
1.4599
1.30038
1.15159
1.02099
0.913753
0.832327
0.778314
0.755859
0.780017
0.878927
1.07445
1.3438
1.64178
1.91653
2.13098
2.26706
2.32277
2.3032
2.21758
2.08005
1.90682
1.714
1.51025
2.59149
2.51992
2.43468
2.33488
2.21973
2.08821
1.93838
1.76278
1.58141
1.39962
1.22573
1.06932
0.939121
0.841886
0.783248
0.775897
0.841779
1.00717
1.26315
1.56214
1.84765
2.0777
2.23072
2.30209
2.29586
2.22401
2.09975
1.9383
1.75586
1.56314
2.95218
2.87268
2.77997
2.6725
2.54908
2.40865
2.25062
2.06901
1.87586
1.67404
1.46982
1.27317
1.09616
0.951171
0.848067
0.800796
0.828533
0.952799
1.17943
1.4683
1.75858
2.00243
2.17334
2.26264
2.27297
2.21611
2.10671
1.95881
1.78779
1.60648
3.33384
3.24228
3.13946
3.02227
2.88896
2.73799
2.5687
2.38005
2.17661
1.96001
1.73442
1.50784
1.29213
1.10213
0.951902
0.858811
0.842741
0.922428
1.10595
1.36953
1.6551
1.90853
2.09657
2.20532
2.23495
2.19569
2.10231
1.96956
1.81115
1.64172
3.73466
3.62764
3.5118
3.38304
3.23861
3.07619
2.8949
2.69863
2.48468
2.25455
2.01146
1.76159
1.51526
1.28666
1.09188
0.951354
0.887298
0.919827
1.05643
1.28135
1.54703
1.8018
2.00368
2.1319
2.18271
2.16363
2.08849
1.9721
1.82786
1.67115
4.15419
4.029
3.89769
3.75567
3.59909
3.42488
3.23237
3.02936
2.80544
2.56206
2.3023
2.03159
1.75933
1.49788
1.26325
1.0771
0.963647
0.945695
1.03242
1.2148
1.45305
1.69719
1.90377
2.04711
2.11867
2.12103
2.06772
1.97082
1.84359
1.7004
4.59658
4.44952
4.30099
4.14486
3.97636
3.79203
3.59578
3.38643
3.15284
2.89578
2.61818
2.32559
2.02742
1.73504
1.46346
1.23431
1.07249
1.00238
1.03791
1.17231
1.37712
1.60465
1.81056
1.96533
2.05524
2.07867
2.04609
1.96855
1.85825
1.72895
5.05753
4.89671
4.73488
4.56809
4.39349
4.21157
4.02476
3.8104
3.56615
3.29244
2.99182
2.67083
2.33942
2.01024
1.6973
1.42457
1.21462
1.09158
1.07379
1.15864
1.32277
1.52685
1.72608
1.88738
1.9928
2.03616
2.0237
1.96521
1.87188
1.75677
5.52332
5.35392
5.18883
5.02437
4.86526
4.7018
4.51194
4.29084
4.03564
3.746
3.42342
3.07439
2.70881
2.34038
1.98261
1.65926
1.3952
1.21705
1.14301
1.17484
1.29368
1.46754
1.6535
1.81584
1.93246
1.99361
2.0002
1.96057
1.88426
1.78375
5.988
5.8141
5.65821
5.51671
5.36931
5.20412
5.01385
4.79159
4.53272
4.23545
3.89938
3.53
3.13612
2.73126
2.3288
1.95321
1.62783
1.38597
1.25071
1.22594
1.29611
1.43101
1.59596
1.7531
1.8762
1.95177
1.97633
1.95492
1.89558
1.81003
6.45596
6.29761
6.15059
6.00565
5.85559
5.69192
5.50623
5.29037
5.03748
4.74379
4.40644
4.02935
3.61857
3.18597
2.74359
2.31641
1.92692
1.61007
1.40682
1.31887
1.33404
1.42607
1.55987
1.70368
1.82748
1.91305
1.95333
1.94899
1.90632
1.8361
6.8885
6.72721
6.57908
6.43703
6.29259
6.13738
5.96246
5.75953
5.52075
5.24076
4.91421
4.54355
4.13072
3.68533
3.2156
2.7462
2.29651
1.90609
1.63007
1.47169
1.42339
1.46278
1.55943
1.67957
1.79401
1.8829
1.93455
1.9454
1.91851
1.86353
7.26286
7.09536
6.94379
6.80025
6.65657
6.50678
6.34179
6.15331
5.93188
5.67109
5.36353
5.01005
4.60956
4.17086
3.70331
3.2243
2.74989
2.31431
1.9663
1.72882
1.60363
1.57663
1.62062
1.70421
1.79891
1.88098
1.93513
1.955
1.94062
1.89877
7.69149
7.49659
7.31897
7.15902
7.01384
6.8785
6.7446
6.60127
6.43554
6.23511
5.98769
5.6866
5.3276
4.91765
4.46344
3.97556
3.4688
2.97533
2.54468
2.20999
1.98501
1.8654
1.83172
1.85539
1.9076
1.96352
2.00483
2.02176
2.01064
1.97612
8.44246
8.25403
8.07707
7.92424
7.8013
7.70642
7.63142
7.56182
7.4793
7.36554
7.20084
6.97323
6.67432
6.30684
5.88111
5.39257
4.84541
4.28128
3.74612
3.28211
2.916
2.65657
2.49545
2.41117
2.37645
2.36484
2.35604
2.33724
2.30174
2.25514
10.2243
10.0662
9.93673
9.87472
9.88182
9.94364
10.0374
10.1369
10.2188
10.2587
10.2199
10.1035
9.89868
9.61137
9.24547
8.78854
8.21727
7.58908
6.94697
6.33513
5.78941
5.33107
4.96951
4.69548
4.48217
4.30035
4.14039
3.99397
3.85469
3.72769
17.9347
17.7736
17.8356
18.1235
18.4592
18.7298
18.9467
19.1152
19.2405
19.2974
19.1993
19.0768
18.9008
18.7027
18.4582
18.187
17.769
17.3381
16.9071
16.5142
16.1665
15.8798
15.6612
15.5031
15.3177
15.0385
14.7624
14.521
14.3324
14.0875
3.84112
4.96141
5.61041
6.0161
6.20451
6.21526
6.09296
5.87834
5.60303
5.29848
4.98749
4.68963
4.41322
4.17653
3.98509
3.85981
3.81246
3.86986
4.0459
4.31262
4.56084
4.65016
4.48532
4.0426
3.37438
2.57193
1.77001
1.03743
0.588003
0.116303
2.62189
3.00537
3.22661
3.34816
3.36655
3.29481
3.15725
2.97851
2.77999
2.57782
2.38566
2.2126
2.06405
1.94666
1.86811
1.84105
1.87944
2.00137
2.2196
2.51445
2.8083
2.99954
3.0166
2.84332
2.51082
2.05991
1.56319
1.05937
0.662029
0.347976
2.30565
2.597
2.74896
2.81657
2.81002
2.73773
2.61488
2.45927
2.2874
2.11389
1.95009
1.80384
1.68016
1.58561
1.52783
1.52125
1.58007
1.72141
1.95384
2.25715
2.56394
2.78622
2.85754
2.76047
2.50805
2.14177
1.71624
1.26193
0.869958
0.539417
2.04687
2.29956
2.44272
2.50966
2.51283
2.45853
2.35874
2.22773
2.0801
1.92956
1.78699
1.65987
1.55332
1.47454
1.43183
1.4417
1.51854
1.67772
1.92262
2.22893
2.5337
2.76287
2.85656
2.79419
2.58797
2.26718
1.88151
1.45249
1.06518
0.718365
1.758
1.97971
2.1257
2.2096
2.23755
2.2125
2.14202
2.03966
1.91853
1.79167
1.6702
1.56239
1.47362
1.41166
1.38585
1.41448
1.51161
1.69165
1.94961
2.2579
2.55689
2.78129
2.88196
2.8405
2.66442
2.37675
2.02146
1.61561
1.23701
0.886266
1.39663
1.57789
1.74222
1.86036
1.92698
1.93927
1.90542
1.8376
1.74798
1.64856
1.55058
1.46349
1.39417
1.35108
1.3445
1.39429
1.51444
1.71495
1.98517
2.29405
2.58536
2.80159
2.90284
2.87391
2.71866
2.45833
2.12954
1.74861
1.38294
1.03808
1.08352
1.19708
1.3458
1.47798
1.57613
1.62537
1.63384
1.60722
1.55367
1.4854
1.4146
1.35089
1.30265
1.28026
1.29447
1.36742
1.51341
1.73362
2.01562
2.32398
2.6065
2.81346
2.91111
2.88795
2.74898
2.51158
2.20704
1.85225
1.50382
1.17156
0.939379
0.948589
1.04274
1.1559
1.26021
1.33187
1.36668
1.3689
1.34457
1.3051
1.26276
1.22366
1.19765
1.1966
1.23205
1.32936
1.50033
1.74253
2.0353
2.34247
2.61622
2.81469
2.90647
2.88293
2.75586
2.53974
2.25804
1.92914
1.60029
1.28411
0.900276
0.843987
0.863739
0.928423
1.00968
1.07923
1.12665
1.14951
1.1492
1.13207
1.10792
1.08871
1.08327
1.10202
1.15833
1.28007
1.47528
1.7405
2.04256
2.34836
2.61427
2.80176
2.8868
2.86395
2.74536
2.5462
2.28687
1.98322
1.6749
1.37594
0.935558
0.844296
0.813547
0.823701
0.862893
0.90677
0.945362
0.971648
0.982768
0.981075
0.971371
0.962469
0.967958
1.00186
1.0767
1.22041
1.43771
1.72131
2.03465
2.33919
2.59584
2.77261
2.853
2.83181
2.72168
2.53712
2.29802
2.01855
1.73067
1.44886
1.0288
0.924483
0.868415
0.84242
0.835079
0.838982
0.851527
0.862834
0.869189
0.869086
0.864171
0.859884
0.866745
0.904302
0.991805
1.15275
1.38842
1.68526
2.00668
2.31043
2.55894
2.72841
2.80584
2.78748
2.68654
2.51678
2.29499
2.03869
1.77066
1.50536
1.18985
1.08575
1.01737
0.965898
0.923166
0.887551
0.861138
0.842998
0.827637
0.813093
0.799906
0.790574
0.79263
0.821264
0.910033
1.08075
1.329
1.63505
1.95927
2.26067
2.50384
2.66971
2.74635
2.73256
2.64215
2.48732
2.28307
2.0475
1.79809
1.54858
1.42383
1.3251
1.24794
1.17516
1.10528
1.03718
0.972918
0.915589
0.86702
0.82457
0.789404
0.763283
0.751335
0.766443
0.84055
1.00945
1.26208
1.57187
1.89629
2.19427
2.43343
2.59705
2.6755
2.66828
2.58977
2.45043
2.26398
2.04696
1.81564
1.58145
1.72396
1.62386
1.53789
1.45019
1.36007
1.26619
1.16941
1.07388
0.984264
0.905041
0.83732
0.783468
0.748377
0.74264
0.792171
0.944784
1.19114
1.49755
1.8183
2.11201
2.34848
2.5117
2.59436
2.59575
2.53009
2.40727
2.23921
2.04056
1.82574
1.60673
2.06875
1.96385
1.86984
1.76981
1.66306
1.54781
1.42445
1.29584
1.16867
1.04807
0.941723
0.852671
0.786382
0.752619
0.773546
0.894706
1.12105
1.41546
1.72766
2.01554
2.25004
2.41471
2.50378
2.51619
2.46476
2.35901
2.21018
2.03002
1.83166
1.62846
2.42814
2.32759
2.22516
2.11403
1.99317
1.86022
1.71522
1.5599
1.40035
1.24336
1.09593
0.968436
0.865561
0.798043
0.785401
0.866155
1.05909
1.33074
1.62843
1.90796
2.14025
2.30782
2.40529
2.43103
2.39522
2.30678
2.17859
2.01842
1.83746
1.6493
2.78723
2.68793
2.58898
2.46943
2.33742
2.19017
2.02752
1.85101
1.66542
1.47721
1.29459
1.12736
0.984992
0.879558
0.829219
0.866327
1.01396
1.25079
1.52641
1.79398
2.02275
2.19403
2.30138
2.3426
2.32381
2.25502
2.14882
2.00815
1.84385
1.67028
3.15027
3.05156
2.95321
2.83132
2.6924
2.53449
2.35777
2.16435
1.95802
1.74432
1.53102
1.32725
1.14513
0.999242
0.907672
0.899261
0.995011
1.18677
1.43086
1.68115
1.90412
2.07909
2.19733
2.25623
2.25618
2.20915
2.12278
2.00051
1.85223
1.69252
3.51945
3.42263
3.3256
3.20564
3.0632
2.89836
2.71139
2.50498
2.28258
2.04852
1.80935
1.57269
1.35188
1.16376
1.02768
0.971162
1.0145
1.1547
1.35908
1.58497
1.79846
1.97617
2.10482
2.17932
2.19548
2.16917
2.10203
1.99665
1.86371
1.71731
3.89951
3.80798
3.7154
3.59944
3.45943
3.29303
3.10119
2.88706
2.6542
2.40566
2.1459
1.88041
1.62234
1.39024
1.20556
1.09605
1.08452
1.17047
1.32958
1.52206
1.72018
1.89457
2.02903
2.11602
2.14952
2.14016
2.08956
1.99909
1.88046
1.74664
4.29949
4.21925
4.13614
4.03034
3.89867
3.73773
3.54932
3.33673
3.10327
2.8499
2.57798
2.28974
1.99659
1.71739
1.47764
1.30729
1.23102
1.25756
1.36383
1.52103
1.69095
1.85023
1.98179
2.07475
2.1236
2.1286
2.08963
2.01319
1.90686
1.7846
4.73922
4.67719
4.61054
4.52399
4.40906
4.26492
4.09413
3.9003
3.68532
3.44631
3.17965
2.8817
2.5598
2.22956
1.92475
1.67823
1.51815
1.46652
1.50534
1.60657
1.73746
1.87279
1.99272
2.08246
2.13427
2.14766
2.11956
2.05271
1.95437
1.84049
5.26236
5.22635
5.18837
5.13257
5.05088
4.94492
4.81932
4.67802
4.52019
4.33672
4.11401
3.83742
3.50541
3.12736
2.74845
2.39465
2.10857
1.93271
1.86103
1.87195
1.93337
2.0193
2.10647
2.1768
2.21799
2.2261
2.1968
2.13168
2.03518
1.92394
5.96015
5.96593
5.98117
5.97646
5.95782
5.93281
5.91046
5.89488
5.87851
5.84069
5.75034
5.57177
5.28373
4.88369
4.42316
3.91775
3.41822
3.01333
2.72435
2.55185
2.46957
2.44627
2.4521
2.46176
2.45685
2.42935
2.3744
2.29148
2.18218
2.06565
7.03309
7.1274
7.22678
7.32842
7.44731
7.60196
7.80935
8.07476
8.37911
8.6794
8.91378
9.00714
8.90073
8.56604
8.05767
7.36084
6.50146
5.64684
4.89783
4.31015
3.88118
3.57954
3.36603
3.19997
3.05803
2.92408
2.787
2.64168
2.48521
2.34161
8.99905
9.2439
9.53062
9.87079
10.2979
10.8486
11.5506
12.403
13.3596
14.3422
15.2383
15.9225
16.2686
16.1989
15.7658
14.8921
13.5247
11.9375
10.3326
8.86777
7.62178
6.60696
5.79848
5.15391
4.63233
4.20005
3.83011
3.5052
3.2115
2.98191
13.1198
13.7068
14.4074
15.2517
16.3093
17.6373
19.2662
21.159
23.1983
25.2457
27.1346
28.6882
29.744
30.2119
30.0672
29.199
27.4339
25.057
22.3221
19.4997
16.8039
14.3694
12.257
10.4759
8.99902
7.78326
6.78388
5.96161
5.28358
4.80278
22.7067
23.8352
25.1071
26.6843
28.7155
31.1914
34.0951
37.2536
40.4249
43.4272
46.0971
48.2854
49.9173
50.9304
51.1764
50.5314
48.8943
46.3053
42.9282
39.0463
34.9445
30.8533
26.9733
23.4473
20.3316
17.6328
15.3331
13.4005
11.815
10.7062
39.2368
39.9444
41.6185
44.1281
47.0585
50.4066
54.0097
57.3503
60.2133
62.6723
64.6825
66.1486
67.2571
68.0237
68.1059
67.4062
66.2592
64.241
61.537
58.276
54.68
50.9202
47.1656
43.5646
40.1654
36.9731
33.9888
31.2296
28.8636
27.0947
46.861
46.5319
47.7463
49.8997
52.3844
54.7618
56.7722
58.3616
59.5863
60.4864
61.0576
61.3778
61.4613
61.4205
60.7696
59.2968
57.8774
56.2257
54.4444
52.5505
50.7156
49.0974
47.8126
46.8899
46.2632
45.8348
45.548
45.2272
44.7601
43.9483
6.45487
8.10408
8.88264
9.38137
9.58169
9.51991
9.25923
8.86426
8.39032
7.88648
7.38138
6.9071
6.47832
6.13011
5.87405
5.75625
5.80077
6.08701
6.69772
7.56936
8.37405
8.74491
8.50274
7.66168
6.37587
4.84006
3.29846
1.90086
0.899715
0.560023
3.97223
4.46667
4.70419
4.85678
4.88533
4.79077
4.59733
4.33914
4.04816
3.74938
3.46171
3.19828
2.97166
2.79329
2.6816
2.65761
2.752
3.0136
3.50319
4.18162
4.83965
5.2417
5.27152
4.94723
4.3533
3.59061
2.73826
1.85103
1.1197
0.586667
3.58743
3.90224
4.06671
4.1489
4.14184
4.04667
3.87659
3.65433
3.40438
3.14753
2.89946
2.67256
2.47783
2.32715
2.23691
2.22996
2.33153
2.58216
3.02901
3.64101
4.24721
4.65768
4.76441
4.57558
4.16431
3.56312
2.86359
2.10255
1.42584
0.833802
3.37123
3.58343
3.7197
3.79396
3.79662
3.72441
3.58485
3.39554
3.17762
2.95031
2.72867
2.52522
2.35123
2.22003
2.14875
2.16224
2.2821
2.54246
2.97416
3.53145
4.08315
4.48173
4.6144
4.48865
4.14945
3.64042
3.02659
2.33688
1.69414
1.0874
3.15183
3.2616
3.37932
3.46341
3.49058
3.45216
3.34912
3.19605
3.01162
2.81437
2.61977
2.44077
2.28959
2.18141
2.13468
2.17642
2.32448
2.60568
3.03326
3.56325
4.06491
4.41816
4.55172
4.45186
4.15708
3.70812
3.15663
2.52553
1.91693
1.32055
2.88435
2.90291
2.99722
3.09259
3.14917
3.15025
3.08934
2.9763
2.82887
2.66547
2.50175
2.35134
2.22767
2.14725
2.13126
2.20835
2.39207
2.70055
3.12904
3.62839
4.0862
4.39807
4.51296
4.4199
4.15065
3.74576
3.24438
2.66588
2.09576
1.52623
2.58329
2.48603
2.54916
2.6551
2.74614
2.79178
2.77776
2.71015
2.60592
2.48217
2.35466
2.23759
2.14624
2.09932
2.11969
2.23826
2.46333
2.80249
3.2341
3.7026
4.11539
4.38835
4.47705
4.38026
4.12679
3.75047
3.29267
2.76353
2.23268
1.69635
2.24776
2.04544
2.07098
2.17401
2.28726
2.3685
2.40003
2.38603
2.33464
2.25861
2.17296
2.09447
2.04025
2.03185
2.09363
2.25881
2.5291
2.90007
3.33444
3.77292
4.14098
4.37521
4.43484
4.32945
4.08573
3.73228
3.30808
2.82495
2.33282
1.83197
1.96277
1.70697
1.67338
1.74437
1.85408
1.95334
2.01703
2.04104
2.03042
1.99661
1.95796
1.92326
1.9106
1.94366
2.0515
2.2671
2.58455
2.98641
3.4214
3.83088
4.15656
4.35062
4.38208
4.26721
4.02975
3.69619
3.2988
2.85659
2.40157
1.9363
1.77735
1.48446
1.38908
1.41168
1.49225
1.58498
1.66215
1.71151
1.73303
1.73302
1.72515
1.72996
1.7604
1.8371
1.99403
2.26326
2.62642
3.05594
3.48843
3.87088
4.15947
4.31271
4.31743
4.19305
3.96136
3.64599
3.27386
2.8651
2.44512
2.0139
1.68684
1.37369
1.23023
1.20155
1.23672
1.30093
1.36926
1.42607
1.46653
1.48986
1.50643
1.53242
1.59655
1.71691
1.92342
2.24523
2.65091
3.103
3.5316
3.88986
4.14304
4.25988
4.24107
4.10873
3.88318
3.58528
3.2373
2.85783
2.46923
2.06849
1.69173
1.38736
1.20761
1.12144
1.10497
1.1295
1.17157
1.21644
1.25658
1.28803
1.31721
1.35679
1.43436
1.59054
1.84324
2.21439
2.66059
3.12862
3.55143
3.8888
4.10242
4.18946
4.15271
4.01572
3.79791
3.51775
3.19338
2.84177
2.48031
2.112
1.77244
1.48382
1.28426
1.16082
1.09959
1.08
1.08499
1.10231
1.12469
1.14714
1.17402
1.21544
1.29522
1.46664
1.75812
2.1719
2.6544
3.13433
3.54935
3.85569
4.04026
4.10214
4.05303
3.91574
3.70865
3.44716
3.14644
2.82241
2.48998
2.14863
1.93812
1.66654
1.46073
1.3113
1.21305
1.152
1.11379
1.09277
1.08344
1.08127
1.09065
1.12047
1.19225
1.35999
1.67429
2.12007
2.62344
3.11119
3.51033
3.79291
3.95562
3.99913
3.94366
3.81097
3.61832
3.3773
3.10175
2.80661
2.49904
2.18101
2.19532
1.94008
1.73046
1.56273
1.43675
1.3358
1.25226
1.18631
1.13555
1.09707
1.07599
1.08124
1.13418
1.28353
1.59891
2.06331
2.57573
3.05797
3.44151
3.70541
3.85073
3.88312
3.82736
3.7044
3.53013
3.3132
3.06631
2.79576
2.50892
2.21025
2.54153
2.29745
2.08565
1.90817
1.75321
1.6139
1.48636
1.37377
1.27661
1.19457
1.13409
1.1045
1.12755
1.25047
1.54531
2.00951
2.51763
2.98638
3.35151
3.59853
3.73121
3.75926
3.70912
3.60146
3.45173
3.26326
3.04108
2.7901
2.52049
2.23852
2.96433
2.72801
2.52013
2.32518
2.14184
1.96702
1.79996
1.64294
1.49908
1.37114
1.26666
1.19635
1.18109
1.26984
1.52757
1.9703
2.46069
2.90702
3.2509
3.48199
3.60648
3.63736
3.59916
3.51551
3.39348
3.22818
3.02533
2.79085
2.53671
2.26903
3.45381
3.22383
3.01317
2.80263
2.59389
2.38672
2.18305
1.98581
1.79912
1.62716
1.47834
1.36434
1.30756
1.354
1.5644
1.96923
2.42431
2.83821
3.15802
3.37337
3.49378
3.5381
3.51993
3.45711
3.35457
3.20758
3.01996
2.80154
2.5602
2.30459
4.00215
3.77759
3.56365
3.33967
3.10915
2.87419
2.63888
2.4074
2.18439
1.97406
1.78482
1.62838
1.52992
1.52898
1.68938
2.03682
2.44197
2.81884
3.10523
3.30674
3.42829
3.48131
3.47818
3.43078
3.33878
3.20395
3.03134
2.82607
2.5943
2.34823
4.60993
4.39245
4.17731
3.94419
3.69829
3.44335
3.18535
2.9298
2.68166
2.44425
2.22453
2.03272
1.89555
1.8489
1.95866
2.23753
2.57836
2.90267
3.15688
3.33532
3.44465
3.49484
3.49789
3.45744
3.37348
3.24475
3.076
2.8739
2.64536
2.40472
5.29292
5.08425
4.87268
4.63868
4.38847
4.12733
3.863
3.60222
3.34994
3.1075
2.87851
2.66925
2.50543
2.42105
2.48028
2.69285
2.95704
3.20829
3.40304
3.53418
3.60858
3.63529
3.62207
3.57016
3.47889
3.34629
3.17267
2.96339
2.72676
2.48501
6.08025
5.88881
5.69125
5.47116
5.23598
4.99307
4.75226
4.52177
4.306
4.10247
3.90881
3.72306
3.5645
3.46323
3.47954
3.61839
3.78279
3.92251
4.00987
4.04529
4.04082
4.00112
3.93189
3.83382
3.70451
3.54126
3.34301
3.11316
2.8589
2.60672
7.05496
6.89087
6.72399
6.54187
6.35509
6.17415
6.01157
5.87846
5.77751
5.70019
5.6328
5.55785
5.47849
5.41268
5.41625
5.47037
5.48581
5.43393
5.31752
5.15888
4.98097
4.78898
4.58737
4.3759
4.15103
3.90876
3.6465
3.36692
3.07358
2.79482
8.37858
8.2643
8.15785
8.0581
7.98056
7.94129
7.95713
8.04669
8.20712
8.41954
8.64986
8.85267
8.99853
9.07992
9.14959
9.12616
8.90963
8.52231
8.02243
7.47614
6.93563
6.41669
5.92587
5.46481
5.03004
4.61577
4.21542
3.82798
3.45261
3.12385
10.3874
10.3749
10.3874
10.4555
10.6011
10.853
11.236
11.7663
12.433
13.1964
13.9891
14.723
15.3208
15.7382
16.0146
15.9616
15.4381
14.5428
13.4022
12.1572
10.9231
9.75242
8.66702
7.68601
6.81296
6.04184
5.35791
4.74864
4.20437
3.77345
13.8123
14.0242
14.2877
14.6861
15.253
16.0429
17.0806
18.3685
19.8633
21.4889
23.1266
24.6419
25.9153
26.8651
27.5038
27.4913
26.6637
25.1757
23.1991
20.9504
18.6236
16.3558
14.2133
12.2661
10.5524
9.08308
7.83818
6.78371
5.89411
5.24842
20.2268
20.8416
21.6225
22.5825
23.8204
25.4572
27.4562
29.7727
32.297
34.9029
37.4302
39.7268
41.6719
43.1546
44.1208
44.0744
42.992
41.0277
38.3461
35.1533
31.6539
28.1081
24.6115
21.3099
18.3154
15.7059
13.498
11.6357
10.0886
9.01155
32.1057
32.9911
34.2993
36.108
38.3779
40.9808
43.8978
47.0162
50.1576
53.1933
55.9849
58.415
60.3899
61.7121
62.2783
61.4033
59.8544
57.6252
54.9382
51.8137
48.2975
44.3897
40.3488
36.3518
32.5056
28.9177
25.7289
22.9032
20.4669
18.7084
47.987
48.3415
49.8671
52.2545
55.1236
58.2069
61.2725
64.0865
66.5553
68.6887
70.4634
71.8494
72.7811
73.0929
72.43
70.1803
67.8914
65.2893
62.6845
60.0069
57.3616
54.8154
52.4442
50.3693
48.5225
46.6382
44.4872
42.2721
40.0819
38.1588
51.7562
52.1091
53.7426
56.2094
58.9775
61.6282
63.8929
65.6649
66.967
67.8709
68.3966
68.576
68.308
67.4092
65.3395
61.9725
59.0528
56.1689
53.6786
51.5139
49.8178
48.6215
47.9818
47.8907
48.2858
48.999
49.8588
50.5809
50.9358
50.7244
9.62924
11.8781
12.7394
13.177
13.3282
13.1664
12.7488
12.1612
11.4738
10.7463
10.0144
9.3272
8.70318
8.19921
7.83127
7.68326
7.81718
8.49194
10.0179
12.1783
14.0569
14.8802
14.454
12.9727
10.8061
8.29325
5.78381
3.50997
1.87487
0.90071
5.64519
6.20496
6.42402
6.52158
6.52456
6.39773
6.14821
5.81569
5.43681
5.04084
4.65207
4.28856
3.97104
3.7157
3.55415
3.50901
3.6465
4.11137
5.09478
6.46688
7.69505
8.33707
8.29491
7.71097
6.77436
5.63658
4.40192
3.09823
1.9666
1.11309
5.13121
5.40232
5.51727
5.55403
5.51142
5.38166
5.16759
4.88971
4.5741
4.24254
3.91437
3.60591
3.33529
3.1195
2.98554
2.96143
3.09484
3.49907
4.33218
5.48691
6.54264
7.15792
7.23084
6.86794
6.21982
5.38222
4.38858
3.30672
2.30593
1.43249
4.91317
5.02045
5.08946
5.1177
5.08528
4.98202
4.80724
4.57339
4.30117
4.00974
3.71755
3.44061
3.19797
3.00919
2.90075
2.90299
3.05881
3.47538
4.25827
5.26647
6.19403
6.76921
6.87476
6.60144
6.07455
5.35269
4.49549
3.53398
2.60706
1.74032
4.68975
4.66567
4.69734
4.73131
4.72988
4.66923
4.54188
4.35444
4.12492
3.87204
3.61474
3.36903
3.1575
2.99977
2.92538
2.96699
3.16339
3.61413
4.37735
5.31476
6.12372
6.61731
6.71238
6.47663
5.99971
5.34736
4.58203
3.71159
2.84932
2.00725
4.42485
4.27017
4.25952
4.30273
4.33806
4.32909
4.25496
4.11836
3.93557
3.72551
3.50786
3.29902
3.12423
3.0054
2.97546
3.06883
3.32173
3.82323
4.5811
5.43955
6.15703
6.55823
6.61842
6.38483
5.93317
5.32681
4.62675
3.83244
3.03273
2.22844
4.1245
3.83216
3.77169
3.81871
3.88958
3.93128
3.91428
3.83253
3.70145
3.53911
3.36682
3.20178
3.07178
3.00054
3.02571
3.18283
3.5054
4.0665
4.82299
5.60608
6.22367
6.54284
6.54878
6.29939
5.85846
5.28385
4.6264
3.90135
3.161
2.40186
3.79668
3.37723
3.24974
3.28779
3.38625
3.47543
3.51424
3.48883
3.41344
3.30451
3.18344
3.06865
2.99158
2.97737
3.06785
3.29992
3.70257
4.32557
5.07672
5.78564
6.30053
6.53655
6.48408
6.20982
5.77186
5.2207
4.59948
3.92822
3.24145
2.53084
3.4382
2.91953
2.73814
2.75884
2.86617
2.98369
3.06334
3.08895
3.07358
3.02356
2.95869
2.90029
2.88389
2.93401
3.0998
3.41687
3.9067
4.5882
5.32235
5.95849
6.37212
6.52035
6.41277
6.11241
5.67444
5.14189
4.55191
3.92261
3.28528
2.62369
3.11213
2.55279
2.31348
2.29522
2.38774
2.51254
2.6178
2.68165
2.70844
2.70521
2.69965
2.70269
2.75089
2.8729
3.12238
3.53239
4.11266
4.84372
5.55307
6.10978
6.42536
6.48926
6.32986
6.00678
5.56925
5.05325
4.4918
3.9027
3.31036
2.69638
2.88109
2.28586
1.99882
1.92782
1.98562
2.0953
2.20676
2.29382
2.35317
2.38909
2.42342
2.48403
2.59851
2.79932
3.13785
3.64554
4.31448
5.08114
5.75556
6.22764
6.45072
6.43726
6.2339
5.89472
5.46051
4.96147
4.4281
3.87944
3.32756
2.75192
2.73211
2.14394
1.80884
1.68159
1.68944
1.76427
1.8615
1.95347
2.03101
2.09456
2.16165
2.25911
2.43683
2.71967
3.14919
3.75535
4.50509
5.28913
5.9169
6.30252
6.44326
6.3634
6.12624
5.77913
5.3532
4.87424
4.37199
3.85984
3.33837
2.79181
2.68574
2.13424
1.76987
1.57389
1.51892
1.54517
1.61018
1.68806
1.76654
1.84278
1.9311
2.056
2.27798
2.64196
3.16017
3.86089
4.67701
5.45911
6.02826
6.33139
6.39664
6.26774
6.01007
5.66487
5.25402
4.80084
4.33131
3.84461
3.3421
2.81963
2.73406
2.2165
1.84414
1.60639
1.48696
1.45397
1.47332
1.52022
1.58189
1.65406
1.74924
1.89019
2.14055
2.57645
3.17584
3.96194
4.82381
5.58481
6.08493
6.31889
6.31814
6.15641
5.8926
5.56
5.17258
4.75241
4.30499
3.83304
3.34508
2.84148
2.87992
2.3946
2.01889
1.75221
1.5842
1.49469
1.46056
1.46391
1.49312
1.54492
1.6318
1.77619
2.04525
2.53535
3.2032
4.06067
4.94334
5.66498
6.10007
6.26439
6.21911
6.04197
5.7875
5.47844
5.12381
4.72562
4.28937
3.82742
3.35049
2.86166
3.13565
2.67583
2.30483
2.0159
1.80497
1.66137
1.57143
1.52325
1.50867
1.52647
1.59142
1.72903
2.00756
2.52151
3.25266
4.16402
5.0423
5.71128
6.08262
6.19139
6.1206
5.94669
5.71823
5.43674
5.1016
4.71343
4.28443
3.83008
3.36087
2.8833
3.51129
3.07053
2.69935
2.38866
2.13834
1.94394
1.79893
1.69656
1.63305
1.60854
1.63978
1.76225
2.04406
2.57204
3.34479
4.28884
5.13997
5.74804
6.06066
6.13266
6.05699
5.90756
5.69663
5.42546
5.09817
4.71868
4.29574
3.84524
3.37895
2.90943
4.01144
3.57534
3.19647
2.86238
2.57517
2.33398
2.13728
1.98253
1.86948
1.80158
1.79557
1.89476
2.17849
2.71116
3.51124
4.46819
5.2742
5.81833
6.08429
6.14627
6.09753
5.95521
5.74331
5.4699
5.13786
4.75503
4.3286
3.87528
3.40724
2.94311
4.6241
4.18451
3.79254
3.43416
3.11321
2.83105
2.58938
2.38886
2.23205
2.12483
2.087
2.16481
2.45016
2.99385
3.80744
4.76337
5.51579
6.00429
6.25237
6.32264
6.2615
6.10346
5.88365
5.59648
5.24147
4.83377
4.38986
3.92459
3.44921
2.98784
5.34702
4.89944
4.49214
4.11155
3.76319
3.44978
3.17536
2.9427
2.75644
2.6241
2.56904
2.6401
2.9379
3.51273
4.34019
5.28777
5.99146
6.45669
6.68864
6.7248
6.60942
6.40639
6.15033
5.82182
5.4284
4.97814
4.495
4.00347
3.5121
3.04919
6.19422
5.7372
5.31656
4.92126
4.55817
4.23097
3.94544
3.70602
3.51862
3.3915
3.35102
3.44977
3.79268
4.42504
5.31416
6.25597
6.93967
7.36752
7.53513
7.46831
7.25288
6.984
6.62344
6.20223
5.73279
5.21836
4.67552
4.13353
3.61197
3.13938
7.20738
6.74303
6.31849
5.92502
5.57087
5.26094
5.00266
4.8023
4.66616
4.60251
4.64249
4.83666
5.28597
6.0234
7.03819
8.00982
8.65971
9.01021
9.02576
8.78131
8.43204
7.97811
7.42938
6.83823
6.22862
5.607
4.97527
4.36368
3.78874
3.2938
8.47725
8.01722
7.61008
7.24996
6.94724
6.70887
6.54444
6.46398
6.47171
6.5818
6.8235
7.22995
7.89131
8.8146
10.0372
11.0553
11.6418
11.8478
11.5986
11.1128
10.4723
9.6679
8.79098
7.90955
7.05898
6.24984
5.47791
4.75369
4.10252
3.56123
10.1931
9.76737
9.41842
9.14817
8.97019
8.89506
8.93581
9.11346
9.42985
9.8896
10.5166
11.3116
12.3422
13.5692
15.0938
16.1416
16.6003
16.5876
16.0135
15.0753
13.8796
12.5146
11.1022
9.74658
8.49706
7.37162
6.35889
5.45366
4.66535
4.04379
12.7355
12.4183
12.195
12.1066
12.1722
12.4153
12.8478
13.4853
14.3284
15.3663
16.6
17.9819
19.5571
21.2098
23.1124
24.1032
24.3346
23.9653
22.9081
21.3293
19.3894
17.2324
15.0242
12.9446
11.074
9.43588
8.01985
6.80138
5.77612
5.02121
16.8373
16.7426
16.7894
17.0332
17.5344
18.2916
19.3272
20.6442
22.2206
24.0205
26.0044
28.0769
30.281
32.3838
34.5921
35.2576
35.0368
33.9975
32.3662
30.2137
27.5922
24.6016
21.4614
18.4685
15.7578
13.3789
11.3364
9.59984
8.1673
7.17338
23.7291
23.9672
24.4937
25.3208
26.4194
27.8342
29.5973
31.6659
33.9711
36.4626
39.0566
41.6345
44.267
46.526
48.4492
47.5404
46.1181
44.1833
42.0459
39.5801
36.8072
33.7848
30.6188
27.2871
23.9014
20.7758
18
15.5538
13.5162
12.1293
34.5348
34.9697
35.9587
37.4459
39.3068
41.4469
43.7753
46.2612
48.8338
51.4476
53.9618
56.2481
58.6023
59.966
60.4696
57.4136
54.6618
51.8243
49.3322
46.9199
44.5356
42.1658
39.8429
37.5736
35.2895
32.7088
29.8998
27.111
24.6311
22.8194
46.304
46.7424
48.1196
50.1295
52.4661
54.9095
57.2907
59.5106
61.537
63.4087
65.098
66.521
67.6429
67.4877
65.9121
60.6001
56.6038
53.018
50.2814
48.0613
46.3735
45.1754
44.4385
44.0684
43.9587
43.8298
43.4194
42.6583
41.3183
39.886
47.4224
48.4781
50.4019
52.8858
55.538
58.0506
60.215
61.9639
63.3253
64.3786
65.1104
65.5115
65.3284
63.6892
60.0999
53.3978
48.8157
44.9539
42.1657
40.0932
38.868
38.452
38.7964
39.8295
41.3818
43.2293
45.1096
46.7194
47.8278
48.2016
13.4551
16.3644
17.2608
17.5441
17.5723
17.2694
16.6652
15.8554
14.9181
13.9231
12.9113
11.9446
11.0388
10.2757
9.68405
9.41841
9.64279
11.0506
14.4564
19.0795
22.67
23.9773
23.0333
20.4782
17.0707
13.3152
9.62316
6.24935
3.74113
2.03345
7.60178
8.21339
8.37745
8.37453
8.31002
8.12902
7.81715
7.40459
6.93325
6.4325
5.93382
5.45396
5.02379
4.6524
4.39508
4.28025
4.44784
5.23551
7.13311
9.6811
11.688
12.5123
12.229
11.2143
9.82588
8.25904
6.63373
4.93205
3.39885
2.1789
6.92275
7.1381
7.15864
7.10646
6.99187
6.80355
6.53506
6.19759
5.81384
5.40372
4.99084
4.59147
4.23192
3.92846
3.72246
3.64561
3.80171
4.48858
6.05137
8.12711
9.78474
10.5413
10.4304
9.74965