/*--------------------------------*- C++ -*----------------------------------*\
  =========                 |
  \\      /  F ield         | OpenFOAM: The Open Source CFD Toolbox
   \\    /   O peration     | Website:  https://openfoam.org
    \\  /    A nd           | Version:  12
     \\/     M anipulation  |
\*---------------------------------------------------------------------------*/
FoamFile
{
    format      ascii;
    class       volScalarField;
    location    "1300/air";
    object      k;
}
// * * * * * * * * * * * * * * * * * * * * * * * * * * * * * * * * * * * * * //

dimensions      [0 2 -2 0 0 0 0];

internalField   nonuniform List<scalar> 
243000
(
0.0507634
0.0577751
0.0615819
0.0637549
0.0644759
0.0640468
0.0627752
0.0609157
0.0586637
0.0561787
0.0535843
0.0510305
0.0485849
0.0463243
0.0442533
0.0424412
0.0409551
0.0399793
0.0396484
0.0399412
0.0405215
0.040835
0.0403139
0.0385351
0.0354075
0.03103
0.0259814
0.0235354
0.0215318
0.0182921
0.0748761
0.0826877
0.0860319
0.0863887
0.084899
0.0822425
0.0788847
0.0751374
0.0712188
0.0672975
0.063506
0.0599656
0.0567377
0.0539326
0.0516082
0.0499246
0.0490471
0.0492466
0.0505957
0.0529231
0.0556294
0.0579072
0.0589662
0.0582098
0.0553619
0.0504633
0.0441206
0.0365941
0.0295305
0.022307
0.0776795
0.0896899
0.09543
0.0970295
0.0961109
0.0936074
0.0901359
0.0861087
0.0818319
0.0775176
0.0733261
0.0694067
0.0658507
0.0628216
0.0604312
0.0589437
0.05863
0.059798
0.0624259
0.0661444
0.0701334
0.0734465
0.0752219
0.0748384
0.0719231
0.066485
0.0591289
0.0499622
0.0406619
0.0305798
0.0690499
0.0847514
0.093642
0.0977039
0.0985221
0.0971543
0.0944723
0.0909208
0.0869961
0.0828908
0.0788161
0.0749705
0.0714825
0.0685684
0.0663957
0.0653331
0.0657228
0.0678802
0.0716646
0.0765111
0.0814368
0.0854381
0.0876718
0.0875743
0.0847298
0.0791398
0.0713633
0.0615027
0.0510551
0.039651
0.057645
0.0727547
0.0844038
0.0912187
0.0943654
0.0949203
0.0936982
0.0913512
0.0882434
0.0848232
0.081281
0.077898
0.0747975
0.0722684
0.0705415
0.0701012
0.0713376
0.074558
0.0794794
0.085341
0.0910306
0.0955341
0.0980655
0.0981496
0.0953883
0.0897927
0.0818577
0.0717583
0.0607402
0.0487407
0.0531186
0.0624024
0.0729926
0.080722
0.0856084
0.0882038
0.0888166
0.0879874
0.0861851
0.0838376
0.0812076
0.0785135
0.0760423
0.0741106
0.0730139
0.0733464
0.0755401
0.0798739
0.0859065
0.092701
0.0990481
0.103946
0.106686
0.106891
0.104218
0.0987052
0.0907931
0.0807343
0.0695411
0.0573681
0.0553735
0.0572738
0.0641793
0.0713282
0.0768008
0.0803261
0.0820282
0.0822821
0.0817085
0.0805465
0.0789489
0.0771793
0.0755053
0.0743071
0.073961
0.0751615
0.0783894
0.0838693
0.0909856
0.0986557
0.105598
0.110833
0.113744
0.114045
0.11147
0.106091
0.0983239
0.0884799
0.0773885
0.0653101
0.0633064
0.0592547
0.0602393
0.0643992
0.0691067
0.0729179
0.0753655
0.0765088
0.0767028
0.0762327
0.0753342
0.0744074
0.0735388
0.0731151
0.0735566
0.0756604
0.0799404
0.0865588
0.0947539
0.103262
0.11077
0.116328
0.119406
0.119811
0.11735
0.112143
0.104599
0.0950763
0.0842844
0.0724654
0.0730268
0.0684831
0.063987
0.0629704
0.0646688
0.0672416
0.0695564
0.0711027
0.0718569
0.0719795
0.071621
0.0710789
0.0706903
0.0708795
0.0720245
0.0749796
0.0802734
0.08795
0.097195
0.106564
0.114638
0.120537
0.123809
0.124346
0.122033
0.117029
0.109763
0.100636
0.0902745
0.0788162
0.0834852
0.0794905
0.0744751
0.0694212
0.0666709
0.0660032
0.0665308
0.0673483
0.0679796
0.0682789
0.0682323
0.0679796
0.0677671
0.0681113
0.069685
0.0733045
0.0794768
0.0882135
0.098339
0.108524
0.117243
0.12354
0.127063
0.127781
0.12566
0.1209
0.113961
0.105269
0.0953654
0.0843609
0.0944071
0.0909774
0.086815
0.0816783
0.0760196
0.0717191
0.0689886
0.0674934
0.0667168
0.0662669
0.0658916
0.0655418
0.0653001
0.0655319
0.0669974
0.0709076
0.0777181
0.0872873
0.0984128
0.109324
0.11862
0.125392
0.129251
0.130221
0.12835
0.123881
0.117313
0.109039
0.0996218
0.0891349
0.105776
0.102765
0.099137
0.0948434
0.0894964
0.0833055
0.0777993
0.0733455
0.0699895
0.0675624
0.0658295
0.0646039
0.0638093
0.0636251
0.064618
0.0681908
0.0752054
0.0853639
0.0972811
0.109052
0.118979
0.126197
0.130448
0.131751
0.130202
0.12609
0.119882
0.112047
0.103125
0.0932251
0.117613
0.114863
0.111542
0.107616
0.102973
0.0971531
0.0905021
0.0840706
0.0782379
0.0732613
0.0692522
0.0662058
0.0640682
0.0628994
0.0630788
0.0656913
0.0722804
0.082613
0.0950853
0.107603
0.118275
0.126105
0.130787
0.13246
0.131305
0.127579
0.121776
0.11439
0.105954
0.0966353
0.129898
0.127257
0.124061
0.120273
0.115828
0.110594
0.104004
0.0969403
0.0897265
0.0827536
0.0764126
0.0710296
0.0668236
0.063976
0.0627972
0.064153
0.0694491
0.0793254
0.0919979
0.105078
0.116466
0.124994
0.13027
0.132412
0.131686
0.128422
0.123073
0.116154
0.108195
0.0994471
0.14256
0.139885
0.136676
0.132879
0.128436
0.123271
0.117249
0.110009
0.102285
0.0942599
0.0862801
0.0788048
0.0723291
0.0673209
0.0642303
0.063877
0.067451
0.0759708
0.0882726
0.10164
0.113641
0.122881
0.128852
0.131602
0.131384
0.128646
0.123827
0.117409
0.109932
0.10174
0.155501
0.152663
0.149328
0.145422
0.140878
0.135623
0.129588
0.122478
0.114689
0.10627
0.0974171
0.0885193
0.0801385
0.0729591
0.0676548
0.0651778
0.0667033
0.0731936
0.0843183
0.0975142
0.10994
0.119873
0.126608
0.130069
0.130484
0.128318
0.124076
0.118214
0.111241
0.103595
0.168631
0.1655
0.161954
0.15787
0.153165
0.147754
0.141571
0.13452
0.126707
0.118122
0.108845
0.0991273
0.0894325
0.0804608
0.0730209
0.0682353
0.0674209
0.0716053
0.080767
0.0930772
0.105565
0.116071
0.123582
0.127836
0.128998
0.127503
0.123879
0.118624
0.112187
0.105086
0.181889
0.178372
0.17453
0.170213
0.165309
0.159712
0.153351
0.146317
0.138453
0.129741
0.120212
0.110015
0.0994912
0.0892193
0.0799969
0.0730173
0.0697386
0.0714401
0.0783209
0.0890278
0.1009
0.111679
0.119877
0.124954
0.126952
0.126232
0.123311
0.118702
0.112861
0.106327
0.195262
0.191298
0.187098
0.182505
0.177376
0.171586
0.165078
0.158074
0.150167
0.141332
0.13159
0.121042
0.109956
0.0987674
0.0881723
0.0793047
0.0736587
0.0727494
0.0771114
0.0859048
0.0967598
0.107298
0.115842
0.121599
0.124434
0.124549
0.122476
0.118638
0.113494
0.107552
0.208876
0.204383
0.199792
0.194909
0.189572
0.183652
0.17726
0.170289
0.162347
0.153383
0.143403
0.132497
0.120903
0.108973
0.0972836
0.0868524
0.0790974
0.0756134
0.0773704
0.0838778
0.0933461
0.103346
0.112009
0.118317
0.121917
0.122865
0.121602
0.118532
0.114081
0.108741
0.222616
0.217849
0.213
0.207947
0.202594
0.196957
0.191067
0.184204
0.176233
0.167087
0.156749
0.145323
0.133034
0.120239
0.107417
0.0955808
0.0859458
0.0800322
0.0791361
0.0832139
0.0908615
0.0999603
0.108475
0.115144
0.119413
0.121163
0.120694
0.11838
0.114623
0.109891
0.236083
0.231211
0.226416
0.221588
0.216878
0.21197
0.206205
0.199396
0.191399
0.182121
0.171507
0.159643
0.146724
0.1331
0.119165
0.105828
0.0942809
0.0860617
0.082504
0.0839855
0.0895155
0.09734
0.105392
0.112192
0.116967
0.119447
0.119736
0.118175
0.115111
0.110999
0.249143
0.244282
0.239889
0.235864
0.231624
0.22683
0.22125
0.214649
0.206837
0.197687
0.187087
0.175081
0.161807
0.147568
0.132693
0.118011
0.104506
0.0938676
0.0876225
0.0864112
0.0896269
0.0957076
0.102916
0.10957
0.114661
0.117745
0.118759
0.117927
0.115553
0.11207
0.26196
0.257652
0.253612
0.249599
0.245412
0.240805
0.235528
0.229322
0.221949
0.213234
0.203003
0.191255
0.178033
0.163553
0.148045
0.13225
0.116969
0.103754
0.0947928
0.0907437
0.0913792
0.0954872
0.101346
0.107483
0.112645
0.116158
0.117812
0.117666
0.115969
0.113127
0.273519
0.269225
0.265251
0.261412
0.25748
0.253222
0.248381
0.242708
0.235951
0.227905
0.21834
0.207225
0.194483
0.180248
0.164598
0.148168
0.131513
0.116142
0.104607
0.097658
0.0954403
0.0971338
0.101328
0.106455
0.111246
0.114912
0.117032
0.1175
0.116443
0.114233
0.283338
0.278958
0.274966
0.27116
0.267325
0.263297
0.258825
0.253671
0.247549
0.240243
0.231482
0.221203
0.20926
0.195772
0.180885
0.164946
0.148344
0.132224
0.118581
0.108773
0.103382
0.102144
0.103981
0.107498
0.11144
0.114818
0.117037
0.117865
0.117316
0.11565
0.294403
0.28941
0.28482
0.280655
0.276847
0.273274
0.269716
0.265883
0.261418
0.255968
0.24916
0.240747
0.230518
0.218549
0.204901
0.189705
0.17323
0.15638
0.140874
0.128181
0.119254
0.114331
0.112878
0.113801
0.115903
0.118157
0.119824
0.120521
0.120107
0.118757
0.31328
0.30861
0.30419
0.300346
0.297236
0.294825
0.292914
0.291137
0.289023
0.286094
0.281826
0.275871
0.267946
0.258036
0.246312
0.232498
0.216506
0.199359
0.18236
0.16693
0.154207
0.144838
0.138839
0.135627
0.134276
0.133817
0.133483
0.132784
0.131456
0.1297
0.355997
0.352331
0.349316
0.347871
0.348047
0.349507
0.351709
0.354041
0.355954
0.356894
0.356008
0.353315
0.34854
0.341779
0.333069
0.322022
0.307925
0.292027
0.275302
0.258861
0.243725
0.230622
0.220002
0.211771
0.205253
0.199626
0.194624
0.190002
0.185563
0.181477
0.518022
0.51492
0.516118
0.521656
0.528086
0.53324
0.537355
0.540542
0.542907
0.54398
0.542149
0.53985
0.536533
0.532786
0.528144
0.522965
0.514921
0.50656
0.498123
0.490362
0.483437
0.477679
0.473261
0.470047
0.466265
0.460566
0.4549
0.449923
0.446024
0.44093
0.0798469
0.0923153
0.097745
0.0999745
0.0997297
0.0976874
0.0944475
0.0904888
0.0861507
0.0817514
0.0775076
0.0736016
0.070105
0.067201
0.0649429
0.0635628
0.0632023
0.0641708
0.0666312
0.0702688
0.0738968
0.0760102
0.0754976
0.0718008
0.0649812
0.0554282
0.0442173
0.0317323
0.021675
0.0209145
0.130588
0.147297
0.150516
0.14746
0.140998
0.132802
0.123888
0.114873
0.106144
0.0980579
0.0907778
0.0844732
0.0792101
0.075214
0.0725849
0.0717842
0.0730657
0.0768143
0.082884
0.09052
0.098078
0.103719
0.106008
0.103999
0.0973153
0.0863853
0.07264
0.0566654
0.0426789
0.0322878
0.150378
0.16978
0.175051
0.173424
0.167579
0.159207
0.149532
0.13937
0.129288
0.119816
0.111241
0.103832
0.0977351
0.0933103
0.0907828
0.0909228
0.0940235
0.100337
0.10923
0.11947
0.129109
0.136217
0.139366
0.137553
0.130247
0.117737
0.101557
0.0822275
0.0643486
0.0489828
0.150106
0.171162
0.180377
0.181792
0.178178
0.171303
0.162645
0.15296
0.143014
0.13347
0.124791
0.117312
0.111285
0.107195
0.105433
0.107082
0.112373
0.121302
0.132686
0.144881
0.15581
0.163625
0.167074
0.165254
0.157557
0.144204
0.126711
0.105418
0.0848589
0.0663666
0.141204
0.16179
0.172863
0.177258
0.176807
0.172679
0.165727
0.157495
0.148598
0.139854
0.131892
0.125038
0.11971
0.116519
0.116039
0.119642
0.127411
0.138981
0.152645
0.166413
0.178194
0.186347
0.189848
0.187964
0.180108
0.166453
0.148386
0.126186
0.104055
0.0836886
0.124174
0.14081
0.153717
0.161704
0.165083
0.164284
0.160329
0.15447
0.147627
0.140435
0.133515
0.127749
0.123582
0.121725
0.12296
0.12883
0.139315
0.15353
0.169292
0.184373
0.196738
0.204999
0.208418
0.206449
0.198576
0.184975
0.16682
0.144477
0.121631
0.1003
0.105995
0.11684
0.128721
0.138388
0.144898
0.147599
0.147358
0.144793
0.140531
0.135457
0.130422
0.126218
0.123569
0.123346
0.12659
0.134975
0.148323
0.165201
0.182901
0.199104
0.211894
0.220145
0.223426
0.221372
0.213566
0.200225
0.182323
0.160356
0.137434
0.115734
0.0971736
0.099569
0.107354
0.116015
0.123605
0.128586
0.130833
0.130797
0.128954
0.126198
0.123427
0.121122
0.120267
0.121888
0.127303
0.138385
0.154653
0.174153
0.193701
0.210896
0.224031
0.232238
0.235382
0.233277
0.225604
0.212646
0.195233
0.173982
0.15144
0.129755
0.0956646
0.091728
0.093486
0.0985958
0.104856
0.110167
0.113807
0.115676
0.115921
0.115063
0.113862
0.113365
0.114355
0.117869
0.125534
0.139392
0.158504
0.18049
0.201843
0.219981
0.233444
0.241647
0.244708
0.242603
0.235133
0.222652
0.205893
0.185602
0.163782
0.142288
0.0997817
0.092028
0.0890162
0.0896043
0.0927011
0.0963155
0.0996095
0.102048
0.103432
0.103964
0.10408
0.104574
0.106708
0.111929
0.121754
0.138271
0.160017
0.184326
0.207377
0.226541
0.240382
0.248672
0.251738
0.249721
0.242535
0.230616
0.214675
0.195388
0.174392
0.153313
0.109468
0.0996271
0.0935645
0.0905011
0.0895987
0.0900566
0.0914242
0.0928738
0.0940668
0.0948939
0.0955466
0.096557
0.0989666
0.104861
0.116477
0.135357
0.159883
0.185986
0.210393
0.230562
0.245039
0.253546
0.256742
0.254937
0.248141
0.236894
0.221751
0.203465
0.183399
0.162926
0.125454
0.115042
0.107132
0.101106
0.0966169
0.093471
0.0915704
0.0906366
0.0901322
0.0898807
0.0899446
0.0906243
0.0927317
0.0980286
0.110351
0.131047
0.157616
0.186046
0.211613
0.232514
0.247458
0.256452
0.259947
0.258505
0.25223
0.241671
0.227333
0.21009
0.191021
0.171387
0.148074
0.138031
0.129024
0.120632
0.113151
0.106622
0.101121
0.0966877
0.0932771
0.0906199
0.088788
0.0880201
0.088959
0.0931731
0.104451
0.125883
0.153845
0.183854
0.211159
0.232919
0.248317
0.257627
0.261578
0.260631
0.255029
0.245189
0.231726
0.215525
0.197462
0.178767
0.176446
0.166877
0.15735
0.14753
0.137861
0.128508
0.119618
0.111435
0.104175
0.0980687
0.0931949
0.0898395
0.0885958
0.0909477
0.100015
0.120513
0.148968
0.179856
0.208353
0.231365
0.247661
0.25759
0.261901
0.261503
0.256643
0.247652
0.235152
0.220003
0.202941
0.185243
0.208664
0.19966
0.19011
0.179547
0.168408
0.156895
0.145207
0.133612
0.122554
0.112381
0.103666
0.0967953
0.0924558
0.0920134
0.0983296
0.116059
0.143487
0.174565
0.203693
0.227595
0.244903
0.25574
0.260914
0.261111
0.25718
0.249221
0.237811
0.223756
0.207803
0.19123
0.24216
0.234512
0.225133
0.214285
0.202295
0.189308
0.175538
0.161223
0.146836
0.132902
0.120013
0.109126
0.100957
0.0969646
0.0998171
0.113548
0.138294
0.168438
0.197699
0.222277
0.240526
0.252439
0.258707
0.25987
0.256871
0.249972
0.239876
0.227169
0.212488
0.197018
0.275264
0.268719
0.260594
0.249869
0.237561
0.223718
0.208532
0.192246
0.175272
0.158152
0.141596
0.126576
0.114208
0.10616
0.104866
0.113961
0.134486
0.162187
0.190787
0.215723
0.234855
0.247929
0.255466
0.257907
0.25611
0.250485
0.241904
0.230564
0.217117
0.202732
0.307995
0.302348
0.295186
0.285154
0.273016
0.258833
0.242794
0.225182
0.206342
0.186768
0.167154
0.148448
0.131966
0.119618
0.113829
0.117928
0.133213
0.15705
0.183723
0.20843
0.228326
0.242576
0.251555
0.25562
0.255294
0.251283
0.244098
0.234079
0.22182
0.2085
0.340129
0.335246
0.328908
0.319807
0.308095
0.293945
0.277507
0.259087
0.239002
0.21767
0.195706
0.173955
0.153794
0.137293
0.126872
0.125764
0.135551
0.154525
0.178111
0.201646
0.221814
0.237198
0.247661
0.253393
0.254522
0.252174
0.246423
0.237692
0.22656
0.21432
0.371374
0.367252
0.361698
0.353433
0.342423
0.328612
0.312167
0.293396
0.27262
0.250181
0.226576
0.202513
0.179324
0.159106
0.144215
0.137864
0.142036
0.155889
0.175575
0.196755
0.216373
0.232301
0.243887
0.251054
0.253838
0.253109
0.24887
0.241502
0.231551
0.22036
0.401799
0.398237
0.393388
0.385995
0.375754
0.362501
0.346418
0.327794
0.306942
0.284101
0.259636
0.234085
0.208674
0.185371
0.166433
0.154948
0.153515
0.161799
0.177154
0.1956
0.213289
0.228691
0.240823
0.249101
0.253561
0.254319
0.251585
0.245612
0.236902
0.226784
0.432145
0.428997
0.42466
0.418063
0.408606
0.396228
0.381076
0.36338
0.343346
0.321046
0.296666
0.270535
0.243689
0.217809
0.195175
0.178893
0.171488
0.173985
0.184022
0.198421
0.214119
0.228588
0.240488
0.24918
0.254308
0.256172
0.254822
0.250178
0.242675
0.233726
0.463516
0.460792
0.457104
0.451357
0.443059
0.432191
0.418875
0.403242
0.38533
0.364992
0.342113
0.316713
0.289522
0.261856
0.236213
0.214852
0.200673
0.196116
0.199593
0.208563
0.220279
0.232367
0.243151
0.251599
0.257093
0.259611
0.259243
0.255723
0.249316
0.241491
0.497927
0.495941
0.493375
0.488933
0.482617
0.474515
0.464738
0.453248
0.439777
0.423855
0.404936
0.382583
0.356973
0.32892
0.301205
0.274617
0.25206
0.237832
0.231645
0.232468
0.237802
0.245367
0.253216
0.259899
0.264422
0.26659
0.266358
0.263367
0.257705
0.250897
0.53944
0.539287
0.53861
0.537069
0.534869
0.532181
0.529054
0.525264
0.520161
0.512765
0.501889
0.486463
0.465825
0.440139
0.412188
0.381212
0.348605
0.320612
0.299524
0.286398
0.280055
0.278508
0.279504
0.280973
0.281888
0.28167
0.279839
0.276098
0.270283
0.264026
0.597507
0.600955
0.605117
0.609987
0.615985
0.623333
0.631927
0.64113
0.649672
0.656022
0.658048
0.654126
0.642629
0.623246
0.598215
0.565167
0.522913
0.47936
0.438807
0.404524
0.377692
0.357842
0.34352
0.332901
0.324485
0.317169
0.31007
0.302642
0.294432
0.287384
0.692979
0.704594
0.71876
0.735489
0.755132
0.777681
0.802725
0.828875
0.853837
0.875607
0.891867
0.900414
0.899098
0.888527
0.869881
0.839731
0.794557
0.741346
0.684463
0.62843
0.576589
0.530823
0.491684
0.458789
0.431217
0.407898
0.387841
0.370247
0.354471
0.343334
0.875044
0.896301
0.921209
0.950944
0.985317
1.02292
1.06273
1.10162
1.13634
1.16542
1.18745
1.20112
1.20567
1.20174
1.18964
1.16591
1.12836
1.07929
1.02136
0.958521
0.894324
0.831249
0.771528
0.716617
0.66689
0.622295
0.582684
0.547815
0.517816
0.497796
1.12327
1.13526
1.1637
1.20333
1.24545
1.28885
1.33091
1.3652
1.39051
1.40893
1.42041
1.42424
1.42285
1.41737
1.40543
1.38459
1.35872
1.32348
1.282
1.2361
1.1885
1.14047
1.09374
1.04931
1.00698
0.966388
0.927525
0.890533
0.85835
0.835894
1.21057
1.21034
1.23109
1.26285
1.29595
1.32469
1.34631
1.36072
1.36925
1.37293
1.37171
1.36679
1.35839
1.34865
1.33213
1.30728
1.28374
1.25825
1.2327
1.20767
1.18523
1.1675
1.1551
1.14789
1.14437
1.14308
1.1438
1.14396
1.14153
1.13255
0.112854
0.128033
0.132764
0.134418
0.133219
0.129777
0.124812
0.118963
0.112732
0.106544
0.100629
0.0952498
0.090522
0.0867635
0.0840847
0.0829399
0.0835801
0.0867678
0.0932322
0.102248
0.110817
0.115823
0.115657
0.109977
0.0993341
0.0845121
0.0669964
0.0475515
0.0296621
0.0212837
0.182765
0.205736
0.211476
0.208152
0.199779
0.188713
0.176466
0.163958
0.151811
0.140491
0.130215
0.121294
0.11384
0.108271
0.104749
0.104097
0.106637
0.113488
0.125205
0.140619
0.155906
0.166913
0.171126
0.167468
0.155936
0.137537
0.114492
0.0879029
0.0637766
0.0426061
0.216626
0.242297
0.251046
0.249624
0.24221
0.231067
0.217806
0.203698
0.189627
0.176272
0.16402
0.153363
0.144584
0.138332
0.134985
0.135777
0.140801
0.150775
0.165714
0.184132
0.202003
0.215015
0.220572
0.217373
0.204986
0.18437
0.157677
0.125943
0.0957401
0.0675029
0.232981
0.257325
0.267156
0.267958
0.262863
0.253495
0.241237
0.227566
0.213494
0.199835
0.187175
0.176198
0.167379
0.161569
0.159438
0.162538
0.170447
0.183269
0.200343
0.220064
0.238627
0.252011
0.257839
0.254841
0.242361
0.221054
0.192894
0.158812
0.125056
0.0924893
0.237205
0.255468
0.266279
0.270272
0.268176
0.261438
0.251122
0.239158
0.226303
0.213437
0.201399
0.191107
0.183189
0.178699
0.178662
0.184797
0.195903
0.211389
0.229983
0.249998
0.268157
0.281024
0.286506
0.283479
0.27117
0.249999
0.221707
0.186998
0.151579
0.116613
0.233624
0.245419
0.254853
0.260371
0.261377
0.257949
0.251173
0.241213
0.229942
0.218663
0.208029
0.199294
0.193055
0.190612
0.193502
0.20325
0.21782
0.235803
0.255478
0.275231
0.292346
0.304076
0.308804
0.305512
0.29344
0.272829
0.245154
0.21097
0.175235
0.139357
0.224463
0.226247
0.232889
0.239523
0.243602
0.244071
0.24064
0.234003
0.22563
0.216772
0.208492
0.201666
0.197744
0.198057
0.204551
0.218375
0.236694
0.257015
0.277453
0.296588
0.312305
0.322538
0.32623
0.322449
0.310556
0.29071
0.264101
0.231207
0.196131
0.160097
0.208822
0.200741
0.20412
0.210867
0.217189
0.220852
0.221179
0.218611
0.214041
0.208459
0.203014
0.198995
0.197915
0.201664
0.212242
0.230558
0.252772
0.275347
0.296308
0.314624
0.328767
0.337336
0.339824
0.335381
0.323575
0.304568
0.279312
0.248236
0.214245
0.178638
0.193779
0.17929
0.177779
0.182392
0.18907
0.194715
0.197896
0.198514
0.197079
0.194619
0.192619
0.191982
0.19422
0.201707
0.216975
0.24009
0.266189
0.291005
0.312313
0.329719
0.342242
0.349128
0.350347
0.345143
0.333353
0.315203
0.291399
0.262006
0.229454
0.194909
0.184583
0.164887
0.157889
0.158755
0.163642
0.169385
0.174108
0.17704
0.1783
0.178509
0.178911
0.181389
0.187255
0.198993
0.219192
0.247208
0.277093
0.304048
0.32566
0.342139
0.353095
0.358396
0.358358
0.352389
0.340586
0.323266
0.300537
0.27295
0.242134
0.209119
0.183063
0.160306
0.147529
0.143651
0.144994
0.148846
0.153299
0.157182
0.160175
0.162366
0.164763
0.169002
0.177846
0.194009
0.219131
0.252108
0.285575
0.314459
0.336469
0.35206
0.361598
0.365507
0.364279
0.357643
0.345911
0.329043
0.307439
0.281613
0.252634
0.221454
0.187959
0.164783
0.148775
0.139643
0.136245
0.136819
0.139276
0.142388
0.14553
0.148486
0.15197
0.157402
0.16755
0.187582
0.217512
0.255011
0.29169
0.322279
0.344724
0.359609
0.367953
0.370706
0.368468
0.361337
0.349552
0.333224
0.312725
0.288558
0.261433
0.232472
0.199832
0.17706
0.159318
0.146722
0.139218
0.135739
0.134859
0.135558
0.137153
0.139297
0.142546
0.148147
0.158661
0.180616
0.214742
0.256131
0.295497
0.327536
0.350399
0.364899
0.37232
0.374197
0.371203
0.363798
0.352093
0.336376
0.316988
0.294471
0.269518
0.24252
0.2197
0.198446
0.180074
0.165172
0.154264
0.146779
0.141722
0.138695
0.137197
0.136894
0.138407
0.142866
0.152792
0.174752
0.211521
0.256102
0.297217
0.330271
0.353528
0.367909
0.374846
0.37616
0.372823
0.365304
0.353938
0.33899
0.320855
0.300222
0.277103
0.251843
0.247956
0.228264
0.209987
0.193829
0.180524
0.169303
0.159851
0.15235
0.146662
0.142645
0.140938
0.142694
0.151015
0.17151
0.208582
0.255013
0.297591
0.331298
0.354731
0.368989
0.375686
0.37678
0.373418
0.36617
0.355475
0.341588
0.325156
0.306092
0.284416
0.260562
0.283092
0.265079
0.247419
0.230994
0.215553
0.201054
0.187543
0.175516
0.165176
0.156684
0.150869
0.148986
0.154247
0.171862
0.207178
0.253711
0.296812
0.331008
0.354585
0.368808
0.375379
0.376399
0.37331
0.366785
0.357288
0.345052
0.330088
0.312195
0.29161
0.26893
0.323597
0.307111
0.290613
0.273569
0.256351
0.239152
0.222265
0.206163
0.191326
0.17825
0.167936
0.1619
0.163044
0.177162
0.208523
0.253266
0.295422
0.329286
0.352777
0.367044
0.373901
0.375512
0.373164
0.368163
0.360338
0.349519
0.335597
0.318688
0.299016
0.277311
0.3679
0.352707
0.336848
0.319386
0.300798
0.281415
0.261699
0.242172
0.223431
0.206151
0.191474
0.181117
0.177842
0.187513
0.21371
0.254539
0.294883
0.327331
0.350298
0.364685
0.372113
0.374995
0.374228
0.370598
0.364164
0.354673
0.341847
0.325776
0.306857
0.286008
0.414521
0.400287
0.384841
0.367054
0.347419
0.326351
0.304403
0.28216
0.260273
0.239471
0.220959
0.206521
0.199056
0.203636
0.224315
0.259529
0.296118
0.32709
0.349061
0.363597
0.371895
0.375478
0.376007
0.373728
0.368628
0.360438
0.34872
0.33354
0.31526
0.29527
0.462363
0.44884
0.433673
0.415693
0.395398
0.373214
0.349746
0.325618
0.301501
0.27811
0.256624
0.238769
0.227603
0.227086
0.24231
0.270864
0.302347
0.330107
0.35094
0.365112
0.373585
0.377885
0.379342
0.37814
0.374095
0.366954
0.356214
0.341881
0.324285
0.305024
0.510889
0.49781
0.482912
0.46503
0.444613
0.422077
0.398037
0.37312
0.347985
0.323286
0.300093
0.279958
0.265861
0.261071
0.270856
0.292855
0.318363
0.341518
0.359371
0.37188
0.379704
0.383952
0.385617
0.384833
0.381293
0.374711
0.364611
0.350837
0.333884
0.315357
0.559693
0.547191
0.532828
0.515595
0.495887
0.474107
0.450854
0.426725
0.402331
0.378207
0.355239
0.334671
0.319128
0.311368
0.315981
0.331346
0.349563
0.366336
0.379319
0.388277
0.393783
0.396483
0.397084
0.395535
0.391527
0.384698
0.37461
0.360962
0.344299
0.326465
0.610095
0.598333
0.585021
0.569308
0.551581
0.532223
0.511786
0.490806
0.469795
0.449127
0.429373
0.41129
0.396814
0.388056
0.388539
0.396788
0.406228
0.414063
0.419112
0.421501
0.42188
0.420455
0.417649
0.41338
0.407277
0.398877
0.387707
0.373512
0.356548
0.339034
0.664911
0.654535
0.643258
0.630575
0.616851
0.602453
0.58786
0.573509
0.559742
0.5467
0.534441
0.522988
0.513183
0.506221
0.504745
0.506033
0.504975
0.50057
0.493368
0.484471
0.474961
0.465079
0.455019
0.44468
0.433655
0.421408
0.407346
0.391212
0.373036
0.355114
0.730424
0.722979
0.715608
0.708507
0.701959
0.696268
0.691753
0.688683
0.687081
0.686598
0.686554
0.68602
0.684633
0.682607
0.681852
0.677899
0.665541
0.646508
0.622943
0.597377
0.571934
0.547412
0.524096
0.502216
0.481532
0.461536
0.441464
0.42085
0.399542
0.380371
0.82026
0.818562
0.818361
0.820724
0.825619
0.833291
0.843605
0.856334
0.870804
0.886059
0.900536
0.91256
0.921024
0.92542
0.926994
0.91953
0.897799
0.865522
0.825592
0.781503
0.73628
0.691901
0.649238
0.609383
0.572781
0.5394
0.508527
0.479372
0.451656
0.429462
0.9591
0.966615
0.978952
0.995032
1.01487
1.03886
1.06563
1.09414
1.12294
1.15068
1.17552
1.1958
1.2105
1.21868
1.22052
1.20843
1.1802
1.14008
1.09082
1.0352
0.975649
0.915163
0.85491
0.796756
0.742051
0.691883
0.646379
0.604648
0.566793
0.539387
1.17537
1.1886
1.21153
1.24274
1.2786
1.3152
1.3517
1.38636
1.41781
1.44546
1.46819
1.48506
1.49546
1.49713
1.48992
1.46382
1.42841
1.38575
1.33932
1.28943
1.23642
1.17957
1.12193
1.06509
1.00938
0.955155
0.903685
0.854909
0.810126
0.778371
1.40791
1.41605
1.44318
1.48129
1.52222
1.56087
1.59431
1.61962
1.63792
1.65055
1.65763
1.65908
1.65454
1.6429
1.61834
1.57421
1.53042
1.48484
1.44217
1.40189
1.36546
1.33306
1.30615
1.28578
1.26956
1.25279
1.23129
1.20731
1.18181
1.15971
1.42017
1.43264
1.46239
1.50077
1.53921
1.57188
1.59558
1.61036
1.61692
1.61754
1.61213
1.60158
1.5847
1.55962
1.51863
1.46189
1.41165
1.36411
1.32429
1.292
1.26944
1.25688
1.25442
1.26269
1.27896
1.30022
1.32374
1.34488
1.35994
1.36418
0.147314
0.165178
0.168825
0.168564
0.165978
0.161068
0.154443
0.146851
0.138857
0.130922
0.123294
0.116338
0.110183
0.105298
0.101826
0.10052
0.10195
0.108323
0.121947
0.140418
0.156549
0.165101
0.164748
0.156238
0.141208
0.121019
0.0974319
0.071587
0.0483835
0.0304864
0.241375
0.26768
0.270883
0.266027
0.255337
0.241409
0.22613
0.210596
0.195514
0.181393
0.168473
0.15715
0.147512
0.140167
0.135317
0.134279
0.137959
0.150243
0.173553
0.204153
0.232316
0.250275
0.255398
0.247898
0.22949
0.202267
0.168958
0.131122
0.0961527
0.0654722
0.289968
0.317901
0.324842
0.321685
0.311818
0.297742
0.281367
0.264038
0.246733
0.230188
0.214858
0.201371
0.190054
0.181799
0.177112
0.177827
0.184384
0.200184
0.22758
0.26227
0.2941
0.31496
0.322112
0.31537
0.295979
0.265931
0.227955
0.183261
0.139748
0.099374
0.319032
0.342214
0.350525
0.349323
0.341762
0.329592
0.314502
0.297732
0.280414
0.26351
0.247696
0.233801
0.222462
0.214811
0.211714
0.21513
0.224713
0.243202
0.272163
0.307444
0.339433
0.360563
0.368293
0.362242
0.343221
0.312917
0.273493
0.226048
0.177946
0.131542
0.334226
0.350195
0.357515
0.358248
0.353593
0.34426
0.331756
0.316837
0.3008
0.284882
0.26988
0.256831
0.24672
0.2409
0.240617
0.247629
0.26038
0.281084
0.310469
0.34437
0.374516
0.394358
0.401637
0.395865
0.377594
0.348104
0.309074
0.26134
0.211439
0.161406
0.339268
0.346043
0.35082
0.352904
0.35139
0.346013
0.336284
0.324004
0.310184
0.296395
0.283203
0.272059
0.264254
0.261339
0.265083
0.276398
0.292503
0.315055
0.344069
0.3756
0.402722
0.420194
0.426243
0.420279
0.402691
0.374453
0.336854
0.290399
0.240798
0.188663
0.337784
0.333313
0.333811
0.336078
0.337376
0.335807
0.330257
0.321576
0.311051
0.299437
0.288804
0.280534
0.275983
0.277094
0.285905
0.302102
0.321737
0.345851
0.373934
0.402447
0.425907
0.440327
0.444575
0.43796
0.420862
0.394012
0.358492
0.314394
0.265684
0.212968
0.330526
0.313731
0.308427
0.310062
0.313689
0.315913
0.314779
0.309986
0.303107
0.295128
0.287977
0.283103
0.282663
0.288972
0.303621
0.325134
0.348472
0.373843
0.400535
0.425675
0.44518
0.456211
0.458257
0.450628
0.433819
0.408421
0.374913
0.332961
0.285872
0.234343
0.316697
0.28926
0.278812
0.279247
0.284092
0.289008
0.291411
0.290678
0.288104
0.28437
0.281254
0.280714
0.285149
0.297526
0.318678
0.345826
0.372872
0.3992
0.424036
0.445808
0.461268
0.468836
0.468447
0.459581
0.442957
0.418429
0.386401
0.346952
0.302117
0.252651
0.301926
0.267946
0.251987
0.249434
0.253829
0.260062
0.265034
0.267623
0.26847
0.268402
0.269849
0.274119
0.284094
0.303336
0.331494
0.364397
0.394999
0.422002
0.444924
0.46318
0.474685
0.478926
0.476006
0.465855
0.448981
0.425016
0.394455
0.357542
0.315601
0.268818
0.291474
0.252306
0.231559
0.224619
0.226766
0.232554
0.238696
0.243602
0.247321
0.250524
0.255292
0.264357
0.280492
0.307093
0.342443
0.380993
0.414823
0.442268
0.463253
0.478016
0.485815
0.486958
0.481672
0.470407
0.453005
0.429491
0.400368
0.36617
0.3272
0.282939
0.287394
0.247268
0.220649
0.208585
0.206677
0.210195
0.215784
0.221576
0.227116
0.232803
0.240469
0.252875
0.275322
0.309523
0.351869
0.395722
0.432344
0.459948
0.479
0.490495
0.494998
0.493321
0.486024
0.473686
0.455998
0.433045
0.405584
0.373913
0.337239
0.29508
0.290235
0.251192
0.222408
0.204466
0.196791
0.196459
0.199734
0.204698
0.210589
0.217556
0.227224
0.242368
0.269717
0.311147
0.360099
0.408701
0.447585
0.475116
0.49224
0.500805
0.502513
0.498444
0.489654
0.476587
0.458911
0.436828
0.411248
0.381196
0.345888
0.305571
0.300052
0.262935
0.232862
0.211469
0.199127
0.193943
0.193429
0.195843
0.200386
0.207107
0.217477
0.234659
0.265387
0.312744
0.367514
0.420109
0.460646
0.487899
0.503147
0.509209
0.508634
0.502796
0.493168
0.47989
0.462723
0.442189
0.417629
0.388192
0.353865
0.315014
0.318041
0.283031
0.253356
0.229992
0.213662
0.20362
0.198459
0.196925
0.198511
0.203398
0.213094
0.231213
0.263334
0.31542
0.374611
0.430253
0.471772
0.498498
0.51202
0.516105
0.5138
0.506946
0.497227
0.484793
0.469052
0.449135
0.424589
0.395405
0.361646
0.323898
0.345072
0.312689
0.283747
0.25905
0.239421
0.224846
0.21478
0.208607
0.206096
0.207563
0.21511
0.232241
0.265423
0.319797
0.382002
0.439638
0.48147
0.507414
0.519409
0.522077
0.518749
0.511692
0.502779
0.491633
0.476788
0.456882
0.432266
0.403069
0.369537
0.332596
0.381392
0.350804
0.322517
0.296766
0.274401
0.255808
0.241046
0.230024
0.222925
0.220273
0.224439
0.240118
0.273114
0.326961
0.390575
0.449095
0.49054
0.515409
0.526218
0.528148
0.524634
0.518545
0.510485
0.499743
0.48519
0.465344
0.440596
0.411245
0.377733
0.341413
0.424835
0.395587
0.3677
0.341012
0.316367
0.294344
0.275382
0.259786
0.248087
0.241223
0.241484
0.254467
0.286394
0.338258
0.401622
0.459928
0.500253
0.523882
0.534065
0.536101
0.533636
0.527641
0.519487
0.508795
0.494256
0.474408
0.449443
0.41989
0.38633
0.350594
0.473607
0.445231
0.417462
0.389912
0.36341
0.338609
0.316155
0.296624
0.280816
0.269976
0.266585
0.276224
0.306434
0.355744
0.417083
0.474215
0.512841