/*--------------------------------*- C++ -*----------------------------------*\
  =========                 |
  \\      /  F ield         | OpenFOAM: The Open Source CFD Toolbox
   \\    /   O peration     | Website:  https://openfoam.org
    \\  /    A nd           | Version:  12
     \\/     M anipulation  |
\*---------------------------------------------------------------------------*/
FoamFile
{
    format      ascii;
    class       volScalarField;
    location    "1300/air";
    object      nut;
}
// * * * * * * * * * * * * * * * * * * * * * * * * * * * * * * * * * * * * * //

dimensions      [0 2 -1 0 0 0 0];

internalField   nonuniform List<scalar> 
243000
(
0.000119158
0.000122341
0.000121696
0.000119451
0.000116053
0.000111941
0.000107474
0.000102911
9.84273e-05
9.41563e-05
9.01843e-05
8.6615e-05
8.34867e-05
8.0848e-05
7.86824e-05
7.70398e-05
7.59738e-05
7.56572e-05
7.62413e-05
7.77317e-05
7.98218e-05
8.19717e-05
8.35764e-05
8.40725e-05
8.31089e-05
8.03904e-05
7.61383e-05
0.000323696
0.00031166
0.000285829
0.000434777
0.00043983
0.000432264
0.000417849
0.000400192
0.000381205
0.000362072
0.000343511
0.000325975
0.000309776
0.000295141
0.000282271
0.000271243
0.00026226
0.000255437
0.000251157
0.000249861
0.000252303
0.000258732
0.000268768
0.000280924
0.000293209
0.00030361
0.000310381
0.000312173
0.000307974
0.000298079
0.000283247
0.000262325
0.000236533
0.000523438
0.000562145
0.000579657
0.000584345
0.000581536
0.0005739
0.000563151
0.000550425
0.000536571
0.000522219
0.000507875
0.000494071
0.00048118
0.000469887
0.00046073
0.000454843
0.000453396
0.000457634
0.000467354
0.000480933
0.000495192
0.00050681
0.000513
0.000511812
0.000501852
0.000482574
0.000455136
0.000418482
0.00037739
0.00032716
0.000494142
0.000547009
0.000574645
0.000586805
0.000589128
0.000584982
0.000576811
0.000565861
0.000553467
0.000540214
0.000526719
0.000513645
0.000501465
0.000491012
0.000483004
0.000478892
0.00048003
0.000487533
0.000500672
0.000517164
0.000533515
0.000546524
0.000553731
0.000553557
0.000544618
0.000526437
0.00049996
0.000464142
0.000422879
0.000372616
0.000451246
0.00050759
0.000546265
0.000567567
0.00057709
0.000578671
0.000574851
0.000567525
0.00055773
0.00054676
0.000535121
0.000523789
0.00051314
0.000504229
0.000497958
0.000496114
0.000500122
0.000510917
0.000527203
0.000546116
0.000563982
0.000577822
0.00058554
0.00058593
0.000577767
0.000560672
0.000535395
0.000501301
0.000461228
0.000413134
0.000432468
0.000469774
0.000508083
0.000534128
0.000550208
0.000558371
0.000560183
0.000557438
0.000551613
0.000543947
0.000535246
0.000526143
0.000517629
0.000510806
0.000506748
0.00050755
0.000514665
0.000528793
0.000548049
0.000569105
0.00058821
0.000602631
0.000610637
0.000611364
0.000603819
0.000587749
0.000563782
0.000531674
0.00049347
0.000448186
0.000440298
0.000449127
0.000476153
0.000502143
0.000521184
0.000532985
0.000538537
0.000539283
0.000537486
0.000533557
0.00052811
0.000521979
0.000516081
0.000511714
0.000510202
0.000513905
0.000524326
0.00054184
0.000563965
0.000587025
0.000607259
0.00062218
0.000630408
0.000631386
0.000624367
0.000609244
0.00058661
0.000556522
0.000520511
0.00047816
0.000470323
0.000455322
0.000460213
0.000476593
0.000494165
0.000507784
0.000516285
0.000520167
0.000520865
0.000519214
0.000516154
0.000512817
0.000509609
0.000507854
0.000509017
0.00051575
0.000529558
0.000550459
0.000575476
0.000600498
0.000621861
0.000637313
0.000645797
0.000647034
0.000640511
0.000626271
0.00060494
0.00057681
0.000543138
0.000503615
0.000505037
0.00048846
0.000472628
0.000469792
0.000477019
0.000487015
0.000495679
0.000501329
0.000504088
0.000504537
0.000503278
0.000501283
0.00049985
0.000500278
0.000503915
0.00051359
0.000530735
0.000554878
0.000582797
0.000609942
0.000632526
0.000648628
0.000657479
0.000659045
0.000653043
0.000639654
0.000619585
0.000593343
0.000562023
0.00052515
0.000540015
0.000526414
0.000508769
0.000491436
0.000482335
0.000480833
0.000483586
0.000487114
0.000489774
0.000491077
0.00049103
0.00049015
0.000489379
0.000490555
0.000495862
0.000507997
0.000528202
0.000555727
0.000586178
0.000615446
0.000639562
0.000656542
0.000665936
0.000667956
0.000662546
0.000650019
0.000631211
0.000606741
0.000577556
0.000543226
0.000574292
0.000563286
0.000549683
0.000532291
0.000513498
0.000499188
0.000490365
0.000485881
0.00048385
0.00048282
0.000481857
0.000480877
0.000480155
0.000481056
0.000486291
0.000499772
0.000522439
0.00055284
0.000586369
0.000617638
0.000643204
0.000661314
0.00067151
0.000674164
0.000669463
0.000657855
0.000640297
0.00061739
0.000590196
0.000558295
0.000607921
0.000598779
0.000587654
0.000574238
0.000556905
0.000537096
0.000519173
0.000504587
0.000493657
0.000485862
0.000480393
0.000476524
0.00047404
0.000473648
0.000477395
0.000490149
0.000514017
0.000546764
0.000582959
0.000616788
0.000644075
0.000663315
0.000674468
0.000677965
0.000674129
0.000663546
0.000647134
0.00062572
0.000600365
0.000570862
0.000641056
0.000633143
0.000623536
0.000612045
0.000598192
0.00058017
0.000559664
0.000539349
0.000520559
0.0005043
0.000491098
0.000481034
0.000473988
0.000470249
0.000471267
0.000480901
0.000503943
0.000537907
0.000576317
0.000612591
0.000642047
0.000662934
0.000675212
0.000679634
0.000676824
0.000667301
0.000652078
0.000632092
0.000608414
0.000581092
0.000673722
0.000666511
0.000657763
0.000647303
0.000634864
0.000619898
0.00060037
0.000579333
0.000557204
0.000535203
0.000514694
0.000496928
0.000482846
0.000473284
0.00046955
0.000474867
0.000493882
0.000527087
0.000566842
0.00060527
0.000636976
0.000659849
0.000673704
0.000679349
0.000677621
0.000669335
0.000655383
0.000636799
0.000614675
0.000589357
0.00070581
0.000698875
0.000690536
0.000680594
0.000668828
0.000654925
0.000638299
0.000617877
0.000595412
0.000571329
0.000546598
0.000522682
0.000501356
0.000484495
0.000474049
0.00047329
0.000486431
0.00051574
0.000555188
0.00059518
0.000629059
0.000654078
0.000669852
0.000677092
0.000676675
0.000669726
0.000657212
0.000640069
0.00061944
0.000595974
0.000737164
0.000730168
0.000721914
0.000712173
0.000700719
0.000687277
0.00067154
0.000652526
0.000631081
0.000607153
0.000581096
0.000553902
0.00052729
0.000503667
0.000485747
0.000477442
0.000483313
0.000506043
0.000542517
0.00058286
0.000618576
0.000645839
0.000663801
0.000672938
0.000674157
0.000668688
0.000657675
0.000642083
0.000622955
0.000601232
0.000767665
0.000760304
0.000751915
0.000742177
0.000730837
0.00071761
0.000702227
0.000684274
0.000663845
0.000640687
0.000614763
0.000586507
0.000557092
0.000528665
0.000504132
0.000487936
0.000485442
0.000500265
0.000530856
0.000569323
0.000605977
0.00063532
0.000655607
0.000666923
0.000670103
0.000666371
0.000656969
0.000643009
0.000625425
0.000605382
0.000797269
0.000789354
0.000780642
0.000770762
0.000759415
0.000746285
0.000731113
0.000713982
0.000694352
0.000671947
0.000646586
0.000618362
0.000587928
0.000556798
0.00052749
0.000504373
0.00049331
0.000499368
0.000522586
0.000556706
0.000592281
0.000622986
0.000645488
0.000659141
0.00066455
0.000662822
0.000655264
0.000643022
0.00062717
0.000608851
0.000826017
0.00081746
0.000808306
0.000798188
0.000786758
0.000773678
0.000758751
0.000742358
0.000723421
0.000701674
0.000676904
0.000649054
0.000618486
0.000586128
0.000553881
0.000525515
0.000506725
0.000503674
0.000518352
0.000546731
0.000579899
0.000610519
0.000634389
0.00065007
0.000657743
0.000658229
0.00065291
0.000642756
0.000628818
0.000612251
0.000854251
0.000844929
0.00083528
0.000824894
0.000813404
0.000800503
0.000786449
0.000770679
0.000752365
0.000731188
0.000706899
0.00067939
0.000648897
0.000615993
0.000582023
0.000550023
0.000525015
0.000513341
0.00051908
0.000540125
0.00056946
0.000599026
0.000623641
0.000641063
0.000650888
0.000653603
0.000650432
0.000642342
0.000630326
0.000615523
0.000881897
0.000872265
0.000862369
0.000851946
0.000840788
0.000828971
0.000816344
0.000801436
0.000783821
0.000763153
0.000739127
0.000711649
0.000680865
0.000647272
0.000611823
0.000577166
0.000547331
0.000528101
0.000524895
0.000537881
0.000561716
0.00058898
0.000613543
0.000632217
0.000643991
0.000648892
0.000647834
0.000641788
0.000631693
0.00061866
0.000908177
0.000898648
0.000889172
0.000879537
0.000870094
0.000860057
0.000848158
0.000833938
0.000816971
0.000796882
0.000773297
0.000746077
0.000715262
0.000681255
0.000644622
0.00060748
0.000573393
0.000547714
0.000535974
0.000540347
0.000557457
0.000581078
0.000604581
0.000623865
0.00063717
0.000644093
0.000645089
0.000641075
0.000632897
0.000621649
0.000932951
0.000923724
0.000915346
0.000907583
0.00089927
0.000889806
0.000878695
0.000865408
0.000849457
0.000830427
0.000807855
0.000781528
0.000751353
0.00071757
0.000680467
0.00064171
0.000603832
0.000572164
0.00055248
0.000548169
0.000557799
0.000576094
0.000597286
0.000616345
0.000630659
0.000639292
0.000642266
0.000640234
0.000633962
0.00062451
0.000956649
0.000948712
0.000941163
0.000933618
0.000925684
0.000916886
0.00090672
0.000894642
0.000880105
0.00086264
0.000841705
0.000817023
0.000788324
0.000755643
0.000718971
0.000679543
0.000639025
0.000601737
0.00057485
0.00056192
0.000563335
0.000575429
0.000592614
0.00061029
0.000624901
0.00063477
0.000639511
0.000639345
0.000634942
0.000627304
0.000977448
0.000969703
0.000962478
0.000955449
0.000948199
0.000940289
0.000931224
0.000920502
0.000907583
0.000891978
0.000873085
0.000850611
0.0008241
0.00079343
0.00075828
0.000719484
0.000677816
0.000636911
0.000604163
0.000583233
0.000575946
0.000580501
0.000592563
0.000607266
0.000620845
0.000631171
0.000637189
0.000638717
0.000636069
0.000630212
0.000994822
0.000987068
0.000979953
0.000973127
0.000966207
0.000958888
0.000950701
0.000941184
0.000929765
0.000915959
0.000899136
0.000878988
0.000854977
0.000827025
0.000795163
0.000759433
0.000720224
0.000679899
0.000643609
0.00061593
0.000599826
0.000595581
0.000600441
0.000610269
0.000621323
0.00063078
0.000637055
0.000639534
0.000638291
0.000633962
0.00101419
0.00100555
0.000997549
0.000990224
0.000983481
0.000977113
0.000970735
0.000963821
0.000955715
0.000945734
0.000933125
0.000917301
0.000897675
0.000874146
0.00084657
0.000814704
0.000778589
0.000739722
0.000701895
0.000669119
0.000644795
0.000630669
0.000626041
0.000628196
0.000633788
0.000639917
0.000644548
0.000646608
0.000645727
0.000642313
0.00104626
0.00103847
0.00103104
0.00102454
0.00101924
0.00101512
0.00101185
0.00100881
0.00100518
0.00100013
0.000992711
0.000982246
0.000968124
0.000950146
0.000928441
0.000902161
0.000870668
0.000835485
0.000798951
0.000764111
0.000733945
0.000710704
0.000695209
0.000686606
0.000682831
0.000681496
0.000680633
0.000678937
0.000675691
0.000671352
0.00111558
0.00110989
0.00110519
0.00110295
0.00110327
0.00110562
0.00110915
0.00111286
0.00111592
0.00111745
0.00111613
0.00111198
0.00110451
0.00109383
0.00107989
0.00106193
0.00103849
0.00101134
0.000981895
0.000951963
0.000923437
0.000897901
0.000876561
0.000859602
0.000845931
0.000834016
0.000823366
0.000813489
0.000803965
0.000795147
0.00134662
0.0013426
0.00134416
0.00135136
0.00135969
0.00136633
0.00137162
0.0013757
0.00137872
0.0013801
0.00137783
0.00137494
0.00137074
0.00136598
0.00136006
0.0013534
0.00134295
0.001332
0.00132083
0.00131045
0.00130108
0.00129322
0.00128712
0.00128265
0.00127737
0.00126947
0.00126159
0.00125465
0.00124922
0.00124208
0.000149383
0.000154591
0.000153263
0.000149522
0.000144273
0.000138185
0.000131764
0.000125366
0.000119217
0.000113523
0.000108405
0.000103963
0.000100227
9.73145e-05
9.52507e-05
9.4207e-05
9.42981e-05
9.57684e-05
9.87604e-05
0.000103045
0.000107758
0.00011182
0.000114371
0.000114773
0.000112622
0.000107509
9.9415e-05
8.73552e-05
7.19087e-05
0.000338492
0.000585379
0.000649729
0.000631915
0.000584503
0.000531472
0.000481748
0.000437517
0.000398731
0.000364744
0.000335703
0.000310879
0.000290254
0.000273579
0.000261547
0.000253823
0.000251904
0.000255647
0.000265338
0.000278553
0.000293284
0.000308278
0.00032278
0.000335274
0.000342356
0.00033946
0.000326042
0.000303797
0.000272792
0.000247623
0.000269632
0.000882706
0.000998947
0.00100324
0.000961036
0.000899442
0.000833247
0.000769588
0.000710842
0.000657686
0.000611211
0.000571105
0.000537902
0.000511675
0.000494203
0.000485483
0.000489089
0.000503546
0.000526359
0.000549586
0.000569116
0.000585128
0.000599362
0.000611737
0.000616879
0.000608755
0.0005825
0.000540859
0.000482214
0.000428373
0.000400319
0.000990714
0.0011466
0.00119876
0.00118516
0.00113706
0.00107423
0.00100936
0.000945228
0.000884941
0.000830904
0.000784312
0.0007462
0.000717551
0.000701355
0.000698723
0.000715812
0.000748417
0.000789325
0.00082413
0.000847552
0.000862344
0.000872129
0.000879459
0.000879606
0.000863291
0.000825491
0.000768
0.000688591
0.000608437
0.000551818
0.00102074
0.00119
0.00126517
0.0012798
0.00125739
0.00121293
0.001154
0.00109451
0.00103586
0.000982497
0.000937368
0.000900612
0.000875218
0.00086558
0.000874452
0.000910777
0.000966533
0.00102765
0.00107562
0.00110386
0.00111769
0.00112367
0.00112555
0.00111943
0.00109573
0.00104916
0.000980312
0.000887004
0.000787764
0.000711232
0.00099363
0.00113093
0.00122062
0.00126499
0.00127282
0.00125255
0.00121416
0.00116863
0.00112213
0.00107668
0.00103469
0.00100362
0.00098592
0.000987013
0.00101206
0.00107133
0.00115342
0.00123702
0.00129932
0.00133362
0.0013474
0.00135003
0.00134675
0.00133473
0.00130539
0.00125264
0.00117613
0.00107436
0.000962783
0.000872183
0.000933205
0.00102636
0.00110805
0.0011662
0.00119888
0.0012063
0.00119613
0.00117399
0.001144
0.00111174
0.00108221
0.00106137
0.00105496
0.00106954
0.00111416
0.00119909
0.00130828
0.00141682
0.00149372
0.00153522
0.00155033
0.00155032
0.0015433
0.00152721
0.00149327
0.00143659
0.00135555
0.00124943
0.0011304
0.00102897
0.000904686
0.000940617
0.000994728
0.00104798
0.00109112
0.00111729
0.00112722
0.00112477
0.00111309
0.00109826
0.00108578
0.00107901
0.00108694
0.00111742
0.00118383
0.00129652
0.00143474
0.00156647
0.00165912
0.00170885
0.00172658
0.00172456
0.00171563
0.00169884
0.00166219
0.00160238
0.0015192
0.00141218
0.0012898
0.00118003
0.000914891
0.000897245
0.000910654
0.000942352
0.000980036
0.00101211
0.00103465
0.00104765
0.00105238
0.00105255
0.00105316
0.00106241
0.00108646
0.00113462
0.00122443
0.00136611
0.00153268
0.00168451
0.00179513
0.00185459
0.00187611
0.00187575
0.0018669
0.00184956
0.00181247
0.00175227
0.00166833
0.00156328
0.0014414
0.00132427
0.000957797
0.000902791
0.000876593
0.000877264
0.000896304
0.000920742
0.000944597
0.000964588
0.000979712
0.000991522
0.00100368
0.00102259
0.00105872
0.00112544
0.00123913
0.00140992
0.00160288
0.00177646
0.00190227
0.00197456
0.00200341
0.00200728
0.00199912
0.00198193
0.00194515
0.00188661
0.00180489
0.00170217
0.00158155
0.00146008
0.00104829
0.000966271
0.000907273
0.000875028
0.000865203
0.000870004
0.000883418
0.000899708
0.000916223
0.000932517
0.000950765
0.000975821
0.00101702
0.00109436
0.00123111
0.00143043
0.00165702
0.00184729
0.00198531
0.00207075
0.0021118
0.00212053
0.00211434
0.00209845
0.00206275
0.00200679
0.00192838
0.00182755
0.00170962
0.00158703
0.00119048
0.00109704
0.00101532
0.000952501
0.000910058
0.000885937
0.000876356
0.000877047
0.000883411
0.000894201
0.000910236
0.000934952
0.000976403
0.00105309
0.00120431
0.00143012
0.00168235
0.00190525
0.00205699
0.00215231
0.0022011
0.00221712
0.0022144
0.00220094
0.0021671
0.0021133
0.00203727
0.00194013
0.00182638
0.00170712
0.00138594
0.00129405
0.00120057
0.00111447
0.00104253
0.000986468
0.000945903
0.000918934
0.000903158
0.000896317
0.000898776
0.000913526
0.000947957
0.0010194
0.00116817
0.00141283
0.00168781
0.00193541
0.0021162
0.00222517
0.00228053
0.00230009
0.00230165
0.00229121
0.00226027
0.00220801
0.00213461
0.00204235
0.00193276
0.0018187
0.00162532
0.00154343
0.00144894
0.00135076
0.00125765
0.00117383
0.0011012
0.00104071
0.000992335
0.00095639
0.000933545
0.000927162
0.000943949
0.00100241
0.00113646
0.0013835
0.00167674
0.00194408
0.00214871
0.00228108
0.00235056
0.00237758
0.00237951
0.002371
0.00234295
0.00229299
0.00222252
0.00213477
0.00203022
0.00192213
0.00189421
0.00182691
0.0017396
0.00163935
0.00153484
0.00143134
0.0013322
0.00123989
0.00115666
0.00108453
0.00102705
0.000988939
0.000978312
0.00101244
0.00112493
0.00135493
0.00165287
0.00193758
0.00216141
0.002313
0.00239905
0.00243767
0.00244705
0.00243865
0.00241515
0.00236964
0.00230292
0.00221969
0.00212178
0.00202105
0.00217357
0.0021265
0.00205003
0.00195486
0.00184787
0.00173386
0.00161683
0.00149969
0.0013857
0.00127852
0.00118282
0.0011067
0.00105978
0.00106033
0.00114172
0.00133971
0.00162524
0.0019188
0.00216014
0.00233058
0.00243279
0.00248516
0.00250433
0.00250015
0.0024793
0.00243791
0.00237706
0.00230106
0.00221154
0.00211814
0.00244663
0.00241782
0.00236071
0.00227546
0.00217298
0.00205668
0.00193029
0.001797
0.00166014
0.00152387
0.00139383
0.00127904
0.00119179
0.00115319
0.00119356
0.0013492
0.00160539
0.00189274
0.00214618
0.00233463
0.00245414
0.00252148
0.00255223
0.00255546
0.00254036
0.00250412
0.00245091
0.00238248
0.00230093
0.00221461
0.00271007
0.00269609
0.00265546
0.00258471
0.0024916
0.00237899
0.00225018
0.00210854
0.00195704
0.00179979
0.00164247
0.0014943
0.0013687
0.00128875
0.00128476
0.00139185
0.00160511
0.00187048
0.00212311
0.00232571
0.00246411
0.00254722
0.00259187
0.00260645
0.00259985
0.00257243
0.00252619
0.00246505
0.00239083
0.00231165
0.00295838
0.00295535
0.00292767
0.00287146
0.00278893
0.00268301
0.00255621
0.00241174
0.00225227
0.00208161
0.00190516
0.00173171
0.00157464
0.00145772
0.00140966
0.00146576
0.00163004
0.00186109
0.00210078
0.00230887
0.00246217
0.00256236
0.00262266
0.00265162
0.00265561
0.00263845
0.00259996
0.00254666
0.00247874
0.00240723
0.00318314
0.0031877
0.00316905
0.00312335
0.00305045
0.00295131
0.00282805
0.00268346
0.00252013
0.00234162
0.00215309
0.00196289
0.00178394
0.00163881
0.00155265
0.00156068
0.00167417
0.00186858
0.00208667
0.00228908
0.00244949
0.0025635
0.00263834
0.00268075
0.00269783
0.00269409
0.00266767
0.00262573
0.00256609
0.00250211
0.00337943
0.00338291
0.00336736
0.00332708
0.00325937
0.00316413
0.00304297
0.00289817
0.00273235
0.00254894
0.00235338
0.00215379
0.00196287
0.00180077
0.00168714
0.00165289
0.00172297
0.00187355
0.00207101
0.00226383
0.00242131
0.002544
0.00263379
0.0026917
0.0027248
0.00273468
0.00272609
0.00269685
0.00264887
0.00259374
0.00354646
0.00354133
0.00352025
0.003477
0.00340805
0.003313
0.00319229
0.00304695
0.00287894
0.00269167
0.00249115
0.00228582
0.00208788
0.00191502
0.00178121
0.00171623
0.00174339
0.00185772
0.00202464
0.00220557
0.00237486
0.00251108
0.00261205
0.00268344
0.00272716
0.00275004
0.00275722
0.00274418
0.00271197
0.00267131
0.00367444
0.0036564
0.00362445
0.00357231
0.00349783
0.00339964
0.00327661
0.00312832
0.00295632
0.0027647
0.00256045
0.00235253
0.00215212
0.00197328
0.0018271
0.00173492
0.00171883
0.00179102
0.00192654
0.00209132
0.00225878
0.00240652
0.00252603
0.00261721
0.00268201
0.00272485
0.00275339
0.00276096
0.00274878
0.00272805
0.00374384
0.00371043
0.00366278
0.00359996
0.00351852
0.00341571
0.0032888
0.00313645
0.00296101
0.0027683
0.00256639
0.00236428
0.00217056
0.00199377
0.00184601
0.00173245
0.00167283
0.00168941
0.00177266
0.00190596
0.00206087
0.00221498
0.00235334
0.00246949
0.00256129
0.00263294
0.00268919
0.00272427
0.00273904
0.00274269
0.00372376
0.00367242
0.00361283
0.00354236
0.0034573
0.00335302
0.00322572
0.00307516
0.00290616
0.0027264
0.00254329
0.00236459
0.00219413
0.00203536
0.00189768
0.00177684
0.00168228
0.00163831
0.00164855
0.00171274
0.00181872
0.00195025
0.00208883
0.00222037
0.00233859
0.00244193
0.00252884
0.00259709
0.00264556
0.00267929
0.00357052
0.00351618
0.0034578
0.00339259
0.00331614
0.00322337
0.0031115
0.00298268
0.00284339
0.00270062
0.00255753
0.00241855
0.00228462
0.00215812
0.00204287
0.00193036
0.00181959
0.00173242
0.00167718
0.0016608
0.00168446
0.0017443
0.00183161
0.00193524
0.00204566
0.0021556
0.00225919
0.00235174
0.00242942
0.00249271
0.00329425
0.00325976
0.00322719
0.0031921
0.00314669
0.00308614
0.00301009
0.0029223
0.00282837
0.00273321
0.00263827
0.00254345
0.00244601
0.00235183
0.00226501
0.00217348
0.00207112
0.00197404
0.00188889
0.00182276
0.0017806
0.00176483
0.00177513
0.00180834
0.00185968
0.00192391
0.0019956
0.00206948
0.00214031
0.00220893
0.00303494
0.00303341
0.00304202
0.00304998
0.00304284
0.00301918
0.00298124
0.00293183
0.00287483
0.00281477
0.00275295
0.00268903
0.00262088
0.00255205
0.00248889
0.0024211
0.00234357
0.00226406
0.00218706
0.00211771
0.00205993
0.0020156
0.00198615
0.00197117
0.0019687
0.00197657
0.00199286
0.00201554
0.00204248
0.00208309
0.00289414
0.00290386
0.00292847
0.00295324
0.0029666
0.00296594
0.00295169
0.00292483
0.00289002
0.00285065
0.00280726
0.00275987
0.00270909
0.00265797
0.00261022
0.00255968
0.00250758
0.00245393
0.00240371
0.0023597
0.00232495
0.0022989
0.00228269
0.00227465
0.0022721
0.00227331
0.00227802
0.00228547
0.00229732
0.00232092
0.00281457
0.00283339
0.00285682
0.00287637
0.00288549
0.002884
0.00287342
0.00285532
0.0028318
0.00280468
0.00277351
0.00273927
0.00270202
0.00266517
0.00262815
0.00259387
0.00256262
0.00253422
0.00251191
0.00249785
0.0024929
0.00249859
0.00251155
0.00252911
0.00254766
0.00256565
0.00258508
0.00260414
0.00262017
0.00262672
0.000177579
0.000182046
0.000178591
0.000173336
0.0001667
0.000159222
0.000151418
0.00014369
0.00013632
0.000129545
0.000123468
0.000118216
0.000113838
0.000110522
0.000108327
0.000107555
0.000108383
0.000111316
0.000116801
0.000124307
0.000131983
0.000138062
0.000141588
0.000142076
0.000139284
0.000132809
0.000122471
0.000107058
8.80116e-05
7.27997e-05
0.000756825
0.000852861
0.000855619
0.000802891
0.000735272
0.000669025
0.00060962
0.000557579
0.000512381
0.000473786
0.000440836
0.000414002
0.000392492
0.000377704
0.000368257
0.000366969
0.000371889
0.000384642
0.000402734
0.000425582
0.000452015
0.000478354
0.000499965
0.000510204
0.00050271
0.000474148
0.000430843
0.000375694
0.000326935
0.00027848
0.00117729
0.00135402
0.00139477
0.0013517
0.00127477
0.00118746
0.00110136
0.0010219
0.000950613
0.000888459
0.000835066
0.00079206
0.000759302
0.000740058
0.0007331
0.000744046
0.000765272
0.000792355
0.000815946
0.000838064
0.00086468
0.000893325
0.000919039
0.000929412
0.000908125
0.000858602
0.000781395
0.000678957
0.000578576
0.00049184
0.00144909
0.00166306
0.00172689
0.00170327
0.00163797
0.00155283
0.00146103
0.00137262
0.00129096
0.00121819
0.00115554
0.00110649
0.00107238
0.00105828
0.00106473
0.00109964
0.00114574
0.00118896
0.00121458
0.00123421
0.00125512
0.00127537
0.00129666
0.00130217
0.00127402
0.00120806
0.00110644
0.000971349
0.000830813
0.000708005
0.00160668
0.00180088
0.00188837
0.0018982
0.00185432
0.00178192
0.00169466
0.00161064
0.00153046
0.0014568
0.00139346
0.00134669
0.00131912
0.0013175
0.00134577
0.00141217
0.00148592
0.00154342
0.00156937
0.00157859
0.0015921
0.00160874
0.00162306
0.00162458
0.00159198
0.00151693
0.00140146
0.00124613
0.00107873
0.000926782
0.00170306
0.00186735
0.0019503
0.0019729
0.00195246
0.00190093
0.0018379
0.00175941
0.00168216
0.00161442
0.00155685
0.00152026
0.00150576
0.00152285
0.00158117
0.00168358
0.00178511
0.00185306
0.00187732
0.00187899
0.00188242
0.0018921
0.00190172
0.00190059
0.00186709
0.00178847
0.0016672
0.00150259
0.00131869
0.0011452
0.00175532
0.00185311
0.00191489
0.00194471
0.00194484
0.00192041
0.00187621
0.00181841
0.00175823
0.0017038
0.00166147
0.0016358
0.00163972
0.00168168
0.00177654
0.00191751
0.0020469
0.00212137
0.00214224
0.00213818
0.00213299
0.00213355
0.00213943
0.00213632
0.00210334
0.00202805
0.00190649
0.00174092
0.00155064
0.00135986
0.00174601
0.00177308
0.00181067
0.00184077
0.00185611
0.00185341
0.00183448
0.00180264
0.0017661
0.00173158
0.00170704
0.00170159
0.0017279
0.00180138
0.00193644
0.002118
0.00227371
0.00235284
0.00236976
0.00236128
0.00234917
0.00234082
0.00234355
0.00233823
0.00230634
0.00223685
0.00212249
0.00196318
0.00177085
0.00156773
0.00172182
0.00169484
0.00169984
0.00171639
0.00173523
0.00174688
0.00174745
0.00173769
0.00172162
0.00170734
0.00170544
0.00172475
0.0017769
0.00188393
0.00206533
0.00228835
0.00246739
0.00255208
0.00256577
0.00255407
0.00253615
0.00252151
0.00252091
0.00251244
0.00248184
0.00241919
0.00231666
0.00216281
0.00197305
0.00176577
0.00172526
0.00164833
0.00161517
0.0016068
0.00161506
0.00162918
0.00164138
0.00164819
0.00165096
0.00165484
0.00166989
0.00171171
0.00179266
0.00193992
0.00216851
0.00243015
0.00263106
0.00272259
0.00273616
0.00272169
0.00269766
0.00268052
0.00267702
0.00266537
0.00263543
0.00257957
0.00248301
0.0023403
0.00215802
0.00195431
0.00178802
0.00168366
0.00159224
0.00154568
0.00152994
0.00153273
0.00154468
0.00155921
0.0015745
0.00159252
0.00162185
0.00167745
0.00178299
0.00197305
0.00224685
0.00254774
0.00276877
0.00286807
0.0028851
0.00286776
0.00284038
0.00282251
0.00281602
0.00280178
0.00277321
0.00271784
0.00262772
0.00249754
0.0023263
0.00213381
0.00187947
0.00176147
0.00164959
0.00156497
0.00151195
0.00149158
0.00149013
0.00150003
0.0015169
0.00154059
0.00157798
0.00164343
0.00176146
0.00199103
0.00231008
0.00264306
0.00287811
0.00298782
0.0030115
0.00299287
0.00297022
0.00295218
0.00294246
0.0029262
0.00289549
0.00284087
0.00275624
0.00263705
0.00248004
0.00230297
0.00202769
0.00190153
0.00177877
0.00166905
0.00158636
0.00153543
0.00150861
0.00150035
0.00150529
0.00152232
0.00155767
0.00162516
0.0017492
0.00200184
0.00236064
0.00271848
0.00296062
0.00308047
0.00311328
0.00310804
0.00308792
0.00307207
0.00305975
0.00304194
0.00300844
0.00295414
0.00287415
0.00276507
0.00262556
0.00246364
0.00224141
0.00212672
0.0019979
0.00187248
0.00176562
0.00168313
0.00162299
0.00158428
0.0015636
0.00155983
0.00158079
0.00163947
0.00176229
0.00202093
0.00240502
0.00278433
0.00303052
0.00315543
0.00320436
0.00321181
0.00319693
0.00318437
0.00317211
0.00315149
0.00311594
0.00306229
0.00298712
0.00289033
0.00276536
0.00261725
0.00252054
0.00241711
0.00229333
0.00216371
0.00204142
0.00193121
0.00183645
0.00176089
0.00170479
0.00166924
0.00166147
0.00169485
0.0018097
0.0020626
0.0024489
0.00283664
0.00309444
0.00323033
0.00329073
0.00330699
0.00329876
0.00329031
0.00327894
0.00325755
0.0032216
0.00316957
0.0031032
0.00301611
0.00290178
0.00276454
0.00283793
0.00275263
0.0026416
0.00251666
0.00238516
0.00225419
0.00212971
0.0020182
0.00192344
0.00184961
0.00180632
0.00180871
0.00189908
0.00212582
0.00249985
0.0028829
0.0031493
0.00330198
0.00337631
0.00340187
0.00339885
0.00339186
0.00338152
0.00336193
0.00332845
0.00328367
0.00322458
0.00314395
0.00303642
0.00290778
0.00317925
0.00311161
0.00301613
0.0028968
0.00276138
0.00261687
0.00247015
0.00232831
0.00219769
0.00208554
0.00200387
0.00197188
0.00202567
0.00222451
0.00256183
0.00292999
0.00319205
0.00335693
0.00344539
0.00348217
0.00348877
0.00348903
0.00348209
0.00347005
0.00344365
0.00340586
0.00335048
0.0032752
0.00317219
0.00305026
0.00352699
0.00347294
0.00338913
0.00327572
0.00313935
0.00298632
0.00282348
0.00265798
0.00249729
0.00235063
0.00223197
0.00216391
0.00217695
0.00233714
0.00262751
0.0029611
0.00322817
0.0033976
0.00349705
0.00354826
0.00356696
0.00357704
0.0035808
0.00357549
0.00355794
0.00352957
0.00348262
0.00340945
0.0033101
0.00319451
0.00386404
0.00381744
0.00374034
0.00363076
0.00349389
0.00333501
0.00316025
0.00297636
0.00279108
0.0026145
0.0024619
0.00235729
0.0023309
0.0024409
0.00268061
0.00297619
0.0032317
0.0034159
0.00353144
0.00359817
0.00363083
0.00364477
0.00365833
0.00366405
0.00366295
0.00364936
0.00361045
0.00354287
0.00344794
0.00334148
0.00417363
0.0041278
0.00405201
0.00394303
0.00380461
0.00364063
0.00345615
0.00325704
0.00305081
0.00284794
0.00266439
0.00252418
0.0024596
0.00251021
0.00269789
0.00295104
0.00319087
0.00337873
0.00351116
0.00359714
0.00364649
0.00367735
0.00370253
0.00372215
0.00373361
0.00373495
0.0037126
0.00366034
0.00357777
0.00348215
0.00443813
0.00438675
0.00430735
0.00419576
0.0040541
0.0038847
0.00369119
0.00347832
0.00325331
0.00302695
0.0028157
0.00264263
0.00253904
0.00253371
0.00266207
0.00286639
0.00308483
0.00327186
0.00341555
0.00352177
0.0035958
0.0036497
0.00369485
0.00373336
0.00376114
0.00377635
0.00377118
0.00373821
0.00367948
0.00360179
0.00463683
0.00457607
0.00448961
0.00437302
0.00422679
0.0040516
0.00384959
0.00362435
0.00338326
0.00313802
0.00290562
0.00270756
0.00257142
0.00251948
0.00258251
0.00273081
0.00290724
0.00307919
0.0032294
0.00335409
0.00345371
0.00353599
0.00360916
0.00367266
0.00372422
0.0037612
0.00377801
0.00376673
0.00373178
0.00367977
0.00474835
0.00467578
0.00458098
0.00445897
0.00430863
0.00412907
0.00392132
0.00368806
0.0034381
0.00318487
0.00294569
0.00273926
0.00258676
0.00250391
0.00250849
0.00259026
0.00270733
0.00283963
0.00297299
0.00309944
0.00321594
0.0033223
0.00342217
0.00351459
0.00359639
0.00366337
0.00371001
0.00372923
0.00372248
0.00370149
0.00474897
0.00466555
0.00456496
0.00444102
0.00429111
0.00411337
0.00390871
0.00367879
0.0034358
0.00319487
0.00297189
0.00278068
0.002634
0.00254004
0.00250602
0.00252529
0.00257586
0.00264615
0.00273073
0.00282553
0.00292734
0.00303379
0.00314448
0.00325658
0.00336481
0.00346262
0.00354265
0.0035983
0.0036274
0.00363319
0.00462258
0.00453427
0.00443697
0.00432102
0.00418326
0.00402017
0.00383295
0.00362778
0.00341728
0.00321508
0.00303251
0.00287687
0.00275344
0.00266457
0.0026128
0.00259118
0.00258226
0.00258668
0.00260593
0.00264184
0.00269517
0.00276541
0.00285229
0.0029534
0.00306307
0.0031731
0.00327369
0.00335682
0.00341717
0.00345079
0.00438409
0.00429998
0.00421862
0.00412791
0.00402206
0.00389542
0.00374988
0.00359298
0.00343583
0.00328816
0.00315597
0.00304153
0.00294596
0.00286901
0.00281192
0.00276808
0.0027207
0.00267804
0.00264424
0.00262368
0.00261979
0.00263426
0.00266905
0.0027247
0.00279814
0.00288292
0.00296931
0.00304874
0.00311487
0.00316274
0.00409301
0.00403476
0.00398896
0.00394588
0.00389144
0.00381546
0.00372229
0.00361883
0.00351395
0.00341423
0.00332264