/*--------------------------------*- C++ -*----------------------------------*\
  =========                 |
  \\      /  F ield         | OpenFOAM: The Open Source CFD Toolbox
   \\    /   O peration     | Website:  https://openfoam.org
    \\  /    A nd           | Version:  12
     \\/     M anipulation  |
\*---------------------------------------------------------------------------*/
FoamFile
{
    format      ascii;
    class       volScalarField;
    location    "1300/air";
    object      p_rgh;
}
// * * * * * * * * * * * * * * * * * * * * * * * * * * * * * * * * * * * * * //

dimensions      [1 -1 -2 0 0 0 0];

internalField   nonuniform List<scalar> 
243000
(
29.7009
29.7037
29.6869
29.6054
29.5225
29.4471
29.3816
29.3289
29.2895
29.2653
29.257
29.2642
29.2825
29.3153
29.357
29.4186
29.4907
29.5782
29.6689
29.763
29.8543
29.9413
30.0205
30.09
30.1521
30.2019
30.2508
30.2757
30.3302
30.3139
29.6933
29.6844
29.6669
29.598
29.5241
29.4514
29.3874
29.3356
29.2966
29.2742
29.2675
29.2753
29.2934
29.3258
29.3667
29.4275
29.4985
29.5854
29.6766
29.7713
29.8629
29.9502
30.0295
30.0988
30.1605
30.2093
30.258
30.2821
30.3382
30.3081
29.6784
29.6364
29.6143
29.5459
29.4787
29.4139
29.3575
29.3122
29.2787
29.2609
29.258
29.2682
29.2874
29.3201
29.361
29.4217
29.4922
29.5798
29.673
29.7696
29.8626
29.9506
30.0303
30.1
30.1622
30.2108
30.26
30.2793
30.3374
30.2976
29.6644
29.5813
29.5545
29.4855
29.4243
29.3672
29.3178
29.2788
29.2505
29.2371
29.2378
29.2505
29.2708
29.3036
29.344
29.4041
29.4734
29.5599
29.6514
29.7467
29.8387
29.9263
30.0067
30.0779
30.1439
30.1962
30.2508
30.2675
30.3314
30.2873
29.6504
29.5388
29.5069
29.4365
29.3787
29.3265
29.2816
29.2465
29.2212
29.2103
29.2127
29.2268
29.2478
29.2802
29.3193
29.378
29.4452
29.5297
29.6191
29.7125
29.8028
29.89
29.9713
30.0446
30.1138
30.1694
30.2295
30.2455
30.3178
30.2735
29.634
29.5185
29.4745
29.404
29.3481
29.2978
29.255
29.2217
29.1976
29.1868
29.1888
29.2026
29.2232
29.2545
29.2914
29.3477
29.4119
29.4935
29.5799
29.6704
29.7586
29.8452
29.9275
30.003
30.0758
30.135
30.2007
30.2177
30.297
30.2536
29.6109
29.5063
29.4559
29.3895
29.3327
29.2801
29.2379
29.2048
29.18
29.1676
29.1679
29.1795
29.198
29.227
29.2607
29.3134
29.3736
29.4512
29.5332
29.62
29.7057
29.7916
29.875
29.953
30.0295
30.0927
30.1641
30.1841
30.2687
30.2266
29.5759
29.4837
29.4457
29.3853
29.3282
29.2749
29.2302
29.1942
29.1674
29.1527
29.1505
29.159
29.1738
29.1992
29.2285
29.2765
29.3314
29.4037
29.48
29.5624
29.6452
29.7303
29.815
29.8956
29.9761
30.0433
30.1203
30.1449
30.2339
30.1953
29.5257
29.4372
29.4213
29.3782
29.3265
29.2746
29.228
29.1886
29.1585
29.1411
29.1357
29.141
29.1516
29.1722
29.1961
29.238
29.2864
29.3521
29.4217
29.4987
29.5783
29.6626
29.7485
29.832
29.9165
29.9881
30.0705
30.1007
30.1933
30.1598
29.4689
29.3738
29.3759
29.3517
29.312
29.2681
29.2237
29.1838
29.1514
29.1316
29.1227
29.1247
29.1312
29.1469
29.1645
29.1992
29.24
29.2975
29.3595
29.4305
29.5064
29.5898
29.6771
29.7636
29.8522
29.9283
30.0156
30.0522
30.148
30.121
29.4058
29.3067
29.315
29.307
29.2815
29.2466
29.209
29.1725
29.1421
29.1222
29.1111
29.1095
29.1118
29.123
29.1341
29.161
29.1929
29.2412
29.2947
29.3592
29.4311
29.5134
29.6021
29.6915
29.7843
29.8651
29.9567
30.0007
30.0991
30.0796
29.3379
29.2364
29.2479
29.2486
29.2363
29.2125
29.1828
29.153
29.127
29.1093
29.0978
29.0941
29.0926
29.0993
29.1047
29.1238
29.1463
29.1843
29.2288
29.2862
29.3537
29.4346
29.5246
29.6171
29.714
29.7994
29.8952
29.947
30.0476
30.0368
29.2666
29.1644
29.1778
29.1831
29.1786
29.1669
29.1458
29.1229
29.1026
29.0891
29.0797
29.0761
29.0724
29.0753
29.0753
29.0878
29.101
29.1284
29.1628
29.2128
29.2757
29.355
29.446
29.5415
29.6424
29.7322
29.832
29.8918
29.9945
29.9936
29.1916
29.0912
29.1056
29.1142
29.1143
29.1105
29.0998
29.0839
29.0693
29.06
29.0539
29.0524
29.0489
29.0498
29.0449
29.0517
29.0568
29.0742
29.0983
29.14
29.1982
29.2755
29.3673
29.4656
29.5701
29.6645
29.768
29.836
29.9397
29.951
29.1126
29.0165
29.0317
29.0436
29.0476
29.0479
29.0454
29.0373
29.0286
29.0234
29.02
29.0212
29.0196
29.0205
29.0123
29.0141
29.0127
29.0216
29.0364
29.0694
29.1221
29.1973
29.2895
29.3903
29.498
29.5971
29.7044
29.7801
29.8839
29.9086
29.0304
28.941
28.9564
28.9711
28.9792
28.9835
28.9852
28.9841
28.9811
28.9802
28.9794
28.9825
28.9832
28.9855
28.9758
28.9743
28.968
28.9699
28.9768
29.002
29.0487
29.1212
29.2133
29.3161
29.4267
29.5307
29.6414
29.724
29.8279
29.8667
28.9446
28.8637
28.8794
28.8966
28.9082
28.9169
28.9224
28.9265
28.9284
28.931
28.933
28.9372
28.9395
28.9433
28.9337
28.9308
28.9213
28.9182
28.9187
28.9374
28.9786
29.0478
29.1393
29.2434
29.357
29.4657
29.579
29.6684
29.772
29.8251
28.854
28.7842
28.7999
28.8193
28.8338
28.8464
28.856
28.8643
28.8707
28.8765
28.8809
28.8864
28.8894
28.8939
28.8846
28.8818
28.8711
28.8651
28.8615
28.8749
28.9117
28.9775
29.0678
29.173
29.2889
29.4013
29.517
29.6134
29.7165
29.7826
28.7573
28.7013
28.7174
28.7388
28.756
28.7718
28.7852
28.7972
28.8073
28.8162
28.823
28.8301
28.8337
28.8383
28.8289
28.8264
28.8158
28.809
28.8033
28.8132
28.8467
28.9098
28.999
29.1049
29.2221
29.3379
29.4557
29.5582
29.6616
29.7389
28.653
28.6127
28.6299
28.6538
28.674
28.6929
28.7101
28.7258
28.7391
28.7505
28.7593
28.7679
28.7722
28.7769
28.7673
28.7647
28.7545
28.7483
28.7428
28.7513
28.7825
28.8437
28.9316
29.0378
29.1561
29.2748
29.3946
29.5021
29.607
29.6933
28.54
28.516
28.5348
28.5618
28.5854
28.6082
28.6302
28.6498
28.666
28.6798
28.6903
28.6999
28.7045
28.7093
28.6996
28.6973
28.6874
28.6821
28.678
28.6873
28.718
28.7777
28.8641
28.9705
29.0897
29.2108
29.3325
29.4445
29.5513
29.6451
28.4149
28.407
28.4281
28.4586
28.4875
28.5162
28.5434
28.5668
28.5862
28.6026
28.6148
28.6256
28.6305
28.6356
28.626
28.624
28.6147
28.6104
28.6078
28.6193
28.6509
28.7094
28.7953
28.9024
29.0221
29.1449
29.2681
29.384
29.4928
29.5931
28.2729
28.2784
28.3044
28.3425
28.3795
28.4147
28.4465
28.4742
28.4972
28.5166
28.531
28.5432
28.5489
28.5545
28.5458
28.5447
28.5364
28.5334
28.5323
28.5461
28.5788
28.638
28.7252
28.8325
28.9522
29.0761
29.2003
29.3193
29.4303
29.536
28.1056
28.1242
28.1605
28.2084
28.2538
28.2964
28.335
28.3687
28.3969
28.4202
28.4375
28.4519
28.4588
28.4652
28.4575
28.4578
28.451
28.4501
28.4513
28.4674
28.5024
28.5639
28.6523
28.7596
28.8788
29.0029
29.1275
29.2485
29.3611
29.4708
27.9187
27.9509
27.9984
28.0559
28.1113
28.1636
28.2106
28.2516
28.2861
28.3143
28.3355
28.3527
28.3615
28.3689
28.3625
28.364
28.359
28.3611
28.3652
28.3849
28.4237
28.4878
28.5771
28.6842
28.8025
28.9258
29.0498
29.1718
29.2854
29.3981
27.6736
27.7189
27.7843
27.861
27.9361
28.0064
28.0683
28.1219
28.1667
28.203
28.2305
28.2527
28.2651
28.275
28.2701
28.2721
28.2683
28.2717
28.2777
28.3006
28.3425
28.4086
28.4975
28.603
28.719
28.8397
28.9613
29.0819
29.1938
29.3061
27.437
27.5051
27.5934
27.6912
27.7868
27.8732
27.9479
28.0126
28.066
28.1089
28.1412
28.1674
28.1831
28.1959
28.1932
28.196
28.1925
28.1969
28.2047
28.2296
28.2729
28.3397
28.4283
28.533
28.6475
28.7661
28.886
29.0062
29.1173
29.2302
26.9824
27.1057
27.2552
27.4122
27.56
27.6861
27.79
27.8786
27.9516
28.0089
28.0522
28.087
28.108
28.1246
28.1236
28.1261
28.1206
28.1224
28.1275
28.1492
28.1878
28.2478
28.3295
28.4276
28.534
28.6434
28.7527
28.8621
28.9605
29.0635
26.9911
27.1543
27.331
27.5034
27.6571
27.7803
27.8764
27.9534
28.0159
28.0654
28.1034
28.1341
28.152
28.1656
28.1622
28.1636
28.1581
28.1633
28.1737
28.2025
28.2488
28.3166
28.4063
28.5146
28.6317
28.7534
28.8741
28.9966
29.1054
29.2201
25.6754
25.9444
26.267
26.5884
26.8671
27.0831
27.2483
27.3775
27.4783
27.5584
27.6182
27.6662
27.6949
27.7153
27.7117
27.7086
27.6927
27.6823
27.6718
27.6748
27.6906
27.7262
27.781
27.8474
27.9158
27.9839
28.0513
28.1172
28.1746
28.2568
29.4942
29.4062
29.3593
29.2668
29.1949
29.1443
29.1083
29.0848
29.0716
29.0699
29.0788
29.0991
29.1237
29.1592
29.1939
29.2434
29.2954
29.3639
29.4366
29.5192
29.6073
29.7027
29.8016
29.9003
29.9992
30.0884
30.1769
30.2309
30.3013
30.2863
29.4776
29.3759
29.3361
29.2542
29.1943
29.1469
29.1123
29.0894
29.0779
29.0775
29.0869
29.1071
29.1314
29.1663
29.2002
29.2492
29.3005
29.3691
29.4426
29.5263
29.6154
29.7119
29.8115
29.9103
30.0094
30.098
30.1862
30.2371
30.3086
30.2775
29.4566
29.3484
29.3077
29.2319
29.1778
29.1347
29.1035
29.0836
29.0741
29.0755
29.0851
29.1052
29.1291
29.1635
29.1962
29.2439
29.2934
29.3604
29.4316
29.5133
29.6013
29.6981
29.7993
29.8998
30.0007
30.0899
30.1806
30.227
30.3088
30.2653
29.4341
29.3218
29.2774
29.206
29.1586
29.1209
29.094
29.0771
29.0696
29.0723
29.0823
29.1021
29.1253
29.1586
29.1895
29.2354
29.2821
29.3463
29.4141
29.4922
29.5767
29.671
29.7707
29.8731
29.977
30.0682
30.1639
30.2062
30.2978
30.2503
29.4163
29.302
29.2518
29.1862
29.1432
29.1092
29.0854
29.0706
29.0641
29.0672
29.0769
29.096
29.1179
29.1496
29.1779
29.2211
29.2636
29.3238
29.387
29.4607
29.5411
29.6329
29.7315
29.8334
29.9384
30.0319
30.1317
30.1752
30.2785
30.2299
29.3953
29.2895
29.2368
29.1755
29.1351
29.103
29.0802
29.0661
29.0597
29.0623
29.0711
29.0887
29.1086
29.1382
29.1631
29.2025
29.2398
29.2948
29.3521
29.4205
29.4966
29.5861
29.6839
29.7858
29.8924
29.9876
30.0922
30.1366
30.2512
30.2036
29.3689
29.2797
29.2337
29.1765
29.1366
29.1043
29.0807
29.0648
29.0567
29.0583
29.0655
29.0811
29.0985
29.1251
29.1461
29.1807
29.2117
29.2603
29.3107
29.3732
29.4451
29.5323
29.6297
29.7321
29.8405
29.9377
30.0468
30.0935
30.2172
30.1718
29.3298
29.2492
29.2285
29.1802
29.1422
29.1095
29.0847
29.067
29.057
29.0558
29.0605
29.0738
29.0881
29.1114
29.1274
29.1566
29.1805
29.2213
29.2641
29.3204
29.3879
29.4731
29.5703
29.6737
29.7842
29.8836
29.997
30.0471
30.1774
30.1363
29.2845
29.2049
29.2047
29.1776
29.1468
29.116
29.0911
29.0722
29.0599
29.0558
29.0571
29.0672
29.0779
29.0973
29.108
29.1312
29.147
29.1791
29.2136
29.2634
29.3265
29.41
29.5074
29.6121
29.7248
29.8266
29.9438
29.9984
30.1331
30.0981
29.2388
29.157
29.1661
29.1556
29.14
29.1189
29.0962
29.0777
29.0642
29.0577
29.0557
29.0621
29.0684
29.0833
29.0885
29.1049
29.1119
29.1348
29.1607
29.2037
29.2626
29.3445
29.4423
29.5484
29.6634
29.7678
29.8884
29.9482
30.0853
30.058
29.1933
29.1088
29.1237
29.123
29.119
29.1085
29.0945
29.0798
29.067
29.0596
29.0551
29.0582
29.0599
29.07
29.0687
29.0778
29.076
29.0896
29.1066
29.1426
29.1973
29.2777
29.376
29.4838
29.6011
29.7083
29.8317
29.8976
30.0352
30.0165
29.148
29.06
29.0798
29.0844
29.0872
29.0861
29.0802
29.0721
29.0633
29.0581
29.0533
29.0543
29.0519
29.0575
29.0484
29.0499
29.0397
29.0441
29.0526
29.0815
29.132
29.211
29.3099
29.4194
29.539
29.6489
29.7746
29.8475
29.9834
29.9749
29.1026
29.0092
29.0317
29.0407
29.0483
29.0532
29.0549
29.0543
29.0507
29.0494
29.0467
29.0477
29.0429
29.0446
29.0281
29.0215
29.003
28.9992
28.9995
29.0216
29.0678
29.1454
29.2448
29.3561
29.4778
29.5904
29.7177
29.7981
29.9309
29.9347
29.0551
28.9563
28.9809
28.994
29.0057
29.0147
29.0215
29.0266
29.0293
29.0322
29.0328
29.0357
29.0306
29.0299
29.0073
28.9929
28.9657
28.9547
28.948
28.9635
29.0058
29.0819
29.1817
29.2947
29.4184
29.5336
29.6617
29.7489
29.8778
29.8966
29.0047
28.9023
28.9287
28.9449
28.9601
28.973
28.9834
28.9925
28.9998
29.0074
29.0114
29.0168
29.0131
29.0116
28.9844
28.9638
28.9285
28.9109
28.8985
28.9078
28.9465
29.0212
29.1213
29.2358
29.3612
29.4789
29.6065
29.7011
29.8257
29.86
28.9499
28.8462
28.8751
28.8934
28.9113
28.9278
28.9417
28.9545
28.9651
28.9761
28.9833
28.9913
28.9893
28.9882
28.958
28.9331
28.8913
28.8682
28.851
28.8551
28.8907
28.9639
29.0643
29.1802
29.3069
29.4257
29.5533
29.6552
29.7746
29.826
28.8908
28.7874
28.819
28.8402
28.8604
28.8799
28.8971
28.9131
28.9269
28.9405
28.9502
28.9603
28.9596
28.9592
28.927
28.8997
28.8537
28.8267
28.8057
28.8056
28.8388
28.9108
29.0113
29.1281
29.2557
29.3769
29.5046
29.6099
29.7243
29.7938
28.8266
28.728
28.7613
28.7855
28.808
28.8301
28.8503
28.8692
28.8859
28.9021
28.9136
28.9254
28.9254
28.9251
28.8914
28.863
28.8151
28.7859
28.7627
28.7599
28.791
28.8623
28.9622
29.0791
29.207
29.3327
29.4582
29.5674
29.6785
29.7606
28.7557
28.6668
28.7018
28.7291
28.7544
28.7792
28.8023
28.824
28.8434
28.862
28.8751
28.8879
28.8881
28.8874
28.8521
28.8231
28.7746
28.7453
28.722
28.7181
28.7477
28.8178
28.9162
29.0333
29.1608
29.2884
29.4138
29.5274
29.6362
29.7278
28.6763
28.6025
28.6397
28.6704
28.699
28.7271
28.7533
28.7783
28.8005
28.8213
28.8357
28.849
28.849
28.8473
28.8104
28.7808
28.7323
28.7045
28.6828
28.6793
28.709
28.7775
28.8749
28.9915
29.1176
29.2451
29.3723
29.4892
29.5967
29.6954
28.5859
28.5325
28.5729
28.608
28.6406
28.6725
28.7024
28.7313
28.7567
28.78
28.7958
28.8097
28.8091
28.8065
28.7682
28.7381
28.69
28.6643
28.6437
28.6437
28.6754
28.7435
28.8389
28.952
29.0768
29.2055
29.3334
29.4525
29.5592
29.6629
28.4833
28.4539
28.4982
28.5387
28.5763
28.6127
28.6476
28.6814
28.7112
28.7376
28.7553
28.77
28.7691
28.7664
28.728
28.6981
28.6499
28.6264
28.6074
28.6122
28.6473
28.7139
28.8051
28.9146
29.0387
29.1685
29.296
29.4166
29.5227
29.6303
28.3682
28.3644
28.4146
28.4616
28.5071
28.552
28.5938
28.6323
28.6648
28.6948
28.7148
28.7308
28.73
28.7273
28.6894
28.6618
28.6146
28.5929
28.5765
28.5839
28.6208
28.6847
28.7728
28.8804
29.0047
29.1339
29.2601
29.3808
29.4864
29.5964
28.2412
28.2606
28.3193
28.3758
28.4301
28.4831
28.5339
28.581
28.6189
28.6526
28.6753
28.6931
28.693
28.6901
28.6524
28.6266
28.5817
28.5628
28.5486
28.558
28.5944
28.6572
28.7434
28.8502
28.9737
29.1018
29.2261
29.3458
29.4501
29.5609
28.1016
28.1466
28.2155
28.2821
28.3475
28.4105
28.4707
28.5268
28.5734
28.6128
28.6387
28.6587
28.6595
28.6571
28.62
28.5944
28.5504
28.5337
28.5229
28.5359
28.5732
28.6359
28.7219
28.8296
28.9502
29.0742
29.195
29.3127
29.4156
29.5267
27.9416
28.0155
28.0983
28.179
28.2592
28.3381
28.413
28.4798
28.5326
28.5764
28.6047
28.6265
28.6275
28.6253
28.5895
28.5656
28.5234
28.5092
28.5029
28.521
28.5613
28.6287
28.7174
28.8237
28.9391
29.0565
29.1705
29.2823
29.381
29.4914
27.7884
27.8956
27.992
28.0881
28.1855
28.2806
28.369
28.4457
28.504
28.5517
28.5822
28.6062
28.6067
28.6049
28.5704
28.548
28.5066
28.4954
28.4939
28.5186
28.5647
28.6351
28.7252
28.8315
28.9459
29.0616
29.1729
29.2809
29.3746
29.4786
27.6242
27.7613
27.8772
28.0004
28.1268
28.2479
28.3544
28.4442
28.518
28.5721
28.6061
28.6331
28.6343
28.6336
28.6019
28.581
28.5367
28.5239
28.5206
28.5435
28.5866
28.6538
28.7417
28.8466
28.9591
29.0715
29.1771
29.2765
29.3582
29.4533
27.6919
27.8514
27.9883
28.1364
28.2854
28.4249
28.5442
28.6418
28.7202
28.78
28.8188
28.8484
28.8496
28.849
28.8175
28.7944
28.7431
28.724
28.7139
28.7309
28.7676
28.8279
28.909
29.0075
29.115
29.2241
29.3281
29.4265
29.5055
29.5915
28.4211
28.5561
28.6607
28.7905
28.9268
29.0528
29.1559
29.2344
29.292
29.3322
29.3532
29.3661
29.3537
29.3429
29.305
29.2782
29.2245
29.2087
29.2031
29.2276
29.2738
29.3451
29.4374
29.5487
29.6697
29.7911
29.9044
30.0113
30.0999
30.1992
29.5607
29.3813
29.3255
29.2042
29.1162
29.0616
29.0307
29.0159
29.0104
29.0197
29.0381
29.0681
29.096
29.1348
29.1585
29.1938
29.211
29.2402
29.2623
29.3007
29.3572
29.4411
29.5472
29.6703
29.8065
29.9398
30.0762
30.1702
30.2731
30.2711
29.5373
29.3395
29.2957
29.1878
29.1153
29.065
29.036
29.0237
29.0198
29.0301
29.0486
29.0784
29.1057
29.1443
29.1678
29.204
29.2224
29.2536
29.2774
29.3161
29.3711
29.4555
29.5617
29.6848
29.8208
29.9529
30.0883
30.178
30.2824
30.2655
29.5063
29.3097
29.2717
29.1735
29.1095
29.0648
29.0374
29.0261
29.024
29.0354
29.0539
29.0833
29.1097
29.1477
29.1701
29.2061
29.2234
29.2545
29.2764
29.3124
29.3656
29.4506
29.5581
29.6822
29.8184
29.9489
30.0853
30.1691
30.2841
30.2543
29.4629
29.2769
29.239
29.1513
29.0973
29.0596
29.0374
29.0274
29.0275
29.04
29.0584
29.0872
29.1122
29.1499
29.1705
29.2062
29.221
29.2499
29.2678
29.2993
29.3471
29.4276
29.5361
29.6619
29.7993
29.929
30.0673
30.1469
30.2718
30.234
29.4123
29.2452
29.2067
29.1295
29.0844
29.0529
29.0348
29.0274
29.0292
29.0419
29.0589
29.087
29.1111
29.1485
29.1666
29.2005
29.2112
29.236
29.2482
29.2741
29.3166
29.3927
29.4973
29.6212
29.7617
29.8922
30.0347
30.1117
30.2467
30.2057
29.3603
29.2147
29.176
29.1095
29.0723
29.0465
29.032
29.0268
29.0294
29.042
29.0582
29.0859
29.1087
29.1449
29.1596
29.1907
29.1956
29.2145
29.2199
29.2395
29.2765
29.3489
29.4506
29.5723
29.7116
29.8448
29.9899
30.0678
30.2131
30.1713
29.3067
29.1821
29.1477
29.0926
29.0621
29.0412
29.0295
29.0262
29.0293
29.0417
29.057
29.0841
29.1052
29.1396
29.15
29.1774
29.1751
29.1865
29.1844
29.1977
29.2292
29.2983
29.3979
29.5181
29.6566
29.7904
29.9378
30.0189
30.1723
30.1331
29.2519
29.1473
29.1217
29.0775
29.0533
29.0367
29.0273
29.0255
29.0289
29.041
29.0554
29.0818
29.1007
29.1331
29.1382
29.161
29.1504
29.1533
29.1433
29.1501
29.1763
29.2426
29.3409
29.4603
29.5983
29.7316
29.8822
29.9672
30.1258
30.0922
29.2002
29.1103
29.096
29.062
29.0447
29.0323
29.0256
29.0252
29.0285
29.0402
29.0535
29.0792
29.0953
29.1256
29.1247
29.1422
29.122
29.1161
29.098
29.0985
29.1193
29.1834
29.2811
29.4003
29.5383
29.6712
29.8242
29.9141
30.075
30.0496
29.1521
29.0725
29.0683
29.0444
29.034
29.0263
29.0229
29.0243
29.0279
29.0394
29.0516
29.0761
29.0892
29.1173
29.1097
29.1213
29.0906
29.0758
29.0498
29.0443
29.0598
29.1223
29.22
29.3396
29.4779
29.6104
29.7647
29.8604
30.0211
30.0065
29.1066
29.035
29.0391
29.0244
29.0208
29.018
29.0178
29.0213
29.0264
29.0381
29.0494
29.0729
29.0826
29.1084
29.0936
29.099
29.057
29.0333
28.9995
28.9884
28.9992
29.0605
29.1587
29.2794
29.4181
29.5504
29.7045
29.8067
29.9657
29.9641
29.0646
28.9967
29.0076
29.0012
29.0043
29.0068
29.01
29.0158
29.0227
29.0355
29.0465
29.069
29.0757
29.0988
29.0766
29.0754
29.0219
28.9894
28.9481
28.9319
28.9385
28.9991
29.0984
29.2207
29.3599
29.4929
29.6446
29.7537
29.9093
29.9229
29.0238
28.9559
28.9732
28.9748
28.9836
28.9912
28.9985
29.0071
29.0161
29.0303
29.0415
29.0634
29.0679
29.0882
29.0585
29.0509
28.9857
28.9449
28.8964
28.8759
28.8788
28.9392
29.0401
29.1643
29.3039
29.4392
29.587
29.7031
29.8527
29.8841
28.9824
28.9122
28.9367
28.9453
28.959
28.9711
28.9826
28.9945
29.0061
29.0224
29.0339
29.0557
29.0582
29.0761
29.039
29.0256
28.9492
28.9006
28.8454
28.821
28.821
28.8817
28.9847
29.1113
29.2507
29.3887
29.5344
29.6547
29.7965
29.8484
28.9403
28.8671
28.8978
28.9115
28.9299
28.9463
28.9621
28.9779
28.9922
29.0109
29.0241
29.0457
29.0461
29.0621
29.0177
28.9995
28.9127
28.8572
28.7957
28.768
28.7659
28.8273
28.9327
29.0613
29.2019
29.3432
29.4871
29.6083
29.7417
29.8155
28.8964
28.8194
28.8553
28.874
28.8966
28.917
28.9369
28.9572
28.9746
28.9956
29.0105
29.0328
29.0311
29.0457
28.9944
28.9725
28.8767
28.8154
28.7477
28.7175
28.7141
28.7765
28.8842
29.0142
29.1584
29.3018
29.4432
29.5665
29.6935
29.7834
28.8478
28.7695
28.8101
28.8337
28.8603
28.8848
28.9086
28.933
28.9541
28.9778
28.9932
29.0171
29.0132
29.0265
28.9692
28.9446
28.8415
28.7753
28.7019
28.6698
28.6658
28.7297
28.8392
28.9712
29.1177
29.2621
29.4033
29.5291
29.6511
29.7528
28.7927
28.718
28.7629
28.7912
28.8218
28.8507
28.8784
28.9066
28.9312
28.9579
28.9748
28.9994
28.9929
29.0051
28.9426
28.9159
28.8066
28.7368
28.6585
28.6253
28.6213
28.6862
28.7965
28.9298
29.0781
29.2257
29.3676
29.4954
29.6136
29.7235
28.7302
28.6641
28.7134
28.7467
28.7815
28.8149
28.847
28.8791
28.9071
28.9368
28.9551
28.9804
28.9713
28.9825
28.9152
28.8875
28.7729
28.7007
28.6182
28.5839
28.5804
28.6453
28.755
28.8901
29.0414
29.1925
29.3349
29.4649
29.5802
29.6956
28.659
28.6075
28.6612
28.7001
28.7397
28.7782
28.8148
28.8512
28.883
28.9158
28.9354
28.9614
28.9497
28.9604
28.8884
28.8617
28.743
28.6679
28.5809
28.5457
28.5419
28.6056
28.7158
28.8538
29.0074
29.1607
29.3045
29.4366
29.5499
29.6691
28.5783
28.5474
28.606
28.6514
28.6965
28.7405
28.7824
28.8237
28.8594
28.8959
28.917
28.9441
28.9302
28.9407
28.8647
28.8401
28.7173
28.6389
28.5475
28.5104
28.505
28.5691
28.6794
28.8202
28.9748
29.1299
29.2756
29.4099
29.5219
29.6436
28.4884
28.4825
28.5468
28.5998
28.6518
28.7022
28.7502
28.7973
28.8377
28.8782
28.9013
28.9297
28.9143
28.9252
28.8465
28.8244
28.6973
28.616
28.5197
28.4781
28.4734
28.5385
28.6473
28.7887
28.9437
29.1002
29.2471
29.3837
29.4955
29.6189
28.3917
28.41
28.4831
28.5451
28.6056
28.6643
28.7197
28.7732
28.8186
28.8632
28.8888
28.9187
28.9027
28.9146
28.8347
28.8162
28.6859
28.6018
28.4993
28.454
28.4517
28.5136
28.6204
28.7609
28.9154
29.0721
29.219
29.3568
29.4694
29.5936
28.2855
28.3303
28.4155
28.4891
28.5602
28.6283
28.6916
28.7521
28.8027
28.8517
28.8796
28.911
28.895
28.9087
28.8289
28.8155
28.6822
28.5969
28.4908
28.4436
28.4408
28.4985
28.6026
28.7402
28.8925
29.0476
29.1937
29.3309
29.4432
29.5685
28.1707
28.2482
28.3477
28.4346
28.5176
28.5959
28.6676
28.7358
28.7914
28.8444
28.8743
28.9071
28.8913
28.9087
28.8289
28.8219
28.6875
28.6026
28.491
28.4431
28.4416
28.4988
28.599
28.7315
28.8797
29.0317
29.1752
29.3108
29.4216
29.5454
28.0511
28.1691
28.2832
28.3846
28.4811
28.5711
28.6507
28.7253
28.7855
28.8423
28.8749
28.9116
28.8963
28.9183
28.8391
28.839
28.7037
28.6203
28.505
28.452
28.4473
28.504
28.6029
28.7338
28.8802
29.0296
29.1704
29.3019
29.4099
29.5286
27.9454
28.1041
28.2323
28.3496
28.4587
28.5586
28.6456
28.7294
28.8
28.8608
28.8958
28.9351
28.9202
28.9478
28.8694
28.8793
28.744
28.6621
28.5438
28.4871
28.4793
28.527
28.6188
28.7458
28.8902
29.0383
29.1777
29.3078
29.4144
29.529
27.8755
28.0612
28.1989
28.3283
28.4492
28.5619
28.6687
28.7618
28.8379
28.9024
28.9395
28.9823
28.9695
29.004
28.9276
28.95
28.8136
28.7332
28.6107
28.5489
28.5337
28.5734
28.6542
28.7731
28.9139
29.0617
29.2008
29.3296
29.4339
29.5451
27.8751
28.0867
28.2392
28.3814
28.5101
28.6296
28.7391
28.8339
28.9097
28.974
29.0117
29.0568
29.0488
29.0935
29.0234
29.0675
28.936
28.861
28.7334
28.6656
28.6414
28.6752
28.7469
28.8541
28.9842
29.1218
29.2533
29.3786
29.4834
29.5962
27.9873
28.178
28.3278
28.4735
28.606
28.7268
28.8334
28.9243
28.9966
29.0586
29.0977
29.1459
29.1441
29.2014
29.1429
29.2173
29.0973
29.0376
28.9151
28.849
28.8195
28.8467
28.9101
29.0088
29.1336
29.2726
29.4111
29.5454
29.6596
29.7742
29.5654
29.2994
29.2349
29.0764
28.9634
28.8979
28.8737
28.8685
28.8807
28.9122
28.9492
28.9978
29.0333
29.0752
29.0763
29.0844
29.0423
29.0117
28.9642
28.9514
28.9782
29.0655
29.1959
29.3559
29.5368
29.7212
29.9142
30.0596
30.2077
30.2191
29.5238
29.2202
29.1813
29.0405
28.9498
28.8981
28.8775
28.8767
28.8917
28.9244
28.9614
29.0092
29.0435
29.0848
29.0856
29.095
29.0554
29.0294
28.9853
28.9715
28.9936
29.0796
29.2101
29.37
29.5506
29.7343
29.9275
30.07
30.2189
30.225
29.4682
29.1664
29.1371
29.0142
28.9381
28.8955
28.8792
28.8824
28.9002
28.9338
28.9705
29.0175
29.0503
29.09
29.0884
29.0967
29.0549
29.0281
28.9824
28.9652
28.9823
29.0725
29.2061
29.3676
29.5485
29.7302
29.9238
30.0624
30.2206
30.2169
29.3934
29.1129
29.0881
28.9791
28.9187
28.8877
28.8796
28.8875
28.9081
28.9427
28.9791
29.0254
29.0563
29.0944
29.0896
29.0957
29.0491
29.0192
28.97
28.948
28.9589
29.0435
29.1804
29.3447
29.5259
29.7057
29.8999
30.0375
30.2067
30.1951
29.3094
29.0625
29.0398
28.9448
28.9003
28.8801
28.8794
28.8915
28.9144
28.9501
28.986
29.0315
29.06
29.0959
29.0861
29.0884
29.0332
28.9973
28.9429
28.9162
28.9219
29.0024
29.1351
29.3018
29.4845
29.6639
29.8596
29.9967
30.1767
30.1622
29.2248
29.0139
28.9934
28.9143
28.8843
28.874
28.8789
28.8945
28.9195
28.9561
28.9914
29.0365
29.0618
29.0953
29.0792
29.0756
29.0096
28.965
28.9039
28.8728
28.8745
28.9526
29.0827
29.2468
29.4311
29.6103
29.808
29.9456
30.1328
30.1212
29.1411
28.9689
28.9518
28.889
28.8716
28.8697
28.8786
28.8976
28.9244
28.9616
28.996
29.0408
29.0618
29.0933
29.0693
29.0584
28.979
28.924
28.8555
28.8203
28.8191
28.8963
29.0252
29.187
29.3708
29.55
29.7487
29.8891
30.0807
30.0759
29.0615
28.9262
28.9159
28.8695
28.8627
28.8674
28.8798
28.9018
28.9297
28.9674
29.0005
29.0448
29.0612
29.09
29.0569
29.0371
28.9422
28.8757
28.7988
28.7603
28.7576
28.8353
28.9646
29.1251
29.3073
29.4868
29.6845
29.8287
30.0224
30.0285
28.9895
28.8878
28.8851
28.8544
28.8564
28.8658
28.8819
28.9067
28.9357
28.9737
29.0054
29.0488
29.0603
29.0859
29.0424
29.0124
28.9
28.821
28.7351
28.695
28.6918
28.7717
28.9026
29.0629
29.2434
29.423
29.618
29.7662
29.9591
29.9806
28.928
28.8551
28.8593
28.8426
28.8512
28.8646
28.8848
28.9123
28.9422
28.9804
29.0105
29.0527
29.0593
29.0811
29.0261
28.9847
28.8532
28.7613
28.6672
28.6261
28.6234
28.7069
28.8407
29.0017
29.1816
29.3609
29.5516
29.7043
29.8934
29.9327
28.8772
28.8251
28.8363
28.8319
28.8462
28.8633
28.8876
28.9179
28.949
28.9875
29.0157
29.0565
29.0582
29.0756
29.0081
28.9544
28.8029
28.6978
28.597
28.5551
28.5541
28.6427
28.7805
28.9429
29.1235
29.3022
29.4886
29.6454
29.8264
29.8879
28.8328
28.797
28.815
28.8209
28.8403
28.8614
28.8892
28.9229
28.9553
28.9944
29.0208
29.0599
29.0567
29.0695
28.9887
28.9217
28.7495
28.6315
28.525
28.4831
28.4855
28.5805
28.7233
28.888
29.0707
29.2495
29.4331
29.5896
29.7606
29.8467
28.7941
28.7709
28.7946
28.8089
28.833
28.8583
28.8889
28.926
28.9602
29.0004
29.0254
29.0628
29.0545
29.0628
28.9678
28.8871
28.6938
28.5639
28.4525
28.4116
28.4191
28.5215
28.6694
28.839
29.0242
29.2051
29.384
29.5382
29.7
29.8088
28.7601
28.7444
28.7748
28.7953
28.824
28.8535
28.8871
28.9263
28.9629
29.0047
29.0285
29.0648
29.0509
29.0552
28.9455
28.8508
28.6367
28.4968
28.381
28.342
28.3559
28.4667
28.6188
28.7963
28.9865
29.1675
29.3399
29.4938
29.6485
29.7729
28.7283
28.7152
28.7526
28.779
28.8127
28.8466
28.8835
28.9251
28.963
29.0071
29.0293
29.0652
29.0458
29.046
28.9219
28.8136
28.579
28.4316
28.3118
28.2755
28.2969
28.4162
28.5746
28.7622
28.9547
29.1332
29.3022
29.4568
29.6046
29.74
28.6946
28.6821
28.7273
28.7599
28.7989
28.8375
28.8781
28.9222
28.9617
29.0069
29.0289
29.0647
29.0393
29.0348
28.8968
28.7758
28.5219
28.3697
28.2459
28.2131
28.2431
28.3707
28.5385
28.7317
28.9239
29.1038
29.2721
29.4267
29.568
29.7098
28.6572
28.6472
28.7005
28.7386
28.7832
28.8267
28.871
28.918
28.9592
29.0057
29.0274
29.063
29.0314
29.0222
28.8707
28.7379
28.4673
28.3122
28.1845
28.156
28.1959
28.3289
28.504
28.7011
28.8966
29.0803
29.2485
29.4028
29.5384
29.6833
28.6167
28.6109
28.6716
28.7156
28.766
28.8147
28.863
28.9131
28.9562
29.004
29.0254
29.0608
29.0226
29.0091
28.8442
28.7013
28.4166
28.2599
28.1295
28.1058
28.1522
28.2873
28.4693
28.6731
28.874
29.0615
29.2302
29.3843
29.5152
29.6611
28.5719
28.5723
28.6407
28.6916
28.7478
28.8018
28.8544
28.908
28.9532
29.0023
29.0236
29.0588
29.0142
28.9968
28.8188
28.6681
28.3716
28.2156
28.0815
28.0595
28.1091
28.2499
28.4377
28.6482
28.8545
29.0461
29.2165
29.3708
29.4977
29.643
28.5217
28.5307
28.6077
28.6667
28.7289
28.7886
28.8456
28.903
28.9507
29.0013
29.0226
29.0589
29.0083
28.9873
28.7971
28.6414
28.3359
28.1795
28.0372
28.0154
28.0725
28.2166
28.4082
28.6254
28.8373
29.0326
29.2057
29.3611
29.4849
29.6284
28.4657
28.4867
28.5728
28.6406
28.7095
28.7752
28.837
28.8986
28.9489
29.0016
29.0249
29.0619
29.0084
28.9848
28.7814
28.6237
28.3085
28.1508
27.9999
27.982
28.0398
28.1794
28.3801
28.6042
28.8214
29.0207
29.1963
29.3538
29.4759
29.6165
28.4027
28.4401
28.5365
28.6137
28.6898
28.7618
28.8288
28.8948
28.9483
29.0052
29.0318
29.0689
29.0121
28.9884
28.7732
28.6156
28.2904
28.1339
27.9775
27.9589
28.0085
28.1488
28.3547
28.584
28.8063
29.0095
29.1872
29.3467
29.4698
29.6067
28.3323
28.3906
28.4987
28.5863
28.67
28.7486
28.8211
28.8919
28.9494
29.0122
29.0417
29.0796
29.0209
28.9973
28.7742
28.6151
28.2825
28.1265
27.9665
27.9406
27.9849
28.1315
28.3348
28.566
28.7922
28.9991
29.1792
29.3395
29.4639
29.5989
28.2522
28.3412
28.4599
28.5586
28.6505
28.736
28.8143
28.8901
28.9529
29.0221
29.0537
29.0933
29.0347
29.0124
28.7817
28.6291
28.2865
28.1333
27.9619
27.9346
27.9851
28.1284
28.3245
28.5523
28.7811
28.9909
29.1735
29.3352
29.4612
29.5938
28.1667
28.2924
28.4214
28.5316
28.6322
28.7248
28.8089
28.8894
28.9588
29.034
29.068
29.1102
29.0528
29.0341
28.7974
28.6578
28.3113
28.1619
27.9806
27.9508
27.9974
28.1362
28.3268
28.5496
28.7752
28.9879
29.173
29.3356
29.4626
29.5925
28.0806
28.2444
28.385
28.5071
28.6164
28.7158
28.8055
28.8924
28.9696
29.0496
29.0862
29.132
29.0769
29.0653
28.8234
28.6997
28.3446
28.1992
28.0108
27.9772
28.0151
28.1504
28.3373
28.5564
28.7783
28.9902
29.177
29.3404
29.4686
29.596
28.0051
28.2022
28.3533
28.4871
28.6048
28.7113
28.8082
28.9059
28.9899
29.0728
29.1123
29.1635
29.1089
29.1053
28.8584
28.756
28.3922
28.2535
28.0565
28.0183
28.0485
28.1752
28.3563
28.57
28.7897
29
29.187
29.3517
29.4814
29.6069
27.9507
28.1695
28.3295
28.4739
28.6014
28.7189
28.8279
28.9326
29.0201
29.1054
29.1471
29.2047
29.15
29.158
28.9066
28.8398
28.4714
28.3447
28.1417
28.101
28.1221
28.2297
28.3934
28.5991
28.8121
29.0176
29.2039
29.3701
29.5034
29.6297
27.927
28.1536
28.3197
28.472
28.6098
28.7395
28.8558
28.963
29.0516
29.1372
29.1802
29.2423
29.1901
29.2147
28.9652
28.9423
28.5736
28.464
28.2579
28.2142
28.225
28.3163
28.4616
28.6518
28.8562
29.0582
29.2411
29.4041
29.5381
29.6687
27.9579
28.165
28.3316
28.4894
28.6323
28.7649
28.8819
28.9889
29.0772
29.1625
29.2067
29.2717
29.2236
29.2675
29.0286
29.0638
28.7052
28.6164
28.4124
28.3677
28.3673
28.4432
28.5671
28.7378
28.9263
29.1186
29.2994
29.4661
29.6094
29.7458
29.6849
29.3305
29.2486
29.0451
28.8954
28.8076
28.7749
28.7748
28.799
28.8484
28.9032
28.9799
29.0368
29.119
29.1363
29.1681
29.0848
28.9888
28.8399
28.7558
28.7418
28.8143
28.9462
29.1124
29.3022
29.5043
29.7301
29.9169
30.1197
30.1517
29.6247
29.2107
29.1717
28.9903
28.8703
28.8017
28.7775
28.7842
28.8122
28.8634
28.9185
28.9947
29.0504
29.1327
29.1491
29.184
29.1044
29.0157
28.8688
28.779
28.7532
28.8208
28.9522
29.1196
29.3113
29.5153
29.7435
29.9297
30.1346
30.1626
29.5461
29.1298
29.1093
28.949
28.8498
28.7952
28.7788
28.7923
28.8236
28.8761
28.931
29.0071
29.061
29.1437
29.1577
29.1953
29.1136
29.0222
28.8663
28.7747
28.7439
28.8076
28.942
29.1129
29.3076
29.5115
29.74
29.922
30.1344
30.1562
29.4428
29.0527
29.0414
28.897
28.8207
28.7828
28.7785
28.7992
28.8337
28.8879
28.9427
29.0188
29.0705
29.1546
29.1648
29.2051
29.1152
29.0171
28.8538
28.7587
28.7199
28.7743
28.9068
29.0827
29.2795
29.4831
29.7118