/*--------------------------------*- C++ -*----------------------------------*\
  =========                 |
  \\      /  F ield         | OpenFOAM: The Open Source CFD Toolbox
   \\    /   O peration     | Website:  https://openfoam.org
    \\  /    A nd           | Version:  12
     \\/     M anipulation  |
\*---------------------------------------------------------------------------*/
FoamFile
{
    format      ascii;
    class       volScalarField;
    location    "1300/air";
    object      T;
}
// * * * * * * * * * * * * * * * * * * * * * * * * * * * * * * * * * * * * * //

dimensions      [0 0 0 1 0 0 0];

internalField   nonuniform List<scalar> 
243000
(
300.397
300.378
300.367
300.358
300.351
300.345
300.339
300.333
300.328
300.323
300.318
300.313
300.308
300.303
300.298
300.292
300.286
300.279
300.271
300.262
300.251
300.238
300.225
300.211
300.199
300.188
300.179
300.17
300.164
300.158
300.436
300.402
300.382
300.369
300.358
300.349
300.342
300.335
300.329
300.323
300.318
300.312
300.307
300.301
300.296
300.29
300.284
300.276
300.268
300.258
300.247
300.235
300.222
300.21
300.198
300.187
300.177
300.169
300.162
300.158
300.51
300.441
300.406
300.384
300.368
300.357
300.347
300.339
300.332
300.325
300.319
300.313
300.307
300.301
300.295
300.289
300.282
300.274
300.265
300.256
300.245
300.233
300.221
300.208
300.197
300.186
300.177
300.168
300.161
300.157
300.638
300.507
300.444
300.408
300.385
300.368
300.356
300.345
300.336
300.329
300.322
300.315
300.308
300.302
300.295
300.289
300.281
300.273
300.264
300.254
300.243
300.231
300.219
300.208
300.196
300.186
300.177
300.168
300.161
300.156
300.815
300.616
300.508
300.448
300.411
300.386
300.369
300.355
300.344
300.335
300.326
300.318
300.311
300.304
300.297
300.289
300.281
300.272
300.263
300.252
300.241
300.23
300.218
300.207
300.196
300.186
300.177
300.168
300.161
300.156
300.994
300.77
300.609
300.513
300.453
300.415
300.389
300.37
300.355
300.343
300.333
300.324
300.315
300.307
300.299
300.291
300.282
300.272
300.262
300.252
300.24
300.229
300.218
300.207
300.196
300.186
300.177
300.169
300.161
300.155
301.143
300.954
300.758
300.617
300.524
300.464
300.423
300.394
300.373
300.357
300.343
300.332
300.322
300.312
300.303
300.294
300.284
300.274
300.263
300.251
300.24
300.229
300.217
300.207
300.196
300.186
300.177
300.169
300.162
300.156
301.227
301.122
300.947
300.776
300.643
300.548
300.483
300.437
300.404
300.379
300.36
300.344
300.331
300.32
300.309
300.298
300.288
300.276
300.264
300.252
300.24
300.228
300.217
300.207
300.196
300.187
300.178
300.17
300.162
300.156
301.259
301.225
301.123
300.973
300.817
300.686
300.586
300.513
300.459
300.419
300.388
300.365
300.346
300.331
300.318
300.305
300.292
300.279
300.266
300.253
300.241
300.229
300.218
300.207
300.197
300.188
300.179
300.171
300.163
300.157
301.273
301.258
301.225
301.141
301.016
300.875
300.746
300.638
300.554
300.488
300.439
300.4
300.371
300.348
300.33
300.314
300.299
300.285
300.27
300.256
300.242
300.23
300.218
300.208
300.198
300.188
300.18
300.172
300.164
300.158
301.283
301.272
301.258
301.23
301.165
301.063
300.939
300.813
300.698
300.601
300.522
300.461
300.413
300.378
300.35
300.328
300.31
300.292
300.275
300.259
300.245
300.232
300.22
300.209
300.199
300.189
300.181
300.173
300.166
300.159
301.292
301.282
301.272
301.259
301.236
301.186
301.104
300.996
300.875
300.755
300.646
300.555
300.481
300.425
300.382
300.35
300.325
300.303
300.283
300.265
300.249
300.234
300.222
300.21
300.2
300.191
300.182
300.174
300.167
300.16
301.301
301.291
301.281
301.271
301.258
301.238
301.198
301.131
301.036
300.922
300.799
300.682
300.58
300.497
300.432
300.383
300.347
300.318
300.293
300.272
300.254
300.238
300.224
300.212
300.202
300.192
300.184
300.176
300.168
300.162
301.311
301.3
301.289
301.278
301.267
301.255
301.236
301.201
301.144
301.058
300.949
300.826
300.703
300.594
300.503
300.433
300.38
300.34
300.308
300.283
300.261
300.244
300.228
300.215
300.204
300.194
300.186
300.178
300.17
300.163
301.321
301.308
301.297
301.285
301.273
301.261
301.248
301.23
301.198
301.145
301.064
300.958
300.834
300.709
300.595
300.5
300.426
300.371
300.329
300.297
300.271
300.251
300.234
300.22
300.207
300.197
300.188
300.18
300.172
300.165
301.33
301.317
301.304
301.291
301.278
301.266
301.253
301.239
301.22
301.188
301.136
301.057
300.951
300.827
300.7
300.584
300.488
300.414
300.358
300.317
300.285
300.26
300.241
300.225
300.212
300.2
300.191
300.182
300.174
300.167
301.339
301.324
301.31
301.296
301.282
301.269
301.256
301.243
301.227
301.207
301.174
301.12
301.038
300.931
300.806
300.679
300.564
300.469
300.397
300.343
300.303
300.273
300.25
300.232
300.217
300.205
300.194
300.185
300.177
300.17
301.346
301.331
301.315
301.301
301.286
301.272
301.258
301.244
301.23
301.213
301.19
301.154
301.096
301.011
300.9
300.774
300.649
300.537
300.447
300.379
300.328
300.291
300.263
300.241
300.224
300.21
300.199
300.189
300.18
300.173
301.351
301.335
301.319
301.304
301.288
301.273
301.259
301.245
301.23
301.214
301.196
301.17
301.129
301.066
300.975
300.861
300.735
300.613
300.507
300.423
300.36
300.314
300.279
300.253
300.233
300.217
300.204
300.194
300.184
300.176
301.354
301.337
301.321
301.305
301.29
301.274
301.259
301.244
301.228
301.211
301.194
301.174
301.145
301.099
301.029
300.933
300.816
300.692
300.575
300.477
300.401
300.343
300.301
300.269
300.245
300.227
300.212
300.199
300.189
300.18
301.354
301.337
301.321
301.304
301.288
301.272
301.255
301.237
301.22
301.203
301.186
301.169
301.146
301.114
301.062
300.986
300.885
300.767
300.647
300.539
300.45
300.38
300.328
300.29
300.261
300.238
300.221
300.207
300.195
300.185
301.351
301.334
301.318
301.301
301.284
301.266
301.247
301.228
301.21
301.192
301.175
301.158
301.139
301.115
301.078
301.02
300.938
300.834
300.718
300.605
300.506
300.425
300.363
300.316
300.281
300.254
300.233
300.216
300.203
300.191
301.345
301.329
301.312
301.295
301.277
301.259
301.239
301.22
301.2
301.181
301.163
301.146
301.128
301.108
301.081
301.038
300.975
300.888
300.782
300.671
300.567
300.477
300.405
300.349
300.306
300.273
300.248
300.228
300.212
300.199
301.335
301.319
301.304
301.287
301.27
301.251
301.232
301.212
301.192
301.172
301.153
301.135
301.118
301.1
301.078
301.046
300.998
300.928
300.838
300.734
300.63
300.534
300.453
300.388
300.337
300.298
300.267
300.243
300.224
300.209
301.321
301.307
301.293
301.277
301.261
301.244
301.225
301.206
301.186
301.166
301.146
301.127
301.11
301.092
301.073
301.048
301.011
300.957
300.882
300.79
300.691
300.594
300.507
300.434
300.375
300.328
300.291
300.262
300.239
300.221
301.303
301.292
301.28
301.266
301.252
301.237
301.22
301.202
301.183
301.163
301.143
301.124
301.105
301.087
301.069
301.047
301.018
300.975
300.915
300.837
300.747
300.654
300.565
300.486
300.419
300.364
300.321
300.286
300.258
300.236
301.278
301.27
301.261
301.251
301.24
301.227
301.211
301.194
301.175
301.155
301.135
301.114
301.094
301.075
301.057
301.038
301.014
300.981
300.933
300.87
300.793
300.707
300.621
300.54
300.468
300.406
300.356
300.314
300.281
300.255
301.234
301.229
301.224
301.216
301.207
301.194
301.18
301.162
301.142
301.12
301.097
301.074
301.053
301.033
301.015
300.998
300.979
300.955
300.921
300.874
300.813
300.741
300.663
300.585
300.513
300.448
300.392
300.345
300.306
300.275
301.114
301.108
301.102
301.094
301.082
301.066
301.047
301.024
300.999
300.972
300.945
300.919
300.895
300.875
300.859
300.846
300.834
300.822
300.803
300.775
300.736
300.687
300.63
300.568
300.507
300.449
300.396
300.351
300.312
300.28
300.547
300.541
300.545
300.545
300.539
300.528
300.514
300.498
300.48
300.463
300.446
300.43
300.417
300.406
300.397
300.391
300.387
300.383
300.377
300.368
300.355
300.337
300.316
300.291
300.265
300.24
300.216
300.194
300.175
300.159
300.383
300.366
300.356
300.348
300.341
300.335
300.33
300.325
300.32
300.315
300.31
300.305
300.299
300.294
300.288
300.282
300.275
300.266
300.256
300.242
300.227
300.21
300.193
300.178
300.165
300.154
300.145
300.137
300.131
300.134
300.414
300.386
300.369
300.357
300.348
300.34
300.333
300.326
300.32
300.315
300.309
300.303
300.298
300.292
300.286
300.279
300.271
300.262
300.251
300.238
300.223
300.207
300.192
300.178
300.166
300.155
300.145
300.138
300.131
300.131
300.451
300.414
300.391
300.374
300.36
300.35
300.34
300.332
300.325
300.318
300.312
300.305
300.299
300.292
300.285
300.277
300.268
300.258
300.246
300.234
300.22
300.205
300.191
300.178
300.166
300.155
300.146
300.138
300.132
300.129
300.501
300.456
300.423
300.4
300.381
300.366
300.354
300.343
300.334
300.325
300.317
300.31
300.302
300.294
300.286
300.276
300.266
300.255
300.243
300.23
300.217
300.203
300.19
300.177
300.166
300.156
300.147
300.139
300.133
300.129
300.571
300.517
300.474
300.44
300.414
300.393
300.375
300.361
300.349
300.337
300.327
300.318
300.308
300.299
300.289
300.278
300.266
300.254
300.241
300.228
300.215
300.202
300.189
300.177
300.166
300.156
300.148
300.14
300.133
300.129
300.671
300.611
300.55
300.501
300.462
300.432
300.407
300.387
300.37
300.356
300.342
300.33
300.318
300.306
300.294
300.282
300.268
300.254
300.24
300.226
300.213
300.2
300.188
300.177
300.166
300.157
300.149
300.141
300.134
300.129
300.775
300.724
300.65
300.583
300.529
300.486
300.452
300.424
300.401
300.381
300.364
300.348
300.333
300.318
300.303
300.288
300.272
300.256
300.24
300.226
300.212
300.2
300.188
300.177
300.167
300.158
300.149
300.142
300.135
300.13
300.847
300.827
300.762
300.685
300.616
300.558
300.511
300.474
300.443
300.416
300.393
300.372
300.353
300.334
300.316
300.298
300.278
300.26
300.242
300.226
300.212
300.199
300.188
300.177
300.167
300.158
300.15
300.143
300.137
300.131
300.891
300.904
300.867
300.8
300.724
300.652
300.591
300.54
300.498
300.463
300.432
300.405
300.38
300.357
300.334
300.311
300.288
300.266
300.246
300.228
300.213
300.199
300.188
300.177
300.168
300.159
300.151
300.144
300.138
300.132
300.917
300.951
300.945
300.905
300.841
300.767
300.694
300.629
300.573
300.525
300.484
300.448
300.416
300.386
300.358
300.329
300.301
300.275
300.252
300.232
300.215
300.201
300.189
300.178
300.168
300.16
300.152
300.145
300.139
300.134
300.929
300.974
300.991
300.979
300.941
300.882
300.812
300.739
300.67
300.608
300.553
300.505
300.462
300.424
300.388
300.353
300.319
300.288
300.26
300.238
300.219
300.203
300.19
300.179
300.17
300.161
300.154
300.147
300.141
300.135
300.936
300.981
301.011
301.02
301.007
300.972
300.919
300.853
300.781
300.708
300.64
300.577
300.522
300.472
300.427
300.383
300.341
300.304
300.272
300.246
300.225
300.207
300.193
300.181
300.171
300.163
300.155
300.148
300.142
300.137
300.942
300.981
301.014
301.034
301.038
301.025
300.994
300.946
300.884
300.812
300.737
300.663
300.594
300.532
300.474
300.42
300.37
300.326
300.288
300.257
300.233
300.213
300.198
300.185
300.174
300.165
300.157
300.15
300.144
300.138
300.951
300.981
301.011
301.033
301.047
301.047
301.034
301.006
300.961
300.901
300.831
300.753
300.675
300.601
300.531
300.465
300.405
300.352
300.308
300.272
300.244
300.221
300.204
300.189
300.178
300.168
300.16
300.152
300.146
300.14
300.966
300.987
301.009
301.029
301.043
301.05
301.048
301.034
301.007
300.964
300.906
300.835
300.756
300.675
300.595
300.518
300.447
300.385
300.333
300.291
300.258
300.232
300.212
300.196
300.183
300.172
300.163
300.155
300.148
300.142
300.987
301
301.013
301.027
301.038
301.045
301.047
301.042
301.026
300.998
300.955
300.897
300.826
300.745
300.66
300.575
300.494
300.423
300.363
300.314
300.275
300.246
300.222
300.204
300.189
300.177
300.167
300.158
300.151
300.145
301.011
301.016
301.022
301.028
301.034
301.038
301.04
301.038
301.029
301.01
300.981
300.937
300.878
300.805
300.721
300.633
300.545
300.465
300.397
300.342
300.297
300.262
300.235
300.214
300.197
300.184
300.172
300.163
300.155
300.148
301.036
301.035
301.035
301.034
301.034
301.033
301.032
301.029
301.022
301.01
300.989
300.957
300.911
300.849
300.773
300.687
300.597
300.512
300.437
300.374
300.323
300.283
300.252
300.227
300.207
300.192
300.179
300.168
300.159
300.151
301.062
301.055
301.049
301.043
301.037
301.031
301.025
301.019
301.011
301.001
300.985
300.962
300.927
300.877
300.812
300.733
300.645
300.558
300.479
300.41
300.353
300.307
300.271
300.243
300.22
300.202
300.187
300.174
300.164
300.156
301.086
301.075
301.064
301.053
301.042
301.032
301.021
301.011
301.001
300.99
300.977
300.958
300.931
300.892
300.838
300.769
300.688
300.603
300.521
300.448
300.386
300.335
300.294
300.261
300.235
300.214
300.197
300.183
300.171
300.161
301.108
301.093
301.079
301.064
301.049
301.034
301.02
301.006
300.993
300.981
300.967
300.951
300.929
300.897
300.853
300.794
300.723
300.643
300.563
300.488
300.422
300.367
300.321
300.283
300.253
300.229
300.209
300.193
300.179
300.168
301.123
301.107
301.09
301.073
301.055
301.038
301.02
301.004
300.988
300.973
300.958
300.942
300.923
300.897
300.861
300.811
300.749
300.678
300.602
300.528
300.46
300.401
300.351
300.309
300.275
300.247
300.224
300.205
300.189
300.176
301.132
301.114
301.097
301.078
301.059
301.04
301.021
301.002
300.983
300.965
300.949
300.932
300.915
300.892
300.863
300.822
300.769
300.706
300.637
300.566
300.499
300.438
300.384
300.338
300.3
300.268
300.241
300.219
300.201
300.186
301.133
301.116
301.098
301.08
301.06
301.04
301.019
300.997
300.977
300.957
300.938
300.921
300.903
300.883
300.858
300.825
300.781
300.728
300.667
300.602
300.538
300.476
300.42
300.371
300.329
300.293
300.263
300.237
300.216
300.199
301.123
301.106
301.089
301.07
301.051
301.03
301.009
300.987
300.965
300.944
300.924
300.905
300.886
300.868
300.846
300.82
300.785
300.742
300.691
300.635
300.575
300.516
300.46
300.408
300.362
300.322
300.288
300.258
300.234
300.214
301.1
301.084
301.067
301.05
301.031
301.011
300.99
300.968
300.945
300.922
300.9
300.88
300.861
300.842
300.824
300.803
300.777
300.745
300.707
300.661
300.609
300.555
300.5
300.447
300.398
300.355
300.316
300.283
300.255
300.231
301.059
301.044
301.028
301.011
300.994
300.975
300.955
300.933
300.91
300.886
300.863
300.841
300.821
300.803
300.787
300.77
300.752
300.731
300.704
300.67
300.629
300.583
300.534
300.483
300.433
300.387
300.345
300.308
300.276
300.249
300.982
300.965
300.95
300.937
300.923
300.906
300.887
300.865
300.84
300.815
300.791
300.768
300.748
300.73
300.715
300.702
300.691
300.678
300.662
300.64
300.611
300.576
300.534
300.49
300.445
300.401
300.359
300.322
300.289
300.261
300.811
300.792
300.78
300.771
300.761
300.748
300.73
300.709
300.686
300.663
300.64
300.619
300.6
300.583
300.569
300.558
300.55
300.542
300.534
300.522
300.506
300.483
300.455
300.423
300.389
300.355
300.322
300.292
300.265
300.241
300.455
300.449
300.45
300.453
300.452
300.448
300.44
300.429
300.416
300.403
300.39
300.377
300.365
300.354
300.344
300.336
300.329
300.323
300.316
300.307
300.296
300.282
300.265
300.245
300.225
300.204
300.185
300.167
300.151
300.138
300.365
300.354
300.347
300.341
300.335
300.33
300.324
300.319
300.314
300.309
300.304
300.299
300.294
300.288
300.282
300.275
300.266
300.256
300.242
300.225
300.205
300.186
300.169
300.154
300.143
300.134
300.126
300.12
300.114
300.107
300.371
300.359
300.35
300.342
300.335
300.329
300.323
300.317
300.312
300.306
300.301
300.295
300.29
300.283
300.276
300.268
300.259
300.248
300.235
300.219
300.201
300.183
300.168
300.154
300.143
300.134
300.127
300.12
300.114
300.108
300.379
300.366
300.356
300.347
300.339
300.332
300.326
300.319
300.313
300.307
300.301
300.295
300.288
300.281
300.273
300.264
300.254
300.242
300.228
300.213
300.197
300.181
300.167
300.154
300.143
300.135
300.127
300.121
300.115
300.11
300.389
300.378
300.367
300.358
300.349
300.34
300.333
300.325
300.318
300.311
300.304
300.297
300.289
300.281
300.272
300.261
300.25
300.237
300.223
300.209
300.194
300.179
300.166
300.154
300.144
300.135
300.128
300.122
300.116
300.111
300.404
300.395
300.385
300.375
300.365
300.355
300.345
300.336
300.328
300.319
300.311
300.302
300.293
300.283
300.272
300.26
300.247
300.233
300.219
300.205
300.191
300.177
300.165
300.154
300.144
300.136
300.129
300.122
300.117
300.112
300.425
300.421
300.413
300.402
300.39
300.378
300.366
300.354
300.343
300.332
300.322
300.311
300.3
300.288
300.276
300.261
300.246
300.231
300.216
300.202
300.189
300.176
300.164
300.154
300.144
300.136
300.129
300.123
300.118
300.113
300.454
300.463
300.458
300.445
300.429
300.412
300.396
300.38
300.366
300.352
300.339
300.325
300.311
300.297
300.281
300.264
300.247
300.23
300.215
300.2
300.187
300.175
300.164
300.154
300.145
300.137
300.13
300.124
300.119
300.114
300.498
300.522
300.522
300.507
300.486
300.462
300.44
300.418
300.398
300.38
300.362
300.345
300.328
300.31
300.291
300.27
300.25
300.231
300.214
300.199
300.186
300.174
300.164
300.154
300.145
300.138
300.131
300.125
300.12
300.115
300.544
300.582
300.591
300.58
300.555
300.526
300.496
300.468
300.442
300.417
300.394
300.372
300.35
300.327
300.303
300.278
300.254
300.233
300.215
300.199
300.186
300.174
300.164
300.154
300.146
300.139
300.132
300.126
300.121
300.116
300.586
300.635
300.657
300.654
300.632
300.6
300.565
300.529
300.496
300.465
300.435
300.407
300.378
300.35
300.32
300.29
300.262
300.237
300.217
300.2
300.186
300.174
300.164
300.155
300.147
300.14
300.133
300.128
300.122
300.118
300.623
300.678
300.712
300.72
300.707
300.679
300.642
300.602
300.561
300.523
300.486
300.45
300.414
300.378
300.342
300.305
300.272
300.244
300.221
300.203
300.188
300.176
300.165
300.156
300.148
300.141
300.135
300.129
300.124
300.119
300.656
300.711
300.752
300.773
300.771
300.751
300.719
300.678
300.634
300.589
300.544
300.501
300.457
300.413
300.368
300.324
300.286
300.254
300.228
300.208
300.191
300.178
300.167
300.158
300.15
300.142
300.136
300.13
300.125
300.12
300.686
300.737
300.78
300.808
300.817
300.809
300.785
300.75
300.707
300.659
300.609
300.558
300.507
300.453
300.399
300.347
300.302
300.266
300.237
300.214
300.196
300.182
300.17
300.16
300.152
300.144
300.138
300.132
300.127
300.122
300.716
300.758
300.799
300.83
300.847
300.848
300.834
300.808
300.77
300.724
300.672
300.617
300.559
300.498
300.434
300.374
300.322
300.281
300.248
300.223
300.203
300.187
300.175
300.164
300.155
300.147
300.14
300.134
300.128
300.124
300.747
300.781
300.814
300.843
300.863
300.87
300.865
300.848
300.818
300.778
300.729
300.672
300.611
300.544
300.472
300.403
300.345
300.299
300.263
300.234
300.212
300.195
300.181
300.169
300.159
300.151
300.143
300.136
300.13
300.125
300.78
300.804
300.83
300.853
300.871
300.882
300.882
300.871
300.85
300.817
300.773
300.719
300.658
300.588
300.51
300.435
300.371
300.32
300.28
300.248
300.224
300.204
300.188
300.175
300.164
300.155
300.147
300.139
300.133
300.128
300.815
300.831
300.847
300.864
300.877
300.887
300.888
300.882
300.866
300.84
300.803
300.755
300.696
300.626
300.547
300.467
300.399
300.344
300.3
300.265
300.238
300.216
300.198
300.183
300.171
300.16
300.151
300.143
300.136
300.13
300.851
300.859
300.868
300.876
300.884
300.889
300.89
300.885
300.873
300.852
300.821
300.779
300.724
300.658
300.58
300.5
300.429
300.37
300.323
300.285
300.254
300.23
300.209
300.193
300.179
300.167
300.157
300.148
300.14
300.134
300.886
300.888
300.889
300.891
300.892
300.892
300.89
300.885
300.874
300.856
300.829
300.792
300.743
300.681
300.608
300.53
300.459
300.399
300.349
300.308
300.274
300.247
300.224
300.205
300.189
300.176
300.164
300.154
300.145
300.138
300.919
300.915
300.911
300.906
300.902
300.897
300.89
300.882
300.871
300.855
300.832
300.798
300.755
300.699
300.631
300.558
300.489
300.429
300.377
300.334
300.297
300.267
300.242
300.22
300.202
300.186
300.173
300.161
300.151
300.143
300.948
300.94
300.931
300.921
300.912
300.902
300.891
300.88
300.867
300.851
300.83
300.8
300.761
300.71
300.65
300.583
300.518
300.459
300.407
300.362
300.324
300.291
300.263
300.239
300.218
300.2
300.184
300.17
300.159
300.149
300.971
300.96
300.948
300.935
300.921
300.907
300.893
300.879
300.864
300.846
300.825
300.798
300.763
300.718
300.664
300.604
300.545
300.489
300.439
300.394
300.354
300.319
300.288
300.261
300.237
300.216
300.198
300.182
300.168
300.157
300.987
300.975
300.96
300.945
300.928
300.911
300.894
300.877
300.859
300.841
300.819
300.794
300.762
300.722
300.675
300.623
300.571
300.52
300.472
300.428
300.387
300.35
300.317
300.287
300.26
300.236
300.215
300.196
300.18
300.166
300.995
300.981
300.966
300.949
300.931
300.913
300.894
300.874
300.854
300.833
300.811
300.786
300.757
300.723
300.683
300.639
300.594
300.55
300.506
300.464
300.424
300.387
300.351
300.318
300.288
300.26
300.235
300.213
300.194
300.178
300.992
300.978
300.963
300.946
300.928
300.908
300.887
300.866
300.844
300.821
300.798
300.774
300.747
300.716
300.683
300.648
300.611
300.575
300.538
300.5
300.463
300.426
300.389
300.353
300.319
300.288
300.259
300.234
300.211
300.192
300.973
300.959
300.944
300.928
300.909
300.889
300.868
300.846
300.823
300.799
300.775
300.75
300.725
300.698
300.67
300.642
300.614
300.587
300.558
300.528
300.496
300.462
300.426
300.389
300.353
300.318
300.286
300.257
300.231
300.209
300.929
300.915
300.899
300.884
300.867
300.849
300.829
300.806
300.782
300.757
300.732
300.707
300.683
300.658
300.634
300.611
300.59
300.571
300.552
300.532
300.508
300.48
300.449
300.415
300.379
300.344
300.31
300.278
300.25
300.226
300.841
300.825
300.81
300.797
300.783
300.768
300.75
300.729
300.705
300.68
300.654
300.63
300.607
300.584
300.563
300.543
300.527
300.514
300.502
300.489
300.473
300.455
300.432
300.405
300.375
300.344
300.313
300.284
300.257
300.233
300.672
300.661
300.652
300.645
300.638
300.628
300.614
300.596
300.576
300.554
300.533
300.512
300.491
300.472
300.453
300.435
300.422
300.411
300.403
300.394
300.384
300.371
300.355
300.335
300.314
300.291
300.268
300.247
300.226
300.207
300.404
300.403
300.406
300.411
300.414
300.414
300.409
300.401
300.391
300.378
300.365
300.351
300.337
300.323
300.308
300.294
300.282
300.272
300.264
300.256
300.248
300.238
300.226
300.213
300.198
300.183
300.167
300.153
300.14
300.128
300.361
300.351
300.344
300.338
300.332
300.327
300.322
300.317
300.312
300.307
300.301
300.296
300.29
300.284
300.277
300.269
300.26
300.247
300.229
300.207
300.185
300.165
300.149
300.137
300.128
300.121
300.115
300.11
300.106
300.1
300.361
300.35
300.341
300.334
300.328
300.322
300.316
300.311
300.306
300.3
300.295
300.289
300.283
300.276
300.269
300.26
300.25
300.237
300.22
300.201
300.181
300.163
300.148
300.137
300.128
300.121
300.115
300.11
300.106
300.1
300.364
300.353
300.344
300.336
300.329
300.322
300.316
300.31
300.304
300.298
300.292
300.285
300.279
300.271
300.263
300.253
300.242
300.228
300.213
300.195
300.177
300.161
300.148
300.137
300.128
300.121
300.115
300.11
300.106
300.101
300.369
300.358
300.349
300.341
300.333
300.325
300.318
300.312
300.305
300.298
300.292
300.284
300.277
300.268
300.258
300.247
300.235
300.221
300.206
300.19
300.174
300.159
300.147
300.136
300.128
300.121
300.115
300.11
300.106
300.101
300.377
300.367
300.358
300.349
300.341
300.333
300.325
300.317
300.31
300.302
300.294
300.286
300.277
300.267
300.256
300.243
300.23
300.216
300.201
300.186
300.171
300.158
300.146
300.136
300.128
300.121
300.116
300.111
300.106
300.102
300.387
300.379
300.371
300.362
300.353
300.345
300.336
300.327
300.318
300.309
300.3
300.291
300.28
300.268
300.255
300.241
300.226
300.211
300.196
300.182
300.169
300.156
300.146
300.136
300.128
300.122
300.116
300.111
300.107
300.103
300.401
300.395
300.389
300.382
300.373
300.363
300.352
300.342
300.332
300.321
300.31
300.299
300.286
300.272
300.256
300.239
300.223
300.207
300.193
300.179
300.167
300.155
300.145
300.137
300.129
300.122
300.117
300.112
300.108
300.103
300.418
300.418
300.416
300.41
300.401
300.39
300.377
300.364
300.351
300.338
300.325
300.311
300.295
300.278
300.259
300.24
300.221
300.205
300.19
300.177
300.165
300.155
300.145
300.137
300.13
300.123
300.118
300.113
300.108
300.104
300.441
300.449
300.453
300.45
300.44
300.427
300.412
300.395
300.379
300.362
300.345
300.327
300.308
300.287
300.265
300.242
300.221
300.204
300.189
300.176
300.165
300.154
300.145
300.137
300.13
300.124
300.119
300.114
300.109
300.105
300.469
300.485
300.495
300.496
300.488
300.473
300.455
300.435
300.415
300.394
300.372
300.349
300.325
300.3
300.272
300.246
300.223
300.204
300.188
300.175
300.164
300.154
300.146
300.138
300.131
300.125
300.12
300.115
300.11
300.106
300.499
300.522
300.54
300.547
300.541
300.527
300.506
300.483
300.458
300.432
300.406
300.377
300.347
300.315
300.282
300.252
300.226
300.205
300.189
300.176
300.165
300.155
300.147
300.139
300.133
300.127
300.121
300.116
300.111
300.107
300.532
300.558
300.581
300.595
300.594
300.582
300.562
300.536
300.508
300.477
300.445
300.411
300.373
300.334
300.295
300.26
300.231
300.208
300.191
300.177
300.166
300.157
300.148
300.141
300.134
300.128
300.122
300.117
300.112
300.108
300.565
300.593
300.619
300.637
300.642
300.635
300.617
300.591
300.561
300.526
300.489
300.448
300.404
300.356
300.31
300.27
300.238
300.214
300.195
300.181
300.169
300.159
300.151
300.143
300.136
300.13
300.124
300.119
300.114
300.11
300.6
300.626
300.652
300.673
300.683
300.68
300.666
300.643
300.612
300.575
300.534
300.488
300.437
300.38
300.327
300.282
300.247
300.221
300.201
300.186
300.173
300.163
300.154
300.146
300.139
300.132
300.126
300.12
300.115
300.111
300.637
300.658
300.681
300.702
300.715
300.716
300.707
300.687
300.658
300.621
300.577
300.526
300.47
300.406
300.346
300.297
300.259
300.23
300.209
300.193
300.179
300.168
300.159
300.15
300.143
300.135
300.128
300.122
300.117
300.113
300.674
300.69
300.709
300.727
300.739
300.743
300.737
300.721
300.695
300.66
300.615
300.562
300.502
300.432
300.367
300.314
300.273
300.242
300.219
300.201
300.187
300.175
300.165
300.155
300.147
300.139
300.132
300.125
300.119
300.115
300.712
300.723
300.736
300.749
300.759
300.763
300.759
300.746
300.723
300.69
300.647
300.593
300.53
300.458
300.389
300.332
300.289
300.257
300.232
300.213
300.197
300.184
300.172
300.162
300.153
300.144
300.136
300.129
300.122
300.117
300.75
300.756
300.763
300.77
300.776
300.778
300.774
300.763
300.742
300.712
300.671
300.619
300.555
300.482
300.412
300.353
300.309
300.275
300.248
300.226
300.209
300.194
300.182
300.17
300.16
300.15
300.141
300.133
300.126
300.12
300.787
300.788
300.789
300.791
300.792
300.79
300.785
300.774
300.756
300.728
300.689
300.638
300.576
300.505
300.435
300.376
300.33
300.295
300.266
300.243
300.224
300.208
300.194
300.181
300.169
300.158
300.148
300.138
300.13
300.123
300.821
300.818
300.814
300.811
300.807
300.802
300.794
300.782
300.764
300.738
300.702
300.654
300.594
300.527
300.46
300.401
300.355
300.318
300.288
300.264
300.244
300.226
300.21
300.195
300.181
300.168
300.156
300.145
300.136
300.128
300.85
300.844
300.837
300.829
300.821
300.812
300.801
300.788
300.769
300.744
300.71
300.665
300.61
300.546
300.484
300.427
300.382
300.345
300.314
300.289
300.267
300.247
300.229
300.212
300.196
300.18
300.166
300.153
300.142
300.133
300.874
300.866
300.856
300.845
300.833
300.821
300.807
300.792
300.773
300.748
300.716
300.674
300.623
300.565
300.507
300.455
300.411
300.375
300.344
300.318
300.295
300.273
300.253
300.233
300.214
300.196
300.179
300.164
300.151
300.14
300.891
300.881
300.87
300.857
300.843
300.828
300.812
300.794
300.775
300.75
300.719
300.68
300.634
300.582
300.53
300.482
300.442
300.407
300.377
300.351
300.326
300.303
300.28
300.258
300.235
300.214
300.194
300.177
300.161
300.148
300.899
300.889
300.877
300.863
300.848
300.831
300.813
300.794
300.773
300.748
300.719
300.683
300.641
300.595
300.549
300.507
300.47
300.439
300.411
300.385
300.361
300.337
300.312
300.286
300.261
300.236
300.213
300.192
300.174
300.159
300.895
300.886
300.875
300.861
300.844
300.826
300.806
300.786
300.763
300.738
300.709
300.676
300.639
300.599
300.56
300.522
300.491
300.463
300.439
300.417
300.394
300.37
300.345
300.317
300.289
300.261
300.235
300.21
300.189
300.172
300.875
300.866
300.855
300.841
300.824
300.806
300.786
300.764
300.741
300.715
300.687
300.656
300.623
300.588
300.554
300.521
300.493
300.47
300.451
300.434
300.416
300.396
300.372
300.345
300.315
300.286
300.257
300.231
300.207
300.187
300.828
300.818
300.807
300.794
300.78
300.763
300.744
300.722
300.699
300.673
300.645
300.616
300.586
300.555
300.524
300.493
300.469
300.45
300.435
300.423
300.41
300.396
300.378
300.356
300.33
300.303
300.275
300.248
300.223
300.202
300.737
300.728
300.718
300.708
300.698
300.684
300.668
300.649
300.626
300.602
300.576
300.55
300.523
300.495
300.467
300.437
300.415
300.399
300.388
300.379
300.371
300.362
300.35
300.334
300.315
300.294
300.271
300.247
300.225
300.206
300.581
300.578
300.576
300.573
300.569
300.562
300.552
300.537
300.519
300.499
300.478
300.456
300.434
300.409
300.383
300.355
300.335
300.32
300.311
300.304
300.298
300.292
300.283
300.273
300.26
300.245
300.229
300.212
300.196
300.181
300.366
300.372
300.378
300.386
300.392
300.394
300.393
300.387
300.378
300.366
300.352
300.337
300.321
300.301
300.279
300.255
300.238
300.224
300.215
300.208
300.202
300.197
300.19
300.182
300.173
300.163
300.152
300.141
300.13
300.12
300.36
300.35
300.343
300.337
300.332
300.326
300.321
300.316
300.31
300.305
300.299
300.294
300.288
300.281
300.274
300.265
300.254
300.238
300.215
300.19
300.166
300.148
300.134
300.125
300.118
300.112
300.108
300.104
300.1
300.096
300.355
300.344
300.336
300.329
300.323
300.318
300.312
300.307
300.302
300.296
300.29
300.285
300.278
300.271
300.263
300.254
300.242
300.226
300.206
300.183
300.162
300.146
300.133
300.124
300.117
300.112
300.107
300.103
300.1
300.096
300.356
300.345
300.336
300.329
300.322
300.315
300.309
300.303
300.297
300.291
300.285
300.279
300.272
300.264
300.255
300.244
300.232
300.216
300.198
300.177
300.159
300.144
300.133
300.124
300.117
300.111
300.107
300.103
300.099
300.096
300.359
300.349
300.34
300.331
300.323
300.316
300.309
300.303
300.296
300.289
300.282
300.275
300.267
300.258
300.248
300.237
300.224
300.208
300.191
300.173
300.156
300.143
300.132
300.123