/*--------------------------------*- C++ -*----------------------------------*\
  =========                 |
  \\      /  F ield         | OpenFOAM: The Open Source CFD Toolbox
   \\    /   O peration     | Website:  https://openfoam.org
    \\  /    A nd           | Version:  12
     \\/     M anipulation  |
\*---------------------------------------------------------------------------*/
FoamFile
{
    format      ascii;
    class       volScalarField;
    location    "1950/air";
    object      alphat;
}
// * * * * * * * * * * * * * * * * * * * * * * * * * * * * * * * * * * * * * //

dimensions      [1 -1 -1 0 0 0 0];

internalField   nonuniform List<scalar> 
243000
(
0.000131147
0.000138615
0.000141395
0.000141341
0.000139435
0.000136284
0.000132357
0.000128012
0.00012352
0.000119094
0.000114864
0.000110926
0.000107329
0.00010413
0.000101327
9.88723e-05
9.66728e-05
9.46595e-05
9.27669e-05
9.09188e-05
8.90176e-05
8.79753e-05
0.000380107
8.38401e-05
0.000361746
0.000352828
0.000312598
0.000236887
0.000195261
0.000246187
0.000489996
0.000515495
0.000516099
0.000504514
0.000487309
0.00046769
0.000447289
0.000427132
0.000407872
0.000389923
0.000373475
0.000358722
0.000345726
0.000334561
0.000325182
0.00031747
0.000311214
0.000306368
0.000302773
0.000300326
0.000298781
0.000296257
0.000298465
0.000294604
0.00029364
0.000284495
0.000269401
0.000241604
0.000217047
0.000224795
0.000607493
0.000671779
0.000702593
0.000714621
0.000716126
0.000710993
0.000701575
0.000689442
0.000675628
0.000660882
0.00064566
0.000630386
0.000615318
0.000600783
0.000586904
0.000573706
0.00056107
0.000549204
0.000537957
0.000527226
0.000516694
0.00050582
0.000494377
0.000480147
0.000462257
0.000437598
0.000404697
0.000359099
0.00031549
0.000287901
0.000607789
0.000668061
0.000705894
0.000725689
0.000733094
0.000731921
0.000725297
0.000715132
0.000702697
0.000688917
0.000674401
0.000659657
0.000644989
0.000630781
0.000617239
0.000604461
0.000592389
0.000581291
0.00057096
0.000561158
0.000551442
0.000541339
0.000530124
0.000516548
0.000499035
0.000475405
0.000444217
0.000402025
0.000358836
0.000319697
0.000604708
0.000648388
0.000687148
0.000713151
0.000727554
0.000732705
0.000731169
0.000725058
0.000715781
0.000704517
0.000692006
0.000678887
0.000665546
0.000652446
0.000639884
0.000628053
0.000616962
0.000606915
0.000597646
0.000588772
0.00057972
0.000569978
0.000558886
0.000545496
0.000528449
0.000505917
0.000476589
0.000437851
0.000396347
0.000353664
0.000611157
0.000627439
0.000656795
0.000684835
0.000705567
0.000717725
0.000722662
0.000722073
0.000717359
0.000709772
0.000700329
0.000689787
0.00067856
0.000667229
0.000656171
0.000645719
0.000635943
0.000627159
0.000619046
0.000611108
0.00060268
0.000593213
0.000582154
0.00056879
0.000552062
0.000530497
0.000502904
0.000467332
0.000428078
0.000385408
0.0006316
0.000627542
0.000639532
0.000658591
0.000677703
0.000692799
0.000703434
0.00070865
0.000709325
0.00070641
0.000700919
0.000693575
0.000685112
0.00067612
0.00066703
0.000658332
0.000650149
0.000642791
0.000635909
0.000628928
0.000621134
0.000611958
0.000600935
0.000587549
0.000571038
0.000550258
0.0005242
0.0004914
0.000454597
0.00041343
0.000660202
0.00064484
0.00063937
0.000645469
0.000657674
0.000670913
0.000682202
0.000689787
0.000694457
0.00069604
0.000694803
0.000691287
0.000686059
0.000679856
0.000673146
0.000666524
0.000660181
0.000654389
0.000648807
0.000642827
0.000635705
0.000626882
0.000615956
0.000602577
0.000586233
0.000566093
0.000541364
0.000510943
0.000476642
0.000437512
0.000690138
0.000670012
0.000653719
0.000646276
0.000647916
0.000655175
0.000664255
0.00067224
0.000678239
0.000681791
0.000683871
0.000683997
0.000682239
0.000679103
0.000675073
0.000670794
0.000666494
0.000662401
0.000658199
0.000653274
0.000646888
0.000638504
0.000627778
0.00061448
0.00059831
0.000578714
0.000555159
0.000526834
0.00049482
0.000457909
0.000720351
0.000699277
0.000677228
0.000659988
0.000650377
0.000648501
0.000651979
0.000657654
0.000663391
0.000667933
0.000671211
0.000673485
0.000674669
0.000674575
0.000673346
0.000671569
0.000669461
0.000667189
0.000664453
0.000660655
0.000655085
0.000647245
0.000636839
0.000623732
0.000607792
0.000588727
0.000566195
0.000539552
0.000509603
0.000474977
0.00075027
0.00072878
0.0007051
0.000682751
0.00066464
0.00065309
0.000648334
0.000648626
0.000651699
0.000655563
0.000659204
0.000662263
0.000664899
0.00066719
0.000668578
0.0006693
0.000669424
0.000669065
0.000667879
0.000665291
0.000660631
0.000653447
0.000643496
0.000630717
0.000615134
0.00059656
0.000574847
0.00054964
0.000521518
0.000489207
0.000779561
0.000758082
0.000734843
0.000710583
0.000687738
0.000668678
0.000655323
0.00064808
0.000645772
0.000646627
0.000649035
0.000651964
0.000654975
0.000658259
0.000661582
0.000664519
0.000666799
0.000668339
0.000668753
0.000667478
0.000663817
0.000657403
0.000648057
0.000635777
0.000620605
0.000602517
0.000581554
0.000557573
0.000531039
0.000500861
0.000808001
0.000786719
0.000764348
0.000740002
0.000715499
0.000692311
0.000672433
0.000657521
0.000648126
0.000643625
0.000642606
0.000643842
0.000646259
0.000649449
0.000653457
0.00065794
0.000662057
0.000665375
0.000667368
0.000667394
0.000664862
0.00065941
0.000650794
0.000639081
0.000624417
0.000606888
0.000586653
0.000563755
0.000538605
0.000510343
0.000835269
0.000814304
0.000792518
0.000769042
0.000744726
0.000720208
0.000696785
0.000676167
0.000659879
0.000648672
0.000642295
0.000639782
0.000640033
0.000642143
0.000645601
0.000650506
0.00065582
0.000660605
0.000664053
0.000665401
0.000664004
0.000659448
0.000651731
0.000640803
0.000626799
0.000609934
0.00059047
0.000568711
0.000544914
0.000518622
0.000861154
0.000840596
0.000819465
0.000797119
0.000773768
0.000749543
0.000725029
0.000701344
0.000679996
0.000662482
0.000649713
0.00064176
0.000638024
0.000637557
0.0006395
0.000643395
0.000648923
0.0006546
0.000659212
0.000661779
0.000661511
0.000658019
0.000651167
0.000641104
0.000627964
0.000612163
0.000593972
0.000573516
0.000551053
0.000526461
0.000885465
0.000865399
0.000845031
0.000823927
0.000801842
0.000778669
0.000754543
0.000729957
0.000705913
0.000683848
0.000665238
0.000651149
0.000641942
0.000637267
0.000636295
0.000638251
0.000642516
0.000648144
0.000653381
0.000656899
0.000657685
0.000655252
0.000649451
0.000640444
0.000628643
0.000614156
0.000597249
0.000578089
0.000556939
0.000533882
0.000908003
0.000888525
0.000869022
0.000849213
0.000828507
0.000806703
0.00078369
0.000759557
0.000734776
0.000710318
0.000687558
0.000667999
0.000652854
0.00064272
0.000637361
0.000636107
0.000638104
0.000642313
0.000647318
0.000651292
0.000652918
0.000651502
0.000647061
0.000639458
0.000629014
0.000615857
0.000600247
0.000582376
0.000562517
0.000540879
0.000928569
0.000909779
0.00089122
0.000872726
0.000853467
0.000833151
0.000811565
0.000788595
0.000764342
0.000739288
0.000714373
0.000690966
0.000670625
0.000654739
0.000643946
0.000638181
0.000636756
0.000638579
0.000642223
0.000645888
0.000648035
0.000647639
0.000644413
0.000638154
0.000629036
0.000617222
0.000602918
0.000586333
0.000567748
0.000547448
0.000946973
0.000928952
0.000911397
0.000894177
0.000876356
0.00085759
0.000837601
0.000816162
0.00079316
0.000768721
0.000743328
0.000717937
0.000693964
0.000673093
0.000656689
0.00064554
0.000639549
0.000637896
0.000639207
0.00064173
0.000643745
0.000643923
0.000641659
0.000636608
0.000628759
0.000618247
0.000605236
0.000589925
0.0005726
0.000553587
0.00096304
0.000945901
0.000929683
0.000913589
0.000897111
0.00087987
0.000861527
0.000841783
0.000820404
0.000797295
0.000772591
0.000746807
0.000720972
0.000696603
0.000675351
0.000658728
0.000647437
0.000641251
0.000639169
0.000639552
0.000640605
0.000640755
0.000639067
0.000634985
0.000628273
0.000618973
0.00060721
0.000593149
0.000577065
0.000559295
0.000976753
0.000960886
0.00094574
0.000930768
0.000915616
0.000899889
0.000883207
0.000865234
0.000845675
0.000824304
0.000801026
0.000776005
0.000749846
0.000723659
0.000698962
0.00067759
0.000660944
0.00064956
0.000643088
0.000640265
0.000639371
0.000638731
0.000637061
0.00063357
0.000627764
0.000619529
0.000608926
0.00059606
0.000581176
0.000564599
0.000988184
0.000973336
0.000959244
0.000945487
0.000931716
0.000917544
0.000902579
0.000886493
0.000868957
0.000849656
0.000828335
0.000804895
0.000779573
0.000753058
0.000726481
0.000701595
0.000680167
0.000663475
0.000651932
0.000644911
0.000641022
0.000638599
0.000636214
0.000632766
0.000627506
0.000620128
0.000610546
0.000598784
0.000585031
0.000569584
0.000996728
0.000983079
0.000970183
0.000957765
0.000945465
0.000932966
0.000919906
0.00090616
0.000891248
0.000874654
0.000855924
0.000834781
0.000811129
0.000785413
0.000758182
0.000730925
0.000705259
0.000683515
0.000666623
0.000654653
0.000646753
0.00064152
0.000637474
0.000633286
0.000628021
0.000621133
0.000612337
0.000601526
0.000588798
0.000574398
0.00100304
0.000990728
0.000979146
0.000968081
0.000957428
0.000947237
0.000936891
0.000925877
0.000913713
0.00089991
0.000883953
0.000865459
0.000844087
0.000820046
0.000793363
0.000765107
0.00073654
0.000710332
0.000688271
0.000670961
0.000658191
0.000649043
0.000642223
0.000636369
0.000630325
0.000623314
0.000614854
0.000604686
0.000592775
0.000579297
0.00100754
0.000996749
0.000986647
0.000977104
0.000968462
0.000960528
0.000952696
0.000944371
0.000935036
0.000924191
0.000911271
0.000895816
0.000877284
0.000855716
0.000830666
0.000802808
0.000773653
0.000745042
0.000718814
0.000696306
0.000678088
0.000663938
0.000653017
0.000644156
0.000636173
0.000628098
0.000619248
0.000609188
0.000597707
0.00058484
0.00101078
0.00100187
0.000993637
0.000986053
0.000979124
0.000972838
0.000967103
0.000961274
0.000954935
0.000947589
0.000938594
0.000927314
0.000913103
0.000895618
0.000874471
0.000849627
0.000821778
0.000792319
0.000763175
0.000736023
0.000712081
0.000691886
0.000675281
0.000661572
0.000649811
0.000639035
0.000628423
0.000617329
0.000605387
0.000592485
0.00101546
0.00100957
0.00100439
0.000999951
0.000996301
0.00099347
0.000991399
0.000989716
0.000987957
0.00098552
0.000981689
0.000975681
0.000966717
0.000954193
0.000937734
0.000916804
0.000891308
0.00086243
0.000831755
0.000800985
0.000771636
0.000744811
0.000721035
0.000700295
0.000682191
0.000666054
0.000651158
0.00063683
0.00062253
0.000608045
0.00103442
0.00103398
0.00103421
0.00103528
0.0010374
0.00104067
0.00104502
0.00105006
0.00105523
0.00105974
0.00106278
0.00106335
0.00106064
0.00105391
0.00104271
0.0010263
0.00100398
0.000976949
0.000946447
0.000913975
0.000880918
0.000848481
0.000817539
0.000788674
0.000762133
0.000737765
0.000715229
0.000694118
0.000673965
0.000655057
0.0011286
0.00113602
0.00114298
0.0011511
0.00116127
0.00117351
0.00118705
0.00120077
0.00121393
0.00122592
0.00123588
0.00124268
0.00124556
0.00124417
0.00123806
0.00122639
0.001208
0.00118473
0.00115776
0.00112821
0.00109694
0.00106484
0.00103271
0.00100121
0.0009709
0.000941351
0.000912641
0.000884895
0.000858132
0.000834081
0.00151315
0.00151374
0.00151532
0.00152279
0.00153449
0.00154776
0.00155905
0.00156813
0.00157619
0.00158359
0.00158944
0.00159214
0.00159287
0.00159206
0.00158861
0.00158217
0.00157053
0.00155814
0.00154531
0.00153278
0.00152042
0.00150867
0.00149765
0.00148756
0.00147849
0.00146658
0.00145293
0.00143882
0.00142492
0.00141332
0.000180988
0.000185792
0.000184506
0.000180511
0.000174831
0.000168143
0.000160952
0.000153658
0.000146559
0.000139895
0.000133783
0.000128338
0.000123593
0.000119612
0.000116368
0.000113828
0.000111894
0.000110555
0.000109877
0.000109929
0.000110506
0.000110966
0.000110835
0.00010908
0.000105462
9.90143e-05
9.00099e-05
0.000378075
0.000366539
0.000363366
0.000785351
0.000881798
0.000860236
0.000795451
0.000718855
0.000644512
0.000578181
0.000521147
0.000473003
0.000432729
0.000398514
0.000370046
0.000346339
0.000327176
0.000311325
0.000298183
0.000286636
0.000276998
0.000268933
0.000263042
0.00026017
0.000261146
0.000265147
0.000269134
0.000269544
0.000263117
0.000252332
0.000253029
0.000292598
0.000330354
0.00123121
0.00140601
0.0014188
0.0013573
0.00126383
0.00116046
0.00106016
0.000969056
0.000889127
0.000820559
0.00076205
0.00071256
0.000670859
0.000636768
0.000608636
0.000584834
0.00056285
0.000542619
0.000521734
0.000500108
0.000480709
0.000468011
0.000463093
0.000461798
0.000457974
0.000445232
0.000423473
0.000396864
0.000392135
0.000406594
0.00153342
0.00173799
0.00177866
0.00173718
0.00165163
0.00154633
0.00143752
0.00133408
0.00123958
0.00115625
0.00108407
0.00102253
0.00097055
0.000928287
0.00089428
0.000865862
0.000839519
0.000814327
0.000784754
0.000749436
0.000712628
0.000682312
0.000662622
0.000650444
0.000637962
0.000617107
0.000585671
0.000543181
0.000512562
0.000506235
0.00171883
0.00193096
0.00199087
0.00197039
0.0018985
0.00180335
0.00170167
0.0016014
0.00150451
0.00141734
0.00134105
0.00127524
0.00121977
0.00117529
0.00114053
0.00111257
0.00108718
0.00106208
0.00102879
0.000985153
0.000934848
0.000888394
0.000853268
0.000828018
0.000805434
0.000776394
0.000737173
0.000684282
0.000636707
0.000613635
0.00183053
0.00201442
0.00209073
0.00208901
0.00204483
0.00197074
0.00187775
0.0017816
0.00168774
0.0016061
0.00153445
0.00147061
0.00141738
0.00137553
0.00134419
0.00132044
0.0012999
0.00127836
0.00124501
0.00119634
0.00113728
0.00107882
0.00103049
0.000993366
0.000959935
0.000923079
0.00087716
0.000817631
0.000759585
0.000723191
0.00189473
0.00203367
0.0020962
0.00210343
0.00207875
0.00203034
0.00196122
0.00188524
0.00181162
0.00173789
0.00167096
0.00161239
0.00156698
0.00153189
0.00150737
0.00149093
0.00147829
0.00146262
0.00143205
0.00138174
0.0013181
0.00125152
0.00119243
0.00114469
0.00110262
0.00105755
0.00100594
0.00094207
0.000877257
0.000829967
0.00194931
0.00201879
0.00204651
0.00204676
0.00203154
0.00200374
0.0019632
0.00191555
0.00186245
0.00180787
0.00175575
0.00171166
0.00167404
0.0016481
0.00163324
0.00162686
0.00162427
0.00161599
0.00159027
0.0015421
0.0014771
0.00140555
0.0013385
0.0012815
0.00123157
0.0011813
0.00112418
0.00105757
0.000988652
0.000932895
0.00198795
0.00199864
0.00199378
0.0019785
0.00196033
0.00193982
0.00191469
0.00188578
0.001854
0.00182489
0.00179266
0.00176453
0.00174161
0.00172806
0.00172511
0.00173125
0.00173981
0.0017406
0.0017215
0.00167771
0.00161416
0.00154099
0.00146885
0.00140466
0.00134764
0.00129257
0.00123336
0.00116513
0.001094
0.00103072
0.00204084
0.00201441
0.00196351
0.00192376
0.00189075
0.00186631
0.00184627
0.00182844
0.00181151
0.00179763
0.0017859
0.0017783
0.00177336
0.00177549
0.00178634
0.00180632
0.00182727
0.00183859
0.00182765
0.00179005
0.00173043
0.00165842
0.00158391
0.00151492
0.00145199
0.00139345
0.00133235
0.00126319
0.00119075
0.0011224
0.00210622
0.00204953
0.00197452
0.00189838
0.00184096
0.00180409
0.00177842
0.00176264
0.00175291
0.00174895
0.00174997
0.00175753
0.00177316
0.00179369
0.00181993
0.0018549
0.00188886
0.00191146
0.00191058
0.00188065
0.00182728
0.00175861
0.00168425
0.0016133
0.00154693
0.00148416
0.00141994
0.00135145
0.00127867
0.00120812
0.002194
0.00211056
0.00201071
0.0019131
0.00183143
0.00177006
0.00172905
0.00170707
0.00169561
0.00169446
0.00170182
0.00171849
0.00174658
0.00178633
0.0018295
0.00188001
0.00192739
0.00196173
0.00197193
0.00195338
0.00190686
0.00184225
0.00177045
0.0016993
0.00163028
0.00156388
0.00149752
0.00142932
0.00135796
0.00128791
0.00230024
0.00219481
0.00207547
0.00195954
0.00185852
0.00177818
0.00172052
0.00168004
0.00165652
0.00165074
0.00165649
0.00167534
0.00170932
0.00175972
0.00181968
0.00188527
0.00194595
0.00199207
0.00201372
0.00200624
0.00196949
0.00191043
0.00184068
0.00176907
0.0016999
0.00163358
0.00156639
0.00149934
0.00143144
0.00136354
0.00241891
0.00230556
0.0021778
0.00204829
0.00192959
0.00182906
0.00175059
0.00169217
0.00165357
0.00163213
0.00162932
0.00164247
0.00167519
0.00172734
0.0017966
0.00187542
0.00194824
0.00200557
0.00203878
0.00204261
0.0020164
0.00196513
0.00190013
0.00183068
0.00176152
0.00169536
0.00163066
0.00156545
0.0015
0.00143338
0.00255221
0.00244047
0.00231117
0.00217587
0.00204618
0.00192975
0.00183201
0.00175329
0.00169382
0.00165415
0.00163506
0.001636
0.00165873
0.00170431
0.00177072
0.00185703
0.00193897
0.00200589
0.00204969
0.00206466
0.00204941
0.00200763
0.00194915
0.00188494
0.00181839
0.00175212
0.00168778
0.00162323
0.00155941
0.0014948
0.00269827
0.0025932
0.00247023
0.00233676
0.00220324
0.00207723
0.0019648
0.00186688
0.00178623
0.00172512
0.00168508
0.00166706
0.00167288
0.00170358
0.00175873
0.00183764
0.0019239
0.00199746
0.00204976
0.00207506
0.00207097
0.00204009
0.00199044
0.00193243
0.00186851
0.00180264
0.00173749
0.00167332
0.00161038
0.00154796
0.00284994
0.00275776
0.00264779
0.0025229
0.00239207
0.00226311
0.00214142
0.00202921
0.00193056
0.00184877
0.00178619
0.00174522
0.00172793
0.00173666
0.00177211
0.00183391
0.00191051
0.00198526
0.00204333
0.00207721
0.00208465
0.00206603
0.00202392
0.00197064
0.00191111
0.00184705
0.00178148
0.00171685
0.00165403
0.00159313
0.00300165
0.0029267
0.00283377
0.00272274
0.00260091
0.00247499
0.00235056
0.00223099
0.00212003
0.00202142
0.00193803
0.00187311
0.00182952
0.00181046
0.00181942
0.00185519
0.00191309
0.00197839
0.00203599
0.00207544
0.00209095
0.00208136
0.00204785
0.00200066
0.00194665
0.00188554
0.00182059
0.001755
0.00169176
0.00163178
0.0031473
0.00309047
0.00301597
0.00292227
0.00281493
0.00269909
0.00257955
0.00245963
0.0023428
0.00223265
0.00213227
0.00204508
0.00197462
0.0019249
0.00190258
0.00190633
0.00193459
0.00198128
0.00203023
0.00206847
0.00208883
0.00208741
0.00206299
0.00202313
0.00197515
0.00191772
0.00185375
0.00178835
0.00172497
0.00166549
0.00327954
0.00324006
0.00318528
0.0031122
0.00302386
0.00292346
0.00281458
0.00270009
0.00258284
0.00246606
0.00235262
0.00224591
0.00214999
0.00207074
0.00201336
0.001982
0.00197502
0.0019936
0.00202574
0.00205808
0.0020786
0.00208247
0.00206866
0.00203751
0.00199435
0.00194044
0.00187993
0.00181724
0.00175497
0.00169655
0.00339461
0.00337144
0.00333616
0.00328456
0.00321721
0.00313512
0.00304015
0.00293433
0.00281967
0.00269878
0.00257434
0.00244989
0.00233028
0.00222291
0.00213169
0.00206435
0.00202176
0.00200758
0.00201628
0.00203612
0.00205442
0.00206376
0.00205968
0.00203935
0.0020043
0.00195838
0.00190386
0.00184529
0.00178529
0.00172751
0.00349114
0.00348096
0.00346244
0.00343042
0.00338298
0.00331862
0.00323712
0.00313908
0.00302568
0.00289912
0.00276244
0.00262008
0.0024782
0.00234509
0.00222559
0.00212558
0.00205074
0.00200452
0.00198673
0.00198976
0.00200264
0.00201665
0.00202382
0.00201765
0.00199672
0.00196305
0.00191801
0.00186662
0.00181148
0.00175734
0.00356334
0.00356133
0.00355456
0.00353699
0.00350419
0.00345198
0.00337813
0.00328104
0.00316204
0.00302406
0.00287171
0.00271126
0.00255094
0.00239826
0.00226134
0.00214017
0.00203893
0.00196561
0.00192121
0.0019036
0.00190637
0.00192182
0.00194032
0.00195195
0.0019508
0.00193626
0.00190877
0.0018705
0.00182558
0.00177951
0.00359664
0.00359616
0.0035933
0.00358112
0.00355236
0.00350004
0.00342215
0.00331756
0.00318758
0.00303657
0.00287184
0.00270171
0.00253584
0.00237914
0.00223964
0.00211235
0.00199716
0.00190294
0.00183236
0.00178813
0.00176988
0.00177451
0.00179487
0.00182028
0.00184066
0.00185124
0.00184948
0.00183514
0.00180997
0.00177879
0.00355756
0.00354925
0.00353953
0.00352072
0.00348321
0.00342176
0.00333452
0.003222
0.00308794
0.00293928
0.00278461
0.0026307
0.00248497
0.00234887
0.00222818
0.00211406
0.00199918
0.00189106
0.0017958
0.00171882
0.0016644
0.0016351
0.00163019
0.00164361
0.00166705
0.00169309
0.00171531
0.00172933
0.0017331
0.001728
0.00338276
0.00335836
0.00333346
0.00330271
0.00326035
0.00320204
0.00312569
0.00303398
0.00293134
0.00282339
0.00271559
0.00261138
0.00251214
0.00241562
0.00232488
0.00223579
0.00213457
0.00202699
0.00191799
0.00181386
0.00172015
0.00164232
0.00158464
0.00154862
0.00153282
0.00153373
0.00154623
0.00156465
0.00158385
0.00160235
0.00302121
0.00299973
0.00298783
0.00298257
0.00297735
0.00296636
0.00294583
0.00291542
0.00287719
0.0028323
0.00278302
0.00273109
0.00267668
0.00261915
0.00255647
0.00249208
0.00241043
0.00231596
0.00221168
0.00210249
0.00199214
0.00188502
0.00178551
0.00169778
0.00162479
0.00156785
0.00152692
0.0015004
0.00148587
0.00148806
0.00269312
0.00274055
0.00280309
0.00286892
0.00292552
0.00296846
0.00299635
0.00300977
0.00301187
0.00299913
0.00297652
0.00294719
0.00291167
0.00287159
0.00282554
0.00277679
0.00271596
0.00264545
0.0025658
0.00248006
0.00238862
0.00229412
0.00219851
0.0021037
0.00201224
0.00192605
0.00184728
0.0017766
0.00171487
0.00168027
0.00278245
0.00285632
0.00293397
0.00300792
0.0030684
0.00311139
0.00314107
0.00315414
0.00315413
0.00314276
0.00312333
0.00309805
0.00306513
0.00302957
0.00299192
0.00294961
0.00290533
0.00285768
0.0028066
0.00275548
0.00270376
0.00265359
0.00260494
0.00255674
0.00250904
0.00245988
0.00241003
0.00235984
0.00231117
0.00228306
0.00302111
0.0030661
0.00310953
0.00315008
0.00317736
0.00319087
0.0031955
0.00319123
0.0031802
0.00316428
0.00314427
0.00312062
0.00309144
0.00306277
0.00303121
0.00300019
0.00297339
0.00294734
0.00292322
0.00290365
0.00289105
0.00288593
0.00288754
0.00289419
0.00290271
0.0029101
0.00291693
0.0029208
0.00292268
0.00291558
0.000219412
0.000221541
0.000215938
0.000208682
0.000200431
0.000191463
0.00018217
0.000172943
0.000164091
0.000155868
0.000148398
0.000141811
0.000136138
0.000131485
0.000127829
0.000125199
0.000123532
0.000123051
0.000124309
0.000127626
0.000132107
0.000136135
0.000138443
0.000138258
0.000135185
0.000128808
0.000119161
0.000105593
9.24184e-05
8.38162e-05
0.00103216
0.00115162
0.00113939
0.00106899
0.000973534
0.000877644
0.000791278
0.000716727
0.00065376
0.000601022
0.000556396
0.000519608
0.000488404
0.000462892
0.000441198
0.000422404
0.000403644
0.000387335
0.000374555
0.000368678
0.000372006
0.000383353
0.000398196
0.000409557
0.000410284
0.000396601
0.000371002
0.00033603
0.000306781
0.000285343
0.00164504
0.0018819
0.00191607
0.00184888
0.00173462
0.00160376
0.00147432
0.00135543
0.00125073
0.00116073
0.00108352
0.00101929
0.000965604
0.000922215
0.000886157
0.000854443
0.00082105
0.00078802
0.000752471
0.000719836
0.000700291
0.000698059
0.0007081
0.000718668
0.000714193
0.000690932
0.000646783
0.000583562
0.000523865
0.000485389
0.00208331
0.00236156
0.00243031
0.00238701
0.00228323
0.00215009
0.00200829
0.00187128
0.00174615
0.00163558
0.00153929
0.00145839
0.001391
0.00133743
0.00129474
0.00125851
0.0012204
0.00117953
0.00112772
0.00107137
0.00102509
0.00100091
0.00099665
0.000999064
0.000988954
0.000955626
0.000898029
0.000815983
0.000732143
0.000672963
0.00239963
0.00267666
0.00276443
0.0027437
0.00265829
0.00253644
0.0023978
0.00225918
0.00212914
0.0020108
0.0019063
0.00181781
0.0017446
0.00168712
0.00164353
0.00160828
0.0015714
0.00152734
0.00146345
0.00139017
0.00132256
0.00127584
0.00125415
0.00124521
0.00122872
0.00118811
0.00112254
0.00102907
0.000929719
0.000851125
0.00263058
0.00287669
0.00297554
0.00297634
0.00291026
0.00279848
0.00266487
0.00253665
0.00241393
0.00229708
0.00219298
0.00210455
0.00203188
0.00197607
0.00193614
0.00190574
0.00187347
0.0018287
0.00175645
0.00166811
0.00158429
0.00151941
0.00148093
0.00145939
0.00143576
0.00139291
0.00132229
0.00122358
0.00111468
0.00102122
0.00279691
0.00300197
0.00309354
0.00310322
0.00305439
0.00297128
0.00286676
0.00274484
0.0026227
0.00250521
0.00240929
0.00232764
0.00226068
0.00221148
0.00217885
0.00215642
0.00213128
0.00208689
0.00200882
0.00190883
0.00181268
0.00173328
0.00167994
0.00164545
0.00161383
0.00156909
0.00150027
0.00140081
0.00128798
0.00118208
0.00291509
0.00307519
0.0031419
0.00314835
0.00311174
0.00304581
0.00296039
0.0028612
0.00276004
0.00266474
0.00257351
0.00249631
0.00243827
0.00239929
0.00237728
0.00236579
0.00234883
0.00230366
0.00222177
0.00211598
0.00201212
0.00192131
0.0018547
0.00180777
0.0017675
0.00172122
0.00165713
0.00156235
0.00144914
0.00133308
0.00301991
0.00311275
0.00313881
0.00313129
0.0031009
0.00305107
0.00298657
0.00291196
0.00283356
0.00275541
0.00268177
0.00261933
0.00257228
0.00254559
0.00253675
0.00253846
0.00252991
0.00248729
0.0024037
0.00229628
0.0021857
0.00208688
0.00200903
0.00195062
0.00190287
0.00185411
0.00179016
0.00170257
0.00159166
0.00147274
0.00311785
0.00313225
0.00312011
0.00309761
0.00306535
0.00302367
0.0029734
0.00291681
0.00285733
0.00279903
0.002746
0.00270113
0.00266915
0.00265669
0.00266209
0.00267791
0.0026784
0.00263986
0.00255857
0.00245099
0.00233737
0.00223301
0.00214622
0.00207882
0.0020216
0.00196623
0.00190193
0.00182016
0.0017179
0.00160332
0.00320583
0.0031748
0.00312317
0.00307208
0.00302854
0.00298568
0.00294153
0.00289712
0.0028531
0.00281128
0.00277484
0.00274959
0.00273519
0.0027387
0.00275849
0.00278785
0.0027974
0.00276522
0.00268838
0.0025836
0.00247037
0.00236278
0.00226982
0.00219052
0.00212275
0.00206155
0.00199748
0.00192011
0.00182763
0.00172187
0.00329477
0.00324245
0.00316862
0.00308652
0.00301044
0.00295782
0.00291021
0.00287069
0.00283644
0.00280682
0.00278453
0.00277312
0.00277696
0.00279739
0.00283062
0.00287277
0.00289187
0.00286681
0.00279727
0.00269849
0.00258698
0.00247573
0.00237613
0.00228973
0.00221446
0.00214651
0.00208151
0.00200959
0.00192811
0.0018315
0.0033817
0.00331117
0.00321944
0.00312077
0.00303547
0.00295729
0.00289643
0.00285519
0.00282398
0.00279976
0.00278729
0.00278702
0.00280268
0.00283782
0.00288417
0.00293734
0.00296491
0.00294847
0.00288803
0.0027983
0.00269017
0.00257941
0.00247678
0.00238427
0.00230304
0.00222965
0.00216186
0.00209334
0.00201798
0.00192982
0.00348873
0.00340535
0.00329932
0.00318345
0.00307877
0.00298856
0.00292173
0.00286668
0.00283232
0.00280336
0.00279616
0.00280231
0.00282565
0.00286722
0.00292476
0.00298632
0.00302122
0.00301357
0.00296428
0.00288462
0.00278216
0.0026738
0.00257111
0.00247576
0.00239028
0.00231229
0.00223945
0.00216976
0.00209724
0.00201557
0.00361207
0.00352228
0.00340509
0.00328106
0.00316537
0.00306173
0.00297799
0.00291121
0.00286273
0.00283676
0.00282421
0.00282998
0.00285418
0.00289618
0.00295755
0.00302384
0.00306422
0.00306494
0.00302732
0.00295885
0.00286422
0.00276042
0.00265933
0.00256436
0.00247549
0.00239314
0.00231575
0.00224171
0.00216909
0.00209143
0.00374934
0.00365727
0.00354658
0.00342195
0.0032977
0.0031821
0.00308258
0.00300101
0.00293922
0.00289951
0.00287841
0.00287696
0.00289484
0.00293118
0.00298671
0.00305235
0.00309529
0.00310342
0.00307713
0.00302102
0.00293643
0.00283943
0.00274145
0.00264777
0.00255761
0.00247219
0.00239084
0.00231172
0.00223644
0.00216029
0.00389619
0.00381723
0.00371472
0.00359495
0.0034692
0.00334639
0.00323431
0.00313749
0.00305921
0.00300194
0.00296501
0.0029486
0.0029522
0.0029752
0.00301632
0.00307084
0.0031123
0.00312578
0.0031108
0.00306816
0.00299541
0.00290665
0.00281468
0.00272472
0.00263536
0.00254832
0.0024639
0.00237996
0.00230089
0.00222436
0.00405798
0.00398938
0.00389975
0.00378996
0.00366895
0.00354469
0.00342481
0.003315
0.00321969
0.00314215
0.00308348
0.00304427
0.0030245
0.00302441
0.00304259
0.00307674
0.00310774
0.00312352
0.00311868
0.00309057
0.00303362
0.00295756
0.00287586
0.00279167
0.00270475
0.00261795
0.00253155
0.00244395
0.0023621
0.00228453
0.00422232
0.00416567
0.00409062
0.00399431
0.00388285
0.00376238
0.00363952
0.00352005
0.00340882
0.0033096
0.00322464
0.00315542
0.00310319
0.00306962
0.00305572
0.00305959
0.00307223
0.00308369
0.00308601
0.00307322
0.00303626
0.00297878
0.00291093
0.00283572
0.00275441
0.00267134
0.00258595
0.00250043
0.00241842
0.00234061
0.00437614
0.00433387
0.00427453
0.00419353
0.00409442
0.00398121
0.00385888
0.00373232
0.00360609
0.00348403
0.0033691
0.00326393
0.0031717
0.00309612
0.00304202
0.00300782
0.00299179
0.00299041
0.00299522
0.00299687
0.002984
0.00295318
0.00290843
0.00285096
0.00278476
0.00271059
0.00263199
0.00255047
0.00246988
0.00239287
0.00451307
0.00448351
0.00443841
0.00437196
0.00428525
0.00417987
0.0040587
0.00392516
0.00378306
0.00363609
0.00348804
0.00334332
0.00320776
0.00308735
0.00299043
0.00291542
0.00286455
0.00284051
0.00283752
0.00284636
0.00285454
0.00285322
0.00283966
0.00281232
0.00277219
0.00271896
0.00265551
0.00258671
0.00251558
0.00244299
0.00462314
0.00460197
0.00456679
0.00451096
0.00443312
0.00433231
0.00420911
0.00406538
0.00390448
0.00373046
0.00354877
0.00336691
0.00319378
0.00303695
0.00290584
0.00279879
0.00271638
0.00266402
0.00263965
0.00263838
0.00265129
0.00266897
0.00268425
0.00269105
0.00268573
0.00266574
0.00263058
0.00258189
0.00252613
0.00246754
0.00468972
0.00466997
0.0046373
0.00458458
0.0045082
0.00440484
0.00427338
0.00411501
0.00393434
0.00373663
0.00353021
0.00332683
0.00313702
0.00296778
0.00282493
0.00270885
0.0026102
0.00253339
0.0024786
0.00244669
0.00243602
0.00244314
0.00246299
0.00248842
0.00251202
0.00252708
0.00252867
0.00251441
0.00248491
0.00244958
0.00468267
0.00465484
0.00461431
0.00455467
0.00447088
0.00435807
0.00421554
0.00404552
0.00385442
0.00365152
0.00344877
0.00325803
0.00308787
0.00294114
0.00281716
0.00271687
0.00262147
0.00253235
0.00245
0.00237853
0.00232249
0.00228566
0.0022702
0.00227468
0.00229399
0.00232075
0.00234678
0.00236503
0.00237086
0.00236357
0.00455035
0.00450573
0.00444801
0.00437425
0.00428122
0.00416612
0.00402896
0.00387353
0.0037076
0.00354106
0.003384
0.00324302
0.00312288
0.00302242
0.00293742
0.00286332
0.0027822
0.00269264
0.00259521
0.00249414
0.00239564
0.00230611
0.00223241
0.00218004
0.00215098
0.00214347
0.00215246
0.0021709
0.00219126
0.0022082
0.0042341
0.00417392
0.00411122
0.00404656
0.00397797
0.00390043
0.00381219
0.00371522
0.00361465
0.00351678
0.00342717
0.0033477
0.00328065
0.00322372
0.00317199
0.0031177
0.00304875
0.00296532
0.00286766
0.00275818
0.00264137
0.0025216
0.00240435
0.00229733
0.00220679
0.00213669
0.00208836
0.00205989
0.00204753
0.0020532
0.00378405
0.00375095
0.00373895
0.00374273
0.00375051
0.00374904
0.00373537
0.0037098
0.00367557
0.00363691
0.0035976
0.00355735
0.00351879
0.00348147
0.00344048
0.00339047