/*--------------------------------*- C++ -*----------------------------------*\
  =========                 |
  \\      /  F ield         | OpenFOAM: The Open Source CFD Toolbox
   \\    /   O peration     | Website:  https://openfoam.org
    \\  /    A nd           | Version:  12
     \\/     M anipulation  |
\*---------------------------------------------------------------------------*/
FoamFile
{
    format      ascii;
    class       volScalarField;
    location    "1950/air";
    object      epsilon;
}
// * * * * * * * * * * * * * * * * * * * * * * * * * * * * * * * * * * * * * //

dimensions      [0 2 -3 0 0 0 0];

internalField   nonuniform List<scalar> 
243000
(
1.69248
2.33091
2.86756
3.30526
3.64141
3.87501
4.01237
4.06491
4.04616
3.97005
3.8483
3.69244
3.51019
3.3113
3.10122
2.88082
2.64833
2.40617
2.15737
1.90599
1.65587
1.47285
1.31786
0.27047
0.235643
0.203481
0.156825
0.103126
0.0728637
0.0787002
1.09039
1.47438
1.71351
1.84624
1.90844
1.92213
1.90013
1.85242
1.78652
1.70841
1.62173
1.53067
1.43778
1.34591
1.25613
1.16868
1.08287
0.999804
0.919469
0.842272
0.767614
0.693136
0.62414
0.54728
0.468844
0.379132
0.280822
0.176101
0.109637
0.103593
1.07174
1.44493
1.65025
1.73447
1.74409
1.70589
1.63829
1.55421
1.46222
1.36821
1.27555
1.18692
1.10363
1.02708
0.957381
0.894111
0.836219
0.784203
0.736956
0.693709
0.65303
0.613191
0.571856
0.524566
0.467585
0.39708
0.314339
0.219975
0.149007
0.112666
1.07411
1.42289
1.67538
1.81787
1.87228
1.86197
1.81088
1.73507
1.64555
1.55018
1.45388
1.3603
1.27132
1.18893
1.11381
1.04591
0.984367
0.929989
0.881225
0.836593
0.793931
0.751169
0.705468
0.652774
0.588654
0.509112
0.415589
0.308354
0.219229
0.154623
1.05864
1.30237
1.54735
1.72716
1.83179
1.86927
1.85625
1.80911
1.7398
1.65837
1.57112
1.48307
1.39704
1.3159
1.24114
1.17338
1.11218
1.05862
1.01079
0.966403
0.922528
0.876833
0.826702
0.768777
0.69902
0.613519
0.513105
0.398141
0.295342
0.209553
1.09349
1.18133
1.35296
1.53146
1.67257
1.75858
1.79352
1.7879
1.75216
1.69639
1.62899
1.55605
1.48093
1.40766
1.33857
1.27541
1.21819
1.16828
1.12345
1.08074
1.03663
0.988563
0.93435
0.87154
0.796971
0.707307
0.602773
0.483929
0.372012
0.271326
1.20874
1.18409
1.25133
1.36438
1.48438
1.58356
1.65575
1.69135
1.69498
1.67322
1.63376
1.58235
1.52465
1.46501
1.4064
1.35185
1.30187
1.25802
1.21794
1.1782
1.1349
1.08534
1.02776
0.960658
0.881999
0.789286
0.682547
0.562475
0.445421
0.334973
1.38136
1.28611
1.25212
1.28642
1.35869
1.44024
1.51217
1.56145
1.5919
1.60163
1.59218
1.56738
1.53149
1.48984
1.44578
1.40323
1.36331
1.32756
1.29374
1.25819
1.21677
1.16677
1.10682
1.03628
0.954286
0.859371
0.751736
0.632174
0.513321
0.39699
1.57872
1.44395
1.33993
1.29307
1.30106
1.34325
1.39787
1.44702
1.48446
1.50652
1.51919
1.51911
1.50669
1.48541
1.45865
1.43071
1.40307
1.37716
1.35094
1.3207
1.28224
1.23296
1.17183
1.09893
1.01448
0.918106
0.810619
0.692921
0.574235
0.455123
1.79622
1.64266
1.49121
1.37891
1.31789
1.30463
1.32376
1.35671
1.39074
1.41792
1.43756
1.45109
1.45786
1.45652
1.44799
1.43609
1.42224
1.40752
1.39005
1.36616
1.33174
1.28439
1.22337
1.14936
1.06349
0.966573
0.859881
0.74425
0.627184
0.507899
2.03053
1.86063
1.68443
1.52829
1.40848
1.3346
1.30375
1.30357
1.3203
1.34218
1.36314
1.38089
1.39635
1.40994
1.41804
1.42207
1.4224
1.41975
1.41192
1.39533
1.36602
1.32179
1.26221
1.18844
1.10251
1.00566
0.89987
0.786724
0.672147
0.554889
2.27895
2.09542
1.90823
1.72458
1.56241
1.43459
1.34856
1.3024
1.28657
1.28982
1.30257
1.31877
1.33583
1.35495
1.3747
1.39238
1.40621
1.41553
1.41779
1.40939
1.38607
1.34608
1.28933
1.21733
1.13221
1.03608
0.931713
0.821235
0.709586
0.595453
2.53884
2.34318
2.14855
1.94913
1.76102
1.59411
1.45916
1.3624
1.30285
1.27392
1.266
1.2716
1.28447
1.30231
1.32551
1.35212
1.37697
1.39722
1.40936
1.40915
1.39285
1.35861
1.30585
1.23648
1.15323
1.0588
0.956418
0.848811
0.740296
0.629867
2.80585
2.59956
2.39611
2.18896
1.9872
1.79644
1.62555
1.48387
1.37731
1.30629
1.26613
1.24941
1.24916
1.26005
1.27925
1.30759
1.33907
1.36791
1.38889
1.3969
1.38773
1.35904
1.31164
1.24659
1.16653
1.07483
0.975195
0.871307
0.766493
0.660891
3.07603
2.86068
2.65001
2.43873
2.23015
2.0265
1.83313
1.65795
1.50942
1.3938
1.31266
1.26297
1.2391
1.23465
1.24447
1.26611
1.29801
1.33156
1.35922
1.37461
1.37247
1.35047
1.30841
1.24845
1.17311
1.08664
0.992578
0.893499
0.79259
0.691198
3.34504
3.12248
2.90688
2.69435
2.48299
2.2733
2.06771
1.87104
1.69074
1.5353
1.41128
1.32132
1.26394
1.23456
1.22718
1.23706
1.26082
1.29325
1.32405
1.34488
1.34915
1.33378
1.2983
1.24472
1.17696
1.0973
1.00906
0.914982
0.818177
0.72074
3.60796
3.38046
3.16244
2.95064
2.73977
2.5287
2.31783
2.1094
1.90844
1.72258
1.56033
1.42876
1.33153
1.26831
1.23488
1.22588
1.23603
1.25948
1.28819
1.31126
1.32045
1.31132
1.28423
1.23913
1.17913
1.10648
1.02432
0.935449
0.842943
0.749368
3.85946
3.6296
3.41171
3.20344
2.9957
2.78644
2.57492
2.36175
2.14954
1.94372
1.75206
1.58338
1.44536
1.34275
1.27524
1.23934
1.22939
1.23859
1.25877
1.2795
1.29153
1.28851
1.26882
1.23177
1.17938
1.11392
1.03808
0.954635
0.866637
0.776941
4.09403
3.86442
3.64918
3.44596
3.24371
3.03942
2.83138
2.61893
2.40292
2.18651
1.97547
1.77802
1.60362
1.46088
1.35429
1.2843
1.24696
1.23571
1.242
1.25566
1.26662
1.26691
1.25297
1.2231
1.17801
1.1196
1.05016
0.972305
0.889031
0.803326
4.30614
4.07998
3.87329
3.67539
3.47986
3.28277
3.08135
2.87384
2.65976
2.4404
2.2193
2.00283
1.80008
1.62134
1.47499
1.36636
1.29516
1.25655
1.24281
1.24376
1.24885
1.24885
1.23828
1.21411
1.17553
1.12372
1.06058
0.98839
0.910003
0.828407
4.49241
4.27662
4.07734
3.88653
3.69959
3.51197
3.31994
3.12097
2.91353
2.69745
2.47431
2.24823
2.02667
1.81949
1.63706
1.48895
1.37955
1.30742
1.26697
1.24889
1.24243
1.23769
1.22716
1.20642
1.17299
1.12699
1.06976
1.00311
0.929637
0.852206
4.6514
4.44458
4.2541
4.07347
3.89785
3.72247
3.54303
3.35664
3.16091
2.95432
2.7366
2.50962
2.27857
2.05189
1.83988
1.65467
1.50517
1.39478
1.32126
1.27736
1.253
1.23769
1.22291
1.20235
1.17196
1.13057
1.07854
1.01708
0.948348
0.87502
4.77185
4.5783
4.40034
4.23339
4.07226
3.91275
3.75056
3.58478
3.41036
3.22285
3.01944
2.80008
2.56734
2.32895
2.09276
1.87254
1.67964
1.52662
1.41404
1.33735
1.28794
1.25562
1.23091
1.2059
1.17532
1.13645
1.08836
1.03133
0.96693
0.897477
4.86123
4.68438
4.52196
4.37038
4.22786
4.09435
3.96162
3.82342
3.67442
3.50994
3.32582
3.12043
2.8936
2.6516
2.39894
2.14914
1.9147
1.71506
1.55784
1.44115
1.35865
1.30129
1.25947
1.2243
1.18888
1.14893
1.1022
1.04794
0.986857
0.92077
4.9245
4.76812
4.62473
4.49198
4.37425
4.2679
4.16451
4.05632
3.93706
3.8013
3.64349
3.46036
3.2488
3.01341
2.7544
2.48402
2.2206
1.98065
1.77622
1.61221
1.48694
1.39408
1.32499
1.2706
1.22295
1.17615
1.12645
1.07189
1.01197
0.947657
4.96911
4.83925
4.72123
4.61432
4.51814
4.43217
4.35484
4.27686
4.19269
4.09643
3.98042
3.83791
3.6631
3.45523
3.21433
2.94574
2.66288
2.38388
2.12758
1.90584
1.72348
1.57894
1.46628
1.37739
1.30408
1.23931
1.1778
1.11587
1.05183
0.985577
5.03461
4.94824
4.87306
4.80935
4.7575
4.71769
4.68886
4.66545
4.64077
4.60639
4.55251
4.46876
4.34572
4.17764
3.96338
3.70162
3.39866
3.07593
2.75611
2.4583
2.19496
1.97137
1.78638
1.63484
1.50984
1.40403
1.31095
1.22551
1.14416
1.06562
5.31667
5.31071
5.31516
5.33248
5.36604
5.4176
5.48645
5.56647
5.64907
5.72149
5.77024
5.77863
5.73326
5.62331
5.44417
5.18885
4.855
4.47031
4.06107
3.6536
3.26768
2.91643
2.60582
2.33684
2.10663
1.9092
1.73813
1.58759
1.4524
1.33285
6.88852
7.02583
7.15618
7.31032
7.50622
7.74605
8.01686
8.2971
8.57137
8.82593
9.04027
9.18774
9.24922
9.21589
9.07872
8.82242
8.42946
7.94909
7.41559
6.85845
6.29979
5.75848
5.24848
4.77875
4.35416
3.96541
3.61082
3.28914
2.99782
2.75133
16.4171
16.4337
16.4868
16.7337
17.1227
17.5696
17.9541
18.2663
18.545
18.803
19.0075
19.1001
19.122
19.0893
18.9629
18.7321
18.321
17.8902
17.4506
17.0274
16.6164
16.2314
15.8752
15.5532
15.267
14.8968
14.4803
14.0587
13.6516
13.3179
4.44758
5.59912
6.35964
6.87524
7.1699
7.27035
7.20944
7.0253
6.75474
6.43143
6.07762
5.71624
5.3582
5.01737
4.69634
4.39497
4.10596
3.83287
3.58465
3.36906
3.16731
2.93358
2.63234
2.24384
1.7896
1.30125
0.851398
0.158609
0.136712
0.115529
3.09989
3.45324
3.63897
3.73562
3.74896
3.689
3.56753
3.40126
3.20693
3.00037
2.78876
2.59211
2.41473
2.25859
2.12566
2.01554
1.92888
1.869
1.84282
1.85203
1.87621
1.87377
1.80711
1.65864
1.43345
1.15245
0.849179
0.532636
0.337256
0.223819
2.93125
3.14803
3.21102
3.20358
3.14111
3.03835
2.90278
2.74336
2.56991
2.39265
2.21907
2.0574
1.91352
1.78932
1.68692
1.6089
1.55686
1.53514
1.55039
1.60366
1.67507
1.7261
1.719
1.63389
1.46995
1.24226
0.980778
0.708046
0.491699
0.335129
2.85818
2.99978
3.01054
2.96193
2.87365
2.75971
2.62597
2.47804
2.32204
2.16515
2.01357
1.87288
1.74733
1.63994
1.55263
1.48917
1.45208
1.44594
1.47657
1.54339
1.62799
1.69619
1.71292
1.65754
1.52735
1.33162
1.09562
0.836829
0.615339
0.438274
2.77974
2.85042
2.82567
2.7583
2.66381
2.55289
2.42961
2.2974
2.15998
2.02265
1.89039
1.76775
1.65827
1.56514
1.49079
1.4391
1.41327
1.41803
1.45781
1.52903
1.61628
1.68923
1.71603
1.67795
1.57007
1.3987
1.1847
0.940837
0.721923
0.534251
2.6804
2.67131
2.61598
2.53872
2.44998
2.35186
2.24515
2.13207
2.01503
1.89814
1.78538
1.68063
1.58702
1.50806
1.44635
1.40608
1.39056
1.40475
1.45116
1.52514
1.61079
1.68213
1.71176
1.68261
1.592
1.44131
1.24794
1.02153
0.810164
0.620864
2.55992
2.45247
2.36179
2.28548
2.21267
2.13658
2.05243
1.96234
1.86813
1.77278
1.68004
1.59348
1.51628
1.45161
1.40268
1.37394
1.36836
1.39104
1.44252
1.51761
1.59968
1.6669
1.69641
1.67257
1.59295
1.46143
1.28755
1.08046
0.880739
0.69643
2.43958
2.24214
2.10858
2.0225
1.96154
1.90755
1.84992
1.78584
1.71531
1.64196
1.56943
1.50128
1.44052
1.3903
1.35426
1.33696
1.34106
1.3714
1.42694
1.50127
1.57924
1.64196
1.66984
1.64986
1.57925
1.46151
1.30687
1.11962
0.934088
0.758599
2.34794
2.08123
1.91834
1.81503
1.75093
1.70508
1.66244
1.61576
1.5632
1.50929
1.45521
1.40425
1.35924
1.32317
1.29971
1.29345
1.30676
1.34373
1.40237
1.4755
1.5493
1.60727
1.63309
1.61592
1.55351
1.44842
1.30908
1.14172
0.971676
0.807235
2.30804
2.02133
1.8104
1.67974
1.5974
1.54505
1.50611
1.46945
1.42974
1.38717
1.34439
1.30654
1.27483
1.25137
1.23934
1.24359
1.26537
1.30792
1.36868
1.44028
1.51002
1.56363
1.58756
1.57288
1.5181
1.42463
1.29966
1.14984
0.995433
0.843111
2.33872
2.03809
1.79835
1.62454
1.50932
1.43978
1.3911
1.35355
1.31895
1.2838
1.24811
1.21553
1.19194
1.1779
1.17552
1.18882
1.21787
1.26478
1.32672
1.39643
1.46237
1.51226
1.53483
1.52268
1.47494
1.39231
1.28116
1.14689
1.00767
0.867729
2.41909
2.10671
1.84868
1.64986
1.5037
1.3995
1.32878
1.27879
1.23886
1.20352
1.17053
1.14067
1.11787
1.1079
1.11212
1.13178
1.16611
1.21584
1.27792
1.3454
1.40782
1.45461
1.47643
1.46706
1.42604
1.35409
1.25582
1.13657
1.01094
0.882951
2.54062
2.2215
1.95121
1.73288
1.56108
1.42947
1.33309
1.25746
1.20071
1.15462
1.11719
1.08543
1.06108
1.04892
1.05442
1.07629
1.1129
1.16345
1.22435
1.28907
1.34813
1.39237
1.41398
1.40758
1.37309
1.31118
1.2257
1.12144
1.00939
0.893428
2.69516
2.37413
2.10061
1.8707
1.6792
1.52216
1.39696
1.29589
1.21446
1.14981
1.0978
1.05701
1.02657
1.00863
1.00863
1.02729
1.06215
1.1108
1.1688
1.22988
1.28547
1.32747
1.34931
1.34613
1.31816
1.26656
1.19458
1.10462
1.00513
0.899907
2.87587
2.5596
2.28956
2.05522
1.85146
1.67492
1.52495
1.3965
1.2863
1.19521
1.12179
1.06387
1.02105
0.993147
0.981834
0.991018
1.01903
1.06209
1.11483
1.17094
1.2225
1.26227
1.2847
1.28529
1.26507
1.22369
1.16333
1.08584
0.997738
0.902456
3.07483
2.77165
2.51191
2.2797
2.07017
1.88066
1.71206
1.55712
1.41793
1.29736
1.19658
1.11461
1.05213
1.00772
0.981244
0.975128
0.990159
1.02285
1.06709
1.11618
1.16276
1.20002
1.22413
1.22956
1.21585
1.18302
1.13274
1.06601
0.988025
0.90183
3.28609
3.00436
2.76324
2.53949
2.32864
2.13103
1.94624
1.76936
1.60461
1.45583
1.32597
1.21625
1.12746
1.06019
1.01332
0.987535
0.983666
1.00032
1.03175
1.07099
1.11179
1.14678
1.17125
1.17995
1.17147
1.14564
1.1037
1.04614
0.977019
0.899291
3.4995
3.24853
3.03062
2.82017
2.61402
2.41108
2.2134
2.02114
1.83707
1.66499
1.5087
1.37091
1.25376
1.15848
1.08611
1.03605
1.00858
1.00433
1.01813
1.04399
1.07579
1.10544
1.12797
1.13842
1.13348
1.113
1.07775
1.02768
0.966102
0.895948
3.70532
3.48529
3.28841
3.09192
2.89499
2.69659
2.49773
2.29945
2.10458
1.91689
1.74056
1.57884
1.43477
1.30912
1.20883
1.13041
1.07445
1.04366
1.03506
1.04298
1.05998
1.08014
1.09831
1.10769
1.10425
1.08723
1.05701
1.01258
0.957043
0.893114
3.8833
3.69154
3.5189
3.3446
3.16594
2.98113
2.79064
2.59597
2.40009
2.20676
2.01997
1.84251
1.6776
1.5276
1.39532
1.28567
1.19584
1.13251
1.0943
1.07659
1.07335
1.07918
1.08811
1.09257
1.08782
1.07203
1.04405
1.00302
0.951695
0.892233
4.02826
3.86888
3.72612
3.58029
3.42724
3.26438
3.09179
2.91158
2.7269
2.54128
2.35778
2.17764
2.00299
1.83502
1.67479
1.53059
1.40156
1.29699
1.21903
1.16534
1.13192
1.11505
1.10838
1.10244
1.0913
1.07136
1.04167
1.00118
0.951783
0.895527
4.15294
4.02886
3.91995
3.8083
3.68865
3.5578
3.41574
3.26551
3.11064
2.9538
2.79595
2.63505
2.46979
2.29773
2.11822
1.93525
1.75965
1.59985
1.46354
1.35439
1.27278
1.21761
1.18213
1.1553
1.12923
1.09926
1.06283
1.0177
0.965714
0.908911
4.27488
4.19166
4.1233
4.05477
3.98068
3.89844
3.80926
3.71758
3.62727
3.53892
3.44893
3.34861
3.22962
3.08251
2.90292
2.68879
2.44357
2.19612
1.96053
1.75369
1.58523
1.45755
1.36462
1.29406
1.23444
1.17945
1.12457
1.06658
1.00536
0.942221
4.43535
4.40451
4.39175
4.38606
4.38402
4.38617
4.398
4.42668
4.47599
4.54176
4.61068
4.66116
4.6695
4.61194
4.47399
4.23581
3.89269
3.48447
3.05727
2.65531
2.30709
2.02382
1.80297
1.63102
1.49175
1.37569
1.27463
1.18238
1.09579
1.01484
4.73532
4.78586
4.86791
4.97682
5.11554
5.29386
5.52571
5.82254
6.1861
6.59997
7.03144
7.43452
7.75792
7.94268
7.94291
7.71967
7.2193
6.49989
5.68194
4.86347
4.1113
3.46121
2.9248
2.49193
2.14601
1.87037
1.64808
1.4651
1.31083
1.18256
5.45705
5.67431
5.96432
6.33475
6.80521
7.40144
8.14887
9.06035
10.1278
11.3007
12.5019
13.643
14.6208
15.3226
15.6518
15.5046
14.7812
13.5713
12.0522
10.4104
8.78548
7.27988
5.95886
4.85047
3.95093
3.2372
2.67728
2.23939
1.89421
1.63235
7.58806
8.24221
9.07712
10.1097
11.3831
12.9318
14.7885
16.9434
19.3566
21.8844
24.3739
26.6734
28.6323
30.0957
30.9152
30.8919
29.8956
28.0409
25.5562
22.6946
19.6614
16.6389
13.7892
11.238
9.05297
7.24646
5.79551
4.65258
3.75971
3.10975
14.7348
16.5538
18.5924
20.918
23.6425
26.7366
30.2496
34.0921
38.1769
42.1263
45.7558
48.9107
51.4456
53.2306
54.1496
53.9468
52.67
50.4294
47.3855
43.6992
39.5
34.9767
30.3593
25.8741
21.7244
18.045
14.9031
12.2777
10.1149
8.52155
33.9606
36.1314
38.7828
41.9744
45.5404
49.3886
53.7605
58.1139
62.1873
65.6481
68.4202
70.5242
71.8159
72.2716
71.923
70.5021
68.6269
66.3992
63.9241
61.0878
57.6218
53.8139
49.8001
45.7151
41.6625
37.7291
33.9726
30.4424
27.1664
24.5636
50.4734
49.226
49.6792
51.3566
53.775
56.4248
59
61.2246
63.0514
64.5059
65.4303
65.7922
65.6662
65.0971
63.7173
61.2372
58.9721
56.6339
54.3799
52.1687
50.1459
48.3775
46.9774
46.0002
45.4283
45.063
44.7654
44.4437
43.9625
43.1106
7.91954
9.48888
10.1912
10.6191
10.8001
10.7316
10.4508
10.0146
9.47886
8.89425
8.29384
7.7113
7.16049
6.6643
6.2249
5.8477
5.52465
5.28462
5.19044
5.27168
5.41015
5.4063
5.12971
4.56074
3.76999
2.86011
1.97203
1.18531
0.684248
0.52284
4.70688
5.15998
5.3049
5.36021
5.331
5.21003
5.00409
4.7352
4.42717
4.10318
3.78406
3.4822
3.20125
2.95532
2.75677
2.60631
2.51404
2.49848
2.60163
2.84112
3.13135
3.3277
3.3288
3.11872
2.74082
2.2535
1.71883
1.18255
0.773376
0.520887
4.37199
4.58389
4.61484
4.57158
4.46544
4.30794
4.1035
3.8625
3.59899
3.32744
3.06187
2.81246
2.58586
2.38866
2.22849
2.11213
2.04938
2.06053
2.18415
2.4333
2.73756
2.97369
3.04761
2.93587
2.67176
2.28409
1.83478
1.35941
0.96094
0.66022
4.3158
4.38338
4.34052
4.24826
4.11499
3.94939
3.75356
3.53316
3.29725
3.05631
2.82085
2.59949
2.39882
2.22466
2.08426
1.98526
1.93798
1.96229
2.08805
2.32281
2.61127
2.84723
2.94613
2.88075
2.67151
2.34858
1.95335
1.51659
1.12801
0.805246
4.30546
4.23697
4.126
4.00042
3.85709
3.69598
3.51518
3.31688
3.10681
2.89288
2.68339
2.48571
2.30604
2.15109
2.0277
1.94441
1.91189
1.94932
2.0779
2.29441
2.55496
2.77474
2.87747
2.83548
2.66172
2.38579
2.03608
1.63728
1.26541
0.936767
4.27608
4.07813
3.90245
3.74935
3.60337
3.45339
3.29226
3.11906
2.93643
2.7499
2.56634
2.39223
2.23356
2.0975
1.99121
1.92425
1.90742
1.95771
2.08803
2.29046
2.52147
2.71524
2.80993
2.77879
2.63017
2.38654
2.07903
1.71909
1.37192
1.05127
4.21237
3.89802
3.65867
3.47855
3.33206
3.19698
3.05933
2.91353
2.75984
2.60167
2.44512
2.2956
2.15907
2.04254
1.95413
1.90445
1.9039
1.96633
2.09781
2.28678
2.48954
2.65541
2.73586
2.70831
2.57834
2.36248
2.08709
1.76628
1.44753
1.14247
4.1113
3.69818
3.39796
3.18928
3.04122
2.92147
2.80868
2.69242
2.56971
2.44136
2.31262
2.18852
2.0751
1.97907
1.90923
1.87727
1.89326
1.96872
2.10085
2.27445
2.44976
2.58916
2.6533
2.62519
2.50975
2.31741
2.07082
1.78456
1.49557
1.21082
3.99079
3.48637
3.12647
2.88761
2.73645
2.63069
2.54256
2.45727
2.36726
2.26878
2.16828
2.07002
1.98007
1.90529
1.85437
1.8401
1.87184
1.95717
2.08884
2.24667
2.39942
2.5143
2.56227
2.53169
2.42712
2.25548
2.03594
1.77926
1.51979
1.25819
3.86618
3.2902
2.89265
2.63395
2.4727
2.36931
2.29391
2.22773
2.16045
2.08854
2.01578
1.9427
1.87569
1.82185
1.78985
1.79246
1.83843
1.93165
2.06032
2.20454
2.33687
2.43011
2.46354
2.4302
2.33438
2.18189
1.98664
1.75838
1.52455
1.28744
3.74493
3.16169
2.73465
2.44998
2.26872
2.15507
2.0797
2.02252
1.97037
1.91695
1.8627
1.81199
1.76591
1.7315
1.71733
1.73527
1.79327
1.89189
2.01651
2.14781
2.26175
2.33681
2.35821
2.32274
2.23466
2.09934
1.92652
1.72572
1.51728
1.30437
3.68395
3.1136
2.67499
2.35263
2.13991
2.00557
1.91654
1.856
1.80845
1.76537
1.7242
1.6861
1.65678
1.63887
1.63991
1.67074
1.73766
1.83864
1.95788
2.07685
2.17494
2.23531
2.24751
2.21133
2.13099
2.01141
1.86003
1.68672
1.50416
1.31283
3.69
3.13813
2.69949
2.36052
2.11094
1.9356
1.81925
1.74377
1.68847
1.64548
1.60947
1.57871
1.55651
1.5504
1.56228
1.6025
1.67453
1.77446
1.88683
1.99391
2.07854
2.12753
2.13348
2.09841
2.0266
1.92254
1.7939
1.64428
1.4836
1.31069
3.7432
3.21547
2.78336
2.43287
2.15992
1.95551
1.80719
1.70044
1.6239
1.57048
1.53002
1.49904
1.47853
1.47427
1.49141
1.53607
1.60858
1.70383
1.80728
1.90278
1.97587
2.01638
2.01898
1.98726
1.92647
1.83858
1.72756
1.59746
1.45599
1.3009
3.84798
3.34622
2.92496
2.56679
2.27397
2.0425
1.86408
1.72892
1.62915
1.55354
1.49835
1.45822
1.43215
1.42288
1.43652
1.47926
1.5468
1.63311
1.72526
1.80888
1.87174
1.9063
1.90883
1.88443
1.83337
1.7581
1.66211
1.54851
1.42371
1.28509
4.00225
3.52737
3.11931
2.76295
2.45928
2.20589
1.99915
1.8332
1.70274
1.60102
1.52403
1.46715
1.42851
1.40808
1.40953
1.44272
1.49907
1.57155
1.64926
1.71998
1.77332
1.80542
1.81012
1.79044
1.74756
1.68303
1.59972
1.50009
1.38942
1.26545
4.19892
3.75206
3.36553
3.01694
2.70846
2.43917
2.20823
2.01315
1.85164
1.72033
1.61659
1.53685
1.47907
1.44187
1.42672
1.44072
1.47927
1.53259
1.59172
1.64811
1.69319
1.72033
1.72492
1.70849
1.6719
1.61597
1.54295
1.455
1.35591
1.24439
4.42688
4.01488
3.65281
3.31739
3.01059
2.73216
2.48318
2.2639
2.07464
1.9148
1.78363
1.67871
1.59835
1.54041
1.50515
1.49515
1.50784
1.53649
1.57323
1.61117
1.64243
1.66027
1.66072
1.6444
1.61117
1.5609
1.49544
1.41618
1.326
1.22438
4.67241
4.29947
3.9663
3.64988
3.35194
3.07268
2.81433
2.57919
2.36981
2.18781
2.03427
1.90762
1.80663
1.72835
1.67237
1.63723
1.62019
1.6176
1.62378
1.6337
1.64118
1.64141
1.63073
1.60859
1.57414
1.52484
1.46258
1.3874
1.30274
1.20819
4.92305
4.59065
4.29091
4.0005
3.7205
3.45119
3.19552
2.95731
2.74108
2.55031
2.38746
2.25116
2.14007
2.04969
1.97852
1.92104
1.87156
1.82869
1.79063
1.75689
1.72508
1.69337
1.65918
1.61986
1.57171
1.51453
1.44827
1.37268
1.28962
1.19884
5.16387
4.87685
4.61702
4.36204
4.11222
3.86788
3.63257
3.41151
3.21087
3.03568
2.88921
2.76914
2.67304
2.593
2.5246
2.45593
2.37388
2.27769
2.17193
2.06586
1.96533
1.87398
1.79115
1.71372
1.63707
1.55816
1.47444
1.38514
1.29344
1.20029
5.39786
5.16246
4.95144
4.74531
4.54381
4.34749
4.16079
3.99065
3.84477
3.72926
3.64771
3.59521
3.56647
3.54722
3.52597
3.47657
3.36888
3.19881
2.98146
2.7461
2.51621
2.30713
2.12354
1.96392
1.82248
1.6932
1.57149
1.4544
1.34092
1.23246
5.65633
5.48234
5.3357
5.20118
5.07866
4.96993
4.88141
4.82292
4.80338
4.83071
4.90785
5.02442
5.17063
5.31953
5.44655
5.48584
5.37673
5.10086
4.68985
4.21193
3.72575
3.27258
2.87392
2.53502
2.2501
2.00875
1.80143
1.62063
1.46047
1.31836
6.02704
5.93644
5.8869
5.86897
5.88428
5.93912
6.04418
6.21447
6.46269
6.79617
7.21272
7.69376
8.22019
8.74062
9.21063
9.47264
9.41355
8.98719
8.24792
7.32498
6.3421
5.39155
4.53576
3.80514
3.20122
2.70957
2.31179
1.98958
1.72584
1.51245
6.72771
6.77299
6.89975
7.10394
7.3882
7.76559
8.25725
8.88598
9.66731
10.6028
11.6762
12.8502
14.0848
15.2812
16.3618
17.0198
17.0605
16.4142
15.1698
13.5369
11.7162
9.8664
8.12497
6.59482
5.31442
4.27815
3.45959
2.82278
2.32903
1.95989
8.33352
8.67607
9.1818
9.84302
10.6632
11.6748
12.9105
14.395
16.1323
18.0987
20.239
22.4841
24.7514
26.8661
28.7041
29.7997
29.8646
28.8715
26.9773
24.4675
21.5511
18.4185
15.2828
12.3947
9.88002
7.78406
6.10838
4.80645
3.81049
3.09872
12.5345
13.6064
14.9158
16.4363
18.1916
20.277
22.6998
25.4625
28.523
31.7948
35.1688
38.5398
41.741
44.517
46.7081
47.5012
47.1244
45.7158
43.3806
40.2344
36.4548
32.1703
27.5843
23.1274
18.9611
15.2579
12.1778
9.69241
7.73106
6.33687
23.4336
25.5743
27.9775
30.6772
33.674
36.923
40.5027
44.3702
48.3936
52.3957
56.192
59.4732
62.179
64.0198
64.9882
64.3213
62.7285
60.4427
57.8007
54.8402
51.4803
47.7633
43.6203
38.9224
34.0587
29.2469
24.9298
21.1481
17.9312
15.5512
44.391
45.841
47.9772
50.7835
54.1047
57.7372
61.5202
65.1865
68.5497
71.4559
73.8332
75.5827
76.57
76.4921
75.4291
72.6247
69.543
66.3092
63.3261
60.5442
57.8573
55.2566
52.8194
50.5457
48.4059
46.3109
43.6574
40.83
37.944
35.4078
56.8457
55.9226
56.5662
58.3639
60.9186
63.768
66.5489
68.9646
70.8859
72.2437
72.9669
73.0349
72.3164
70.6298
67.7658
63.4906
59.523
55.7809
52.6396
50.0593
48.0926
46.6854
45.9043
45.7644
46.235
47.0874
48.1611
49.1474
49.7585
49.7395
11.857
13.989
14.6263
14.7731
14.7456
14.4569
13.9203
13.1996
12.3669
11.49
10.6132
9.78054
9.0066
8.32406
7.73254
7.25073
6.88223
6.75454
7.12217
8.03015
9.00071
9.46161
9.19277
8.27816
6.94278
5.40486
3.88654
2.51289
1.56049
0.951732
6.53979
7.09815
7.20032
7.13526
7.02224
6.81986
6.51996
6.1403
5.71002
5.26058
4.81888
4.4009
4.02199
3.68537
3.41011
3.20197
3.09565
3.16258
3.55645
4.29985
5.09188
5.57172
5.59226
5.21904
4.58573
3.81941
3.00519
2.17912
1.5
1.02198
6.00349
6.1977
6.16276
6.03543
5.8564
5.6285
5.34847
5.02267
4.66645
4.29787
3.93578
3.59297
3.28113
3.00639
2.782
2.61877
2.54318
2.62138
2.98081
3.63203
4.34338
4.82432
4.9364
4.71643
4.26832
3.68461
3.01456
2.31096
1.69802
1.21157
5.94825
5.92496
5.79548
5.62136
5.41715
5.18486
4.92036
4.62537
4.30883
3.98267
3.66147
3.35589
3.07649
2.83088
2.63221
2.49205
2.43725
2.53144
2.86848
3.43765
4.0709
4.52131
4.66274
4.51418
4.15657
3.66093
3.08424
2.45473
1.87996
1.39668
5.97559
5.76732
5.55127
5.33609
5.11928
4.89271
4.64748
4.38117
4.09825
3.80694
3.51886
3.2426
2.99002
2.76885
2.59245
2.47438
2.44375
2.56025
2.89252
3.39886
3.94135
4.34138
4.47944
4.36573
4.06211
3.62918
3.12035
2.55525
2.01915
1.54627
5.99192
5.61532
5.31423
5.05992
4.83592
4.62097
4.39936
4.16381
3.91489
3.65798
3.40239
3.15529
2.92934
2.73271
2.57986
2.48616
2.48373
2.6263
2.95141
3.40927
3.86934
4.2062
4.32171
4.22198
3.95496
3.57031
3.11183
2.60696
2.11275
1.65884
5.96612
5.44539
5.05894
4.76592
4.53628
4.33524
4.13935
3.93601
3.72255
3.50136
3.27961
3.06365
2.86564
2.69517
2.56808
2.50226
2.53096
2.70063
3.02013
3.42833
3.81733
4.088
4.17051
4.07231
3.83164
3.48468
3.07164
2.61378
2.16491
1.73626
5.88092
5.24524
4.78088
4.45006
4.21425
4.02755
3.85863
3.68896
3.51168
3.32684
3.14007
2.95722
2.78931
2.64671
2.5477
2.5124
2.57389
2.76948
3.08127
3.4425
3.76484
3.97239
4.01824
3.91462
3.69196
3.37652
3.00446
2.59079
2.18198
1.78349
5.75142
5.02143
4.4887
4.12215
3.87821
3.70396
3.5608
3.42356
3.28197
3.13393
2.98283
2.83388
2.698
2.58476
2.51551
2.51235
2.60632
2.82347
3.12312
3.4446
3.70203
3.85145
3.86154
3.7499
3.54022
3.25277
2.91706
2.54582
2.17452
1.80767
5.59723
4.79637
4.19479
3.79843
3.54695
3.38092
3.25769
3.14843
3.03991
2.92799
2.81148
2.69623
2.59257
2.51005
2.47125
2.49986
2.62406
2.85585
3.14287
3.42053
3.62224
3.72019
3.6994
3.5802
3.38144
3.11964
2.81647
2.48645
2.15686
1.82148
5.43158
4.57465
3.94275
3.52519
3.25947
3.09155
2.9781
2.88797
2.80386
2.71892
2.63305
2.54952
2.47682
2.42487
2.41634
2.47509
2.62732
2.86714
3.13663
3.36768
3.52229
3.57669
3.53185
3.4079
3.22012
2.98196
2.71157
2.42349
2.12949
1.82003
5.26723
4.41314
3.77165
3.32023
3.03468
2.85437
2.73843
2.65619
2.58763
2.52283
2.46
2.4014
2.35706
2.33413
2.35319
2.43909
2.61023
2.84892
3.09151
3.28613
3.40026
3.4211
3.36002
3.2357
3.06106
2.84806
2.61173
2.35578
2.09081
1.80678
5.16603
4.32946
3.68806
3.21055
2.88983
2.68759
2.55584
2.46906
2.40484
2.35125
2.30472
2.26442
2.24177
2.24386
2.28655
2.39476
2.5762
2.80319
3.01799
3.17793
3.25917
3.25665
3.18725
3.06845
2.91279
2.72618
2.5144
2.28435
2.04474
1.78458
5.13198
4.33371
3.70176
3.21435
2.85672
2.60691
2.44566
2.34275
2.27038
2.21795
2.17937
2.15097
2.14271
2.16203
2.2239
2.34778
2.53004
2.73778
2.92247
3.05056
3.10637
3.09085
3.02128
2.91828
2.78009
2.61178
2.42129
2.21295
1.99505
1.75659
5.15891
4.39494
3.77782
3.28498
2.90679
2.62833
2.4307
2.29201
2.19839
2.13703
2.09703
2.07322
2.0733
2.10007
2.17564
2.30798
2.48215
2.66503
2.81813
2.91811
2.95629
2.93863
2.88044
2.78643
2.6606
2.50764
2.33519
2.14482
1.94508
1.72549
5.24186
4.51709
3.91927
3.42498
3.02657
2.71864
2.48871
2.32163
2.20478
2.12253
2.07185
2.04494
2.04633
2.07664
2.15729
2.29123
2.45031
2.60473
2.72594
2.80276
2.83411
2.81852
2.7635
2.67552
2.55883
2.41762
2.2592
2.08276
1.89746
1.69375
5.38596
4.70089
4.1247
3.63076
3.22316
2.89253
2.63242
2.4336
2.28724
2.18281
2.11645
2.0811
2.07925
2.11082
2.19133
2.32206
2.46223
2.5875
2.67934
2.74246
2.7637
2.74085
2.68245
2.59505
2.48286
2.34864
2.19695
2.02976
1.85477
1.66374
5.58618
4.94064
4.38642
3.90685
3.49501
3.14759
2.862
2.63391
2.45881
2.33055
2.24673
2.2012
2.19605
2.22948
2.31546
2.43913
2.56128
2.66152
2.73558
2.77575
2.77345
2.72871
2.6553
2.56053
2.44348
2.30559
2.15321
1.9895
1.81998
1.63794
5.82992
5.22344
4.70353
4.24039
3.83204
3.47675
3.1746
2.9251
2.72803
2.58127
2.4851
2.43457
2.43317
2.4777
2.58109
2.71054
2.82521
2.91113
2.9576
2.95827
2.9061
2.82025
2.72404
2.60159
2.45381
2.29539
2.13363
1.96675
1.7969
1.61938
6.10027
5.53915
5.05734
4.61892
4.22515
3.8752
3.5711
3.31546
3.11195
2.96233
2.87006
2.83148
2.85496
2.93399
3.08328
3.24729
3.37695
3.45249
3.45347
3.38061
3.25185
3.10269
2.94453
2.76237
2.56625
2.36514
2.16353
1.97135
1.7903
1.61137
6.38209
5.87769
5.43979
5.03848
4.67543
4.35063
4.06778
3.83218
3.6512
3.53009
3.47644
3.48858
3.58292
3.74694
4.0021
4.25525
4.43261
4.49973
4.42791
4.24195
3.99087
3.72202
3.43086
3.12678
2.82898
2.54757
2.28495
2.04186
1.82329
1.62612
6.69012
6.25055
5.8665
5.51972
5.21153
4.94265
4.71853
4.54695
4.43931
4.40406
4.45668
4.59974
4.85366
5.20202
5.68046
6.12014
6.39515
6.46731
6.28357
5.92072
5.46662
4.95383
4.39591
3.8522
3.35557
2.91869
2.54019
2.2132
1.9321
1.6924
7.08268
6.71128
6.39943
6.13598
5.92236
5.76039
5.65833
5.6256
5.68062
5.84037
6.1255
6.5412
7.11808
7.82826
8.73508
9.51036
9.9774
10.0838
9.74223
9.12101
8.27925
7.26511
6.21673
5.22685
4.35782
3.62917
3.03329
2.55089
2.15949
1.84544
7.67877
7.39747
7.19581
7.07096
7.02383
7.05897
7.19212
7.43764
7.81782
8.35652
9.08429
10.0063
11.1652
12.5024
14.1251
15.3973
16.1782
16.3901
15.8279
14.7079
13.1674
11.3482
9.48885
7.74181
6.21919
4.96681
3.9749
3.20551
2.61213
2.16528
8.77218
8.63734
8.62525
8.75328
9.01895
9.42684
9.99423
10.7442
11.7048
12.9012
14.3676
16.0979
18.1452
20.3864
22.9679
24.7489
25.6419
25.6954
24.8468
23.1417
20.7861
17.9281
14.9776
12.1152
9.5846
7.47184
5.7984
4.51563
3.55028
2.86203
11.0536
11.2259
11.5982
12.2049
13.0253
14.0715
15.3619
16.9191
18.7638
20.9088
23.3728
26.1192
29.2082
32.3777
35.4364
36.643
36.9048
36.2571
34.8849
32.8591
30.2493
27.0729
23.2402
19.1529
15.4055
12.1069
9.40051
7.27285
5.65414
4.53361
16.1601
16.9691
18.0923
19.4643
21.081
23.0118
25.2414
27.7775
30.6083
33.7135
37.0762
40.6208
44.1056
47.0889
49.6421
49.2803
48.1692
46.394
44.3644
42.0348
39.3673
36.2948
32.8107
28.9845
24.6165
20.2651
16.4417
13.2071
10.6303
8.83981
27.131
28.6233
30.4763
32.6675
35.1475
37.8126
40.7262
43.8791
47.1957
50.6091
53.9453
56.9069
59.586
61.372
62.2156
59.4124
56.3662
53.2136
50.5104
48.0631
45.7382
43.3902
40.9634
38.3624
35.5631
32.3807
28.6295
24.878
21.6014
19.1778
44.3186
45.2158
46.8093
48.9936
51.6013
54.4598
57.4129
60.308
63.0253
65.4774
67.5849
69.1885
70.142
69.737
68.0449
62.4748
57.6537
53.3288
50.0501
47.5543
45.6706
44.3306
43.4175
42.8872
42.5845
42.3534
41.8053
40.7442
38.9664
37.1446
52.0894
52.0567
53.063
54.9265
57.3644
60.0155
62.5981
64.8915
66.7772
68.1686
68.9867
69.139
68.3497
66.0225
62.0492
54.7753
49.1606
44.4479
40.9964
38.4601
36.9134
36.2101
36.2803
37.1449
38.6855
40.6732
42.8597
44.9103
46.4774
47.2602
16.3547
19.1099
19.5892
19.5074
19.1363
18.5613
17.7217
16.6738
15.4998
14.2868
13.0813
11.9355
10.8604
9.90856
9.08504
8.43792
8.00784
8.17843
9.69517
12.4311
14.9134
15.961
15.4576
13.8444
11.6431
9.22328
6.86632
4.69746
3.07999
1.90565
8.57223
9.26338
9.30756
9.14683
8.88467
8.57253
8.16315
7.66121
7.1001
6.51448
5.93749
5.38241
4.87281
4.40999
4.02887
3.73315
3.59247
3.81511
4.83397
6.54005
8.09308
8.8361
8.71116
8.00191
6.99205
5.86798
4.74155
3.6139
2.64607
1.88445
7.78101
7.98294
7.8701
7.65075
7.36863
7.05127
6.68351
6.26502
5.81068
5.34026
4.87538
4.42749
4.01382
3.64028
3.33136
3.09983
3.00344
3.22103
4.08456
5.48134
6.77928
7.47093
7.47755
7.00571
6.26987
5.43386
4.55035
3.61235
2.79043
2.11651