/*--------------------------------*- C++ -*----------------------------------*\
  =========                 |
  \\      /  F ield         | OpenFOAM: The Open Source CFD Toolbox
   \\    /   O peration     | Website:  https://openfoam.org
    \\  /    A nd           | Version:  12
     \\/     M anipulation  |
\*---------------------------------------------------------------------------*/
FoamFile
{
    format      ascii;
    class       volScalarField;
    location    "1950/air";
    object      k;
}
// * * * * * * * * * * * * * * * * * * * * * * * * * * * * * * * * * * * * * //

dimensions      [0 2 -2 0 0 0 0];

internalField   nonuniform List<scalar> 
243000
(
0.0462248
0.0557325
0.0624242
0.067002
0.0698474
0.0712318
0.071429
0.0707032
0.0692897
0.0673925
0.0651606
0.0627224
0.0601539
0.0575462
0.0549349
0.0523004
0.0495834
0.0467661
0.0438358
0.0407885
0.0376182
0.0350201
0.0329658
0.0311427
0.0289425
0.0262916
0.021676
0.0153305
0.0116922
0.0136432
0.0717325
0.0855033
0.0922096
0.0946216
0.0945392
0.0929423
0.0903662
0.0871872
0.0836668
0.0799945
0.0762749
0.0726221
0.0690955
0.0657615
0.062632
0.0596903
0.0568866
0.0542322
0.0516998
0.0492792
0.0469215
0.0445495
0.0420872
0.0395176
0.03624
0.0321658
0.0269343
0.0202
0.0151043
0.0149515
0.0792056
0.0966575
0.105606
0.109169
0.109572
0.107966
0.105094
0.101467
0.0974233
0.0932019
0.088945
0.0847756
0.0807615
0.0769823
0.0734587
0.0701851
0.0671211
0.0643068
0.0616955
0.059255
0.0569123
0.0545687
0.0520738
0.0491725
0.0455318
0.0408262
0.0349284
0.0275212
0.0212286
0.0176383
0.0793401
0.0956847
0.106686
0.112647
0.114881
0.114458
0.112353
0.109195
0.105406
0.101292
0.0970523
0.0928415
0.088747
0.0848697
0.0812559
0.0779183
0.0748298
0.0720465
0.0695033
0.0671333
0.0648278
0.0624736
0.0599074
0.0568817
0.0530868
0.0481842
0.042078
0.0344771
0.0274624
0.0217705
0.0785901
0.0902196
0.101192
0.108877
0.113225
0.11476
0.114225
0.112281
0.109394
0.105952
0.102202
0.0983468
0.0945053
0.0908092
0.0873353
0.0841262
0.0811734
0.0785442
0.0761577
0.0739084
0.0716505
0.0692598
0.0665888
0.0634355
0.0595318
0.0545666
0.0484296
0.0408862
0.0335011
0.0266558
0.0803149
0.0845567
0.0925446
0.100501
0.106573
0.110189
0.11164
0.111404
0.109913
0.107567
0.104697
0.101547
0.0982513
0.0949824
0.0918476
0.088934
0.0862521
0.0838779
0.0817153
0.0796275
0.0774421
0.0750248
0.0722511
0.0689703
0.0649721
0.0599966
0.053922
0.0465707
0.0390765
0.0316636
0.085846
0.0846771
0.087849
0.0930552
0.0984258
0.102757
0.105852
0.10736
0.10751
0.106586
0.104902
0.102688
0.100176
0.0975451
0.0949245
0.0924523
0.0901572
0.0881188
0.0862342
0.0843448
0.0822616
0.0798445
0.0769904
0.0735963
0.0695163
0.0645492
0.0585832
0.0514864
0.0440645
0.0364393
0.0938299
0.0894677
0.0878849
0.0894785
0.0927925
0.0964631
0.0996435
0.101792
0.103108
0.103525
0.103116
0.10204
0.100475
0.098644
0.096688
0.0947797
0.0929713
0.0913362
0.0897753
0.0881199
0.0861713
0.0837902
0.0808902
0.0774108
0.0732661
0.0683179
0.0624808
0.0556596
0.0484389
0.0408094
0.102562
0.0966382
0.0919423
0.0897864
0.0901529
0.0920863
0.0945602
0.0967593
0.0984173
0.0993866
0.0999411
0.0999354
0.0993878
0.0984483
0.0972607
0.0960127
0.09477
0.0935967
0.0924019
0.0910145
0.0892353
0.0869301
0.084028
0.0805014
0.0763172
0.0713983
0.0657048
0.0591735
0.0522018
0.0447035
0.111772
0.105307
0.0987327
0.0937133
0.0909282
0.0903148
0.0911913
0.0926934
0.0942327
0.095453
0.0963294
0.0969307
0.0972293
0.0971676
0.0967859
0.0962527
0.0956306
0.0949669
0.0941762
0.0930909
0.0915175
0.0893313
0.0864748
0.0829465
0.0787571
0.0738914
0.0683428
0.0620636
0.055366
0.0480978
0.121286
0.114421
0.10708
0.100358
0.0950443
0.0916918
0.0902717
0.0902598
0.0910261
0.0920254
0.0929774
0.0937799
0.0944757
0.0950854
0.095447
0.0956251
0.0956375
0.0955159
0.0951614
0.0944114
0.0930814
0.0910574
0.0882967
0.0848178
0.0806735
0.0758719
0.0704478
0.0644055
0.0579841
0.0510226
0.13098
0.123849
0.116357
0.108769
0.101841
0.096211
0.0923263
0.0902064
0.0894717
0.0896187
0.0902045
0.0909475
0.0917272
0.0925975
0.0934925
0.0942898
0.0949102
0.095326
0.0954245
0.0950441
0.0939899
0.0921702
0.0895578
0.0861878
0.0821176
0.0773964
0.0721023
0.066278
0.0601203
0.0534821
0.140752
0.133423
0.125928
0.11801
0.110292
0.103211
0.0973028
0.0929537
0.0902249
0.088882
0.0885102
0.0887677
0.0893622
0.0901844
0.0912494
0.0924636
0.09359
0.0945023
0.095046
0.0950334
0.0942965
0.0927419
0.090322
0.0870907
0.0831326
0.0785255
0.0733734
0.067756
0.0618452
0.0555258
0.15045
0.14298
0.135419
0.127497
0.119538
0.111761
0.104559
0.0983946
0.0936275
0.0903811
0.0885175
0.0877341
0.0877189
0.0882248
0.0891151
0.0904232
0.0918651
0.0931763
0.0941232
0.0944821
0.0940654
0.0927619
0.0905895
0.0875658
0.0837719
0.0793183
0.0743328
0.0689513
0.0632997
0.0573386
0.159954
0.152397
0.144819
0.137014
0.129086
0.121104
0.113274
0.10594
0.0995177
0.0943708
0.0906724
0.0883684
0.0872491
0.0870369
0.0874943
0.0885016
0.0899785
0.0915187
0.0927786
0.0934745
0.0933749
0.0923718
0.0904416
0.0876544
0.0840883
0.0799008
0.0752168
0.0701204
0.0647321
0.0590822
0.169144
0.161554
0.154027
0.146421
0.13866
0.130741
0.122736
0.114827
0.107329
0.100649
0.0951559
0.0910695
0.0884124
0.0870346
0.086684
0.0871447
0.0882529
0.089756
0.0911716
0.0921224
0.0923149
0.0916099
0.089976
0.0874811
0.0842743
0.0804246
0.0760499
0.0712431
0.0661213
0.0607575
0.17789
0.170329
0.162923
0.155565
0.14806
0.140354
0.132439
0.124377
0.116349
0.108671
0.101739
0.0959393
0.0915369
0.0886154
0.0870484
0.0866215
0.0870948
0.0881883
0.0895194
0.0905818
0.0910016
0.0905796
0.0893261
0.0872205
0.0843797
0.0808747
0.0768176
0.0723044
0.0674521
0.0623593
0.186059
0.178594
0.171371
0.164322
0.157138
0.149731
0.142055
0.134104
0.125948
0.117778
0.109907
0.102738
0.0966804
0.09205
0.088937
0.0872568
0.086785
0.087213
0.0881533
0.0891148
0.0896694
0.0895275
0.0886111
0.0868762
0.0843934
0.0812391
0.0775065
0.0732924
0.0687132
0.063883
0.193519
0.186213
0.17923
0.172511
0.165692
0.158659
0.151334
0.143667
0.135656
0.127387
0.119057
0.11099
0.103612
0.0973721
0.0925769
0.0893574
0.0876136
0.087081
0.0873717
0.088007
0.0885145
0.0885257
0.0878732
0.0864697
0.0843298
0.0815168
0.0781088
0.0741966
0.0698947
0.0653243
0.200143
0.193071
0.186494
0.180084
0.173637
0.167016
0.160112
0.152841
0.145155
0.137063
0.128658
0.120155
0.111908
0.104376
0.0979991
0.0931266
0.0898604
0.0880614
0.0874133
0.087453
0.0876875
0.0876844
0.0871865
0.0860466
0.0842128
0.0817187
0.0786266
0.075015
0.0709922
0.06668
0.205871
0.199224
0.192984
0.186913
0.180869
0.1747
0.168272
0.16148
0.154244
0.146523
0.138331
0.129776
0.121109
0.112713
0.105052
0.098618
0.0937258
0.0904266
0.088547
0.0876973
0.0873904
0.0871643
0.0866665
0.0856849
0.0840934
0.0818788
0.0790814
0.0757603
0.0720123
0.0679539
0.210694
0.204401
0.198517
0.192856
0.187271
0.18161
0.175726
0.169508
0.162854
0.155681
0.147939
0.139646
0.130944
0.122115
0.113558
0.105807
0.0993351
0.0944152
0.091064
0.0890304
0.0878897
0.0871678
0.0864691
0.0854945
0.084046
0.0820539
0.0795158
0.0764641
0.0729778
0.069164
0.214313
0.208476
0.203038
0.197868
0.192814
0.187745
0.18252
0.177101
0.17131
0.164974
0.157962
0.150221
0.141784
0.132874
0.123738
0.114904
0.106873
0.100279
0.0952839
0.0918024
0.0895217
0.0880127
0.0868501
0.0856663
0.0842095
0.0823411
0.0799998
0.0771789
0.0739305
0.070345
0.216977
0.211681
0.206759
0.202111
0.197691
0.193505
0.1893
0.184871
0.180038
0.174628
0.168471
0.161468
0.153553
0.144877
0.13553
0.125959
0.116629
0.108375
0.101645
0.0964999
0.0927759
0.0901408
0.0881937
0.0865402
0.08486
0.082946
0.0806795
0.0780084
0.0749454
0.0715597
0.218852
0.214194
0.209877
0.205841
0.202225
0.198932
0.195705
0.192301
0.188515
0.184159
0.179031
0.172988
0.165872
0.15777
0.148606
0.138725
0.128742
0.119295
0.110939
0.103999
0.0985355
0.0943841
0.0912339
0.0887149
0.0864792
0.0842552
0.0818627
0.0791954
0.0762144
0.0729489
0.220168
0.216315
0.212784
0.209559
0.206636
0.204005
0.201622
0.199207
0.196588
0.193571
0.189904
0.18535
0.179687
0.172833
0.164715
0.155418
0.145311
0.134982
0.125129
0.116277
0.108734
0.102563
0.0976189
0.0936271
0.0902699
0.087252
0.0843372
0.0813517
0.0782066
0.0748854
0.222094
0.219547
0.217318
0.21542
0.213868
0.212673
0.211805
0.211099
0.210356
0.209319
0.207689
0.205141
0.201367
0.196151
0.189397
0.180975
0.170972
0.159979
0.148695
0.137784
0.127761
0.118929
0.111363
0.104968
0.0995415
0.0948298
0.0905867
0.0866033
0.082724
0.0788914
0.230306
0.230136
0.230265
0.230767
0.231735
0.233218
0.235191
0.237474
0.23982
0.241869
0.243247
0.243491
0.242223
0.239127
0.234032
0.226668
0.21685
0.205248
0.192532
0.179434
0.166569
0.154409
0.14324
0.133202
0.124299
0.116402
0.109335
0.102923
0.0969895
0.091588
0.273714
0.277343
0.280767
0.284787
0.289856
0.296
0.302862
0.309882
0.316678
0.322922
0.328136
0.331703
0.33319
0.332397
0.3291
0.322885
0.313234
0.301227
0.287602
0.273017
0.257987
0.24299
0.228423
0.21458
0.201671
0.189477
0.178002
0.167262
0.157228
0.148482
0.488421
0.488754
0.489807
0.494685
0.502322
0.511025
0.518456
0.524452
0.529778
0.534685
0.538561
0.540314
0.540732
0.540118
0.537735
0.533364
0.525534
0.517267
0.508761
0.500504
0.492417
0.48478
0.477659
0.471174
0.465372
0.457817
0.44924
0.440475
0.431926
0.424852
0.0879458
0.0999709
0.106171
0.109186
0.10973
0.108359
0.105569
0.101821
0.0975057
0.0929535
0.0883628
0.0839316
0.0797425
0.0759102
0.0724369
0.0693033
0.0664124
0.0637785
0.0614864
0.0596193
0.0579541
0.0559057
0.0528826
0.0484698
0.042528
0.0351487
0.027109
0.0245186
0.0220026
0.0200802
0.152961
0.171059
0.173429
0.168962
0.160901
0.151125
0.140756
0.130477
0.120697
0.111661
0.103304
0.0959693
0.0896085
0.0842286
0.0797059
0.0759555
0.072849
0.0704906
0.0689655
0.0683724
0.0684356
0.0685155
0.0677918
0.0654294
0.0608673
0.0539205
0.0453231
0.0365253
0.0308681
0.0267712
0.186253
0.206251
0.209235
0.204402
0.195296
0.184045
0.171934
0.159797
0.148142
0.137314
0.127433
0.118648
0.111021
0.104591
0.0992816
0.0950401
0.0917127
0.0894148
0.0881075
0.0877268
0.0878969
0.0880329
0.0873813
0.085064
0.0803435
0.0728209
0.0631002
0.0519832
0.0430132
0.0361912
0.205271
0.223867
0.226859
0.222367
0.213555
0.202488
0.190435
0.178206
0.166276
0.155064
0.144788
0.135612
0.12761
0.1209
0.115458
0.111258
0.108174
0.106309
0.105455
0.105355
0.105507
0.105371
0.104341
0.101685
0.0966616
0.0887627
0.0784327
0.0660217
0.0549927
0.0461305
0.214346
0.230044
0.23255
0.22856
0.220461
0.210333
0.199312
0.188006
0.176687
0.165943
0.156041
0.147139
0.13937
0.132903
0.127769
0.12398
0.121447
0.120233
0.119975
0.120231
0.12041
0.119991
0.118515
0.115435
0.110122
0.102041
0.0915034
0.0785633
0.0663849
0.0560654
0.217244
0.227491
0.22933
0.225809
0.219455
0.211067
0.201285
0.191049
0.180762
0.171136
0.162222
0.154074
0.146979
0.141138
0.136629
0.133512
0.131729
0.131291
0.131684
0.132327
0.132585
0.131952
0.130083
0.126616
0.121061
0.112948
0.102446
0.0894849
0.0768111
0.0656122
0.216027
0.219055
0.218234
0.215032
0.210315
0.204226
0.19671
0.188567
0.180342
0.172055
0.164226
0.157102
0.151066
0.146136
0.14249
0.140243
0.139355
0.13975
0.140811
0.141862
0.142246
0.141481
0.139306
0.135517
0.129789
0.12174
0.111439
0.0987867
0.0860668
0.0744434
0.21394
0.208726
0.203792
0.199586
0.195803
0.191741
0.18688
0.181354
0.175239
0.168905
0.16272
0.157125
0.152201
0.14835
0.145744
0.144517
0.144613
0.145858
0.147586
0.149062
0.14962
0.148812
0.146437
0.142414
0.136582
0.128673
0.11869
0.106549
0.0940952
0.0823716
0.211989
0.200128
0.1919
0.185934
0.181763
0.178404
0.174991
0.171188
0.166936
0.16272
0.158345
0.154307
0.150812
0.148204
0.146748
0.146643
0.147748
0.149847
0.152231
0.154143
0.154922
0.154166
0.151708
0.147564
0.141709
0.133997
0.124429
0.112938
0.100955
0.0893156
0.212989
0.198035
0.185036
0.176415
0.17054
0.166615
0.163594
0.160785
0.157839
0.154854
0.15193
0.14944
0.147394
0.146104
0.14583
0.146881
0.149006
0.151948
0.154964
0.157312
0.158362
0.157751
0.155331
0.151197
0.145412
0.137986
0.128864
0.118015
0.106606
0.0952527
0.217834
0.200607
0.184964
0.172374
0.163608
0.15817
0.154343
0.151545
0.149159
0.146969
0.144933
0.143317
0.142531
0.14249
0.143367
0.145539
0.148635
0.152361
0.155999
0.158777
0.160151
0.159761
0.157498
0.153524
0.147947
0.140787
0.132087
0.121916
0.111152
0.100257
0.226142
0.206996
0.189269
0.174409
0.162908
0.154495
0.148769
0.144993
0.142208
0.140094
0.138438
0.137307
0.137013
0.137924
0.139828
0.142975
0.146928
0.151344
0.15555
0.15884
0.160526
0.160374
0.158383
0.154664
0.149347
0.142526
0.134305
0.124818
0.114735
0.104421
0.237326
0.216787
0.197576
0.180922
0.167233
0.156524
0.148671
0.142665
0.138409
0.135466
0.133461
0.132273
0.132078
0.133219
0.135804
0.139635
0.144239
0.1492
0.153869
0.157577
0.159653
0.159789
0.158047
0.154581
0.149652
0.143348
0.135707
0.12699
0.117713
0.108082
0.250693
0.229716
0.210011
0.192205
0.176747
0.163833
0.153538
0.145377
0.139103
0.134448
0.131236
0.12927
0.128633
0.12945
0.131996
0.13608
0.14101
0.146291
0.151282
0.155316
0.157752
0.158246
0.156871
0.153785
0.149268
0.143534
0.1367
0.128788
0.120249
0.11122
0.266028
0.245422
0.225885
0.207656
0.19113
0.17654
0.164124
0.153637
0.144914
0.138024
0.132922
0.129459
0.12768
0.127617
0.129312
0.133019
0.137806
0.143074
0.148156
0.152376
0.155104
0.155979
0.155038
0.152488
0.148579
0.143433
0.137249
0.13003
0.12216
0.113742
0.282864
0.263276
0.244622
0.226658
0.209729
0.194097
0.180107
0.167421
0.156263
0.146877
0.139391
0.133789
0.130187
0.128549
0.128859
0.13128
0.135332
0.140129
0.144967
0.149158
0.152072
0.153319
0.152944
0.151021
0.147661
0.143054
0.137419
0.130816
0.123541
0.115712
0.300552
0.282689
0.265645
0.248582
0.231783
0.21567
0.200486
0.186077
0.172833
0.161089
0.151095
0.14302
0.136994
0.133154
0.131472
0.132004
0.13444
0.138175
0.142342
0.146199
0.149206
0.150842
0.150867
0.149408
0.146593
0.142507
0.137359
0.131272
0.12451
0.117228
0.31833
0.302842
0.287821
0.27215
0.256082
0.239912
0.224011
0.20854
0.193804
0.180152
0.167901
0.15733
0.148675
0.142144
0.137945
0.136018
0.13625
0.138235
0.141166
0.144302
0.147008
0.148661
0.148938
0.147879
0.14554
0.141926
0.137224
0.131553
0.125223
0.118426
0.335429
0.322357
0.309316
0.29523
0.280374
0.264966
0.249294
0.233564
0.218071
0.203161
0.18918
0.17644
0.165257
0.155833
0.148847
0.144051
0.141445
0.141045
0.142158
0.144012
0.14587
0.14718
0.147524
0.146699
0.14471
0.141475
0.137136
0.131825
0.125859
0.119461
0.350543
0.339705
0.328843
0.316888
0.303895
0.289949
0.275255
0.260021
0.244525
0.229102
0.214083
0.19976
0.186482
0.174619
0.164535
0.156674
0.150804
0.147412
0.146035
0.14597
0.146449
0.146959
0.147055
0.146226
0.144338
0.141323
0.137263
0.132265
0.126601
0.120517
0.363239
0.354754
0.346312
0.336824
0.326143
0.314206
0.301115
0.287073
0.272334
0.257199
0.241954
0.226829
0.212154
0.198312
0.185506
0.174491
0.165211
0.158336
0.153802
0.151083
0.149538
0.148731
0.148116
0.146968
0.144944
0.141944
0.137989
0.133171
0.127706
0.121844
0.374019
0.367843
0.361862
0.35501
0.346957
0.337485
0.326588
0.314449
0.301305
0.287401
0.27294
0.258045
0.242954
0.227943
0.213189
0.199118
0.186468
0.175751
0.167315
0.161043
0.156587
0.153661
0.151648
0.149667
0.14718
0.143967
0.139913
0.135051
0.129588
0.123816
0.383355
0.37949
0.376018
0.371951
0.366819
0.360291
0.352313
0.343008
0.332613
0.321286
0.309078
0.295914
0.281877
0.267001
0.251583
0.235528
0.219129
0.203938
0.190465
0.179273
0.170533
0.16415
0.159563
0.155823
0.152124
0.148122
0.143589
0.138414
0.132746
0.126867
0.392272
0.390875
0.390148
0.38923
0.387572
0.3848
0.381006
0.376359
0.37096
0.364714
0.357361
0.348501
0.337927
0.325285
0.310833
0.293705
0.273749
0.252786
0.232316
0.213839
0.198266
0.185901
0.176434
0.168963
0.162464
0.156441
0.150493
0.144366
0.138008
0.131651
0.403068
0.404737
0.407631
0.411067
0.414532
0.41796
0.421535
0.425345
0.429204
0.432523
0.434529
0.434282
0.431156
0.424135
0.413089
0.396659
0.373001
0.344198
0.31357
0.283783
0.256711
0.233417
0.214204
0.198493
0.185477
0.174474
0.164826
0.15602
0.14772
0.140084
0.421871
0.428634
0.437819
0.449124
0.462508
0.47801
0.495551
0.514807
0.534998
0.554622
0.572105
0.586061
0.595053
0.597344
0.592267
0.578057
0.551469
0.514908
0.471978
0.426542
0.381542
0.339318
0.301503
0.268863
0.241371
0.218511
0.199491
0.183505
0.169779
0.158506
0.470043
0.48814
0.511249
0.539066
0.571504
0.608016
0.647947
0.689959
0.732602
0.772865
0.808505
0.837845
0.859366
0.871524
0.872664
0.861265
0.833255
0.791005
0.737928
0.677971
0.614213
0.54958
0.48687
0.428538
0.376213
0.330589
0.291715
0.259054
0.231709
0.210858
0.618221
0.661006
0.708466
0.760235
0.816162
0.874272
0.934295
0.994074
1.0523
1.10303
1.14519
1.17814
1.20094
1.21313
1.21368
1.20089
1.17352
1.13328
1.08187
1.02142
0.952997
0.878805
0.801445
0.723681
0.648473
0.578152
0.514496
0.457909
0.408291
0.370911
0.95345
0.996365
1.04618
1.102
1.15935
1.21577
1.27446
1.32779
1.37349
1.4086
1.43353
1.44946
1.45483
1.4509
1.43833
1.41391
1.38445
1.35058
1.31325
1.27202
1.22374
1.17156
1.1166
1.05983
1.00224
0.944311
0.886884
0.830696
0.776536
0.733837
1.20974
1.20352
1.21759
1.24604
1.28058
1.31455
1.34519
1.36939
1.38725
1.39962
1.40512
1.40366
1.39571
1.38315
1.36131
1.32768
1.29704
1.26546
1.23492
1.20547
1.17928
1.15724
1.14065
1.13
1.12456
1.12141
1.11896
1.11563
1.10988
1.09769
0.129206
0.142106
0.14539
0.145891
0.144187
0.140473
0.135213
0.128963
0.122211
0.115375
0.108708
0.102466
0.0967411
0.0917182
0.0873997
0.0838317
0.0809363
0.0790009
0.0786885
0.0803472
0.0828052
0.0840216
0.0825286
0.0777605
0.0699051
0.0594319
0.0474653
0.0346238
0.0246224
0.020545
0.216059
0.238936
0.240964
0.234604
0.223265
0.209558
0.195001
0.180527
0.166707
0.153877
0.142176
0.131798
0.122511
0.114593
0.108049
0.102794
0.098687
0.0963691
0.0966974
0.100247
0.105708
0.110611
0.112742
0.110666
0.103832
0.0925643
0.0781887
0.0617226
0.0476951
0.0376298
0.26289
0.287893
0.291456
0.284942
0.272764
0.257597
0.241043
0.224222
0.207904
0.192574
0.178474
0.165899
0.154824
0.145417
0.137679
0.131612
0.127079
0.12483
0.125581
0.129636
0.135611
0.141101
0.143856
0.142234
0.135256
0.123001
0.10666
0.0872074
0.069474
0.0553957
0.293947
0.31538
0.318351
0.312117
0.300418
0.28559
0.269072
0.251982
0.235137
0.219091
0.204186
0.190784
0.178982
0.169005
0.160947
0.154859
0.150664
0.149039
0.150319
0.154524
0.160248
0.165332
0.167807
0.166124
0.159157
0.146686
0.129678
0.10892
0.0889824
0.0720779
0.31511
0.330122
0.331049
0.324734
0.313847
0.300087
0.284533
0.268273
0.252047
0.23635
0.22163
0.208293
0.196535
0.186657
0.178861
0.173253
0.16981
0.169037
0.170826
0.174943
0.180052
0.184277
0.186041
0.184005
0.177084
0.164853
0.148025
0.127092
0.106203
0.0874335
0.328813
0.335778
0.334044
0.327455
0.31742
0.304703
0.290309
0.275679
0.260925
0.246305
0.232479
0.219874
0.208748
0.199484
0.192382
0.18762
0.185201
0.185363
0.187605
0.191474
0.195772
0.198938
0.199782
0.197207
0.19029
0.178529
0.162345
0.142005
0.121082
0.101456
0.336535
0.335378
0.329821
0.322088
0.31273
0.302117
0.290284
0.277179
0.263686
0.250207
0.237864
0.226527
0.216494
0.208257
0.202181
0.198555
0.197356
0.198456
0.201104
0.204664
0.208084
0.21013
0.209966
0.206736
0.199754
0.188531
0.173266
0.154015
0.133693
0.113788
0.339452
0.330662
0.320362
0.310675
0.301595
0.292436
0.282672
0.272068
0.261043
0.249995
0.2391
0.229068
0.220433
0.213533
0.208756
0.206488
0.20661
0.208642
0.211653
0.214907
0.21748
0.218464
0.21727
0.21335
0.206257
0.195572
0.181391
0.163496
0.144147
0.124399
0.340433
0.323042
0.307187
0.294857
0.285625
0.277778
0.270168
0.262243
0.253891
0.245086
0.236358
0.228222
0.221181
0.215821
0.212534
0.211772
0.213218
0.216168
0.219526
0.222511
0.224333
0.224374
0.222224
0.217644
0.210464
0.200258
0.186943
0.170426
0.152289
0.133287
0.340504
0.314849
0.294639
0.280133
0.269994
0.262471
0.256089
0.249937
0.243593
0.237031
0.230631
0.224538
0.219306
0.215614
0.213914
0.214689
0.21743
0.221252
0.224944
0.227727
0.22895
0.228186
0.225226
0.220141
0.212754
0.20284
0.19035
0.175181
0.158464
0.140679
0.339867
0.310771
0.286662
0.2691
0.257103
0.248787
0.242568
0.237379
0.232492
0.227613
0.22289
0.218814
0.215428
0.213438
0.213312
0.215544
0.219475
0.224114
0.228126
0.230788
0.231568
0.230182
0.226625
0.220936
0.213314
0.20374
0.192105
0.178253
0.16306
0.146744
0.341778
0.31171
0.285615
0.264359
0.248991
0.238921
0.231655
0.226396
0.22212
0.218288
0.214849
0.212005
0.210277
0.209885
0.211175
0.214712
0.219678
0.224972
0.229305
0.231946
0.23239
0.230456
0.226373
0.220409
0.212769
0.203504
0.192699
0.180294
0.166762
0.151837
0.346587
0.316277
0.289252
0.266305
0.248364
0.234733
0.225203
0.218889
0.21419
0.210515
0.207712
0.205685
0.204783
0.205636
0.208079
0.212652
0.218375
0.224154
0.228743
0.231446
0.23168
0.229503
0.225189
0.219105
0.211611
0.202783
0.192869
0.18169
0.16944
0.155736
0.354605
0.324714
0.297372
0.273096
0.253051
0.237218
0.225468
0.216623
0.210399
0.205829
0.202877
0.201009
0.200433
0.201587
0.204755
0.209949
0.216077
0.222079
0.226823
0.229572
0.229729
0.227492
0.223208
0.217287
0.210198
0.201956
0.192644
0.182332
0.171127
0.158568
0.365881
0.336933
0.309731
0.284814
0.263305
0.24542
0.231217
0.220153
0.211902
0.205966
0.201804
0.199262
0.19829
0.19907
0.202104
0.207347
0.213414
0.219288
0.223981
0.226715
0.226884
0.224765
0.22074
0.215356
0.20869
0.200919
0.19216
0.182477
0.172101
0.160546
0.380216
0.352541
0.326469
0.301808
0.27952
0.260043
0.243647
0.230196
0.219543
0.211423
0.205503
0.201557
0.199476
0.199257
0.201211
0.205762
0.211185
0.216487
0.220809
0.223406
0.223625
0.221862
0.218265
0.213317
0.207113
0.199815
0.191561
0.182393
0.172643
0.161922
0.397043
0.371502
0.34709
0.323282
0.300901
0.280447
0.262326
0.246683
0.233598
0.223028
0.214845
0.208876
0.205011
0.203176
0.203468
0.206273
0.210391
0.214584
0.218133
0.220412
0.220719
0.219139
0.215911
0.211401
0.20565
0.198798
0.190995
0.182272
0.172997
0.162941
0.416099
0.392903
0.370532
0.348103
0.326274
0.305508
0.28628
0.268921
0.253695
0.240759
0.230168
0.221849
0.215745
0.211769
0.209928
0.210369
0.21229
0.21481
0.217164
0.218748
0.218792
0.217179
0.214165
0.209948
0.204536
0.198046
0.190608
0.182236
0.173348
0.163806
0.436093
0.41551
0.395472
0.374874
0.354195
0.333813
0.314205
0.295806
0.279019
0.264147
0.251402
0.240803
0.23237
0.22602
0.221795
0.219558
0.21883
0.219029
0.219498
0.219681
0.218827
0.216736
0.213532
0.209299
0.204035
0.197744
0.190529
0.182459
0.173868
0.164713
0.455748
0.43796
0.420509
0.402159
0.383215
0.363941
0.344772
0.326181
0.308664
0.292636
0.278414
0.266078
0.255715
0.247231
0.240738
0.235844
0.232131
0.229368
0.227117
0.224996
0.22244
0.219217
0.215318
0.210617
0.205019
0.198538
0.191293
0.183311
0.174835
0.165908
0.474027
0.459152
0.444497
0.428797
0.412183
0.394799
0.377009
0.35929
0.342188
0.326185
0.311658
0.2987
0.287438
0.277712
0.269659
0.262575
0.255853
0.249524
0.243496
0.237808
0.232249
0.226705
0.221083
0.215183
0.208787
0.201708
0.193891
0.185461
0.17672
0.16775
0.490527
0.478611
0.466929
0.454301
0.440695
0.426135
0.410909
0.395484
0.380421
0.366209
0.35324
0.341568
0.331318
0.322183
0.314177
0.306134
0.296849
0.286417
0.275207
0.264016
0.253303
0.243321
0.234075
0.225362
0.216856
0.20822
0.199249
0.189881
0.180327
0.170849
0.505725
0.496836
0.488429
0.479483
0.469836
0.459418
0.448459
0.437421
0.426837
0.417145
0.408672
0.401393
0.395385
0.390045
0.38503
0.378361
0.36766
0.352755
0.334524
0.314928
0.295504
0.277311
0.260886
0.246249
0.233065
0.220843
0.209178
0.197823
0.186669
0.176074
0.521611
0.516137
0.511739
0.507648
0.503613
0.499529
0.495617
0.492307
0.490034
0.489102
0.489667
0.491531
0.494603
0.497729
0.500022
0.497943
0.487559
0.468183
0.441118
0.409551
0.376519
0.344345
0.314719
0.288499
0.265698
0.245832
0.228312
0.2126
0.19823
0.185267
0.543203
0.542355
0.543893
0.547291
0.552167
0.558431
0.566276
0.575991
0.587762
0.601549
0.617089
0.63372
0.651038
0.667098
0.680473
0.685173
0.676166
0.652436
0.615725
0.570162
0.519808
0.467963
0.417767
0.371886
0.331557
0.296916
0.267525
0.242652
0.221414
0.203871
0.583096
0.590721
0.603116
0.619524
0.639329
0.662411
0.688656
0.717856
0.749573
0.783104
0.817475
0.851547
0.884423
0.91336
0.936432
0.945878
0.936336
0.907914
0.863022
0.806024
0.740237
0.668588
0.594647
0.523413
0.457955
0.399927
0.350197
0.308476
0.2738
0.247218
0.675891
0.70111
0.732892
0.769724
0.810617
0.855647
0.903665
0.953787
1.0048
1.05524
1.10377
1.14893
1.18914
1.22145
1.24368
1.24496
1.22785
1.1952
1.14847
1.08894
1.01865
0.93872
0.851054
0.761762
0.673789
0.590681
0.516575
0.452137
0.397327
0.356739
0.892092
0.938256
0.990304
1.04709
1.10648
1.16585
1.22526
1.28353
1.33895
1.38964
1.43421
1.46925
1.49481
1.50855
1.50967
1.4894
1.45618
1.41414
1.36768
1.31735
1.26194
1.20169
1.13457
1.05744
0.975188
0.890052
0.808515
0.732288
0.663412
0.612234
1.24596
1.27903
1.32255
1.37428
1.42975
1.48462
1.53615
1.5812
1.61839
1.64698
1.66736
1.67841
1.67847
1.66662
1.6412
1.59403
1.54363
1.49185
1.44403
1.40023
1.35966
1.32215
1.28798
1.25721
1.22937
1.2016
1.16396
1.12203
1.07753
1.03996
1.42215
1.42443
1.44433
1.47729
1.51644
1.5554
1.5899
1.61669
1.63489
1.64439
1.64547
1.63675
1.61742
1.586
1.53918
1.47436
1.4134
1.35606
1.3074
1.26793
1.23914
1.22047
1.21254
1.21573
1.22933
1.24877
1.2715
1.29259
1.30713
1.31217
0.169096
0.184075
0.184987
0.181809
0.177451
0.17134
0.163686
0.155027
0.145914
0.136848
0.128126
0.120056
0.112721
0.106371
0.100991
0.0967506
0.0937003
0.0930389
0.0971594
0.106362
0.116257
0.122022
0.121767
0.115717
0.105041
0.0908558
0.0746241
0.0571578
0.0426573
0.0314824
0.281311
0.308151
0.306379
0.29667
0.281749
0.26425
0.245751
0.227383
0.209814
0.193441
0.178443
0.165049
0.153166
0.142876
0.134066
0.126872
0.121545
0.120668
0.127299
0.141881
0.158729
0.171373
0.17634
0.172821
0.161681
0.144422
0.123029
0.0987569
0.0771156
0.0602075
0.343903
0.371019
0.370573
0.360988
0.345158
0.326017
0.305259
0.284144
0.263554
0.24408
0.226045
0.209785
0.19531
0.182854
0.17242
0.164166
0.158361
0.157847
0.165554
0.18151
0.199971
0.214349
0.220851
0.218272
0.206939
0.188193
0.164053
0.135662
0.108875
0.0865762
0.387104
0.40773
0.406864
0.397372
0.381946
0.363117
0.342385
0.320895
0.299575
0.279106
0.259944
0.2425
0.226927
0.213555
0.202606
0.194258
0.188927
0.189232
0.197352
0.212946
0.23072
0.244676
0.251252
0.249166
0.238309
0.219704
0.194981
0.165185
0.135731
0.11011
0.418172
0.429571
0.426678
0.416689
0.401962
0.384237
0.364605
0.343973
0.323201
0.302999
0.283893
0.266348
0.250664
0.237268
0.22658
0.218799
0.214472
0.215722
0.223849
0.238101
0.253987
0.266309
0.272035
0.269955
0.259729
0.242025
0.218045
0.188546
0.158216
0.130468
0.439724
0.441076
0.434758
0.423759
0.409703
0.393491
0.375616
0.356626
0.337284
0.318259
0.300062
0.283225
0.268188
0.255459
0.24565
0.238956
0.235986
0.238186
0.246049
0.258458
0.271775
0.281779
0.28605
0.283523
0.273808
0.257322
0.234829
0.206706
0.176826
0.147882
0.453289
0.445384
0.43618
0.424215
0.410536
0.395437
0.378923
0.361184
0.34358
0.326437
0.309799
0.294325
0.280537
0.269049
0.260609
0.255449
0.254074
0.257153
0.26456
0.274931
0.285385
0.292728
0.295171
0.291836
0.282425
0.267262
0.246643
0.22052
0.191843
0.162519
0.460908
0.446013
0.430553
0.415772
0.402148
0.388653
0.374739
0.360203
0.344826
0.329141
0.31409
0.300526
0.288467
0.278688
0.272015
0.268749
0.269048
0.272941
0.279749
0.28805
0.295634
0.300239
0.300667
0.296281
0.287037
0.272739
0.253677
0.229736
0.202941
0.174579
0.46562
0.442261
0.420248
0.402521
0.388492
0.376317
0.364624
0.352589
0.339947
0.327087
0.314609
0.302714
0.292657
0.284904
0.280319
0.279186
0.281121
0.285695
0.291833
0.298156
0.303051
0.305063
0.303434
0.297728
0.287973
0.274323
0.256864
0.235202
0.210731
0.184051
0.467816
0.435837
0.407162
0.386499
0.371803
0.360495
0.35064
0.340977
0.331047
0.320987
0.310995
0.30157
0.293744
0.288239
0.28593
0.286995
0.290478
0.295555
0.300972
0.305509
0.308005
0.307671
0.30397
0.297028
0.286951
0.273657
0.257382
0.237997
0.216442
0.19189
0.467902
0.427921
0.395197
0.371795
0.35574
0.344434
0.33565
0.327781
0.320027
0.312253
0.304737
0.297845
0.292384
0.289237
0.289249
0.29243
0.297301
0.302671
0.307353
0.310348
0.310897
0.308471
0.303065
0.295242
0.284932
0.272037
0.256837
0.239686
0.220448
0.197837
0.465438
0.422589
0.387231
0.36044
0.342518
0.330298
0.321613
0.31471
0.308518
0.302602
0.297101
0.292379
0.289322
0.288481
0.290731
0.295806
0.30179
0.307271
0.311232
0.312944
0.311849
0.307762
0.301243
0.292795
0.282423
0.270098
0.2561
0.240279
0.22269
0.20191
0.465556
0.422091
0.385173
0.355527
0.334115
0.320135
0.310502
0.303581
0.298111
0.2934
0.289455
0.286439
0.285379
0.286615
0.290869
0.297521
0.304244
0.309655
0.312937
0.313575
0.311244
0.306114
0.298855
0.290128
0.280016
0.268353
0.255022
0.240049
0.223738
0.204554
0.467779
0.424873
0.387848
0.357168
0.333646
0.316097
0.304117
0.296188
0.290476
0.286154
0.283112
0.281315
0.281607
0.284414
0.290294
0.298104
0.305158
0.310296
0.312992
0.312729
0.30957
0.303856
0.29636
0.287865
0.27797
0.266594
0.253787
0.239495
0.224093
0.206228
0.472935
0.431385
0.394871
0.363557
0.338349
0.318757
0.304611
0.294258
0.287185
0.282342
0.279402
0.278192
0.279244
0.282799
0.289808
0.298281
0.305323
0.309914
0.311943
0.311071
0.307497
0.301753
0.294538
0.286004
0.276172
0.265018
0.252602
0.238847
0.224104
0.207285
0.481439
0.441839
0.406387
0.374807
0.348221
0.326806
0.310362
0.298003
0.289188
0.283193
0.279671
0.278228
0.279348
0.283147
0.290425
0.299025
0.305613
0.309486
0.310812
0.309602
0.306107
0.30046
0.293197
0.284625
0.274815
0.263789
0.25163
0.238274
0.224036
0.20801
0.493347
0.456106
0.422075
0.391236
0.364218
0.341368
0.322819
0.308237
0.297307
0.289567
0.284788
0.282542
0.283167
0.286662
0.293436
0.301631
0.307391
0.310376
0.311064
0.309751
0.305913
0.299953
0.292564
0.283929
0.274078
0.263057
0.251006
0.237896
0.223997
0.208598
0.508281
0.473596
0.442002
0.412418
0.385556
0.361835
0.341618
0.324963
0.311855
0.302106
0.295667
0.292179
0.291894
0.29464
0.300806
0.307848
0.312532
0.314656
0.314944
0.313018
0.308436
0.301613
0.293508
0.284442
0.274176
0.262942
0.250829
0.237796
0.224101