/*--------------------------------*- C++ -*----------------------------------*\
  =========                 |
  \\      /  F ield         | OpenFOAM: The Open Source CFD Toolbox
   \\    /   O peration     | Website:  https://openfoam.org
    \\  /    A nd           | Version:  12
     \\/     M anipulation  |
\*---------------------------------------------------------------------------*/
FoamFile
{
    format      ascii;
    class       volScalarField;
    location    "1950/air";
    object      nut;
}
// * * * * * * * * * * * * * * * * * * * * * * * * * * * * * * * * * * * * * //

dimensions      [0 2 -1 0 0 0 0];

internalField   nonuniform List<scalar> 
243000
(
0.000113624
0.000119932
0.000122303
0.00012224
0.00012058
0.000117847
0.000114443
0.00011068
0.000106792
0.00010296
9.92986e-05
9.58904e-05
9.27767e-05
9.00073e-05
8.75802e-05
8.54548e-05
8.35495e-05
8.18048e-05
8.01636e-05
7.85594e-05
7.69152e-05
7.4941e-05
7.42165e-05
0.000322728
0.000319933
0.00030574
0.000269639
0.000205111
0.000168858
0.000212863
0.000424709
0.000446272
0.00044659
0.00043645
0.000421491
0.00040447
0.000386787
0.000369326
0.000352648
0.000337108
0.000322869
0.000310098
0.000298848
0.000289182
0.000281061
0.000274381
0.000268959
0.000264754
0.000261627
0.000259488
0.000258133
0.000257697
0.000255424
0.000256812
0.00025211
0.000245607
0.0002325
0.000208538
0.000187278
0.000194214
0.000526822
0.000581923
0.000608232
0.000618403
0.000619542
0.000614985
0.000606753
0.000596192
0.000584192
0.000571397
0.000558196
0.000544956
0.000531897
0.000519303
0.000507276
0.000495839
0.000484887
0.0004746
0.000464845
0.000455528
0.000446398
0.000437053
0.00042677
0.000414846
0.000399035
0.000377782
0.000349301
0.000309889
0.000272193
0.00024852
0.000527448
0.000579104
0.000611424
0.000628233
0.000634408
0.000633225
0.00062737
0.000618485
0.000607656
0.00059568
0.000583078
0.000570286
0.000557567
0.000545247
0.000533507
0.000522428
0.000511959
0.000502331
0.000493363
0.000484847
0.000476411
0.000467626
0.000457854
0.000446092
0.000430879
0.000410429
0.000383432
0.00034694
0.000309614
0.000275869
0.000525083
0.000562483
0.000595589
0.000617708
0.000629868
0.000634095
0.000632594
0.000627178
0.000619054
0.000609232
0.000598348
0.00058695
0.000575367
0.000563998
0.000553098
0.000542832
0.000533206
0.000524481
0.000516427
0.000508711
0.000500842
0.000492366
0.000482721
0.000471093
0.0004563
0.000436785
0.000411394
0.000377884
0.000342008
0.000305163
0.000530907
0.000544711
0.000569719
0.000593577
0.000611157
0.000621385
0.000625428
0.000624744
0.000620531
0.000613863
0.000605611
0.000596425
0.000586658
0.000576809
0.000567201
0.000558121
0.000549625
0.000541987
0.000534928
0.000528018
0.000520683
0.000512446
0.000502831
0.000491224
0.00047671
0.000458024
0.000434131
0.000403354
0.000369416
0.000332561
0.000548717
0.000544991
0.000555067
0.0005712
0.000587373
0.000600111
0.000609035
0.000613324
0.000613731
0.00061107
0.000606209
0.000599768
0.000592376
0.000584536
0.00057662
0.000569048
0.000561923
0.000555511
0.000549512
0.000543426
0.000536636
0.00052865
0.000519066
0.000507441
0.000493115
0.000475105
0.000452539
0.000424154
0.000392327
0.000356757
0.00057361
0.000560139
0.000555167
0.00056014
0.000570359
0.000581475
0.000590933
0.000597231
0.000601054
0.000602246
0.000601034
0.000597878
0.000593262
0.000587819
0.000581949
0.000576161
0.000570619
0.000565555
0.000560674
0.000555449
0.000549238
0.000541556
0.000532056
0.000520436
0.000506256
0.000488799
0.00046738
0.000441049
0.000411379
0.000377557
0.000599661
0.000582088
0.000567795
0.000561103
0.000562216
0.000568166
0.000575697
0.000582308
0.000587242
0.000590099
0.000591721
0.000591686
0.000590046
0.000587235
0.000583667
0.000579893
0.000576108
0.000572506
0.000568812
0.000564495
0.000558916
0.000551612
0.000542284
0.000530735
0.000516706
0.000499718
0.000479314
0.000454793
0.000427094
0.000395182
0.00062596
0.000607586
0.000588335
0.000573206
0.000564626
0.000562696
0.00056538
0.000569973
0.000574647
0.000578322
0.000580944
0.000582732
0.000583609
0.000583405
0.00058224
0.000580615
0.000578714
0.000576677
0.000574243
0.000570895
0.000566018
0.000559182
0.00055013
0.000538747
0.000524916
0.000508388
0.000488866
0.000465797
0.00043988
0.000409935
0.00065201
0.000633282
0.000612638
0.000593119
0.000577224
0.000566958
0.000562536
0.000562466
0.000564812
0.000567867
0.000570764
0.000573195
0.000575294
0.000577124
0.000578199
0.000578717
0.000578731
0.000578337
0.000577236
0.000574928
0.000570834
0.000564562
0.000555902
0.000544801
0.000531279
0.000515175
0.000496361
0.000474533
0.000450191
0.000422241
0.000677517
0.000658804
0.000638551
0.0006174
0.000597443
0.000580717
0.000568884
0.000562308
0.000559989
0.000560416
0.00056221
0.000564489
0.000566875
0.000569532
0.000572253
0.000574663
0.000576524
0.00057776
0.000578031
0.00057685
0.000573614
0.000568005
0.000559866
0.000549195
0.000536028
0.000520344
0.000502178
0.000481408
0.000458437
0.000432326
0.000702287
0.000683748
0.00066426
0.000643046
0.000621677
0.000601412
0.00058397
0.000570784
0.000562341
0.000558122
0.000556925
0.000557702
0.000559535
0.000562073
0.000565353
0.000569074
0.000572501
0.000575257
0.000576882
0.000576818
0.000574551
0.000569769
0.000562257
0.000552075
0.000539346
0.000524144
0.000506608
0.000486773
0.000464996
0.000440538
0.000726039
0.000707776
0.000688799
0.000668349
0.000647158
0.000625769
0.000605294
0.000587204
0.00057282
0.000562805
0.000556959
0.000554464
0.000554384
0.000555948
0.000558715
0.000562768
0.000567205
0.000571209
0.000574076
0.000575143
0.000573849
0.000569835
0.000563097
0.00055359
0.000541431
0.000526802
0.000509932
0.000491084
0.000470477
0.00044772
0.000748585
0.000730677
0.000712269
0.000692803
0.000672459
0.000651344
0.000629954
0.000609245
0.000590517
0.000575065
0.000563691
0.000556474
0.000552915
0.00055221
0.000553627
0.000556769
0.00056136
0.000566111
0.000569964
0.00057207
0.000571742
0.00056864
0.000562645
0.000553882
0.000542467
0.000528759
0.000512988
0.000495265
0.00047581
0.00045452
0.000769758
0.000752275
0.00073453
0.000716141
0.000696904
0.000676715
0.000655683
0.000634227
0.000613201
0.000593843
0.000577434
0.000564909
0.0005566
0.000552224
0.000551078
0.000552503
0.000555966
0.000560643
0.000565013
0.000567923
0.000568492
0.000566296
0.000561202
0.000553349
0.000543088
0.000530513
0.000515851
0.000499247
0.000480925
0.00046096
0.000789378
0.000772406
0.000755412
0.000738159
0.000720119
0.000701123
0.00068107
0.000660029
0.000638398
0.000617006
0.000597037
0.000579796
0.000566348
0.000557229
0.000552256
0.000550865
0.000552327
0.000555742
0.000559883
0.000563164
0.000564442
0.000563113
0.000559185
0.000552539
0.000543446
0.000532018
0.000518474
0.000502982
0.000485775
0.000467035
0.00080727
0.000790896
0.000774723
0.00075861
0.000741831
0.000724134
0.00070533
0.000685315
0.000664168
0.000642295
0.000620498
0.000599958
0.000582029
0.00056793
0.000558233
0.000552907
0.000551371
0.000552685
0.000555615
0.000558601
0.000560308
0.000559844
0.000556955
0.00055146
0.000543508
0.000533235
0.000520818
0.000506435
0.000490327
0.000472743
0.000823268
0.000807563
0.000792267
0.000777262
0.000761734
0.000745387
0.000727976
0.000709302
0.000689259
0.000667947
0.000645773
0.000623553
0.000602511
0.000584112
0.000569555
0.000559548
0.000554028
0.000552298
0.000553174
0.000555141
0.000556707
0.000556718
0.000554644
0.000550182
0.000543318
0.000534164
0.00052286
0.000509575
0.000494554
0.00047808
0.000837212
0.000822278
0.000808151
0.000794126
0.00077977
0.000764751
0.000748774
0.000731579
0.000712959
0.000692823
0.000671277
0.000648756
0.00062614
0.000604741
0.000586
0.000571248
0.000561119
0.000555435
0.00055334
0.000553422
0.000554125
0.000554085
0.00055249
0.00054885
0.000542957
0.000534842
0.00052461
0.000512401
0.00049845
0.000483047
0.000849088
0.000835265
0.000822067
0.000809023
0.000795825
0.000782127
0.0007676
0.000751953
0.000734923
0.000716312
0.000696029
0.000674203
0.000651347
0.000628412
0.000606716
0.000587862
0.000573089
0.000562884
0.000556959
0.000554233
0.000553219
0.000552468
0.000550863
0.000547714
0.000542589
0.000535384
0.000526145
0.000514963
0.000502045
0.00048767
0.000858945
0.000846012
0.000833738
0.000821758
0.000809766
0.000797429
0.000784402
0.000770402
0.000755139
0.00073834
0.000719775
0.00069935
0.000677256
0.000654078
0.000630792
0.00060892
0.000590014
0.000575203
0.000564867
0.000558477
0.00055484
0.000552514
0.000550262
0.000547128
0.000542455
0.000535976
0.000527609
0.000517373
0.000505425
0.000492022
0.000866266
0.000854383
0.000843158
0.000832349
0.000821645
0.000810769
0.000799406
0.000787445
0.000774471
0.000760035
0.000743737
0.000725329
0.000704718
0.000682275
0.000658465
0.000634577
0.000612018
0.000592836
0.000577857
0.00056716
0.000560021
0.000555233
0.000551514
0.000547712
0.000543012
0.000536937
0.000529235
0.000519809
0.000508738
0.000496233
0.000871612
0.000860907
0.000850834
0.000841212
0.000831944
0.00082308
0.000814084
0.000804507
0.000793931
0.000781931
0.000768056
0.000751969
0.000733365
0.000712412
0.000689121
0.000664411
0.000639373
0.000616339
0.000596883
0.000581549
0.000570172
0.000561966
0.000555816
0.000550543
0.000545143
0.000538938
0.000531508
0.000522622
0.000512246
0.000500528
0.000875351
0.000865982
0.00085721
0.000848924
0.000841415
0.000834522
0.000827719
0.000820489
0.000812382
0.000802965
0.000791742
0.000778311
0.000762196
0.00074342
0.000721586
0.000697264
0.000671756
0.00064667
0.000623618
0.000603781
0.000587672
0.000575112
0.000565384
0.000557478
0.000550371
0.000543219
0.000535428
0.000526615
0.000516594
0.000505392
0.000877957
0.000870241
0.000863108
0.000856541
0.000850541
0.000845098
0.000840126
0.000835075
0.000829587
0.00082322
0.000815418
0.000805627
0.00079328
0.000778072
0.000759656
0.000737988
0.000713657
0.000687876
0.000662325
0.000638475
0.000617403
0.000599591
0.000584916
0.000572784
0.000562375
0.000552856
0.000543512
0.00053378
0.00052334
0.00051209
0.000881759
0.00087669
0.00087223
0.000868413
0.000865281
0.000862856
0.000861086
0.00085965
0.000858148
0.000856053
0.000852745
0.000847541
0.000839762
0.00082888
0.000814558
0.000796322
0.000774075
0.000748842
0.000721999
0.000695037
0.000669287
0.000645724
0.000624818
0.00060657
0.000590637
0.000576444
0.00056336
0.0005508
0.000538294
0.000525652
0.000897874
0.000897547
0.000897807
0.000898791
0.000900683
0.000903566
0.000907385
0.000911787
0.000916295
0.000920227
0.000922877
0.000923383
0.000921028
0.00091518
0.000905442
0.000891152
0.000871707
0.000848135
0.000821498
0.000793108
0.000764175
0.000735762
0.000708644
0.000683339
0.000660073
0.000638719
0.000618987
0.000600521
0.000582917
0.000566419
0.000978836
0.000985325
0.000991407
0.000998498
0.00100736
0.00101799
0.00102974
0.00104162
0.001053
0.00106335
0.00107194
0.00107779
0.00108024
0.001079
0.00107367
0.00106353
0.00104756
0.00102734
0.00100388
0.000978125
0.000950846
0.000922811
0.000894724
0.000867179
0.000840667
0.000814829
0.00078974
0.000765513
0.000742164
0.000721189
0.00130778
0.00130824
0.00130965
0.00131616
0.00132628
0.00133772
0.00134742
0.0013552
0.00136208
0.00136839
0.00137337
0.00137562
0.00137617
0.0013754
0.00137238
0.0013668
0.00135674
0.00134604
0.00133493
0.00132406
0.00131332
0.00130309
0.00129348
0.00128466
0.0012767
0.00126629
0.00125436
0.00124205
0.00122992
0.00121979
0.000156513
0.000160646
0.000159521
0.000156058
0.00015114
0.00014535
0.000139128
0.000132817
0.000126676
0.000120911
0.000115624
0.000110913
0.000106808
0.000103363
0.000100555
9.83547e-05
9.66778e-05
9.55139e-05
9.49192e-05
9.49528e-05
9.54376e-05
9.58864e-05
9.56148e-05
9.42308e-05
9.09571e-05
8.54475e-05
7.76848e-05
0.00034112
0.000318702
0.000314116
0.00067929
0.000762622
0.000743885
0.000687797
0.000621514
0.000557194
0.000499813
0.000450477
0.000408833
0.000373999
0.000344403
0.000319782
0.000299277
0.0002827
0.000268986
0.000257614
0.00024762
0.000239274
0.000232286
0.000227172
0.00022466
0.000225477
0.000228882
0.000232293
0.00023261
0.000227053
0.000217712
0.000225424
0.000254274
0.000288192
0.00106511
0.00121617
0.00122707
0.00117375
0.00109281
0.00100335
0.000916544
0.000837719
0.000768563
0.000709241
0.000658623
0.000615807
0.000579726
0.000550226
0.000525879
0.000505273
0.00048624
0.000468721
0.000450638
0.000431912
0.000415105
0.000404078
0.000399763
0.000398577
0.000395223
0.000384187
0.00036537
0.000343485
0.000338647
0.000351751
0.0013268
0.0015036
0.00153854
0.00150248
0.00142833
0.00133714
0.00124293
0.00115339
0.0010716
0.00099948
0.000937006
0.00088375
0.000838757
0.000802169
0.000772718
0.000748099
0.000725273
0.000703444
0.000677834
0.000647259
0.000615394
0.000589126
0.00057203
0.00056142
0.000550567
0.000532506
0.000505334
0.000468791
0.000442321
0.000436992
0.00148754
0.00167092
0.00172248
0.00170452
0.00164211
0.00155965
0.00147155
0.00138468
0.00130077
0.00122529
0.00115923
0.00110225
0.00105421
0.00101568
0.000985548
0.000961298
0.000939266
0.000917495
0.000888643
0.000850865
0.000807325
0.000767099
0.000736649
0.00071473
0.000695132
0.000669984
0.000636076
0.000590429
0.000549403
0.000529526
0.00158467
0.0017436
0.00180938
0.00180763
0.00176918
0.00170479
0.00162413
0.00154075
0.0014594
0.00138866
0.00132657
0.00127125
0.00122511
0.00118881
0.0011616
0.00114096
0.00112309
0.00110437
0.00107545
0.0010333
0.000982181
0.000931568
0.000889698
0.000857507
0.000828522
0.000796606
0.000756898
0.00070549
0.000655416
0.000624044
0.00164071
0.00176095
0.00181487
0.00182083
0.00179915
0.00175689
0.00169678
0.00163079
0.00156686
0.00150287
0.0014448
0.00139399
0.00135456
0.00132406
0.00130271
0.00128836
0.00127728
0.0012636
0.00123707
0.00119348
0.00113839
0.00108075
0.00102957
0.000988194
0.000951732
0.000912702
0.000868062
0.000812886
0.000756949
0.000716171
0.00168854
0.00174878
0.00177266
0.00177261
0.00175907
0.00173458
0.00169909
0.0016575
0.00161123
0.00156373
0.0015184
0.00148004
0.0014473
0.00142466
0.00141163
0.00140592
0.0014035
0.00139618
0.00137381
0.00133205
0.00127577
0.00121382
0.00115576
0.00110638
0.00106311
0.00101957
0.000970157
0.000912584
0.000853079
0.000804981
0.00172259
0.00173195
0.00172769
0.00171426
0.00169818
0.00168
0.00165779
0.00163233
0.00160444
0.00157889
0.00155068
0.00152606
0.00150597
0.001494
0.0014912
0.00149628
0.00150345
0.00150394
0.00148726
0.00144927
0.00139422
0.00133086
0.00126838
0.00121279
0.00116338
0.00111568
0.00106444
0.00100544
0.000944009
0.0008894
0.00176893
0.00174617
0.00170208
0.00166752
0.00163864
0.00161707
0.00159926
0.00158336
0.00156825
0.00155581
0.00154527
0.00153834
0.00153373
0.00153526
0.00154435
0.00156134
0.00157918
0.00158873
0.00157907
0.0015464
0.00149473
0.00143236
0.00136782
0.00130807
0.00125355
0.00120285
0.00114995
0.00109013
0.00102754
0.000968528
0.00182606
0.0017771
0.00171214
0.0016461
0.00159613
0.00156385
0.00154119
0.00152705
0.00151814
0.00151425
0.00151469
0.00152081
0.00153394
0.00155132
0.00157366
0.00160356
0.00163261
0.00165186
0.00165086
0.00162479
0.00157849
0.00151899
0.00145457
0.00139311
0.00133561
0.00128124
0.00122564
0.00116638
0.00110346
0.00104253
0.00190262
0.00183047
0.00174398
0.00165933
0.00158841
0.00153495
0.00149905
0.00147957
0.00146917
0.00146768
0.00147357
0.00148752
0.00151138
0.00154534
0.00158227
0.00162555
0.00166615
0.0016955
0.00170404
0.00168777
0.00164736
0.00159134
0.00152913
0.00146749
0.00140768
0.00135016
0.0012927
0.00123368
0.00117196
0.00111142
0.00199523
0.00190397
0.00180055
0.00170003
0.00161235
0.0015425
0.00149224
0.00145675
0.00143592
0.00143043
0.0014349
0.00145072
0.00147962
0.00152276
0.00157416
0.00163044
0.00168249
0.00172199
0.00174036
0.00173362
0.00170162
0.00165037
0.0015899
0.00152786
0.00146793
0.00141046
0.00135226
0.00129422
0.00123547
0.00117677
0.00209866
0.00200041
0.00188965
0.00177733
0.00167434
0.00158703
0.00151877
0.00146779
0.00143394
0.0014149
0.00141197
0.00142285
0.00145063
0.00149525
0.00155466
0.00162233
0.00168483
0.00173397
0.00176229
0.00176527
0.00174233
0.00169778
0.0016414
0.00158119
0.00152126
0.00146395
0.00140788
0.0013514
0.00129474
0.00123711
0.00221477
0.00211786
0.0020057
0.00188831
0.00177576
0.00167469
0.00158976
0.00152123
0.00146933
0.00143453
0.00141752
0.00141782
0.00143696
0.00147586
0.00153278
0.0016069
0.00167724
0.00173461
0.00177204
0.00178459
0.00177109
0.00173469
0.00168392
0.00162822
0.00157053
0.00151309
0.00145732
0.0014014
0.00134612
0.00129021
0.00234195
0.00225075
0.00214402
0.00202818
0.00191229
0.0018029
0.00170524
0.0016201
0.00154989
0.00149655
0.00146142
0.00144531
0.00144981
0.00147584
0.00152298
0.00159066
0.0016647
0.00172777
0.00177248
0.00179391
0.00179
0.00176298
0.0017198
0.00166943
0.00161397
0.00155686
0.00150039
0.00144478
0.00139025
0.0013362
0.00247402
0.00239392
0.0022984
0.00218995
0.00207637
0.00196441
0.00185873
0.00176122
0.00167543
0.00160421
0.00154957
0.00151361
0.00149811
0.00150511
0.00153519
0.00158805
0.00165369
0.00171776
0.00176739
0.00179616
0.00180216
0.00178568
0.00174896
0.00170264
0.00165096
0.00159538
0.00153853
0.00148251
0.00142807
0.00137533
0.0026061
0.0025409
0.00246012
0.00236365
0.00225784
0.0021485
0.00204043
0.00193654
0.0018401
0.00175433
0.0016817
0.00162501
0.00158674
0.00156968
0.00157682
0.00160713
0.00165656
0.00171238
0.00176157
0.0017951
0.001808
0.00179928
0.00176993
0.00172882
0.00168188
0.00162882
0.00157247
0.00151561
0.00146079
0.00140883
0.00273287
0.00268336
0.00261855
0.0025371
0.00244382
0.00234319
0.00223934
0.00213516
0.00203364
0.00193788
0.00185055
0.0017746
0.00171309
0.00166947
0.00164953
0.0016521
0.00167585
0.00171554
0.00175719
0.00178963
0.00180664
0.00180492
0.00178337
0.00174855
0.00170675
0.00165684
0.00160129
0.00154458
0.00148964
0.00143809
0.0028479
0.00281345
0.00276574
0.00270216
0.00262535
0.00253808
0.00244348
0.002344
0.00224214
0.00214065
0.00204203
0.00194918
0.00186563
0.00179645
0.00174616
0.00171833
0.00171156
0.00172689
0.00175396
0.00178123
0.00179834
0.0018011
0.00178868
0.00176133
0.00172363
0.00167671
0.00162414
0.00156974
0.00151572
0.00146508
0.00294788
0.0029276
0.00289681
0.00285187
0.00279327
0.00272189
0.00263935
0.00254741
0.0024478
0.00234277
0.00223463
0.00212644
0.00202239
0.00192886
0.00184926
0.0017903
0.00175271
0.00173968
0.00174644
0.00176287
0.001778
0.00178545
0.00178138
0.00176332
0.00173261
0.00169256
0.00164513
0.00159423
0.00154215
0.00149201
0.00303162
0.00302262
0.0030064
0.00297846
0.00293715
0.00288117
0.00281034
0.00272516
0.00262666
0.00251673
0.002398
0.00227429
0.00215095
0.00203515
0.00193109
0.00184386
0.00177838
0.00173765
0.0017215
0.00172338
0.00173381
0.00174526
0.00175087
0.00174502
0.00172646
0.00169696
0.00165767
0.00161294
0.00156502
0.00151801
0.003094
0.00309213
0.00308614
0.00307077
0.00304221
0.00299681
0.00293265
0.00284833
0.00274499
0.00262516
0.00249284
0.00235347
0.00221416
0.00208144
0.00196233
0.00185683
0.00176856
0.00170444
0.00166532
0.00164938
0.00165108
0.00166379
0.00167918
0.00168869
0.00168721
0.0016742
0.00165004
0.00161661
0.00157748
0.00153741
0.00312241
0.00312191
0.00311935
0.00310871
0.00308372
0.00303828
0.00297064
0.00287984
0.00276698
0.00263587
0.00249283
0.00234508
0.00220099
0.00206484
0.00194357
0.00183286
0.0017326
0.00165049
0.0015888
0.0015499
0.00153347
0.00153685
0.00155387
0.00157531
0.00159242
0.00160111
0.00159917
0.0015864
0.00156431
0.00153706
0.0030878
0.00308055
0.00307209
0.00305574
0.00302321
0.00296988
0.00289416
0.00279649
0.00268011
0.00255105
0.00241678
0.00228314
0.00215659
0.00203838
0.00193352
0.00183434
0.00173447
0.00164041
0.00155745
0.00149028
0.00144262
0.00141671
0.0014119
0.00142297
0.00144275
0.0014648
0.00148359
0.00149532
0.00149821
0.00149347
0.00293524
0.00291409
0.00289248
0.0028658
0.00282904
0.00277844
0.0027122
0.00263261
0.00254351
0.00244981
0.00235624
0.00226578
0.00217964
0.00209584
0.00201703
0.00193965
0.00185172
0.00175825
0.00166349
0.00157289
0.00149129
0.00142342
0.00137298
0.00134129
0.00132713
0.00132745
0.00133782
0.00135335
0.00136957
0.00138523
0.00262051
0.00260188
0.00259154
0.00258695
0.00258239
0.00257285
0.00255503
0.00252864
0.00249546
0.00245649
0.0024137
0.0023686
0.00232136
0.00227142
0.002217
0.00216108
0.00209021
0.00200821
0.00191767
0.00182281
0.0017269
0.00163373
0.00154714
0.00147072
0.00140708
0.00135735
0.0013215
0.00129816
0.00128521
0.00128676
0.00233445
0.0023755
0.00242965
0.00248667
0.00253572
0.00257294
0.00259711
0.00260871
0.00261047
0.00259933
0.0025796
0.00255405
0.00252314
0.00248828
0.00244826
0.00240594
0.0023532
0.0022921
0.00222306
0.0021487
0.00206932
0.00198723
0.00190414
0.00182168
0.00174212
0.00166713
0.00159857
0.00153703
0.00148327
0.00145299
0.00240915
0.00247284
0.00253991
0.00260389
0.00265627
0.00269349
0.00271914
0.00273035
0.0027302
0.00272018
0.00270318
0.00268111
0.00265244
0.00262149
0.00258877
0.00255203
0.00251365
0.00247239
0.00242815
0.00238385
0.00233902
0.0022955
0.00225326
0.00221136
0.00216989
0.00212714
0.00208376
0.00204008
0.00199772
0.0019731
0.00260952
0.00264824
0.00268577
0.00272089
0.00274456
0.00275629
0.00276031
0.00275659
0.00274699
0.00273314
0.00271574
0.00269519
0.00266986
0.00264496
0.00261757
0.00259067
0.00256744
0.00254487
0.00252396
0.00250696
0.00249596
0.00249141
0.00249265
0.00249826
0.00250541
0.00251159
0.00251729
0.00252041
0.00252182
0.00251548
0.000189718
0.000191536
0.000186676
0.00018039
0.000173248
0.000165487
0.000157447
0.000149466
0.000141809
0.000134697
0.000128236
0.000122538
0.000117631
0.000113605
0.000110441
0.000108162
0.000106715
0.00010629
0.000107365
0.000110213
0.000114064
0.000117523
0.000119497
0.000119323
0.000116659
0.000111147
0.000102821
9.10251e-05
7.97424e-05
7.26584e-05
0.000892593
0.000995763
0.000985072
0.000924126
0.000841544
0.000758599
0.0006839
0.000619423
0.000564968
0.00051936
0.00048077
0.000448956
0.000421966
0.000399901
0.000381137
0.000364879
0.000348651
0.000334536
0.000323464
0.000318345
0.000321164
0.000330901
0.000343658
0.000353421
0.000354016
0.000342193
0.000320109
0.000289941
0.000264728
0.00024466
0.0014227
0.00162731
0.00165666
0.00159842
0.00149952
0.00138629
0.00127431
0.00117147
0.0010809
0.00100306
0.000936279
0.00088073
0.000834285
0.000796744
0.000765541
0.000738093
0.000709196
0.00068061
0.000649844
0.000621581
0.000604605
0.00060257
0.000611136
0.000620173
0.000616249
0.000596139
0.000558034
0.000503501
0.000452054
0.000418318
0.00180185
0.00204221
0.00210142
0.0020638
0.0019739
0.00185865
0.00173595
0.0016174
0.00150915
0.00141349
0.00133019
0.0012602
0.00120189
0.00115552
0.00111856
0.00108717
0.00105417
0.00101878
0.000973939
0.000925166
0.000885072
0.000864042
0.000860223
0.000862185
0.000853366
0.000824542
0.000774812
0.000704027
0.000631739
0.000580656
0.00207561
0.00231492
0.00239055
0.00237242
0.00229837
0.00219284
0.00207281
0.00195284
0.00184031
0.00173789
0.00164746
0.00157087
0.00150749
0.00145772
0.00141994
0.00138937
0.00135739
0.00131923
0.00126394
0.00120051
0.00114196
0.00110145
0.00108255
0.00107467
0.00106032
0.00102519
0.000968544
0.000887886
0.000802198
0.000734458
0.00227559
0.00248821
0.00257343
0.00257389
0.00251653
0.00241965
0.00230393
0.00219293
0.00208668
0.00198551
0.00189538
0.00181881
0.00175586
0.00170748
0.00167283
0.00164641
0.00161839
0.00157957
0.00151703
0.00144059
0.00136802
0.0013118
0.00127838
0.0012596
0.00123906
0.00120196
0.00114094
0.00105573
0.000961779
0.000881215
0.00241978
0.00259697
0.00267594
0.00268408
0.00264161
0.00256953
0.00247891
0.00237326
0.00226743
0.00216566
0.00208257
0.0020118
0.00195375
0.00191104
0.00188266
0.00186309
0.00184118
0.00180267
0.00173508
0.00164854
0.00156531
0.00149653
0.00145027
0.00142029
0.00139282
0.00135406
0.00129457
0.00120868
0.00111131
0.00101999
0.00252244
0.00266086
0.00271836
0.00272372
0.0026918
0.00263452
0.00256038
0.00247432
0.00238661
0.00230395
0.00222483
0.00215785
0.00210746
0.00207354
0.00205429
0.00204413
0.00202925
0.00199003
0.0019191
0.00182754
0.00173763
0.00165899
0.00160124
0.00156051
0.00152555
0.00148544
0.00142999
0.00134811
0.00125039
0.00115027
0.00261365
0.00269394
0.0027164
0.00270973
0.00268318
0.00263978
0.00258368
0.00251882
0.00245069
0.0023828
0.00231881
0.00226456
0.00222359
0.00220023
0.00219231
0.00219351
0.00218586
0.00214881
0.00207639
0.00198338
0.00188764
0.00180207
0.0017346
0.00168394
0.00164251
0.00160023
0.00154488
0.00146918
0.0013734
0.00127079
0.00269901
0.0027116
0.00270101
0.00268141
0.00265325
0.00261688
0.00257305
0.00252372
0.00247188
0.00242109
0.00237485
0.00233571
0.00230771
0.0022966
0.00230093
0.00231426
0.00231438
0.00228081
0.00221033
0.00211715
0.00201877
0.00192839
0.00185319
0.00179475
0.00174513
0.00169713
0.00164145
0.00157074
0.00148239
0.00138348
0.00277598
0.00274918
0.00270446
0.00266015
0.00262226
0.00258487
0.0025463
0.00250747
0.00246895
0.00243234
0.00240039
0.00237813
0.00236526
0.0023679
0.00238462
0.0024096
0.0024175
0.00238936
0.00232269
0.00223189
0.00213381
0.00204061
0.00196008
0.00189136
0.00183261
0.00177956
0.00172405
0.00165709
0.00157715
0.00148581
0.00285376
0.00280855
0.00274462
0.00267348
0.00260744
0.00256161
0.00252005
0.00248543
0.00245533
0.00242922
0.00240946
0.0023991
0.00240194
0.00241914
0.00244741
0.00248339
0.00249949
0.00247745
0.00241703
0.00233137
0.00223475
0.00213836
0.00205206
0.00197718
0.00191195
0.00185305
0.00179672
0.00173445
0.00166396
0.00158048
0.00292982
0.00286884
0.00278942
0.00270393
0.00262993
0.00256198
0.00250898
0.00247286
0.00244538
0.00242391
0.0024126
0.00241182
0.00242483
0.00245469
0.00249424
0.0025397
0.00256305
0.00254841
0.00249578
0.00241788
0.00232413
0.00222814
0.00213918
0.00205901
0.00198861
0.001925
0.00186625
0.00180687
0.00174163
0.0016654
0.00302335
0.00295121
0.0028594
0.00275902
0.00266821
0.00258987
0.00253168
0.00248364
0.00245342
0.00242786
0.00242107
0.00242582
0.00244542
0.0024808
0.00252997
0.00258262
0.00261225
0.00260514
0.00256207
0.00249282
0.00240391
0.00230994
0.00222091
0.00213824
0.00206414
0.00199653
0.00193339
0.00187299
0.00181018
0.00173952
0.00313105
0.00305334
0.00295184
0.0028443
0.00274396
0.00265399
0.00258118
0.00252299
0.00248057
0.00245759
0.00244619
0.00245057
0.00247089
0.00250661
0.00255905
0.00261574
0.00265004
0.00265009
0.00261704
0.00255738
0.00247518
0.0023851
0.0022974
0.00221501
0.00213794
0.00206654
0.00199945
0.00193529
0.00187235
0.00180513
0.00325087
0.00317112
0.00307516
0.00296709
0.00285931
0.00275898
0.00267251
0.00260153
0.00254761
0.00251275
0.00249395
0.00249209
0.00250693
0.00253772
0.00258507
0.00264114
0.00267761
0.00268399
0.00266066
0.00261161
0.00253802
0.00245375
0.00236868
0.00228737
0.00220914
0.00213504
0.0020645
0.00199591
0.00193067
0.00186472
0.00337894
0.00331051
0.00322162
0.00311773
0.00300862
0.00290202
0.00280467
0.00272048
0.0026523
0.00260226
0.00256976
0.00255497
0.00255746
0.00257669
0.00261155
0.00265796
0.00269309
0.00270404
0.0026904
0.00265293
0.0025895
0.00251228
0.00243235
0.00235421
0.00227661
0.00220107
0.00212783
0.00205504
0.0019865
0.0019202
0.00351996
0.0034605
0.00338273
0.00328745
0.00318242
0.00307454
0.00297042
0.00287498
0.00279206
0.00272448
0.00267318
0.00263866
0.00262092
0.00262016
0.00263515
0.00266392
0.00268995
0.00270284
0.00269792
0.00267294
0.00262311
0.00255682
0.00248568
0.00241244
0.00233689
0.00226151
0.00218653
0.00211053
0.00203957
0.00197234
0.00366319
0.00361403
0.00354886
0.00346525
0.00336846
0.00326385
0.00315714
0.00305333
0.00295662
0.00287027
0.00279622
0.00273573
0.00268989
0.00266014
0.00264737
0.00264993
0.00266005
0.00266916
0.0026704
0.00265861
0.00262597
0.00257566
0.00251645
0.00245093
0.00238017
0.00230796
0.00223379
0.00215959
0.00208846
0.002021
0.00379715
0.00376044
0.00370889
0.00363852
0.00355244
0.00345411
0.00334785
0.00323789
0.0031282
0.00302207
0.00292206
0.00283044
0.00274997
0.00268385
0.00263628
0.0026059
0.00259122
0.00258922
0.00259259
0.00259327
0.00258142
0.00255412
0.00251484
0.00246462
0.00240691
0.00234235
0.002274
0.00220319
0.00213322
0.00206641
0.00391628
0.00389059
0.00385139
0.00379365
0.00371832
0.00362679
0.00352153
0.00340554
0.00328209
0.00315437
0.00302566
0.0028998
0.0027818
0.00267688
0.00259226
0.00252659
0.00248179
0.00246021
0.00245685
0.00246375
0.00247011
0.0024683
0.00245596
0.00243175
0.00239653
0.00235004
0.00229474
0.00223487
0.00217304
0.00211
0.00401187
0.00399347
0.00396289
0.0039144
0.00384679
0.00375923
0.00365223
0.00352741
0.00338768
0.00323651
0.00307866
0.00292061
0.00277009
0.00263365
0.00251948
0.00242613
0.00235411
0.00230809
0.00228629
0.00228448
0.00229495
0.00230958
0.00232216
0.00232745
0.00232231
0.00230452
0.00227366
0.00223112
0.00218253
0.00213155
0.00406945
0.00405231
0.00402395
0.00397819
0.00391188
0.00382216
0.00370803
0.00357053
0.00341366
0.00324195
0.00306268
0.002886
0.00272107
0.00257395
0.00244968
0.00234862
0.00226264
0.00219556
0.00214753
0.00211926
0.00210938
0.00211489
0.00213143
0.00215283
0.00217268
0.00218517
0.00218605
0.00217325
0.00214732
0.0021164
0.00406285
0.00403875
0.00400362
0.00395189
0.00387921
0.00378131
0.00365761
0.00351002
0.00334412
0.00316794
0.00299188
0.00282622
0.00267839
0.00255086
0.00244305
0.00235576
0.00227271
0.00219508
0.00212328
0.00206088
0.00201179
0.00197932
0.00196534
0.00196861
0.00198474
0.00200733
0.00202932
0.00204461
0.00204919
0.00204247
0.00394729
0.00390867
0.00385866
0.00379472
0.00371403
0.00361416
0.00349513
0.00336023
0.00321618
0.00307159
0.0029352
0.00281274
0.00270834
0.00262099
0.00254703
0.00248249
0.0024119
0.00233399
0.00224924
0.00216133
0.0020756
0.00199759
0.00193326
0.00188738
0.00186167
0.00185462
0.00186186
0.00187729
0.00189442
0.00190863
0.00367192
0.0036198
0.00356546
0.00350938
0.00344987
0.00338259
0.00330601
0.00322185
0.00313453
0.00304954
0.00297168
0.00290258
0.00284422
0.00279461
0.00274948
0.0027021
0.0026421
0.00256958
0.00248478
0.00238974
0.0022883
0.00218427
0.00208237
0.00198927
0.00191042
0.00184926
0.00180693
0.0017818
0.00177064
0.00177509
0.00328011
0.00325141
0.00324097
0.0032442
0.0032509
0.00324958
0.00323769
0.00321547
0.0031857
0.00315204
0.00311776
0.00308263
0.00304891