/*--------------------------------*- C++ -*----------------------------------*\
  =========                 |
  \\      /  F ield         | OpenFOAM: The Open Source CFD Toolbox
   \\    /   O peration     | Website:  https://openfoam.org
    \\  /    A nd           | Version:  12
     \\/     M anipulation  |
\*---------------------------------------------------------------------------*/
FoamFile
{
    format      ascii;
    class       volScalarField;
    location    "1950/air";
    object      p_rgh;
}
// * * * * * * * * * * * * * * * * * * * * * * * * * * * * * * * * * * * * * //

dimensions      [1 -1 -2 0 0 0 0];

internalField   nonuniform List<scalar> 
243000
(
30.3532
30.2196
30.0814
29.9029
29.7257
29.5688
29.4337
29.3228
29.2346
29.1681
29.1201
29.0918
29.0787
29.0822
29.0958
29.1288
29.1785
29.2506
29.338
29.4424
29.5557
29.6703
29.7803
29.874
29.952
30.0141
30.067
30.0906
30.1192
30.1194
30.3482
30.1913
30.063
29.8929
29.726
29.5725
29.4396
29.3301
29.2424
29.176
29.1287
29.1019
29.0894
29.0932
29.1063
29.1386
29.187
29.2576
29.345
29.4495
29.563
29.68
29.79
29.8814
29.9619
30.0211
30.0718
30.0921
30.121
30.1087
30.3288
30.1427
30.0177
29.848
29.6856
29.5374
29.4102
29.3059
29.2233
29.1618
29.1182
29.0942
29.0836
29.0887
29.1019
29.134
29.1814
29.2506
29.3378
29.4424
29.5561
29.6717
29.7805
29.874
29.9557
30.0151
30.0682
30.0879
30.1226
30.1034
30.296
30.0889
29.9513
29.782
29.624
29.4848
29.3668
29.2707
29.1945
29.1378
29.0977
29.0762
29.0672
29.0732
29.0863
29.1177
29.1638
29.2312
29.3155
29.4171
29.5288
29.6443
29.7561
29.8545
29.9406
30.0037
30.0608
30.0783
30.1218
30.0985
30.2532
30.0379
29.8881
29.7193
29.5641
29.433
29.3226
29.2331
29.1619
29.1089
29.0714
29.0516
29.0434
29.0496
29.0622
29.0924
29.1369
29.2021
29.2833
29.382
29.4918
29.6067
29.7196
29.8208
29.9107
29.9788
30.0417
30.0611
30.1139
30.089
30.2024
29.9853
29.8303
29.6653
29.5139
29.3869
29.2828
29.1983
29.1306
29.0801
29.044
29.0251
29.0166
29.0225
29.0338
29.0624
29.1047
29.1673
29.2451
29.3404
29.4478
29.562
29.6758
29.7797
29.8737
29.9468
30.016
30.0391
30.1007
30.075
30.1427
29.9272
29.7765
29.6186
29.4742
29.3503
29.249
29.1679
29.1021
29.0525
29.0165
28.997
28.9873
28.9917
29.0011
29.0273
29.0669
29.1264
29.2001
29.2918
29.3967
29.5101
29.625
29.7318
29.8302
29.9083
29.9841
30.0121
30.0817
30.0567
30.0743
29.8613
29.7232
29.5767
29.4404
29.3219
29.2224
29.1429
29.0778
29.0277
28.9905
28.9689
28.9564
28.9583
28.965
28.9882
29.0244
29.0799
29.1492
29.237
29.3393
29.452
29.568
29.6777
29.7806
29.864
29.9463
29.9802
30.0571
30.0338
29.9989
29.7876
29.6614
29.5354
29.4093
29.2981
29.2012
29.1218
29.0573
29.0063
28.9669
28.9421
28.9254
28.9233
28.9263
28.9458
28.9779
29.0288
29.0932
29.1769
29.2765
29.3886
29.5059
29.6186
29.7259
29.8146
29.9033
29.9436
30.0272
30.0065
29.9169
29.7047
29.5921
29.4834
29.374
29.2726
29.182
29.104
29.0391
28.9872
28.9454
28.917
28.8951
28.8877
28.8859
28.901
28.9282
28.9737
29.033
29.1125
29.2094
29.3208
29.4394
29.5552
29.6671
29.761
29.8558
29.9031
29.9928
29.9755
29.8293
29.6142
29.5176
29.4245
29.3286
29.2387
29.1578
29.0849
29.0217
28.9693
28.9252
28.8931
28.866
28.8524
28.8445
28.8545
28.876
28.9157
28.9694
29.0446
29.1387
29.2496
29.3697
29.4886
29.6049
29.7041
29.8048
29.8594
29.9544
29.9417
29.7361
29.5227
29.44
29.3619
29.2783
29.1997
29.1278
29.062
29.0025
28.9511
28.9054
28.8697
28.8376
28.8175
28.8028
28.807
28.8221
28.8554
28.9033
28.9739
29.0654
29.1757
29.2974
29.4195
29.5401
29.6446
29.7507
29.813
29.9129
29.9057
29.6374
29.4314
29.3598
29.2964
29.2248
29.1568
29.0932
29.0339
28.9795
28.9304
28.8845
28.8461
28.8089
28.7827
28.761
28.7587
28.7671
28.7936
28.8353
28.9013
28.9901
29.1
29.2231
29.3485
29.4734
29.5831
29.6945
29.7646
29.8688
29.8681
29.5334
29.3392
29.2777
29.227
29.1676
29.1101
29.0547
29.0012
28.9514
28.9056
28.8606
28.8207
28.7793
28.7469
28.7189
28.7099
28.7114
28.7307
28.766
28.8273
28.9133
29.0227
29.1475
29.2762
29.4053
29.5202
29.6366
29.7142
29.8218
29.8295
29.4257
29.2454
29.1944
29.1544
29.1057
29.0583
29.0112
28.9643
28.9183
28.8754
28.8321
28.7917
28.7475
28.7095
28.6755
28.6604
28.6553
28.6672
28.6959
28.7522
28.8355
28.9445
29.0708
29.2028
29.3361
29.4563
29.5772
29.6624
29.7724
29.7901
29.314
29.1499
29.1089
29.0794
29.0399
29.0012
28.9618
28.9215
28.8802
28.8397
28.798
28.7578
28.7117
28.6696
28.6299
28.6092
28.5984
28.6031
28.6251
28.6763
28.7568
28.8653
28.9932
29.1285
29.2659
29.3912
29.5165
29.6093
29.7213
29.7498
29.1981
29.0524
29.0197
29.001
28.9701
28.9388
28.9067
28.8722
28.8357
28.7981
28.7576
28.7178
28.6704
28.6255
28.5811
28.5551
28.5395
28.5382
28.5535
28.5996
28.6772
28.7852
28.9146
29.0531
29.1946
29.325
29.4544
29.5545
29.6683
29.7087
29.078
28.9525
28.9268
28.9174
28.8957
28.8709
28.8452
28.8165
28.7844
28.7498
28.7106
28.6709
28.6224
28.5753
28.5276
28.4971
28.4771
28.471
28.4803
28.5217
28.5964
28.7036
28.8342
28.9761
29.1217
29.2575
29.3903
29.4978
29.6136
29.6661
28.9535
28.8497
28.8304
28.8281
28.8145
28.7963
28.7762
28.7532
28.7254
28.694
28.6561
28.6165
28.5668
28.5177
28.4674
28.4338
28.4104
28.4002
28.4043
28.4413
28.5132
28.6191
28.7514
28.8972
29.0469
29.188
29.3248
29.4387
29.5569
29.6213
28.824
28.7422
28.7297
28.7328
28.7257
28.7138
28.6986
28.6804
28.6569
28.6288
28.5927
28.5533
28.5027
28.4514
28.3986
28.3629
28.3374
28.3241
28.3242
28.3571
28.4261
28.5315
28.6659
28.8155
28.9693
29.1156
29.2569
29.3771
29.4981
29.5736
28.688
28.629
28.6234
28.6301
28.6287
28.6225
28.6123
28.5983
28.5786
28.5535
28.5193
28.48
28.4287
28.3756
28.3206
28.2831
28.256
28.2408
28.2381
28.2678
28.3344
28.4398
28.5766
28.7296
28.8876
29.0395
29.1857
29.3124
29.4372
29.5222
28.5449
28.5075
28.5079
28.5177
28.5213
28.5209
28.5161
28.5065
28.4906
28.4683
28.4355
28.3962
28.3439
28.2895
28.2327
28.1938
28.1653
28.1486
28.1441
28.1717
28.2367
28.3426
28.4817
28.6382
28.8006
28.9581
29.1096
29.2432
29.3723
29.4663
28.3944
28.3749
28.3804
28.3943
28.403
28.408
28.4089
28.4039
28.3916
28.3719
28.3404
28.3009
28.2474
28.1915
28.1331
28.0932
28.0638
28.0463
28.0406
28.0668
28.1315
28.2383
28.3798
28.5397
28.7066
28.8699
29.0272
29.1679
29.302
29.4049
28.2291
28.2236
28.2345
28.2536
28.2687
28.2803
28.2871
28.2875
28.2792
28.2626
28.2327
28.1929
28.1382
28.0807
28.0202
27.9786
27.9488
27.9314
27.9256
27.9516
28.0171
28.1249
28.2686
28.4318
28.6031
28.7724
28.9356
29.0834
29.2231
29.3346
28.0538
28.0585
28.0755
28.1006
28.1227
28.1411
28.1537
28.1586
28.1549
28.1422
28.1141
28.074
28.0182
27.9591
27.8968
27.8535
27.8227
27.8052
27.7997
27.8266
27.8934
28.0024
28.1482
28.3144
28.4902
28.6654
28.8347
28.99
29.1356
29.2564
27.8347
27.8458
27.8722
27.9089
27.945
27.9769
28.0006
28.0141
28.0182
28.0119
27.9875
27.9484
27.8923
27.8325
27.7685
27.7232
27.6901
27.6714
27.6654
27.6918
27.7582
27.8669
28.0131
28.1806
28.3594
28.5391
28.7134
28.8748
29.0251
29.1534
27.6393
27.6596
27.6962
27.7445
27.7941
27.8382
27.871
27.8911
27.9004
27.8986
27.8761
27.8366
27.7791
27.718
27.6527
27.6054
27.5702
27.5511
27.5446
27.5693
27.6335
27.7395
27.8842
28.0526
28.2344
28.4194
28.5996
28.7686
28.9257
29.0661
27.2344
27.2841
27.358
27.4505
27.5441
27.6255
27.6858
27.7258
27.7503
27.7596
27.7467
27.7121
27.6578
27.5974
27.5298
27.4779
27.4361
27.413
27.4021
27.4216
27.4784
27.5741
27.7066
27.8654
28.0409
28.2221
28.3984
28.5644
28.7156
28.8567
27.2519
27.3243
27.4195
27.5298
27.6338
27.7147
27.767
27.7977
27.8112
27.8076
27.783
27.7411
27.681
27.6158
27.5441
27.4891
27.4469
27.4259
27.4187
27.4428
27.5044
27.6051
27.7426
27.9081
28.0915
28.2831
28.4722
28.6545
28.8209
28.9839
25.9808
26.1242
26.3436
26.591
26.8132
26.981
27.0998
27.1837
27.2368
27.2603
27.2524
27.2223
27.1702
27.11
27.0402
26.9768
26.917
26.8776
26.8479
26.8447
26.8713
26.9316
27.0259
27.1463
27.2839
27.4241
27.5542
27.6766
27.7885
27.9276
30.1386
29.9716
29.8288
29.6299
29.4522
29.3049
29.1887
29.1003
29.035
28.9888
28.9557
28.9367
28.9264
28.9304
28.9386
28.965
29.0052
29.071
29.1572
29.2674
29.3925
29.5237
29.6498
29.7658
29.8684
29.9513
30.0217
30.0593
30.1055
30.0913
30.1386
29.9476
29.8061
29.6142
29.448
29.3069
29.1931
29.106
29.0412
28.995
28.9625
28.9442
28.9341
28.9381
28.9457
28.9715
29.0104
29.0756
29.162
29.2727
29.3983
29.53
29.6571
29.7728
29.8755
29.9578
30.0299
30.0674
30.1118
30.0887
30.1303
29.9185
29.7785
29.5916
29.4316
29.2946
29.1843
29.0996
29.0365
28.9909
28.9583
28.9408
28.9308
28.9346
28.9412
28.9657
29.0026
29.0651
29.1479
29.2557
29.3806
29.5133
29.6425
29.7605
29.8661
29.9502
30.0252
30.0586
30.1108
30.0835
30.1028
29.8807
29.7412
29.5586
29.4048
29.2739
29.1693
29.0892
29.029
28.9847
28.9529
28.9359
28.9257
28.9289
28.9339
28.9566
28.9906
29.0497
29.128
29.2312
29.3519
29.483
29.6143
29.7356
29.8452
29.9323
30.0125
30.0458
30.1066
30.0765
30.0591
29.8345
29.7007
29.5239
29.3761
29.2509
29.1511
29.0745
29.0166
28.9748
28.944
28.9271
28.9159
28.9179
28.9207
28.9409
28.9711
29.0261
29.0993
29.1975
29.3142
29.443
29.5739
29.6966
29.81
29.9022
29.9874
30.0239
30.0953
30.0644
30.003
29.7812
29.6572
29.4895
29.3486
29.2293
29.1338
29.0602
29.0042
28.9642
28.9338
28.9163
28.9033
28.9034
28.9033
28.9202
28.9459
28.996
29.0636
29.1564
29.2688
29.3954
29.5263
29.6506
29.7673
29.8635
29.9552
29.9951
30.0779
30.0471
29.937
29.7186
29.6084
29.4549
29.3234
29.2105
29.1193
29.0483
28.9932
28.9542
28.9236
28.9044
28.8891
28.8861
28.8825
28.8954
28.9159
28.9605
29.0217
29.1089
29.217
29.3417
29.4726
29.5988
29.7191
29.8194
29.9175
29.9616
30.0544
30.0245
29.8655
29.6484
29.5543
29.421
29.3015
29.196
29.1088
29.0393
28.9844
28.9453
28.9138
28.8924
28.8738
28.8671
28.8591
28.8675
28.8822
28.9203
28.9748
29.0562
29.1602
29.2831
29.4143
29.5425
29.6664
29.771
29.8753
29.9243
30.0258
29.9975
29.7914
29.5728
29.4945
29.3843
29.2799
29.1849
29.1026
29.0342
28.9787
28.9374
28.9045
28.8804
28.858
28.847
28.8337
28.837
28.8454
28.8765
28.924
28.9995
29.0994
29.2207
29.3524
29.4827
29.6102
29.7192
29.8295
29.8839
29.9927
29.9673
29.716
29.4957
29.4321
29.3371
29.2523
29.1712
29.0975
29.0322
28.9763
28.9317
28.896
28.8685
28.8419
28.826
28.8067
28.8046
28.8062
28.83
28.8701
28.9397
29.0358
29.1557
29.288
29.4205
29.5516
29.6649
29.7809
29.8413
29.9559
29.9345
29.6381
29.4194
29.3686
29.2887
29.2182
29.151
29.0882
29.0292
28.9748
28.9283
28.8885
28.8569
28.8254
28.804
28.7786
28.7706
28.7654
28.7816
28.8141
28.8779
28.9702
29.0888
29.2219
29.3567
29.4914
29.6089
29.7302
29.7974
29.9161
29.8997
29.5574
29.3436
29.305
29.2396
29.1818
29.1251
29.0715
29.0213
28.971
28.9247
28.8812
28.8459
28.8088
28.7815
28.75
28.7354
28.7233
28.7318
28.7569
28.8147
28.9034
29.021
29.155
29.2921
29.4302
29.5518
29.6779
29.7528
29.8741
29.8638
29.475
29.2681
29.2418
29.1883
29.1411
29.0949
29.0499
29.0062
28.9611
28.9176
28.8728
28.8345
28.7922
28.7587
28.7206
28.699
28.6799
28.6812
28.6989
28.7509
28.8361
28.9528
29.0878
29.2273
29.3686
29.4944
29.6246
29.7077
29.8305
29.8276
29.392
29.1934
29.1783
29.1361
29.0982
29.0612
29.0242
28.9862
28.9461
28.9058
28.8618
28.8217
28.7749
28.7357
28.6901
28.6614
28.6354
28.6299
28.6408
28.687
28.7689
28.8849
29.0208
29.1628
29.3072
29.4371
29.5704
29.6615
29.7849
29.7915
29.3083
29.119
29.1136
29.0833
29.0541
29.0247
28.9942
28.9618
28.9264
28.8896
28.847
28.8061
28.756
28.7116
28.6588
28.6225
28.5896
28.5782
28.5825
28.6233
28.7021
28.8175
28.9546
29.0989
29.2462
29.38
29.5151
29.6142
29.7377
29.7555
29.222
29.044
29.0469
29.028
29.007
28.9845
28.9598
28.9327
28.9016
28.8686
28.8276
28.7866
28.7341
28.6853
28.626
28.5827
28.5425
28.5257
28.5242
28.5598
28.6359
28.751
28.8891
29.0359
29.1856
29.3227
29.4594
29.5661
29.6896
29.7208
29.1325
28.9685
28.977
28.9688
28.9558
28.9401
28.9209
28.8985
28.8716
28.842
28.803
28.7621
28.7078
28.6557
28.5909
28.5414
28.4942
28.4722
28.4658
28.4966
28.5699
28.6851
28.8244
28.9731
29.1255
29.2664
29.4052
29.5173
29.6407
29.6872
29.0392
28.8919
28.905
28.9056
28.8999
28.8909
28.8772
28.8593
28.8364
28.8097
28.7726
28.7321
28.676
28.6214
28.5521
28.4975
28.4441
28.4172
28.4065
28.4332
28.5044
28.6202
28.76
28.9104
29.0657
29.2108
29.3519
29.4687
29.5913
29.6532
28.9421
28.8143
28.8319
28.8392
28.8401
28.837
28.8283
28.8148
28.7955
28.7716
28.736
28.696
28.638
28.5816
28.5086
28.4497
28.3913
28.3606
28.3463
28.3695
28.4397
28.5554
28.6949
28.8475
29.0057
29.1555
29.2992
29.4208
29.5432
29.6174
28.8398
28.7353
28.7568
28.7703
28.7764
28.7784
28.7744
28.7648
28.7489
28.7276
28.6934
28.6535
28.5938
28.5355
28.4597
28.3971
28.3347
28.3018
28.285
28.3056
28.3747
28.4889
28.6286
28.7841
28.9453
29.0998
29.2467
29.3732
29.4963
29.58
28.7316
28.6531
28.6787
28.6975
28.7083
28.7145
28.7151
28.7096
28.697
28.6781
28.6448
28.6047
28.5435
28.4834
28.4059
28.3403
28.2739
28.2392
28.2206
28.239
28.307
28.4206
28.5615
28.7194
28.8836
29.0429
29.1935
29.3249
29.4495
29.541
28.6165
28.5664
28.5958
28.6196
28.6349
28.6453
28.65
28.6487
28.6397
28.623
28.5905
28.5499
28.4873
28.4256
28.3465
28.2795
28.2095
28.1717
28.1513
28.1689
28.2366
28.3504
28.4925
28.6527
28.8201
28.9838
29.1386
29.275
29.4014
29.4997
28.4952
28.474
28.5072
28.5355
28.5552
28.5699
28.5788
28.5819
28.577
28.5631
28.5317
28.4906
28.4268
28.3633
28.2802
28.2126
28.1402
28.1003
28.0786
28.0959
28.1633
28.2776
28.421
28.5833
28.7541
28.9219
29.0809
29.2228
29.3513
29.4557
28.3682
28.3725
28.41
28.4427
28.4674
28.4873
28.5017
28.5106
28.5109
28.5004
28.4703
28.4289
28.3646
28.2995
28.211
28.1395
28.0635
28.0232
28.0015
28.0194
28.0872
28.2021
28.347
28.5115
28.6854
28.8573
29.02
29.1665
29.2983
29.4094
28.2405
28.2642
28.3061
28.343
28.374
28.4011
28.423
28.4386
28.444
28.4375
28.4089
28.367
28.3024
28.236
28.1428
28.065
27.9831
27.9408
27.9197
27.9397
28.0092
28.1242
28.2712
28.4392
28.6169
28.7933
28.9599
29.1108
29.2451
29.3631
28.1012
28.1436
28.1899
28.2321
28.2716
28.309
28.3415
28.366
28.3774
28.375
28.3482
28.3063
28.2411
28.1735
28.0771
27.9953
27.9081
27.8622
27.8412
27.864
27.9346
28.049
28.1961
28.3657
28.5462
28.727
28.8984
29.0544
29.1907
29.3147
27.9826
28.0415
28.088
28.1329
28.1808
28.2293
28.2732
28.3072
28.3246
28.3249
28.2991
28.2586
28.194
28.1263
28.0272
27.9424
27.8508
27.7999
27.7782
27.8036
27.8733
27.9869
28.1341
28.3041
28.4864
28.6707
28.8462
29.0083
29.1483
29.2833
27.8369
27.9107
27.9582
28.0148
28.0838
28.1563
28.2217
28.2719
28.3018
28.3082
28.288
28.253
28.1956
28.1301
28.0312
27.9441
27.8469
27.7906
27.7666
27.7918
27.8529
27.9553
28.0928
28.2579
28.4371
28.6208
28.7944
28.9551
29.0919
29.2316
27.8885
27.9579
28.0042
28.0788
28.174
28.2729
28.3576
28.42
28.458
28.472
28.4597
28.4318
28.3804
28.3208
28.2266
28.1403
28.0355
27.973
27.9422
27.9596
28.0106
28.1021
28.2272
28.379
28.5468
28.7216
28.8946
29.0565
29.1911
29.332
28.5116
28.5861
28.6128
28.6772
28.7667
28.8579
28.931
28.9804
29.0021
28.999
28.9752
28.9382
28.8799
28.8185
28.7252
28.6439
28.5409
28.4799
28.4493
28.4703
28.5284
28.6267
28.7573
28.9137
29.0857
29.2652
29.4417
29.6072
29.7436
29.8906
30.0686
29.8633
29.7469
29.5315
29.3471
29.1986
29.0894
29.0126
28.9605
28.9284
28.9081
28.9026
28.8994
28.9097
28.9116
28.9287
28.9427
28.9787
29.0281
29.1057
29.2064
29.327
29.4575
29.5892
29.7191
29.8349
29.9424
30.0088
30.0817
30.073
30.0572
29.8157
29.7087
29.5038
29.3367
29.1996
29.0937
29.0184
28.9671
28.936
28.9168
28.9119
28.9086
28.919
28.9207
28.9382
28.9521
28.988
29.0366
29.1149
29.2163
29.3375
29.4681
29.5997
29.7294
29.8441
29.951
30.0155
30.0892
30.0765
30.0378
29.7719
29.6726
29.4782
29.3224
29.192
29.0915
29.0189
28.9684
28.9377
28.9183
28.9138
28.9104
28.9207
28.9216
28.9388
28.9514
28.9852
29.0298
29.1045
29.2034
29.3248
29.4572
29.5906
29.7218
29.8369
29.9464
30.0093
30.0907
30.0721
29.9983
29.7216
29.6264
29.4407
29.2956
29.1744
29.0818
29.015
28.9681
28.9383
28.9188
28.9148
28.911
28.9208
28.9204
28.9368
28.9468
28.9778
29.0173
29.086
29.1791
29.2978
29.4321
29.5682
29.7019
29.8184
29.9316
29.9937
30.085
30.062
29.9417
29.6657
29.5743
29.3988
29.2642
29.1521
29.0671
29.0057
28.9623
28.9344
28.9156
28.9124
28.9078
28.9168
28.9142
28.9291
28.9353
28.9622
28.9953
29.0575
29.1444
29.2587
29.3908
29.5287
29.6668
29.7862
29.9054
29.968
30.0693
30.0445
29.8723
29.606
29.5163
29.3544
29.231
29.1282
29.0506
28.9945
28.9544
28.9287
28.9106
28.9079
28.902
28.9099
28.9044
28.9171
28.9185
28.9401
28.9659
29.0208
29.1016
29.212
29.3423
29.4801
29.6208
29.7446
29.8687
29.9346
30.0457
30.0209
29.795
29.543
29.4555
29.3104
29.1987
29.105
29.0346
28.9833
28.9463
28.9225
28.9049
28.9021
28.8943
28.9006
28.8915
28.9012
28.8971
28.9123
28.9303
28.9777
29.0523
29.1591
29.2882
29.4264
29.569
29.6965
29.8253
29.8963
30.0164
29.9922
29.7133
29.4756
29.3954
29.267
29.1678
29.0836
29.0198
28.9731
28.9387
28.9165
28.8988
28.8955
28.8852
28.8895
28.876
28.8821
28.8717
28.8799
28.8898
28.9294
28.998
29.1017
29.23
29.369
29.5137
29.6439
29.7778
29.8547
29.982
29.9597
29.6294
29.4044
29.3368
29.2251
29.1389
29.0645
29.0072
28.9644
28.9317
28.9106
28.8927
28.8883
28.875
28.877
28.8584
28.8602
28.8428
28.8436
28.8454
28.8772
28.9399
29.0409
29.1689
29.3091
29.4562
29.5886
29.7273
29.8107
29.9436
29.9247
29.545
29.3352
29.281
29.1841
29.1115
29.0474
28.9965
28.957
28.9258
28.9053
28.8865
28.8808
28.8641
28.8633
28.8391
28.8361
28.8108
28.8041
28.7982
28.8222
28.8792
28.9778
29.106
29.2478
29.3973
29.532
29.6745
29.7654
29.9021
29.888
29.4637
29.2667
29.2266
29.1441
29.0834
29.0294
28.9854
28.9501
28.9205
28.9003
28.8805
28.873
28.8526
28.8486
28.8183
28.8102
28.7763
28.7622
28.749
28.7653
28.8167
28.9133
29.0421
29.1859
29.3378
29.4752
29.6211
29.7196
29.8585
29.8506
29.3863
29.1988
29.173
29.1053
29.0563
29.0108
28.973
28.942
28.9144
28.8951
28.8744
28.865
28.8405
28.8331
28.7962
28.7828
28.7398
28.7184
28.6982
28.7072
28.7531
28.8482
28.9779
29.1241
29.2786
29.4196
29.5678
29.6737
29.8136
29.813
29.311
29.1325
29.1203
29.0664
29.0287
28.9919
28.9599
28.9329
28.9075
28.8891
28.8675
28.8565
28.8279
28.8167
28.7732
28.7543
28.7018
28.6732
28.6463
28.6485
28.6891
28.783
28.9142
29.0632
29.22
29.3655
29.5147
29.6268
29.7666
29.7768
29.2373
29.0676
29.0669
29.0268
28.9997
28.9713
28.9453
28.9223
28.8991
28.8819
28.8594
28.847
28.8146
28.7994
28.749
28.7248
28.6626
28.6269
28.5934
28.5897
28.6252
28.7183
28.8513
29.0037
29.1623
29.3119
29.4615
29.579
29.7182
29.7418
29.1638
29.0027
29.0118
28.9859
28.9688
28.9485
28.9285
28.9094
28.8888
28.8727
28.8496
28.836
28.8
28.7814
28.7237
28.6944
28.6226
28.5799
28.5399
28.5309
28.5615
28.6543
28.7895
28.9447
29.1057
29.2586
29.4095
29.5312
29.669
29.7082
29.0899
28.9385
28.9561
28.9432
28.9352
28.9225
28.9084
28.8936
28.8757
28.861
28.8374
28.823
28.7835
28.7619
28.6973
28.663
28.5819
28.5319
28.4858
28.4722
28.4981
28.5905
28.7278
28.8857
29.0497
29.2062
29.3589
29.4843
29.6196
29.6761
29.0153
28.8746
28.8991
28.8979
28.8981
28.8927
28.8843
28.8739
28.8592
28.8461
28.8224
28.8073
28.7647
28.7405
28.6695
28.6308
28.5404
28.4832
28.431
28.413
28.4346
28.5268
28.6657
28.8268
28.9946
29.1551
29.3098
29.439
29.5724
29.6442
28.9375
28.8093
28.8406
28.8491
28.8563
28.8581
28.8556
28.8499
28.8386
28.8276
28.804
28.7887
28.7431
28.7167
28.6396
28.5977
28.4982
28.4338
28.3754
28.3532
28.3706
28.4627
28.6028
28.7672
28.9396
29.1045
29.2617
29.3952
29.528
29.6113
28.854
28.7421
28.7797
28.797
28.8108
28.8189
28.822
28.8211
28.8136
28.8052
28.7821
28.7668
28.7186
28.6905
28.6075
28.5632
28.4551
28.3835
28.3188
28.2926
28.3055
28.3969
28.5386
28.7066
28.8839
29.0537
29.214
29.352
29.4849
29.5777
28.7624
28.6732
28.7165
28.7418
28.7618
28.7758
28.7839
28.7875
28.7842
28.7788
28.7568
28.7417
28.6914
28.6622
28.5737
28.5273
28.4107
28.3324
28.2604
28.2298
28.2377
28.3289
28.473
28.6445
28.827
29.002
29.1659
29.3086
29.4422
29.5432
28.6628
28.6014
28.6501
28.6831
28.7092
28.7289
28.7421
28.75
28.751
28.7491
28.7287
28.7141
28.6623
28.6324
28.5385
28.4907
28.3657
28.2799
28.199
28.1632
28.1675
28.2599
28.4054
28.5801
28.7677
28.9482
29.1165
29.2643
29.399
29.5071
28.5551
28.5257
28.58
28.6206
28.653
28.6786
28.6971
28.71
28.7153
28.7169
28.6988
28.6852
28.6327
28.6024
28.5032
28.4542
28.3199
28.2254
28.1349
28.0947
28.0974
28.1906
28.3359
28.5132
28.7056
28.8918
29.0648
29.218
29.3547
29.4693
28.4408
28.445
28.506
28.5545
28.5939
28.6259
28.6503
28.6687
28.6788
28.6844
28.6694
28.6568
28.6036
28.5732
28.4689
28.4191
28.2746
28.1709
28.0704
28.0278
28.03
28.1219
28.2656
28.4441
28.6397
28.8332
29.0113
29.1698
29.3088
29.43
28.3235
28.3571
28.4278
28.4854
28.5328
28.572
28.6034
28.6283
28.6439
28.6539
28.6422
28.6303
28.5764
28.546
28.4367
28.387
28.2323
28.121
28.0113
27.966
27.9663
28.0543
28.1954
28.3745
28.5717
28.7704
28.9553
29.1204
29.2622
29.3899
28.2019
28.2673
28.3502
28.4171
28.4728
28.5201
28.5593
28.5917
28.6131
28.6274
28.6179
28.6063
28.552
28.5222
28.4076
28.3586
28.1945
28.0774
27.9567
27.9061
27.9044
27.9886
28.1266
28.3057
28.5039
28.7061
28.8964
29.0685
29.2147
29.3525
28.0768
28.1802
28.275
28.3512
28.4156
28.4718
28.5201
28.5609
28.5882
28.6066
28.5992
28.5888
28.5354
28.5085
28.3919
28.3472
28.1749
28.0539
27.922
27.862
27.8551
27.9287
28.0602
28.2385
28.4376
28.6429
28.8385
29.017
29.1674
29.3151
27.964
28.1053
28.2084
28.2933
28.3672
28.4331
28.4917
28.5419
28.5761
28.6006
28.5961
28.5895
28.5383
28.5175
28.4003
28.3627
28.1836
28.0547
27.9133
27.8454
27.8344
27.8996
28.0209
28.1891
28.3897
28.5976
28.7963
28.9794
29.1324
29.2873
27.8694
28.0349
28.1436
28.2386
28.3247
28.4057
28.4788
28.5393
28.5857
28.6179
28.6167
28.615
28.5712
28.5608
28.4467
28.425
28.2416
28.1107
27.9568
27.8776
27.861
27.9155
28.0287
28.1905
28.3841
28.5921
28.7936
28.9778
29.1265
29.2786
27.8516
28.0234
28.1372
28.2412
28.34
28.4328
28.5143
28.5824
28.6341
28.6704
28.6727
28.6773
28.6413
28.6457
28.5413
28.546
28.3681
28.2465
28.0881
28.0009
27.9709
28.012
28.1051
28.2517
28.4318
28.6273
28.8173
28.9977
29.1471
29.3034
27.9137
28.0724
28.1863
28.2976
28.4031
28.5009
28.5849
28.6542
28.7058
28.7435
28.7507
28.7625
28.7347
28.7557
28.6673
28.7062
28.5425
28.4379
28.2824
28.1929
28.155
28.1872
28.2678
28.3981
28.5658
28.7556
28.95
29.1373
29.2943
29.4477
29.9683
29.7412
29.6602
29.4134
29.2127
29.0584
28.9539
28.8929
28.8605
28.8483
28.8435
28.8565
28.8596
28.872
28.8543
28.844
28.8062
28.7917
28.7823
28.8126
28.8846
29.0025
29.1508
29.3141
29.4847
29.6461
29.8025
29.9121
30.0292
30.0348
29.9485
29.655
29.5932
29.3625
29.1869
29.0509
28.9556
28.8971
28.8661
28.8561
28.8525
28.8657
28.8681
28.8799
28.8615
28.852
28.8154
28.8032
28.795
28.8241
28.8961
29.0148
29.1634
29.3266
29.4968
29.657
29.8128
29.9201
30.0383
30.0409
29.9208
29.5891
29.535
29.3233
29.166
29.0412
28.9539
28.8986
28.869
28.8606
28.8579
28.871
28.8722
28.8828
28.8625
28.852
28.8135
28.7995
28.7874
28.8108
28.8785
29.0012
29.1536
29.3186
29.4897
29.6497
29.8078
29.9144
30.0396
30.0366
29.8672
29.5225
29.4689
29.2746
29.1344
29.0226
28.9456
28.8979
28.8707
28.8643
28.8626
28.8758
28.8757
28.885
28.8616
28.849
28.8062
28.7891
28.7721
28.789
28.8499
28.9689
29.1263
29.2949
29.4675
29.6279
29.7885
29.8971
30.0312
30.0241
29.7915
29.4523
29.4002
29.2234
29.1004
29.0013
28.9341
28.8936
28.8709
28.8662
28.8656
28.8785
28.8769
28.8843
28.8567
28.8403
28.7909
28.7682
28.7449
28.7548
28.8096
28.9244
29.0795
29.2535
29.4292
29.5917
29.7559
29.8677
30.0109
30.003
29.6999
29.3783
29.329
29.1696
29.0631
28.9784
28.9212
28.8877
28.8696
28.8671
28.8674
28.8802
28.8763
28.8816
28.8489
28.8274
28.7689
28.7386
28.7081
28.7112
28.7604
28.8723
29.0259
29.2008
29.38
29.5453
29.714
29.8292
29.9805
29.974
29.5989
29.3015
29.257
29.1148
29.0256
28.9545
28.9077
28.8814
28.8674
28.8676
28.8686
28.8809
28.8744
28.8771
28.8383
28.8105
28.7407
28.7018
28.6635
28.6601
28.7042
28.8144
28.9675
29.142
29.3245
29.4928
29.6654
29.7852
29.9421
29.9393
29.4933
29.2229
29.1861
29.0628
28.991
28.9328
28.8956
28.8757
28.8656
28.868
28.8691
28.881
28.8714
28.8713
28.8251
28.79
28.7075
28.6587
28.6124
28.6033
28.6431
28.7526
28.9064
29.081
29.2655
29.4369
29.6121
29.7374
29.8981
29.9009
29.3873
29.145
29.1187
29.0153
28.9595
28.9134
28.8851
28.8709
28.8641
28.8683
28.8691
28.8806
28.8675
28.8642
28.8099
28.7664
28.6703
28.6104
28.5562
28.5422
28.5783
28.6883
28.8438
29.019
29.2053
29.3797
29.5563
29.6874
29.8503
29.8612
29.2843
29.0711
29.0562
28.9722
28.9312
28.8963
28.876
28.867
28.863
28.8684
28.8689
28.8798
28.863
28.8562
28.7929
28.7406
28.6295
28.5581
28.4961
28.478
28.5114
28.623
28.7812
28.9575
29.1461
29.323
29.5004
29.6376
29.8003
29.8215
29.187
29.0022
28.9987
28.9337
28.9061
28.8816
28.8685
28.8641
28.8626
28.8689
28.8687
28.8788
28.8578
28.8475
28.7745
28.7129
28.5858
28.5028
28.4335
28.412
28.444
28.558
28.7198
28.898
29.0894
29.2687
29.4472
29.5881
29.7484
29.7823
29.0984
28.9387
28.9445
28.8982
28.883
28.8682
28.8619
28.8617
28.8623
28.87
28.8685
28.8777
28.8522
28.8382
28.7548
28.6836
28.5398
28.4456
28.3695
28.3454
28.3768
28.494
28.66
28.8415
29.036
29.2183
29.3964
29.5386
29.6968
29.7448
29.0182
28.879
28.8932
28.865
28.8613
28.8557
28.8557
28.8592
28.8618
28.871
28.8685
28.8764
28.8458
28.8281
28.734
28.653
28.4921
28.3875
28.305
28.2788
28.3103
28.4317
28.6018
28.7883
28.9856
29.17
29.347
29.4913
29.6472
29.7095
28.9435
28.8221
28.8449
28.8341
28.8401
28.8432
28.8488
28.8562
28.861
28.8716
28.8683
28.8749
28.8388
28.8174
28.7121
28.6213
28.4434
28.3291
28.2404
28.2126
28.245
28.3711
28.5454
28.7372
28.9368
29.1231
29.3005
29.447
29.6004
29.677
28.8735
28.7677
28.7997
28.8042
28.8188
28.8298
28.841
28.8523
28.8594
28.8713
28.8677
28.8733
28.8313
28.8059
28.6892
28.5889
28.3942
28.2712
28.1762
28.1474
28.1814
28.3117
28.4897
28.6864
28.8893
29.0788
29.2574
29.4065
29.558
29.645
28.8063
28.7152
28.7571
28.7738
28.7968
28.8152
28.8319
28.8472
28.8569
28.8703
28.8663
28.8708
28.8235
28.7941
28.6652
28.5561
28.3451
28.2142
28.1128
28.0839
28.1187
28.2522
28.433
28.6363
28.8437
29.037
29.2172
29.3691
29.519
29.6146
28.7403
28.6646
28.7156
28.7427
28.7734
28.7989
28.821
28.8404
28.853
28.8679
28.8638
28.8675
28.815
28.7819
28.6405
28.5231
28.2964
28.1583
28.0507
28.0206
28.0551
28.1913
28.3779
28.5871
28.7995
28.9972
29.1794
29.3342
29.4827
29.5856
28.6745
28.615
28.6739
28.7105
28.7483
28.7806
28.808
28.8317
28.8473
28.864
28.8598
28.8632
28.8059
28.7697
28.6157
28.491
28.249
28.1042
27.9884
27.9556
27.9908
28.1311
28.3231
28.5377
28.756
28.9588
29.1436
29.3013
29.4486
29.5575
28.606
28.5642
28.6309
28.6765
28.7214
28.7601
28.7928
28.821
28.8397
28.8585
28.8546
28.8582
28.7965
28.7579
28.5914
28.4609
28.203
28.0507
27.9253
27.891
27.9284
28.0709
28.2641
28.4868
28.7124
28.921
29.109
29.27
29.4163
29.5305
28.5311
28.5109
28.5857
28.6404
28.6922
28.7374
28.7754
28.8083
28.8305
28.8519
28.8486
28.8527
28.7872
28.747
28.5683
28.433
28.1579
27.9981
27.8647
27.8304
27.867
28.0065
28.2021
28.4339
28.6671
28.8828
29.0748
29.2395
29.3854
29.5044
28.4489
28.4533
28.5373
28.6012
28.6607
28.7126
28.7562
28.7939
28.82
28.8445
28.8427
28.8474
28.7788
28.7377
28.5468
28.4075
28.1169
27.9533
27.8098
27.7719
27.8022
27.9388
28.1394
28.3782
28.6188
28.8425
29.0405
29.2093
29.3553
29.479
28.36
28.3887
28.4843
28.5594
28.6272
28.6861
28.7355
28.7784
28.8089
28.8372
28.8376
28.8434
28.772
28.7305
28.5277
28.3854
28.082
27.9155
27.7585
27.7136
27.736
27.8711
28.0752
28.3199
28.5675
28.7986
29.0039
29.179
29.326
29.4544
28.2618
28.3191
28.4282
28.5154
28.5921
28.6583
28.7141
28.7628
28.7984
28.8311
28.8337
28.8428
28.7684
28.7279
28.5111
28.3687
28.0508
27.8777
27.7046
27.6531
27.6742
27.8086
28.0095
28.2585
28.513
28.7517
28.9635
29.1461
29.2967
29.4308
28.1554
28.2471
28.3705
28.4703
28.5564
28.6305
28.6933
28.7486
28.7895
28.8265
28.8313
28.8437
28.7684
28.729
28.4984
28.3606
28.0236
27.844
27.6583
27.6031
27.624
27.7515
27.9458
28.1925
28.4554
28.7023
28.9214
29.1107
29.2654
29.4091
28.0437
28.1775
28.3143
28.4262
28.5219
28.6042
28.6745
28.736
28.7816
28.8229
28.83
28.8462
28.7702
28.7341
28.4927
28.3586
28.0021
27.8223
27.6245
27.5647
27.5833
27.7049
27.8906
28.132
28.3965
28.6524
28.8798
29.0767
29.236
29.3882
27.9344
28.1114
28.2611
28.3844
28.4891
28.5796
28.6567
28.7245
28.7748
28.8206
28.8319
28.8527
28.7757
28.7447
28.4954
28.3713
27.9944
27.8162
27.6079
27.5428
27.5579
27.6692
27.8465
28.0883
28.3493
28.607
28.8434
29.0477
29.2119
29.3711
27.8364
28.0518
28.2127
28.3459
28.4592
28.557
28.6411
28.7153
28.7707
28.8232
28.8409
28.8682
28.791
28.7704
28.5191
28.4191
28.0286
27.8577
27.6362
27.5609
27.5666
27.6726
27.846
28.0726
28.3222
28.579
28.8195
29.0307
29.1997
29.3625
27.7652
28.0012
28.1676
28.3116
28.4329
28.5382
28.6303
28.7118
28.7752
28.8363
28.8582
28.893
28.8184
28.8141
28.5614
28.4983
28.0979
27.9374
27.7057
27.6244
27.622
27.7139
27.8744
28.09
28.3321
28.5794
28.8124
29.0295
29.2035
29.3679
27.719
27.96
28.1311
28.2821
28.4117
28.5255
28.6246
28.7128
28.7845
28.8506
28.8768
28.9201
28.8508
28.8688
28.6192
28.6064
28.2039
28.0589
27.821
27.7347
27.7192
27.7944
27.9344
28.1343
28.3665
28.6087
28.835
29.0435
29.2127
29.38
27.7148
27.9386
28.1084
28.2627
28.397
28.5165
28.6208
28.714
28.7913
28.8624
28.8935
28.9435
28.8819
28.9231
28.6861
28.7354
28.3422
28.219
27.9814
27.8936
27.8647
27.9252
28.0425
28.2186
28.4282
28.6541
28.874
29.0824
29.2596
29.4262
29.9409
29.685
29.6297
29.3584
29.1354
28.968
28.8601
28.8076
28.7883
28.7951
28.8146
28.8587
28.8886
28.939
28.9366
28.9426
28.8654
28.7834
28.6692
28.6115
28.6221
28.7143
28.8696
29.0534
29.2503
29.4422
29.6373
29.7883
29.9597
29.9858
29.9065
29.5707
29.5399
29.2865
29.0956
28.952
28.859
28.8108
28.795
28.805
28.8258
28.8705
28.8997
28.9497
28.946
28.954
28.8798
28.8043
28.6932
28.6328
28.6348
28.7249
28.8796
29.0629
29.2595
29.4515
29.6474
29.7978
29.9716
29.9953
29.8703
29.4732
29.4589
29.2297
29.0642
28.9365
28.8548
28.8123
28.7994
28.8129
28.8348
28.8798
28.9076
28.958
28.9525
28.9623
28.8864
28.8071
28.6905
28.6289
28.6227
28.7123
28.8706
29.0554
29.2534
29.4455
29.6429
29.7915
29.9707
29.9913
29.8007
29.3826
29.3733
29.1623
29.0209
28.9113
28.8427
28.8104
28.802
28.8196
28.8426
28.8885
28.9148
28.9662
28.9578
28.9693
28.8866
28.8029
28.6802
28.6132
28.5982
28.6781
28.8393
29.0279
29.2276
29.4203
29.6194
29.7698
29.9543
29.9753
29.7024