/*--------------------------------*- C++ -*----------------------------------*\
  =========                 |
  \\      /  F ield         | OpenFOAM: The Open Source CFD Toolbox
   \\    /   O peration     | Website:  https://openfoam.org
    \\  /    A nd           | Version:  12
     \\/     M anipulation  |
\*---------------------------------------------------------------------------*/
FoamFile
{
    format      ascii;
    class       volScalarField;
    location    "1950/air";
    object      T;
}
// * * * * * * * * * * * * * * * * * * * * * * * * * * * * * * * * * * * * * //

dimensions      [0 0 0 1 0 0 0];

internalField   nonuniform List<scalar> 
243000
(
301.552
301.432
301.366
301.321
301.288
301.261
301.238
301.218
301.2
301.184
301.168
301.153
301.138
301.124
301.11
301.095
301.08
301.064
301.046
301.027
301.006
300.98
300.952
300.921
300.89
300.86
300.835
300.798
300.696
300.661
301.883
301.616
301.48
301.397
301.341
301.3
301.268
301.241
301.219
301.199
301.18
301.163
301.147
301.131
301.115
301.1
301.083
301.067
301.048
301.029
301.007
300.982
300.954
300.924
300.893
300.863
300.836
300.807
300.739
300.676
302.104
301.788
301.603
301.485
301.405
301.347
301.304
301.269
301.241
301.216
301.195
301.175
301.157
301.139
301.122
301.105
301.088
301.07
301.051
301.031
301.009
300.984
300.957
300.928
300.898
300.868
300.84
300.813
300.766
300.705
302.289
301.976
301.752
301.597
301.488
301.409
301.351
301.305
301.269
301.239
301.213
301.19
301.169
301.15
301.131
301.113
301.094
301.075
301.056
301.035
301.012
300.988
300.961
300.933
300.904
300.875
300.846
300.819
300.782
300.731
302.442
302.178
301.936
301.744
301.601
301.495
301.416
301.355
301.308
301.269
301.237
301.21
301.185
301.163
301.142
301.122
301.102
301.082
301.061
301.039
301.017
300.992
300.967
300.939
300.911
300.882
300.854
300.826
300.794
300.752
302.553
302.371
302.142
301.927
301.749
301.61
301.504
301.423
301.36
301.31
301.27
301.235
301.206
301.18
301.156
301.133
301.111
301.09
301.068
301.045
301.022
300.998
300.972
300.945
300.918
300.889
300.861
300.834
300.804
300.768
302.614
302.498
302.32
302.116
301.922
301.756
301.62
301.514
301.43
301.365
301.312
301.269
301.233
301.201
301.173
301.148
301.123
301.099
301.076
301.052
301.029
301.004
300.979
300.952
300.925
300.898
300.87
300.843
300.814
300.781
302.647
302.575
302.454
302.286
302.098
301.917
301.759
301.628
301.521
301.436
301.368
301.312
301.267
301.228
301.195
301.165
301.138
301.111
301.086
301.061
301.036
301.011
300.986
300.96
300.933
300.906
300.879
300.852
300.824
300.794
302.675
302.63
302.551
302.427
302.265
302.087
301.915
301.762
301.633
301.526
301.439
301.368
301.311
301.263
301.222
301.187
301.155
301.126
301.098
301.071
301.045
301.019
300.994
300.968
300.942
300.915
300.888
300.861
300.834
300.805
302.705
302.674
302.623
302.538
302.413
302.254
302.082
301.916
301.766
301.636
301.528
301.439
301.366
301.306
301.256
301.214
301.177
301.143
301.112
301.083
301.055
301.029
301.003
300.977
300.951
300.924
300.898
300.871
300.844
300.817
302.736
302.712
302.677
302.621
302.533
302.406
302.25
302.082
301.918
301.768
301.638
301.528
301.436
301.361
301.299
301.247
301.203
301.164
301.129
301.097
301.068
301.039
301.013
300.986
300.96
300.934
300.908
300.882
300.855
300.828
302.767
302.747
302.721
302.684
302.624
302.532
302.405
302.25
302.084
301.92
301.769
301.636
301.524
301.43
301.353
301.289
301.236
301.19
301.15
301.114
301.082
301.052
301.024
300.997
300.971
300.945
300.919
300.893
300.866
300.84
302.796
302.778
302.759
302.731
302.691
302.628
302.533
302.405
302.251
302.084
301.919
301.766
301.631
301.516
301.42
301.341
301.276
301.222
301.175
301.135
301.099
301.066
301.036
301.008
300.982
300.956
300.93
300.904
300.878
300.852
302.822
302.807
302.79
302.768
302.74
302.697
302.631
302.534
302.405
302.25
302.082
301.914
301.758
301.62
301.503
301.406
301.327
301.261
301.206
301.159
301.119
301.083
301.051
301.022
300.994
300.967
300.942
300.916
300.89
300.864
302.846
302.831
302.815
302.798
302.776
302.746
302.701
302.632
302.533
302.401
302.244
302.074
301.903
301.745
301.605
301.487
301.389
301.31
301.244
301.189
301.143
301.103
301.068
301.036
301.007
300.98
300.954
300.928
300.902
300.877
302.865
302.851
302.836
302.821
302.802
302.78
302.748
302.701
302.629
302.527
302.392
302.232
302.058
301.885
301.725
301.585
301.467
301.37
301.291
301.226
301.172
301.127
301.088
301.053
301.023
300.994
300.967
300.941
300.915
300.89
302.879
302.865
302.851
302.837
302.821
302.803
302.78
302.746
302.696
302.621
302.515
302.376
302.212
302.035
301.86
301.7
301.561
301.445
301.349
301.272
301.208
301.156
301.111
301.073
301.04
301.01
300.981
300.955
300.928
300.903
302.888
302.874
302.861
302.848
302.834
302.818
302.799
302.775
302.74
302.687
302.607
302.496
302.352
302.184
302.005
301.83
301.671
301.535
301.421
301.328
301.253
301.191
301.14
301.097
301.06
301.027
300.998
300.97
300.943
300.917
302.89
302.877
302.865
302.852
302.839
302.825
302.81
302.791
302.766
302.729
302.672
302.587
302.47
302.321
302.148
301.968
301.796
301.641
301.508
301.397
301.308
301.235
301.175
301.126
301.084
301.048
301.016
300.987
300.959
300.933
302.884
302.872
302.861
302.85
302.838
302.827
302.814
302.799
302.78
302.753
302.713
302.651
302.561
302.436
302.282
302.107
301.929
301.76
301.61
301.481
301.375
301.289
301.219
301.162
301.114
301.073
301.038
301.006
300.977
300.95
302.869
302.859
302.849
302.839
302.829
302.819
302.809
302.798
302.783
302.764
302.736
302.693
302.625
302.527
302.396
302.238
302.064
301.889
301.725
301.58
301.457
301.356
301.274
301.206
301.151
301.104
301.064
301.029
300.998
300.969
302.844
302.836
302.828
302.82
302.812
302.805
302.797
302.789
302.779
302.765
302.746
302.716
302.667
302.594
302.488
302.352
302.191
302.02
301.85
301.692
301.554
301.437
301.341
301.261
301.196
301.142
301.097
301.057
301.022
300.991
302.81
302.804
302.798
302.793
302.788
302.783
302.778
302.773
302.766
302.757
302.744
302.723
302.69
302.636
302.556
302.444
302.305
302.145
301.977
301.814
301.664
301.533
301.422
301.329
301.253
301.19
301.136
301.091
301.052
301.017
302.765
302.761
302.759
302.757
302.755
302.754
302.752
302.749
302.746
302.741
302.733
302.719
302.697
302.66
302.601
302.515
302.399
302.258
302.101
301.939
301.783
301.641
301.517
301.411
301.322
301.248
301.186
301.134
301.088
301.049
302.707
302.708
302.71
302.712
302.715
302.717
302.718
302.719
302.72
302.719
302.715
302.708
302.695
302.67
302.629
302.565
302.473
302.355
302.215
302.062
301.907
301.76
301.626
301.508
301.406
301.32
301.247
301.186
301.133
301.088
302.636
302.643
302.65
302.658
302.666
302.673
302.679
302.685
302.689
302.692
302.693
302.69
302.683
302.668
302.64
302.594
302.524
302.43
302.311
302.175
302.029
301.883
301.744
301.616
301.504
301.406
301.322
301.25
301.188
301.135
302.55
302.563
302.577
302.59
302.604
302.616
302.627
302.636
302.644
302.65
302.653
302.653
302.65
302.64
302.622
302.591
302.542
302.471
302.378
302.263
302.134
301.998
301.862
301.731
301.611
301.503
301.408
301.325
301.253
301.191
302.434
302.453
302.472
302.49
302.507
302.522
302.534
302.543
302.548
302.551
302.55
302.548
302.542
302.535
302.522
302.503
302.473
302.427
302.363
302.279
302.178
302.064
301.943
301.822
301.703
301.593
301.491
301.401
301.32
301.25
302.192
302.205
302.219
302.232
302.241
302.245
302.243
302.236
302.224
302.209
302.192
302.174
302.158
302.143
302.131
302.121
302.11
302.093
302.065
302.023
301.966
301.896
301.816
301.729
301.638
301.549
301.462
301.381
301.306
301.239
301.116
301.102
301.114
301.127
301.13
301.124
301.111
301.094
301.075
301.056
301.036
301.016
300.998
300.982
300.971
300.965
300.965
300.963
300.958
300.948
300.934
300.915
300.894
300.87
300.843
300.814
300.783
300.752
300.722
300.693
301.277
301.245
301.221
301.201
301.183
301.166
301.151
301.137
301.123
301.11
301.097
301.084
301.072
301.058
301.044
301.029
301.013
300.995
300.973
300.948
300.918
300.883
300.847
300.812
300.781
300.754
300.732
300.713
300.69
300.653
301.328
301.286
301.254
301.227
301.204
301.184
301.167
301.15
301.135
301.121
301.107
301.093
301.08
301.065
301.051
301.035
301.018
300.999
300.977
300.951
300.922
300.889
300.855
300.821
300.79
300.762
300.739
300.719
300.696
300.664
301.373
301.326
301.289
301.258
301.232
301.209
301.188
301.17
301.152
301.136
301.121
301.106
301.091
301.076
301.06
301.043
301.024
301.004
300.981
300.956
300.927
300.896
300.863
300.831
300.8
300.772
300.748
300.726
300.704
300.676
301.418
301.371
301.331
301.297
301.267
301.24
301.216
301.195
301.175
301.157
301.139
301.122
301.105
301.088
301.071
301.052
301.033
301.011
300.987
300.961
300.933
300.903
300.871
300.84
300.81
300.782
300.757
300.735
300.713
300.688
301.469
301.424
301.384
301.347
301.314
301.283
301.255
301.229
301.206
301.184
301.163
301.144
301.124
301.105
301.085
301.065
301.043
301.019
300.994
300.968
300.939
300.91
300.88
300.849
300.82
300.793
300.768
300.744
300.722
300.698
301.527
301.49
301.453
301.415
301.377
301.34
301.306
301.275
301.246
301.219
301.195
301.171
301.148
301.125
301.103
301.08
301.056
301.03
301.003
300.976
300.947
300.918
300.888
300.859
300.831
300.803
300.778
300.754
300.731
300.709
301.599
301.581
301.55
301.509
301.463
301.417
301.375
301.335
301.299
301.266
301.235
301.206
301.178
301.151
301.125
301.099
301.072
301.043
301.015
300.985
300.956
300.927
300.898
300.869
300.841
300.814
300.789
300.765
300.742
300.719
301.684
301.684
301.665
301.628
301.577
301.521
301.465
301.413
301.367
301.324
301.286
301.25
301.216
301.184
301.153
301.122
301.091
301.06
301.029
300.997
300.967
300.937
300.908
300.88
300.852
300.826
300.8
300.776
300.752
300.73
301.773
301.786
301.778
301.749
301.7
301.639
301.574
301.511
301.452
301.398
301.35
301.305
301.263
301.224
301.187
301.151
301.116
301.08
301.046
301.012
300.98
300.949
300.92
300.891
300.864
300.837
300.812
300.788
300.764
300.741
301.864
301.881
301.881
301.863
301.822
301.764
301.694
301.622
301.553
301.487
301.427
301.372
301.321
301.274
301.229
301.186
301.145
301.105
301.066
301.03
300.995
300.963
300.932
300.904
300.876
300.85
300.824
300.8
300.776
300.753
301.95
301.968
301.975
301.966
301.936
301.886
301.819
301.744
301.666
301.59
301.518
301.452
301.39
301.333
301.28
301.229
301.181
301.135
301.091
301.051
301.013
300.979
300.947
300.918
300.89
300.863
300.838
300.813
300.789
300.766
302.036
302.051
302.06
302.058
302.039
302
301.942
301.869
301.787
301.704
301.622
301.545
301.472
301.404
301.34
301.281
301.224
301.171
301.122
301.076
301.035
300.998
300.964
300.933
300.904
300.877
300.851
300.827
300.802
300.78
302.122
302.132
302.14
302.141
302.13
302.102
302.055
301.99
301.911
301.825
301.736
301.649
301.565
301.486
301.411
301.341
301.276
301.215
301.158
301.107
301.061
301.02
300.984
300.951
300.921
300.893
300.866
300.841
300.816
300.794
302.206
302.212
302.216
302.217
302.21
302.191
302.155
302.101
302.031
301.947
301.856
301.762
301.669
301.579
301.494
301.413
301.337
301.267
301.202
301.144
301.093
301.047
301.007
300.971
300.939
300.91
300.883
300.857
300.831
300.808
302.288
302.289
302.289
302.289
302.283
302.268
302.241
302.198
302.139
302.064
301.976
301.88
301.781
301.682
301.586
301.495
301.408
301.328
301.254
301.188
301.13
301.079
301.034
300.995
300.96
300.929
300.9
300.874
300.848
300.824
302.365
302.361
302.358
302.355
302.348
302.335
302.314
302.281
302.233
302.168
302.089
301.997
301.896
301.792
301.688
301.587
301.49
301.399
301.315
301.24
301.174
301.117
301.067
301.023
300.985
300.951
300.92
300.892
300.865
300.841
302.434
302.428
302.421
302.415
302.406
302.394
302.376
302.349
302.31
302.257
302.189
302.105
302.008
301.904
301.796
301.687
301.581
301.48
301.386
301.302
301.227
301.161
301.105
301.056
301.014
300.976
300.943
300.913
300.885
300.86
302.494
302.485
302.476
302.467
302.456
302.443
302.426
302.403
302.372
302.328
302.271
302.199
302.111
302.012
301.904
301.791
301.679
301.57
301.467
301.373
301.288
301.214
301.15
301.095
301.048
301.006
300.97
300.937
300.907
300.881
302.542
302.531
302.52
302.509
302.497
302.483
302.466
302.446
302.419
302.383
302.336
302.275
302.199
302.109
302.007
301.896
301.781
301.666
301.556
301.453
301.359
301.276
301.204
301.142
301.088
301.041
301.001
300.965
300.932
300.904
302.575
302.563
302.551
302.538
302.525
302.511
302.494
302.475
302.452
302.422
302.383
302.333
302.269
302.191
302.099
301.995
301.882
301.767
301.651
301.541
301.44
301.348
301.267
301.197
301.136
301.083
301.038
300.997
300.961
300.93
302.591
302.579
302.566
302.554
302.54
302.526
302.51
302.492
302.472
302.446
302.414
302.373
302.321
302.256
302.176
302.082
301.978
301.866
301.75
301.636
301.528
301.429
301.34
301.262
301.193
301.134
301.082
301.036
300.996
300.962
302.59
302.578
302.567
302.554
302.542
302.528
302.513
302.497
302.478
302.457
302.43
302.397
302.355
302.302
302.236
302.156
302.063
301.959
301.848
301.735
301.624
301.519
301.423
301.337
301.26
301.193
301.134
301.083
301.037
300.998
302.566
302.556
302.546
302.535
302.525
302.513
302.501
302.487
302.472
302.454
302.433
302.407
302.373
302.331
302.277
302.211
302.132
302.041
301.94
301.832
301.723
301.616
301.515
301.422
301.338
301.263
301.197
301.138
301.087
301.042
302.519
302.512
302.505
302.497
302.489
302.481
302.472
302.462
302.45
302.436
302.42
302.399
302.373
302.339
302.298
302.245
302.182
302.106
302.019
301.922
301.819
301.715
301.612
301.515
301.425
301.343
301.27
301.204
301.146
301.095
302.449
302.445
302.442
302.437
302.433
302.428
302.422
302.416
302.407
302.397
302.383
302.366
302.346
302.32
302.288
302.248
302.2
302.143
302.074
301.994
301.904
301.808
301.71
301.612
301.519
301.432
301.352
301.279
301.214
301.157
302.354
302.354
302.354
302.352
302.35
302.348
302.344
302.34
302.333
302.323
302.311
302.296
302.278
302.257
302.233
302.204
302.171
302.132
302.083
302.024
301.954
301.875
301.788
301.698
301.608
301.521
301.437
301.36
301.289
301.225
302.228
302.229
302.229
302.228
302.227
302.225
302.222
302.217
302.209
302.198
302.183
302.166
302.148
302.127
302.106
302.085
302.064
302.041
302.012
301.976
301.928
301.87
301.805
301.732
301.655
301.576
301.498
301.423
301.352
301.286
302.043
302.035
302.028
302.025
302.023
302.021
302.016
302.007
301.995
301.976
301.955
301.931
301.906
301.882
301.86
301.841
301.829
301.82
301.81
301.794
301.769
301.734
301.691
301.64
301.585
301.525
301.464
301.402
301.342
301.284
301.698
301.66
301.639
301.633
301.633
301.632
301.625
301.61
301.59
301.566
301.541
301.515
301.489
301.464
301.441
301.422
301.409
301.399
301.391
301.38
301.368
301.353
301.334
301.312
301.286
301.256
301.223
301.189
301.152
301.113
300.952
300.936
300.938
300.948
300.959
300.965
300.966
300.961
300.952
300.939
300.924
300.907
300.889
300.871
300.852
300.836
300.824
300.812
300.802
300.79
300.776
300.762
300.746
300.729
300.711
300.69
300.669
300.646
300.623
300.602
301.24
301.209
301.185
301.165
301.146
301.13
301.114
301.1
301.086
301.073
301.06
301.047
301.034
301.021
301.006
300.99
300.972
300.951
300.925
300.893
300.855
300.816
300.779
300.747
300.721
300.701
300.685
300.672
300.659
300.638
301.26
301.223
301.195
301.172
301.152
301.134
301.118
301.104
301.09
301.077
301.064
301.052
301.039
301.025
301.01
300.993
300.974
300.952
300.926
300.895
300.86
300.824
300.789
300.758
300.732
300.711
300.693
300.678
300.664
300.645
301.274
301.238
301.208
301.184
301.164
301.145
301.129
301.114
301.1
301.087
301.073
301.06
301.047
301.032
301.016
300.999
300.979
300.955
300.929
300.899
300.866
300.831
300.798
300.769
300.743
300.721
300.702
300.686
300.67
300.652
301.291
301.255
301.227
301.203
301.182
301.163
301.146
301.13
301.115
301.101
301.087
301.073
301.058
301.043
301.026
301.007
300.985
300.961
300.933
300.903
300.872
300.839
300.808
300.779
300.754
300.732
300.712
300.694
300.677
300.659
301.311
301.28
301.252
301.229
301.207
301.187
301.169
301.152
301.136
301.121
301.105
301.09
301.074
301.057
301.038
301.017
300.994
300.968
300.939
300.909
300.879
300.848
300.818
300.79
300.765
300.742
300.722
300.703
300.685
300.667
301.339
301.311
301.286
301.263
301.241
301.221
301.201
301.182
301.164
301.147
301.129
301.112
301.094
301.075
301.054
301.031
301.006
300.977
300.948
300.917
300.887
300.857
300.828
300.801
300.776
300.753
300.733
300.713
300.694
300.676
301.376
301.352
301.33
301.308
301.286
301.264
301.243
301.222
301.201
301.181
301.16
301.14
301.119
301.098
301.075
301.049
301.021
300.99
300.959
300.927
300.897
300.867
300.839
300.812
300.788
300.765
300.744
300.723
300.704
300.685
301.423
301.404
301.385
301.365
301.343
301.32
301.296
301.272
301.247
301.223
301.2
301.176
301.151
301.126
301.1
301.071
301.039
301.006
300.972
300.94
300.908
300.878
300.851
300.824
300.8
300.777
300.755
300.734
300.714
300.695
301.479
301.467
301.454
301.439
301.418
301.392
301.364
301.335
301.305
301.276
301.248
301.219
301.191
301.161
301.131
301.098
301.063
301.026
300.99
300.955
300.922
300.892
300.864
300.837
300.813
300.79
300.767
300.746
300.725
300.706
301.545
301.542
301.535
301.523
301.503
301.476
301.445
301.411
301.376
301.341
301.306
301.272
301.238
301.204
301.169
301.131
301.091
301.051
301.011
300.974
300.939
300.907
300.878
300.852
300.827
300.803
300.781
300.759
300.737
300.717
301.622
301.624
301.621
301.612
301.594
301.568
301.536
301.498
301.458
301.417
301.376
301.335
301.295
301.254
301.214
301.171
301.126
301.081
301.037
300.997
300.959
300.926
300.895
300.867
300.842
300.818
300.795
300.772
300.75
300.73
301.704
301.709
301.709
301.703
301.689
301.665
301.632
301.593
301.549
301.503
301.456
301.408
301.361
301.314
301.266
301.217
301.167
301.117
301.069
301.024
300.984
300.947
300.915
300.886
300.859
300.834
300.81
300.787
300.764
300.743
301.791
301.797
301.798
301.795
301.783
301.762
301.732
301.692
301.647
301.596
301.544
301.49
301.436
301.382
301.328
301.272
301.216
301.16
301.107
301.057
301.013
300.973
300.938
300.906
300.878
300.851
300.826
300.802
300.779
300.758
301.88
301.886
301.888
301.885
301.876
301.858
301.83
301.793
301.747
301.695
301.639
301.58
301.52
301.459
301.397
301.335
301.272
301.21
301.151
301.097
301.048
301.004
300.965
300.93
300.9
300.871
300.845
300.82
300.796
300.774
301.97
301.976
301.977
301.974
301.965
301.949
301.924
301.89
301.846
301.795
301.737
301.675
301.61
301.543
301.475
301.406
301.336
301.268
301.203
301.143
301.088
301.04
300.997
300.959
300.925
300.894
300.866
300.839
300.814
300.792
302.059
302.063
302.063
302.059
302.05
302.036
302.013
301.982
301.941
301.892
301.835
301.771
301.703
301.632
301.559
301.484
301.409
301.334
301.263
301.197
301.136
301.082
301.034
300.992
300.954
300.921
300.89
300.862
300.835
300.811
302.144
302.146
302.144
302.139
302.13
302.115
302.095
302.066
302.029
301.983
301.928
301.865
301.796
301.724
301.647
301.568
301.487
301.408
301.331
301.258
301.191
301.131
301.077
301.03
300.989
300.951
300.918
300.887
300.858
300.833
302.222
302.222
302.218
302.212
302.202
302.187
302.167
302.141
302.107
302.064
302.013
301.954
301.886
301.814
301.736
301.655
301.572
301.488
301.405
301.327
301.254
301.188
301.128
301.076
301.029
300.987
300.95
300.916
300.885
300.858
302.288
302.286
302.282
302.274
302.263
302.248
302.229
302.204
302.173
302.135
302.088
302.033
301.969
301.899
301.823
301.742
301.658
301.572
301.486
301.403
301.325
301.252
301.187
301.128
301.076
301.029
300.988
300.95
300.915
300.886
302.339
302.336
302.331
302.323
302.312
302.297
302.278
302.255
302.227
302.192
302.15
302.1
302.042
301.977
301.904
301.826
301.744
301.658
301.571
301.485
301.402
301.325
301.253
301.189
301.131
301.079
301.032
300.989
300.951
300.918
302.372
302.369
302.363
302.356
302.345
302.331
302.313
302.292
302.266
302.235
302.198
302.153
302.102
302.043
301.977
301.905
301.827
301.744
301.658
301.571
301.486
301.404
301.328
301.258
301.194
301.136
301.083
301.036
300.993
300.956
302.383
302.381
302.376
302.369
302.36
302.347
302.332
302.313
302.29
302.263
302.23
302.192
302.147
302.095
302.036
301.972
301.901
301.825
301.744
301.66
301.574
301.491
301.41
301.335
301.266
301.202
301.143
301.09
301.041
301
302.371
302.369
302.367
302.362
302.355
302.346
302.333
302.317
302.297
302.273
302.245
302.211
302.172
302.127
302.077
302.021
301.96
301.893
301.821
301.744
301.662
301.58
301.499
301.42
301.346
301.276
301.211
301.152
301.098
301.05
302.332
302.333
302.333
302.331
302.327
302.32
302.311
302.298
302.281
302.261
302.236
302.206
302.172
302.132
302.088
302.04
301.988
301.934
301.874
301.809
301.739
301.663
301.586
301.508
301.431
301.357
301.287
301.222
301.162
301.109
302.267
302.271
302.273
302.274
302.272
302.267
302.26
302.25
302.235
302.217
302.194
302.166
302.133
302.096
302.055
302.011
301.968
301.925
301.881
301.834
301.78
301.721
301.654
301.584
301.511
301.437
301.365
301.296
301.231
301.173
302.171
302.177
302.18
302.181
302.179
302.176
302.169
302.159
302.145
302.126
302.102
302.073
302.039
302
301.959
301.915
301.877
301.845
301.816
301.787
301.755
301.716
301.672
301.619
301.56
301.496
301.429
301.361
301.296
301.235
302.034
302.035
302.034
302.031
302.028
302.024
302.017
302.007
301.991
301.97
301.942
301.908
301.869
301.825
301.778
301.733
301.697
301.669
301.651
301.639
301.628
301.615
301.597
301.569
301.532
301.488
301.437
301.382
301.325
301.268
301.826
301.812
301.798
301.787
301.782
301.779
301.773
301.762
301.745
301.719
301.687
301.651
301.611
301.567
301.521
301.475
301.441
301.416
301.401
301.393
301.389
301.385
301.382
301.379
301.372
301.359
301.332
301.298
301.258
301.216
301.473
301.442
301.423
301.414
301.413
301.414
301.412
301.404
301.388
301.365
301.336
301.303
301.266
301.226
301.182
301.138
301.106
301.081
301.065
301.056
301.052
301.051
301.05
301.051
301.049
301.045
301.042
301.033
301.018
300.996
300.872
300.866
300.87
300.882
300.898
300.912
300.922
300.925
300.922
300.912
300.896
300.874
300.848
300.817
300.781
300.744
300.715
300.691
300.673
300.659
300.65
300.643
300.637
300.633
300.627
300.62
300.611
300.599
300.585
300.568
301.223
301.188
301.162
301.14
301.121
301.104
301.088
301.072
301.058
301.045
301.032
301.018
301.005
300.991
300.976
300.959
300.939
300.914
300.883
300.844
300.801
300.762
300.73
300.705
300.687
300.673
300.663
300.654
300.644
300.631
301.23
301.188
301.158
301.133
301.114
301.096
301.081
301.068
301.055
301.042
301.03
301.018
301.005
300.991
300.976
300.959
300.938
300.913
300.882
300.846
300.808
300.772
300.742
300.717
300.699
300.684
300.672
300.661
300.649
300.635
301.23
301.19
301.16
301.136
301.117
301.1
301.085
301.071
301.059
301.046
301.034
301.022
301.009
300.995
300.979
300.961
300.939
300.913
300.883
300.849
300.814
300.781
300.753
300.729
300.71
300.695
300.681
300.668
300.655
300.64
301.231
301.196
301.168
301.145
301.126
301.109
301.095
301.081
301.068
301.056
301.044
301.031
301.017
301.003
300.986
300.966
300.942
300.915
300.885
300.853
300.821
300.79
300.763
300.741
300.722
300.705
300.69
300.676
300.662
300.646
301.239
301.208
301.182
301.161
301.142
301.126
301.111
301.097
301.084
301.071
301.058
301.044
301.029
301.013
300.995
300.973
300.948
300.92
300.889
300.859
300.828
300.8
300.774
300.752
300.733
300.716
300.7
300.685
300.67
300.653
301.252
301.226
301.204
301.184
301.167
301.15
301.135
301.12
301.105
301.091
301.077
301.062
301.046
301.028
301.008
300.984
300.956
300.927
300.896
300.866
300.837
300.81
300.785
300.764
300.745
300.728
300.711
300.694
300.678
300.661
301.274
301.253
301.234
301.216
301.199
301.182
301.166
301.15
301.134
301.118
301.102
301.085
301.067
301.047
301.025
300.998
300.968
300.937
300.905
300.875
300.847
300.821
300.797
300.776
300.757
300.739
300.722
300.704
300.687
300.669
301.306
301.29
301.274
301.258
301.241
301.223
301.205
301.187
301.17
301.152
301.133
301.114
301.094
301.072
301.046
301.017
300.984
300.95
300.917
300.887
300.859
300.833
300.81
300.789
300.77
300.752
300.733
300.715
300.696
300.678
301.349
301.338
301.325
301.309
301.292
301.274
301.254
301.234
301.214
301.193
301.172
301.15
301.127
301.101
301.073
301.04
301.004
300.967
300.933
300.901
300.873
300.847
300.824
300.804
300.784
300.765
300.746
300.726
300.707
300.688
301.402
301.395
301.386
301.372
301.355
301.335
301.314
301.291
301.267
301.243
301.219
301.193
301.166
301.137
301.105
301.068
301.028
300.989
300.952
300.92
300.89
300.864
300.84
300.819
300.799
300.779
300.759
300.739
300.718
300.698
301.464
301.463
301.456
301.444
301.427
301.406
301.382
301.357
301.33
301.302
301.274
301.244
301.213
301.18
301.143
301.102
301.059
301.016
300.977
300.942
300.911
300.883
300.858
300.836
300.815
300.794
300.773
300.752
300.731
300.71
301.537
301.538
301.533
301.522
301.506
301.485
301.459
301.431
301.401
301.369
301.337
301.303
301.267
301.229
301.188
301.142
301.095
301.049
301.007
300.969
300.936
300.906
300.879
300.855
300.833
300.81
300.789
300.767
300.744
300.724
301.614
301.619
301.615
301.606
301.591
301.569
301.543
301.513
301.48
301.445
301.408
301.37
301.329
301.286
301.24
301.19
301.138
301.089
301.043
301.002
300.965
300.933
300.904
300.877
300.853
300.829
300.806
300.783
300.76
300.739
301.696
301.703
301.701
301.693
301.679
301.658
301.631
301.6
301.565
301.526
301.486
301.443
301.398
301.35
301.299
301.244
301.189
301.135
301.086
301.041
301.001
300.965
300.932
300.903
300.876
300.851
300.826
300.802
300.777
300.755
301.782
301.79
301.789
301.782
301.768
301.748
301.721
301.69
301.653
301.612
301.569
301.523
301.473
301.421
301.365
301.306
301.247
301.189
301.136
301.087
301.042
301.002
300.966
300.934
300.904
300.876
300.849
300.823
300.797
300.774
301.868
301.876
301.876
301.87
301.857
301.837
301.811
301.779
301.742
301.7
301.655
301.605
301.553
301.497
301.437
301.374
301.311
301.25
301.193
301.14
301.09
301.046
301.006
300.97
300.936
300.905
300.876
300.847
300.819
300.795
301.951
301.96
301.961
301.955
301.942
301.923
301.898
301.867
301.83
301.788
301.741
301.689
301.634
301.576
301.514
301.448
301.382
301.318
301.257
301.199
301.145
301.096
301.052
301.012
300.974
300.939
300.907
300.875
300.845
300.818
302.029
302.038
302.039
302.034
302.022
302.004
301.979
301.949
301.913
301.871
301.824
301.772
301.715
301.656
301.592
301.526
301.458
301.392
301.328
301.266
301.208
301.155
301.106
301.06
301.018
300.979
300.942
300.907
300.874
300.845
302.096
302.105
302.107
302.103
302.092
302.075
302.052
302.023
301.988
301.947
301.902
301.85
301.794
301.735
301.671
301.605
301.538
301.47
301.403
301.339
301.278
301.22
301.166
301.116
301.069
301.025
300.984
300.945
300.908
300.876
302.15
302.159
302.162
302.158
302.149
302.134
302.112
302.085
302.053
302.015
301.971
301.922
301.867
301.81
301.748
301.684
301.618
301.55
301.483
301.417
301.353
301.292
301.235
301.18
301.127
301.078
301.032
300.988
300.947
300.911
302.186
302.195
302.2
302.198
302.191
302.178
302.159
302.135
302.105
302.069
302.029
301.983
301.932
301.878
301.819
301.758
301.694
301.63
301.564
301.498
301.434
301.37
301.309
301.25
301.193
301.138
301.086
301.037
300.991
300.951
302.202
302.212
302.218
302.218
302.214
302.204
302.188
302.167
302.141
302.109
302.072
302.03
301.983
301.933
301.878
301.82
301.761
301.7
301.638
301.576
301.513
301.45
301.387
301.325
301.264
301.204
301.147
301.093
301.042
300.997
302.194
302.205
302.213
302.217
302.216
302.21
302.197
302.18
302.157
302.129
302.095
302.057
302.014
301.967
301.915
301.859
301.803
301.747
301.691
301.636
301.58
301.523
301.463
301.401
301.338
301.275
301.214
301.155
301.099
301.049
302.161
302.175
302.185
302.191
302.194
302.191
302.182
302.168
302.148
302.123
302.093
302.057
302.015
301.968
301.916
301.858
301.801
301.748
301.701
301.658
301.616
301.571
301.521
301.467
301.407
301.345
301.282
301.22
301.16
301.106
302.101
302.116
302.129
302.137
302.141
302.14
302.134
302.122
302.104
302.081
302.051
302.015
301.972
301.92
301.863
301.797
301.735
301.684
301.645
301.616
301.592
301.567
301.538
301.501
301.455
301.401
301.342
301.281
301.22
301.163
302.009
302.024
302.036
302.044
302.047
302.046
302.041
302.029
302.012
301.988
301.956
301.917
301.869
301.809
301.745
301.671
301.607
301.556
301.523
301.503
301.493
301.487
301.483
301.473
301.45
301.417
301.372
301.32
301.266
301.211
301.872
301.882
301.887
301.891
301.892
301.89
301.884
301.873
301.855
301.83
301.795
301.75
301.698
301.634
301.565
301.485
301.419
301.37
301.34
301.327
301.326
301.333
301.344
301.354
301.361
301.357
301.336
301.304
301.263
301.219
301.661
301.658
301.653
301.649
301.648
301.648
301.646
301.637
301.621
301.594
301.559
301.514
301.463
301.4
301.328
301.246
301.182
301.134
301.107
301.096
301.098
301.109
301.126
301.146
301.165
301.181
301.19
301.186
301.166
301.137
301.319
301.308
301.302
301.302
301.308
301.314
301.318
301.316
301.306
301.286
301.256
301.217
301.171
301.113
301.045
300.966
300.907
300.862
300.835
300.823
300.822
300.831
300.845
300.863
300.882
300.898
300.912
300.919
300.92
300.909
300.816
300.824
300.836
300.855
300.877
300.899
300.915
300.925
300.928
300.92
300.903
300.876
300.84
300.793
300.735
300.668
300.617
300.578
300.552
300.537
300.53
300.531
300.536
300.544
300.553
300.561
300.565
300.565
300.559
300.549
301.215
301.175
301.146
301.122
301.101
301.083
301.065
301.05
301.035
301.021
301.007
300.994
300.981
300.966
300.951
300.933
300.911
300.882
300.844
300.799
300.756
300.721
300.696
300.678
300.666
300.657
300.65
300.643
300.635
300.623
301.211
301.161
301.128
301.103
301.082
301.065
301.05
301.036
301.024
301.011
301
300.988
300.975
300.962
300.946
300.928
300.906
300.877
300.843
300.803
300.765
300.733
300.709
300.692
300.68
300.67
300.661
300.652
300.642
300.628
301.195
301.148
301.116
301.093
301.074
301.059
301.045
301.033
301.022
301.011
301
300.988
300.976
300.962
300.946
300.926
300.903
300.875
300.842
300.806
300.772
300.744
300.722
300.705
300.692
300.682
300.671
300.661
300.649
300.634
301.181
301.142
301.115
301.094
301.077
301.062
301.049
301.038
301.027
301.016
301.005
300.993
300.98
300.966
300.948
300.928
300.903
300.874
300.843
300.81
300.78
300.754
300.734
300.718
300.705
300.694