/*--------------------------------*- C++ -*----------------------------------*\
  =========                 |
  \\      /  F ield         | OpenFOAM: The Open Source CFD Toolbox
   \\    /   O peration     | Website:  https://openfoam.org
    \\  /    A nd           | Version:  12
     \\/     M anipulation  |
\*---------------------------------------------------------------------------*/
FoamFile
{
    format      ascii;
    class       volScalarField;
    location    "250/air";
    object      alphat;
}
// * * * * * * * * * * * * * * * * * * * * * * * * * * * * * * * * * * * * * //

dimensions      [1 -1 -1 0 0 0 0];

internalField   nonuniform List<scalar> 
243000
(
0.000167619
0.000168011
0.000164484
0.000159127
0.000152645
0.000145375
0.000137463
0.000129176
0.000120544
0.000112059
0.000103353
9.58284e-05
9.81528e-05
0.000120793
0.000138092
0.000152304
0.000163141
0.00017088
0.000173122
0.000170542
0.000165489
0.00016145
0.000157635
0.000153972
0.000150423
0.000147097
0.000144839
0.000143697
0.000147238
0.000152764
0.000679488
0.000661407
0.000635842
0.000607268
0.00057796
0.000548079
0.000517878
0.000488371
0.000459643
0.000433683
0.000409748
0.000394182
0.000420958
0.000486384
0.000540678
0.000587142
0.000624235
0.000652979
0.000663288
0.000656028
0.000640056
0.000627041
0.00061452
0.000603167
0.000592656
0.000583935
0.000579469
0.000579964
0.000593897
0.000617086
0.000902096
0.000912574
0.00091079
0.000902359
0.000889925
0.000873425
0.000853054
0.000830321
0.000805452
0.000782093
0.000760338
0.000753748
0.00082247
0.000933016
0.00102679
0.00110463
0.00116225
0.00120118
0.00120592
0.00117788
0.00113173
0.00108692
0.0010409
0.000995584
0.000951305
0.000910036
0.000875047
0.000847551
0.000835821
0.000836927
0.000967697
0.000979541
0.000978358
0.000970256
0.000957754
0.000941041
0.000920532
0.000897826
0.000873297
0.000850928
0.000831631
0.000832558
0.00090966
0.00101455
0.00110478
0.00118019
0.00123562
0.00127282
0.00127817
0.00125238
0.00120788
0.00116334
0.00111709
0.00107122
0.00102648
0.000985047
0.000949998
0.000922971
0.000910666
0.000912975
0.00101845
0.00103139
0.00103092
0.0010233
0.00101095
0.000994267
0.000973883
0.000951439
0.00092741
0.000906085
0.000889129
0.000897973
0.000977911
0.00107702
0.00116283
0.00123489
0.00128752
0.0013225
0.00132833
0.00130521
0.00126308
0.00121966
0.00117404
0.00112845
0.00108402
0.00104311
0.00100857
0.000982268
0.000969651
0.000972622
0.00106144
0.00107507
0.00107508
0.00106775
0.00105542
0.00103869
0.00101838
0.000996163
0.000972579
0.000952217
0.000937414
0.000953834
0.00103377
0.00112715
0.00120847
0.00127704
0.00132689
0.00135978
0.00136612
0.00134583
0.00130639
0.00126453
0.00121999
0.00117515
0.00113144
0.00109136
0.00105755
0.00103201
0.00101922
0.00102247
0.00110031
0.00111431
0.00111441
0.00110705
0.00109446
0.00107745
0.00105701
0.00103484
0.00101153
0.00099193
0.000979067
0.00100235
0.00108076
0.00116869
0.00124578
0.00131111
0.00135852
0.00138971
0.00139665
0.00137923
0.00134264
0.00130263
0.00125946
0.00121564
0.00117286
0.0011337
0.00110067
0.00107584
0.00106301
0.00106636
0.00113714
0.00115121
0.00115098
0.00114322
0.00113003
0.0011124
0.00109155
0.00106917
0.00104593
0.00102684
0.00101571
0.001045
0.00112095
0.00120388
0.00127714
0.0013396
0.00138503
0.00141502
0.00142269
0.00140821
0.00137452
0.00133651
0.00129486
0.00125222
0.00121049
0.00117234
0.00114017
0.00111609
0.00110343
0.00110681
0.00117317
0.00118691
0.00118596
0.00117742
0.00116324
0.00114467
0.00112309
0.00110023
0.00107679
0.00105803
0.00104848
0.00108271
0.00115565
0.00123408
0.00130393
0.00136395
0.0014079
0.00143717
0.00144572
0.00143418
0.00140343
0.00136757
0.00132761
0.00128634
0.00124584
0.00120881
0.0011776
0.00115434
0.00114202
0.00114543
0.00120901
0.00122197
0.00121995
0.00121024
0.00119471
0.00117485
0.00115226
0.00112861
0.0011047
0.00108594
0.00107777
0.00111601
0.00118573
0.00126011
0.00132691
0.00138492
0.00142781
0.00145686
0.00146642
0.00145782
0.00143009
0.00139655
0.00135847
0.00131879
0.0012797
0.00124396
0.00121386
0.00119153
0.00117972
0.00118317
0.00124482
0.00125649
0.0012531
0.00124184
0.00122463
0.00120321
0.00117931
0.0011546
0.00112994
0.00111084
0.00110388
0.00114521
0.00121165
0.00128237
0.00134645
0.00140279
0.00144503
0.00147426
0.00148497
0.0014793
0.0014547
0.00142364
0.00138768
0.00134982
0.00131237
0.00127812
0.00124931
0.00122809
0.00121697
0.00122045
0.00128034
0.00129021
0.00128519
0.00127208
0.00125293
0.00122971
0.00120428
0.00117824
0.00115254
0.00113276
0.00112691
0.00117036
0.00123363
0.001301
0.00136264
0.00141759
0.00145947
0.00148924
0.00150123
0.00149844
0.0014771
0.00144871
0.0014151
0.00137933
0.00134377
0.00131124
0.00128396
0.00126402
0.00125377
0.00125725
0.00131499
0.00132262
0.00131573
0.00130055
0.0012793
0.00125412
0.00122697
0.00119937
0.00117235
0.00115157
0.00114683
0.00119136
0.00125167
0.00131595
0.00137535
0.00142912
0.00147088
0.00150145
0.00151481
0.00151483
0.00149689
0.00147134
0.00144033
0.0014069
0.00137349
0.00134293
0.00131743
0.00129898
0.00128974
0.00129318
0.00134793
0.00135294
0.00134403
0.00132669
0.00130326
0.00127605
0.00124704
0.00121767
0.00118906
0.00116703
0.00116337
0.00120816
0.00126566
0.00132703
0.00138434
0.00143708
0.00147884
0.00151044
0.00152525
0.00152792
0.0015135
0.00149096
0.00146276
0.00143193
0.00140093
0.00137258
0.00134909
0.00133232
0.00132422
0.00132755
0.00137809
0.00138033
0.00136933
0.00134982
0.00132422
0.00129497
0.00126401
0.00123273
0.00120233
0.00117917
0.00117701
0.00122098
0.00127559
0.00133406
0.00138934
0.0014411
0.00148284
0.00151558
0.00153202
0.00153716
0.00152625
0.00150688
0.00148168
0.00145366
0.00142531
0.00139938
0.0013781
0.00136316
0.00135629
0.00135943
0.00140438
0.00140386
0.00139079
0.00136919
0.00134153
0.00131028
0.00127733
0.00124418
0.00121236
0.00119093
0.00119098
0.00123291
0.00128336
0.0013378
0.00139051
0.00144114
0.00148286
0.00151655
0.00153449
0.001542
0.00153447
0.0015184
0.00149633
0.0014713
0.00144579
0.00142247
0.00140353
0.00139051
0.0013849
0.00138776
0.00142569
0.0014226
0.00140757
0.00138399
0.00135433
0.00132123
0.00128674
0.00125325
0.00122283
0.00120274
0.00120455
0.00124408
0.00129079
0.00134171
0.00139171
0.00143946
0.0014792
0.00151298
0.00153233
0.00154191
0.00153753
0.00152492
0.00150605
0.00148408
0.00146152
0.00144092
0.00142444
0.00141337
0.00140896
0.00141144
0.00144107
0.00143564
0.00141874
0.00139342
0.00136244
0.00132855
0.00129493
0.00126232
0.00123311
0.00121412
0.00121724
0.00125424
0.00129755
0.00134529
0.00139262
0.00143776
0.00147589
0.00150826
0.00152719
0.00153697
0.00153524
0.00152554
0.00151017
0.00149145
0.00147182
0.00145389
0.00143988
0.00143074
0.00142743
0.00142944
0.00144972
0.0014421
0.00142392
0.00139782
0.00136809
0.00133531
0.00130253
0.00127074
0.00124266
0.00122467
0.00122873
0.00126315
0.00130336
0.00134815
0.00139274
0.00143563
0.00147234
0.00150338
0.00152203
0.00153223
0.0015311
0.00152273
0.00150889
0.00149266
0.00147609
0.00146088
0.00144906
0.00144172
0.00143935
0.00144083
0.00145129
0.00144258
0.00142583
0.00140134
0.00137274
0.00134103
0.00130908
0.00127813
0.0012511
0.00123409
0.00123876
0.00127063
0.00130799
0.00134992
0.00139195
0.00143269
0.00146803
0.00149781
0.00151626
0.00152682
0.00152636
0.00151935
0.0015071
0.00149274
0.00147774
0.00146363
0.00145242
0.00144586
0.0014441
0.00144504
0.00145012
0.00144221
0.00142655
0.00140347
0.00137597
0.00134536
0.00131429
0.00128421
0.00125821
0.00124215
0.00124718
0.00127649
0.00131121
0.00135012
0.00138992
0.00142861
0.00146259
0.00149119
0.00150946
0.00152026
0.00152053
0.00151485
0.0015043
0.00149151
0.0014779
0.00146503
0.00145459
0.0014481
0.00144533
0.00144479
0.00144736
0.00143993
0.00142537
0.00140379
0.00137745
0.00134804
0.00131796
0.0012888
0.00126379
0.00124869
0.00125388
0.00128063
0.00131264
0.00134884
0.00138638
0.00142309
0.00145568
0.00148316
0.00150121
0.00151215
0.00151317
0.00150875
0.00149985
0.00148858
0.00147625
0.00146445
0.00145474
0.00144824
0.00144472
0.00144304
0.00144231
0.00143506
0.00142174
0.00140178
0.00137698
0.00134893
0.0013199
0.00129176
0.00126775
0.00125362
0.00125873
0.00128277
0.00131207
0.00134587
0.00138113
0.00141586
0.00144704
0.00147341
0.00149116
0.00150211
0.00150387
0.00150065
0.00149325
0.00148346
0.00147247
0.00146168
0.0014526
0.00144601
0.0014417
0.00143897
0.00143435
0.00142737
0.00141522
0.00139712
0.00137415
0.00134778
0.00132008
0.00129301
0.00127007
0.00125687
0.00126171
0.0012828
0.00130963
0.00134095
0.00137394
0.00140668
0.00143639
0.00146163
0.00147895
0.00148978
0.00149222
0.0014901
0.00148411
0.00147569
0.00146599
0.00145622
0.00144766
0.00144085
0.00143566
0.00143191
0.00142299
0.00141652
0.00140574
0.00138953
0.00136864
0.00134422
0.00131816
0.00129256
0.0012708
0.0012584
0.00126259
0.00128109
0.00130536
0.00133392
0.00136464
0.00139535
0.00142352
0.00144755
0.00146425
0.00147478
0.0014778
0.00147664
0.00147197
0.00146487
0.00145639
0.00144756
0.00143942
0.0014323
0.00142616
0.00142136
0.00140775
0.00140217
0.0013931
0.00137897
0.00136025
0.00133805
0.00131406
0.00129026
0.00127005
0.00125856
0.00126196
0.00127795
0.00129952
0.00132526
0.00135332
0.00138192
0.0014084
0.00143101
0.00144681
0.00145681
0.00146023
0.00145984
0.00145636
0.0014505
0.00144317
0.00143518
0.00142732
0.0014198
0.00141269
0.0014068
0.00138843
0.0013842
0.00137735
0.00136565
0.00134951
0.00132991
0.00130834
0.00128711
0.00126917
0.00125893
0.0012616
0.0012752
0.00129403
0.00131675
0.00134173
0.00136751
0.00139194
0.00141261
0.00142701
0.00143611
0.00143959
0.00143972
0.00143715
0.00143232
0.00142599
0.00141874
0.00141108
0.00140303
0.00139488
0.0013879
0.00136576
0.00136405
0.00136039
0.00135222
0.00133982
0.00132418
0.00130691
0.00128978
0.00127543
0.00126763
0.0012702
0.00128174
0.00129781
0.00131679
0.00133749
0.00135898
0.00137973
0.00139714
0.00140889
0.00141624
0.00141897
0.00141883
0.00141651
0.00141223
0.00140648
0.00139966
0.00139194
0.00138312
0.00137364
0.00136542
0.00135947
0.00136345
0.00136602
0.00136465
0.00135985
0.00135242
0.00134359
0.00133474
0.00132768
0.00132452
0.0013278
0.00133679
0.00134829
0.00136101
0.00137389
0.00138696
0.00139958
0.00141026
0.001417
0.0014208
0.00142155
0.00142009
0.00141688
0.00141205
0.00140581
0.00139834
0.00138962
0.00137946
0.00136826
0.00135843
0.00152998
0.00154178
0.00155133
0.00155786
0.00156203
0.00156369
0.00156373
0.00156236
0.00155969
0.00155472
0.00154978
0.00154635
0.00154364
0.00154145
0.00153639
0.00153206
0.00152964
0.00152865
0.00152855
0.0015305
0.00153377
0.00153751
0.00154105
0.00154392
0.00154563
0.00154575
0.00154389
0.00153982
0.00153371
0.00152761
0.000222433
0.000221271
0.000214912
0.000206671
0.000197223
0.000187002
0.000176283
0.000165768
0.000155849
0.000148256
0.00014382
0.000146189
0.000154718
0.000170533
0.000187686
0.000204028
0.000217526
0.000228492
0.000231477
0.000226975
0.000221087
0.000216065
0.000211639
0.000207826
0.000204412
0.000201483
0.000199721
0.000199026
0.000201726
0.000207138
0.00128722
0.00126773
0.00118899
0.00110169
0.00102114
0.000944593
0.000876046
0.000822908
0.000784689
0.00076858
0.000768153
0.00078454
0.000797385
0.000856135
0.000934935
0.00101186
0.00107401
0.0011413
0.00116934
0.00114746
0.0011172
0.00109267
0.00106773
0.00104352
0.00101866
0.000997667
0.000984806
0.00097718
0.000975039
0.00099961
0.00236244
0.00242147
0.00232664
0.00218198
0.00203339
0.00188672
0.00175269
0.00164806
0.00157285
0.00154301
0.00154467
0.00157287
0.00160199
0.00171009
0.0018533
0.00198545
0.00208199
0.00219391
0.00226061
0.00224534
0.00220308
0.00216227
0.00211422
0.00206267
0.00200825
0.0019611
0.00192871
0.00191095
0.00190943
0.00196691
0.00332782
0.00345384
0.00336677
0.00319312
0.00299804
0.00279891
0.00261369
0.00246607
0.00235885
0.00232037
0.00233094
0.00236558
0.00241715
0.00256708
0.00275892
0.00292886
0.00304377
0.00318534
0.00329151
0.00329695
0.003256
0.00320592
0.00313828
0.00306051
0.00297604
0.00290039
0.00285022
0.00282541
0.00282216
0.00291061
0.00417214
0.00436952
0.00428778
0.00409286
0.00387088
0.00363989
0.00342147
0.00324463
0.00311776
0.00307761
0.00309659
0.00313999
0.00320792
0.00339239
0.00361582
0.00381053
0.00393741
0.0040987
0.0042404
0.00427203
0.00423928
0.00418335
0.00409869
0.00399482
0.003886
0.003795
0.00373216
0.00370228
0.00369727
0.00381054
0.00495736
0.00516207
0.00507706
0.00487866
0.00464701
0.00440082
0.00416481
0.00397232
0.00383451
0.00379716
0.00382387
0.0038871
0.00395983
0.00416762
0.00440876
0.00461784
0.00475536
0.00492913
0.00509849
0.00515666
0.00513682
0.00507598
0.00498001
0.00486665
0.00475007
0.00465211
0.00458243
0.00454743
0.00453788
0.0046571
0.00565954
0.00584707
0.00575396
0.00556017
0.00533073
0.00508207
0.00484138
0.00464483
0.00450445
0.0044727
0.00450646
0.00457742
0.00467051
0.00487859
0.00512702
0.00534245
0.00548969
0.00567134
0.00585758
0.00593785
0.00593816
0.00589827
0.00581155
0.00569631
0.00556588
0.00544918
0.00536136
0.00530785
0.00528941
0.00540653
0.00628462
0.00644096
0.00633591
0.00615191
0.005931
0.00568707
0.0054509
0.00525901
0.00512303
0.00509667
0.00513722
0.00520939
0.00530538
0.0055234
0.00576368
0.0059792
0.00613401
0.00632283
0.00651477
0.00663575
0.00665252
0.00661169
0.00651986
0.00639557
0.00625855
0.00613568
0.00604164
0.00598586
0.0059702
0.006078
0.0068413
0.00695802
0.00684042
0.00666902
0.00645647
0.00622113
0.00599481
0.00581272
0.00568658
0.00566564
0.00571007
0.00577819
0.0058701
0.00608386
0.00631513
0.00652703
0.00668815
0.00688315
0.0070732
0.00721523
0.00724863
0.00721617
0.00712847
0.00700589
0.00687008
0.0067468
0.00665156
0.00659533
0.00658121
0.00667492
0.00733646
0.00740803
0.00728375
0.00712097
0.00691487
0.00668988
0.00647619
0.00630548
0.00619207
0.00617271
0.00621614
0.00627944
0.00636234
0.00656499
0.00678196
0.00698796
0.00715572
0.00735509
0.00754177
0.00769949
0.00774911
0.00772696
0.00764811
0.00753337
0.00740445
0.00728587
0.0071936
0.00713897
0.00712579
0.00720294
0.00777467
0.00779895
0.00767472
0.00751327
0.00731263
0.00709802
0.00689737
0.00673856
0.00663652
0.0066158
0.00665365
0.0067098
0.00678145
0.0069674
0.00716709
0.00736582
0.00754055
0.00774231
0.00792689
0.00809477
0.00816117
0.0081516
0.00808558
0.00798347
0.00786614
0.00775656
0.00767081
0.00761997
0.00760769
0.00766764
0.00815755
0.00813604
0.00801406
0.00785005
0.00765358
0.00744846
0.00725992
0.00711186
0.00701867
0.00699334
0.00702169
0.00706801
0.00712832
0.00729344
0.00747433
0.00766489
0.00784639
0.00804963
0.00823476
0.00840596
0.00849125
0.00849677
0.00844669
0.00836082
0.0082587
0.0081616
0.00808541
0.0080404
0.00802938
0.0080724
0.0084836
0.00842217
0.0082987
0.00813204
0.00793899
0.00774228
0.00756424
0.00742487
0.00733717
0.00730427
0.0073196
0.00735434
0.00740418
0.00754587
0.00770738
0.00788893
0.0080753
0.00828162
0.00846861
0.00863844
0.00874364
0.00876678
0.00873507
0.0086681
0.00858399
0.00850203
0.00843771
0.00840027
0.00839104
0.00841763
0.008748
0.00865497
0.00852699
0.008358
0.00816813
0.0079789
0.00780954
0.00767631
0.00758987
0.00754753
0.00754605
0.00756911
0.00760973
0.00772693
0.00786913
0.00804087
0.00822936
0.0084405
0.00862973
0.00879656
0.00892038
0.0089635
0.00895201
0.00890588
0.00884185
0.00877704
0.0087262
0.00869744
0.00869041
0.00870157
0.00894289
0.00883278
0.00869667
0.00852548
0.0083389
0.00815648
0.00799407
0.00786408
0.00777428
0.0077195
0.00769697
0.00771115
0.00774346
0.00783751
0.00796128
0.00812259
0.0083105
0.00852619
0.00871825
0.00888414
0.00902165
0.00908687
0.00909709
0.0090731
0.00903054
0.00898433
0.00894802
0.00892854
0.00892376
0.00892066
0.00906565
0.00895015
0.00880408
0.00863126
0.00844834
0.00827236
0.0081153
0.00798472
0.00788736
0.00780996
0.00776341
0.00777477
0.00779886
0.00787565
0.00798341
0.00813455
0.00831967
0.00853675
0.00873577
0.00890318
0.00904628
0.00913572
0.00916891
0.00916782
0.00914754
0.00912088
0.00909967
0.00908969
0.00908703
0.00907071
0.00911897
0.00899839
0.00884488
0.00867167
0.0084927
0.00832287
0.00816949
0.0080311
0.00790881
0.00781342
0.00774681
0.00775212
0.00775942
0.00781535
0.00790904
0.00805968
0.00825284
0.00847279
0.00867821
0.00885134
0.00899638
0.0091084
0.00916569
0.00918786
0.0091902
0.00918372
0.00917796
0.00917738
0.0091767
0.00914841
0.00910185
0.00897476
0.00881468
0.0086418
0.00846571
0.00830054
0.00813479
0.00798075
0.00784084
0.00773259
0.00765076
0.00764416
0.00763094
0.00766407
0.00773942
0.00788112
0.00807413
0.00830833
0.0085305
0.00872425
0.00887261
0.00900229
0.00908523
0.00913101
0.00915596
0.0091703
0.00918069
0.00918931
0.00919069
0.0091526
0.00901427
0.00887966
0.00871256
0.00854033
0.00835112
0.00817055
0.00799731
0.0078363
0.00768711
0.00757187
0.00747913
0.00745522
0.00742097
0.00743039
0.00748426
0.00761094
0.00780016
0.00804668
0.00827613
0.0084815
0.00865191
0.00880624
0.00892271
0.0089944
0.00904186
0.0090775
0.00910658
0.00912493
0.00912896
0.00908606
0.00886225
0.00872313
0.00854102
0.00835159
0.00815437
0.00796376
0.00778137
0.00760944
0.00745491
0.00733736
0.00723603
0.00719269
0.0071383
0.00712412
0.00715531
0.0072639
0.00744316
0.00767927
0.00790793
0.00812376
0.00831521
0.00848558
0.00862044
0.00873034
0.00882159
0.0088948
0.00895255
0.00898503
0.00899316
0.00895869
0.00863385
0.0084667
0.00827957
0.00808613
0.00788436
0.00768632
0.00749951
0.00732118
0.00715789
0.00703628
0.00692724
0.00686484
0.00679281
0.00675593
0.00676554
0.00685286
0.00701671
0.00723584
0.00745584
0.00767329
0.00787768
0.00806216
0.00821652
0.0083527
0.00846385
0.00855602
0.00863084
0.00868366
0.00871343
0.00871147
0.00825285
0.00806839
0.00789261
0.00771676
0.00752974
0.00734152
0.00715706
0.0069761
0.00680668
0.00667718
0.00655983
0.00648068
0.00639531
0.00633802
0.00632709
0.00639447
0.00654053
0.00673646
0.00694054
0.00715089
0.00735854
0.00755298
0.00772129
0.00787629
0.00801211
0.00812345
0.00821182
0.00827911
0.00832475
0.00834634
0.00776102
0.00757864
0.00741909
0.0072635
0.00709823
0.00693243
0.006758
0.00657647
0.00640884
0.00626773
0.00614225
0.00605065
0.00595713
0.00588419
0.0058568
0.00590542
0.00603214
0.00620161
0.00638374
0.00657862
0.0067803
0.00697809
0.00715391
0.00731992
0.00747136
0.00759932
0.00770088
0.00777718
0.00782954
0.00786468
0.00718286
0.0070197
0.00688485
0.00675026
0.00661831
0.00647065
0.00630241
0.00612752
0.00596869
0.00581585
0.00568347
0.00558501
0.00548942
0.00540861
0.00537067
0.00540306
0.00551005
0.00565206
0.00580774
0.00597998
0.00616696
0.00635931
0.00653555
0.006705
0.0068638
0.00700092
0.00711058
0.00719137
0.00724644
0.00728754
0.00654347
0.00641262
0.00630767
0.00620641
0.00608974
0.00595467
0.00580331
0.00564267
0.00548646
0.00532924
0.00519537
0.00509493
0.00500406
0.00492746
0.00488466
0.0049076
0.00499516
0.00511057
0.00523746
0.00538149
0.00554462
0.00572031
0.00588941
0.0060532
0.00621106
0.00635025
0.00646273
0.00654599
0.00660021
0.0066407
0.00586486
0.00577616
0.00569942
0.00561905
0.00552169
0.00540416
0.00526862
0.0051212
0.00497256
0.00482154
0.00469649
0.00460196
0.004522
0.00446125
0.00442419
0.00444483
0.00451685
0.00461166
0.00470639
0.00481784
0.00494686
0.00509264
0.00524208
0.00538903
0.00553367
0.00566162
0.00576579
0.00584524
0.00590275
0.00594561
0.00516841
0.00511313
0.00506657
0.00500881
0.0049283
0.00482924
0.00471341
0.00458607
0.00445617
0.00432807
0.00422449
0.00414714
0.00408734
0.00404682
0.00402839
0.00405284
0.00411448
0.00419017
0.00425937
0.00433768
0.0044255
0.00453096
0.00463963
0.00475165
0.00486584
0.0049729
0.0050632
0.00513031
0.0051778
0.00521486
0.00447219
0.0044517
0.00443533
0.00440352
0.00434856
0.00427706
0.00419269
0.00409919
0.00400441
0.00391405
0.00384238
0.00378762
0.00374828
0.00372863
0.00372649
0.00377103
0.0038423
0.00391413
0.00396631
0.00401511
0.00405359
0.00408957
0.00414118
0.00420134
0.00426854
0.0043414
0.00440512
0.00444721
0.00447501
0.00449786
0.00380996
0.00383357
0.00385422
0.00385725
0.00383722
0.00380483
0.00376238
0.00371148
0.00365794
0.0036042
0.00356332
0.00354262
0.00353842
0.00354699
0.00357229
0.00363608
0.00371245
0.00378446
0.00383317
0.00386924
0.00388504
0.00388511
0.00387975
0.00387289
0.00386364
0.00385183
0.00384184
0.00383371
0.00381948
0.0038137
0.00355338
0.00356552
0.00356502
0.00356038
0.00355186
0.00354281
0.00353359
0.00351935
0.00350354
0.00348766
0.0034777
0.00348304
0.00350294
0.00354158
0.00360079
0.00369455
0.00379265
0.00388564
0.00395055
0.00399121
0.00400101
0.00398367
0.00394749
0.00390096
0.00384893
0.00379485
0.00374219
0.00369257
0.00363795
0.00357892
0.000257956
0.000256999
0.000249804
0.000240508
0.000229818
0.000218302
0.000206443
0.000195303
0.000185453
0.000178981
0.000176704
0.000180866
0.000190285
0.000206669
0.000224962
0.000243031
0.000258168
0.000271026
0.000272793
0.000265559
0.000257596
0.000251042
0.000245861
0.0002421
0.00023919
0.000236836
0.000235349
0.000234456
0.000236054
0.000240869
0.00172557
0.00177543
0.00169577
0.00158723
0.00147855
0.00137214
0.00127706
0.0012047
0.00115443
0.00113481
0.00113648
0.0011611
0.0011913
0.00127672
0.0013896
0.00149513
0.00156869
0.00165363
0.0016716
0.001615
0.00156011
0.00152405
0.00149754
0.00147291
0.00144469
0.00141799
0.00139819
0.00138045
0.00135881
0.00137906
0.00329482
0.00345676
0.00336644
0.00318145
0.00298364
0.00278616
0.00260862
0.00247556
0.00238529
0.00236004
0.00237342
0.00241614
0.00245783
0.00259728
0.00278163
0.00293914
0.00302951
0.00315297
0.00320267
0.00314315
0.00307884
0.00303853
0.0030046
0.00296437
0.00291026
0.00285511
0.00281276
0.00278047
0.00275408
0.00282084
0.00471488
0.00496106
0.0048745
0.00464388
0.00438848
0.00412945
0.00389544
0.00371973
0.00360166
0.00357978
0.00360568
0.00365907
0.0037068
0.00387889
0.0040957
0.00427242
0.00435543
0.00449766
0.0045823
0.00454893
0.0045058
0.00448178
0.00445255
0.00440447
0.00433038
0.00425083
0.00418728
0.00414096
0.00412089
0.00423286
0.00600047
0.00628191
0.00618007
0.00592751
0.00564371
0.00535352
0.00508851
0.00488946
0.00475612
0.00473918
0.00477479
0.00483228
0.00488119
0.00507072
0.00529589
0.00547281
0.00554786
0.0056996
0.00581928
0.00582566
0.00581824
0.0058182
0.00579715
0.00574373
0.00565259
0.00555254
0.00547056
0.00542215
0.00540556
0.00555102
0.00715757
0.00742401
0.00730203
0.00703861
0.00675152
0.00644953
0.00617383
0.00596913
0.0058348
0.00583301
0.00587731
0.00592641
0.00595715
0.00615336
0.0063725
0.00654012
0.00661235
0.00676909
0.00692079
0.00697054
0.00700503
0.00702958
0.00701571
0.00695798
0.00687001
0.00677665
0.00670001
0.0066609
0.00664668
0.00679045
0.00816866
0.00839408
0.00824978
0.00799439
0.00771541
0.00741964
0.00714727
0.0069484
0.00681799
0.00682193
0.00686491
0.00690848
0.00694548
0.00712057
0.00732203
0.00747734
0.00755148
0.00771076
0.00788917
0.00797637
0.00805961
0.00813644
0.00815485
0.00811002
0.00801446
0.0078995
0.00780026
0.00773975
0.00772489
0.00786374
0.00904944
0.00922166
0.0090575
0.00882073
0.00855551
0.00827004
0.00801003
0.00782277
0.0076999
0.00770569
0.0077472
0.00777934
0.00779696
0.007963
0.00814737
0.00829037
0.00836972
0.00853238
0.00873814
0.00889246
0.00900451
0.00908032
0.00909494
0.00904811
0.00895027
0.00883659
0.00874015
0.00868476
0.00867681
0.00880287
0.00981764
0.00993222
0.00975366
0.00953868
0.0092832
0.00901158
0.00876767
0.00859367
0.00848008
0.00848346
0.00851925
0.00854282
0.00853889
0.00869008
0.00885717
0.00899239
0.00908009
0.00924577
0.00946769
0.00964345
0.00977891
0.00986879
0.0098916
0.00984934
0.00975854
0.00965288
0.00956348
0.00951358
0.00951085
0.00962
0.0104891
0.0105435
0.0103643
0.0101608
0.00991319
0.00965554
0.00942789
0.00926593
0.00916186
0.00915848
0.00918532
0.00919995
0.00917723
0.00931207
0.00946245
0.00959377
0.00969475
0.00986615
0.0100944
0.0102915
0.0104395
0.0105357
0.0105649
0.010531
0.0104519
0.0103587
0.0102799
0.0102374
0.0102394
0.0103306
0.0110753
0.01107
0.0109007
0.0106979
0.0104566
0.0102114
0.00999813
0.00984559
0.0097499
0.00973623
0.00975163
0.00975591
0.00971963
0.00983854
0.0099732
0.0101039
0.010222
0.0104006
0.0106303
0.0108436
0.0109989
0.0110978
0.0111325
0.0111088
0.0110438
0.0109655
0.0109001
0.0108674
0.0108741
0.0109479
0.0115813
0.0115224
0.011363
0.0111567
0.0109201
0.0106854
0.0104839
0.0103379
0.0102485
0.0102219
0.0102244
0.0102172
0.0101734
0.0102755
0.0103961
0.0105282
0.0106652
0.0108526
0.0110802
0.0113067
0.0114665
0.0115669
0.011607
0.0115941
0.0115439
0.0114819
0.0114315
0.0114105
0.0114226
0.0114802
0.012006
0.0119058
0.0117476
0.0115389
0.011306
0.01108
0.0108879
0.0107465
0.0106599
0.010619
0.0106079
0.0105894
0.010542
0.0106259
0.0107333
0.0108674
0.0110239
0.0112207
0.0114448
0.0116826
0.0118461
0.0119487
0.0119944
0.0119925
0.0119576
0.0119119
0.0118773
0.0118689
0.0118872
0.0119294
0.0123417
0.0122176
0.0120539
0.0118425
0.0116132
0.0113948
0.01121
0.0110713
0.0109848
0.0109287
0.0109035
0.0108741
0.0108251
0.0108884
0.0109825
0.0111178
0.0112935
0.0114999
0.011721
0.0119686
0.012136
0.0122426
0.012295
0.0123044
0.012285
0.012256
0.0122369
0.0122407
0.0122652
0.0122941
0.0125819
0.0124531
0.0122775
0.0120634
0.011838
0.0116268
0.0114476
0.0113105
0.0112213
0.0111488
0.0111089
0.0110688
0.0110179
0.011057
0.0111361
0.011271
0.0114657
0.0116821
0.0119027
0.0121576
0.0123307
0.0124438
0.0125046
0.0125261
0.0125223
0.0125101
0.0125068
0.0125229
0.0125529
0.0125692
0.0127311
0.0125968
0.0124111
0.012196
0.0119754
0.0117714
0.0115963
0.0114597
0.0113624
0.0112692
0.0112127
0.011162
0.0111056
0.0111179
0.0111805
0.0113139
0.0115273
0.0117579
0.0119823
0.0122397
0.0124213
0.0125438
0.0126159
0.0126509
0.0126632
0.0126681
0.0126805
0.0127092
0.0127452
0.0127506
0.0127851
0.0126403
0.0124475
0.0122336
0.0120188
0.0118225
0.0116476
0.0115043
0.0113964
0.0112847
0.0112127
0.0111524
0.0110808
0.0110663
0.0111095
0.0112362
0.0114603
0.011713
0.0119486
0.0122068
0.0123979
0.0125326
0.0126195
0.0126703
0.0126999
0.0127228
0.0127515
0.0127932
0.0128363
0.0128335
0.0127386
0.0125781
0.0123781
0.0121679
0.0119584
0.0117629
0.0115873
0.0114401
0.0113181
0.0111917
0.0111054
0.011033
0.01094
0.010899
0.0109206
0.0110366
0.0112658
0.0115352
0.0117869
0.0120427
0.0122446
0.0124006
0.0125056
0.0125749
0.0126236
0.0126668
0.012713
0.0127688
0.012822
0.0128174
0.0125903
0.0124115
0.0122023
0.0119818
0.0117721
0.0115838
0.0114109
0.0112622
0.0111235
0.0109865
0.0108877
0.0107948
0.0106807
0.0106144
0.0106126
0.0107153
0.01095
0.0112325
0.011496
0.0117474
0.0119435
0.012119
0.0122494
0.0123465
0.0124236
0.0124916
0.0125582
0.0126309
0.0126991
0.0127095
0.012362
0.0121559
0.01193
0.0116982
0.0114804
0.0112857
0.0111159
0.0109664
0.0108095
0.0106661
0.0105498
0.0104361
0.0103026
0.0102131
0.0101879
0.0102809
0.0105177
0.0108052
0.0110804
0.011325
0.0115052
0.0116679
0.0118109
0.0119347
0.0120405
0.0121352
0.0122282
0.0123246
0.0124157
0.0124701
0.0119784
0.0117326
0.0115073
0.0112963
0.0110792
0.0108816
0.0107056
0.0105491
0.0103746
0.010226
0.0100885
0.00995673
0.00980897
0.00968785
0.00965328
0.00974832
0.00998465
0.0102752
0.0105555
0.0107871
0.0109526
0.0111013
0.011248
0.0113862
0.0115077
0.0116222
0.0117371
0.0118567
0.0119755
0.0120716
0.0114026
0.0111474
0.0109346
0.0107403
0.0105494
0.0103614
0.0101788
0.0100094
0.00981977
0.00966349
0.00950762
0.00936054
0.00919802
0.00907303
0.00903292
0.00913726
0.00937418
0.00966788
0.00994315
0.0101559
0.0103049
0.0104317
0.0105539
0.0107
0.0108429
0.0109827
0.0111187
0.0112589
0.0113999
0.011525
0.0106709
0.0104327
0.0102398
0.01006
0.00989543
0.00971458
0.00953462
0.00935332
0.00915342
0.00898701
0.0088191
0.00865973
0.00849753
0.00837764
0.00835954
0.00847693
0.00871981
0.00901575
0.00927811
0.0094674
0.00959386
0.00969107
0.00978065
0.00989121
0.010041
0.0101963
0.0103525
0.0105103
0.0106652
0.0108081
0.00979933
0.00959893
0.00942808
0.00927556
0.00912223
0.00895666
0.00877947
0.00859294
0.00839076
0.00821474
0.00804467
0.00788508
0.00773601
0.00765402
0.00766934
0.00780626
0.0080618
0.00835821
0.00860441
0.0087676
0.008865
0.00892563
0.00897418
0.00903464
0.00913495
0.00928964
0.00945243
0.00961973
0.00978333
0.00993526
0.0088177
0.00865792
0.00851692
0.00839196
0.00825732
0.00810452
0.00793509
0.00775287
0.00755794
0.00737983
0.00721916
0.00707101
0.00697241
0.00694369
0.00700344
0.00717068
0.00744203
0.00773998
0.00797148
0.00810896
0.00817211
0.00819295
0.008193
0.00819847
0.00823047
0.00830939
0.00845384
0.00861805
0.00877847
0.00893084
0.00775911
0.00763941
0.00753277
0.00743895
0.00732926
0.00719521
0.00703995
0.00687362
0.00670011
0.00652995
0.00639085
0.00630482
0.00626797
0.00629273
0.00640076
0.00661214
0.00690575
0.00720826
0.00743071
0.00754722
0.00757549
0.0075523
0.00750096
0.00744837
0.00741191
0.00741058
0.00745064
0.00755084
0.00769298
0.00783614
0.00666756
0.00658793
0.00652562
0.00646235
0.00638309
0.00627725
0.00614725
0.00600793
0.00587118
0.00575995
0.0056809
0.00564931
0.00566249
0.00573737
0.00590351
0.00617195
0.00649788
0.0068181
0.00704295
0.00714893
0.00714509
0.00707009
0.00696008
0.00684325
0.0067422
0.00667246
0.0066232
0.00661543
0.00664444
0.00670705
0.00576974
0.00570288
0.00565117
0.00560006
0.00553913
0.00546928
0.00539106
0.00530166
0.00521802
0.00515017
0.00511391
0.00512384
0.00518538
0.00532316
0.00555943
0.00590799
0.0062894
0.00665409
0.00690548
0.0070141
0.0069817
0.00685334
0.00667505
0.0064827
0.00630121
0.00614591
0.00602241
0.00593303
0.00587181
0.00582349
0.0051879
0.00511594
0.00505734
0.00500313
0.0049451
0.00488917
0.00483706
0.00477747
0.00473287
0.00470766
0.00471724
0.00477851
0.00490437
0.00513309
0.00547958
0.00594386
0.00641683
0.00686638
0.00717969
0.00732152
0.00728819
0.00712723
0.00688167
0.00659285
0.00629629
0.00601902
0.00577997
0.00558776
0.00542987
0.00527944
0.00540735
0.0052237
0.0050537
0.00491024
0.00479662
0.00471394
0.00465798
0.00461775
0.00460719
0.00462871
0.00469498
0.00482393
0.00503875
0.00539359
0.00590899
0.00654043
0.00715966
0.00774348
0.00817195
0.0084055
0.00843629
0.00830733
0.00805089
0.00770765
0.00731972
0.00692596
0.00655392
0.00621753
0.00591533
0.00561129
0.000286074
0.000285539
0.000276678
0.000266529
0.000255025
0.000242661