/*--------------------------------*- C++ -*----------------------------------*\
  =========                 |
  \\      /  F ield         | OpenFOAM: The Open Source CFD Toolbox
   \\    /   O peration     | Website:  https://openfoam.org
    \\  /    A nd           | Version:  12
     \\/     M anipulation  |
\*---------------------------------------------------------------------------*/
FoamFile
{
    format      ascii;
    class       volScalarField;
    location    "250/air";
    object      epsilon;
}
// * * * * * * * * * * * * * * * * * * * * * * * * * * * * * * * * * * * * * //

dimensions      [0 2 -3 0 0 0 0];

internalField   nonuniform List<scalar> 
243000
(
3.44501
4.03672
4.39461
4.59677
4.66052
4.59112
4.38948
4.08038
3.67608
3.23669
2.74908
2.36297
2.79052
5.21464
7.79434
10.3687
12.4664
13.8141
13.643
12.2394
10.3556
8.78738
7.38116
6.14042
5.06449
4.15741
3.46299
2.93627
2.72779
2.6205
2.8219
3.02944
3.12421
3.14482
3.11416
3.02861
2.88971
2.71553
2.5107
2.31406
2.11806
2.03641
2.66448
4.15371
5.728
7.28287
8.56742
9.45854
9.42144
8.56019
7.36505
6.32878
5.37675
4.53877
3.80847
3.19806
2.72648
2.37224
2.19919
2.12141
3.39928
3.52053
3.50346
3.41036
3.27389
3.09693
2.88678
2.66409
2.43467
2.23503
2.06419
2.04174
2.68596
3.85422
5.08388
6.28929
7.2924
8.02352
8.09891
7.54896
6.70231
5.9394
5.21554
4.56171
3.97911
3.48519
3.10182
2.82266
2.70964
2.72187
4.19667
4.35555
4.34438
4.2412
4.08234
3.87451
3.62867
3.36941
3.10468
2.88076
2.70383
2.75983
3.61418
4.94731
6.3326
7.67537
8.77105
9.55791
9.65657
9.08357
8.15577
7.28781
6.45082
5.68556
5.00115
4.42131
3.96944
3.6445
3.50328
3.53116
4.89437
5.08768
5.08623
4.97823
4.80314
4.57162
4.29846
4.01129
3.71999
3.48025
3.3072
3.46562
4.47462
5.91213
7.38579
8.80013
9.93539
10.737
10.8561
10.2959
9.33625
8.4066
7.49514
6.65172
5.89449
5.25307
4.75144
4.39345
4.22879
4.26863
5.5449
5.76699
5.77312
5.65978
5.4688
5.21512
4.91759
4.60635
4.2929
4.04228
3.87937
4.1536
5.27371
6.77204
8.29366
9.74261
10.8902
11.6906
11.8314
11.3054
10.3442
9.38017
8.41943
7.52014
6.70907
6.02145
5.48156
5.0975
4.91251
4.96014
6.18313
6.42926
6.43724
6.31428
6.10384
5.82551
5.50263
5.1676
4.83333
4.57375
4.42512
4.81934
6.01651
7.54647
9.09189
10.556
11.7058
12.5026
12.6682
12.1904
11.2476
10.2689
9.27596
8.33527
7.48212
6.75699
6.18538
5.77925
5.57715
5.63039
6.83482
7.09966
7.10145
6.96219
6.72588
6.41758
6.06567
5.70453
5.34865
5.07982
4.9487
5.45952
6.70647
8.24933
9.80428
11.2748
12.4257
13.2242
13.419
13.0007
12.0893
11.1094
10.096
9.12459
8.23809
7.48233
6.88442
6.46002
6.24473
6.30264
7.51821
7.7946
7.78119
7.61705
7.34637
7.00101
6.61457
6.2233
5.8432
5.56399
5.45236
6.0708
7.34523
8.88923
10.4449
11.9186
13.0749
13.8833
14.1125
13.7621
12.8935
11.9241
10.9014
9.90886
8.9969
8.21657
7.59725
7.1582
6.93346
6.99603
8.24492
8.52265
8.48502
8.28577
7.97108
7.58046
7.1531
6.7265
6.31838
6.0248
5.9339
6.64768
7.93303
9.46953
11.0199
12.4963
13.6632
14.4917
14.7607
14.4859
13.6705
12.7238
11.7029
10.6993
9.77011
8.97192
8.33656
7.88705
7.65691
7.72441
9.01913
9.28516
9.21394
8.96847
8.59985
8.15577
7.68076
7.21306
6.77215
6.45918
6.38992
7.18319
8.46674
9.98874
11.5286
13.0076
14.1903
15.0485
15.3625
15.1698
14.4194
13.5075
12.501
11.4976
10.5609
9.7527
9.10802
8.65352
8.42265
8.49519
9.83635
10.0755
9.96082
9.65844
9.22675
8.72171
8.19275
7.67804
7.19905
6.86105
6.81427
7.66825
8.9404
10.441
11.9653
13.4454
14.6475
15.5434
15.9074
15.8017
15.1286
14.265
13.2866
12.2964
11.3634
10.555
9.90961
9.45688
9.23068
9.30791
10.6824
10.8783
10.7105
10.3422
9.84017
9.26826
8.67988
8.1127
7.59019
7.22155
7.19753
8.09237
9.34479
10.817
12.3197
13.798
15.0205
15.96
16.3773
16.3613
15.7787
14.977
14.0417
13.0791
12.1632
11.3661
10.7304
10.2876
10.0719
10.1527
11.5329
11.6698
11.4407
11.0003
10.4233
9.78081
9.12898
8.5047
7.93378
7.53021
7.5277
8.44502
9.66921
11.1052
12.5795
14.0509
15.2915
16.2777
16.7507
16.824
16.3433
15.6174
14.7408
13.8214
12.9375
12.1645
11.55
11.1264
10.9273
11.0099
12.3532
12.4194
12.1236
11.6081
10.9548
10.2408
9.52352
8.83923
8.21644
7.78112
7.8028
8.72124
9.90555
11.2945
12.7321
14.1888
15.4406
16.4724
17.0043
17.1635
16.7923
16.1557
15.3528
14.4925
13.6562
12.9213
12.3401
11.9446
11.7676
11.8498
13.1021
13.0914
12.7269
12.1374
11.4101
10.6267
9.84464
9.10213
8.43492
8.02263
8.08615
8.9706
10.0828
11.3926
12.7771
14.2051
15.4594
16.5258
17.1125
17.3552
17.0953
16.5597
15.8441
15.0581
14.2845
13.6016
13.0651
12.7062
12.5556
12.6341
13.7345
13.6478
13.2161
12.5567
11.7597
10.9122
10.0781
9.31237
8.66495
8.27001
8.36559
9.21016
10.2561
11.4936
12.8075
14.1542
15.3512
16.4294
17.0633
17.3779
17.2255
16.8005
16.1828
15.483
14.7853
14.1672
13.6861
13.3706
13.2484
13.3192
14.2088
14.0494
13.5551
12.8343
11.9888
11.1057
10.2814
9.52518
8.89343
8.5128
8.63165
9.43275
10.4163
11.5849
12.8306
14.1041
15.2514
16.2736
16.8914
17.2308
17.1681
16.8453
16.3423
15.7401
15.1258
14.5802
14.1627
13.8957
13.8019
13.8608
14.488
14.2605
13.7217
12.9686
12.148
11.2867
10.4725
9.72599
9.1087
8.74182
8.87657
9.63124
10.5549
11.6572
12.8324
14.0415
15.1418
16.1143
16.7207
17.0677
17.0271
16.7525
16.3074
15.801
15.2815
14.8144
14.4586
14.2416
14.1735
14.2177
14.5527
14.2836
13.7835
13.0764
12.2811
11.4419
10.6396
9.90379
9.3014
8.94937
9.09348
9.79954
10.6657
11.701
12.8094
13.9553
15.0081
15.9346
16.5316
16.8839
16.8681
16.6423
16.2546
15.8037
15.335
14.9026
14.5687
14.3837
14.3334
14.3614
14.5194
14.2794
13.8104
13.1432
12.3756
11.561
10.774
10.0518
9.46528
9.12901
9.27673
9.93225
10.7418
11.7041
12.752
13.8358
14.8397
15.7225
16.3091
16.6641
16.6744
16.4954
16.1659
15.765
15.3423
14.95
14.6414
14.4538
14.3737
14.358
14.4383
14.2154
13.7809
13.1572
12.4215
11.6364
10.8699
10.165
9.59548
9.27616
9.4225
10.0253
10.7734
11.6686
12.6536
13.6749
14.6284
15.4682
16.0413
16.3958
16.4323
16.2969
16.0223
15.6717
15.292
14.9356
14.6509
14.4612
14.3585
14.3092
14.2883
14.0734
13.6791
13.1047
12.4132
11.6635
10.9221
10.2386
9.68793
9.38734
9.52692
10.0704
10.756
11.589
12.5086
13.4659
14.367
15.1632
15.7185
16.0684
16.1293
16.0342
15.8095
15.5089
15.1748
14.8526
14.588
14.3958
14.2701
14.1902
14.0525
13.8481
13.4932
12.977
12.3395
11.6367
10.929
10.2703
9.74188
9.45979
9.5886
10.0656
10.693
11.4597
12.3122
13.2032
14.0498
14.8001
15.3323
15.6725
15.7549
15.6954
15.5174
15.2634
14.9732
14.6861
14.4389
14.2415
14.0914
13.9829
13.7189
13.5329
13.2235
12.7669
12.1929
11.5461
10.8826
10.2603
9.75845
9.49209
9.60074
10.0195
10.5835
11.2773
12.0616
12.8839
13.6727
14.3732
14.8757
15.2002
15.2989
15.2696
15.1347
14.9255
14.6771
14.4227
14.1906
13.9864
13.8113
13.6744
13.2789
13.1219
12.8678
12.4766
11.9697
11.3873
10.7806
10.2044
9.73871
9.49097
9.57812
9.93826
10.4357
11.0544
11.7599
12.5115
13.2377
13.8819
14.346
14.6467
14.7544
14.7484
14.6514
14.4837
14.2748
14.05
13.83
13.6186
13.4193
13.2548
12.7322
12.6175
12.4314
12.1146
11.6847
11.177
10.6369
10.1239
9.71158
9.48961
9.55802
9.86252
10.2943
10.8335
11.4517
12.1165
12.7712
13.3455
13.7573
14.0236
14.1291
14.1376
14.0692
13.9361
13.7609
13.5619
13.352
13.1318
12.9095
12.7202
12.1043
12.0603
11.9645
11.7479
11.4223
11.0202
10.5874
10.1725
9.83829
9.66633
9.72929
9.9898
10.3595
10.8109
11.3212
11.8707
12.4199
12.8942
13.2232
13.4336
13.5142
13.514
13.4533
13.3391
13.185
13.0024
12.7967
12.5629
12.3123
12.097
11.893
11.9984
12.0666
12.0265
11.8927
11.6886
11.4502
11.2166
11.0355
10.9607
11.0447
11.2651
11.5494
11.8704
12.2081
12.5609
12.9095
13.2104
13.4048
13.5172
13.5416
13.5039
13.4172
13.2871
13.1193
12.9185
12.6853
12.4165
12.1225
11.8674
16.7631
17.1522
17.479
17.6961
17.8293
17.8756
17.8636
17.7997
17.6984
17.5479
17.3898
17.2735
17.1725
17.0725
16.9041
16.7673
16.6956
16.6717
16.6765
16.7458
16.8554
16.98
17.1
17.1993
17.261
17.2692
17.2106
17.0793
16.8821
16.6856
8.0861
9.26344
9.85084
10.1224
10.1058
9.8274
9.31569
8.68826
8.02195
7.59964
7.55466
8.52344
10.6075
14.542
19.5239
24.9048
29.5409
33.0218
32.612
28.8703
24.7226
21.1057
17.9175
15.156
12.7583
10.7207
9.10342
7.81528
7.02722
6.54953
5.11514
5.44044
5.7718
6.00473
6.10084
6.07419
5.93997
5.74383
5.53524
5.46304
5.64046
6.42186
7.79577
9.98423
12.5586
15.1866
17.4439
19.0057
18.7069
16.8223
14.7531
12.8838
11.224
9.76035
8.46649
7.33149
6.40737
5.65529
5.24493
5.00332
4.62235
4.68475
4.90604
5.10312
5.22832
5.27633
5.259
5.19998
5.13457
5.17645
5.44072
6.16527
7.281
8.93033
10.7867
12.6187
14.2009
15.225
14.9409
13.6
12.1159
10.7467
9.52083
8.42841
7.4549
6.58913
5.87858
5.29118
4.96352
4.76772
4.46132
4.45678
4.62594
4.7901
4.91419
4.98596
5.01682
5.02327
5.03216
5.13352
5.43232
6.10825
7.05592
8.39891
9.86762
11.2821
12.4956
13.2388
12.974
11.9358
10.7671
9.67064
8.68001
7.79004
6.99205
6.27697
5.66966
5.16107
4.85522
4.66569
4.46707
4.43262
4.57633
4.72312
4.83281
4.90304
4.94924
4.98456
5.02688
5.15871
5.47632
6.0933
6.9303
8.06592
9.28957
10.4485
11.4231
12.0024
11.7684
10.9337
9.97024
9.05227
8.21262
7.45495
6.76055
6.12081
5.57084
5.10862
4.80684
4.6192
4.54838
4.55222
4.6844
4.80672
4.89187
4.94614
4.9881
5.02963
5.08584
5.23123
5.55317
6.10186
6.8689
7.86365
8.92702
9.92564
10.7423
11.229
11.0372
10.3518
9.52878
8.73673
7.99561
7.30417
6.65917
6.06104
5.54231
5.10884
4.81093
4.63746
4.73131
4.78634
4.90972
5.00489
5.05783
5.08514
5.10875
5.14066
5.19604
5.34233
5.6569
6.16137
6.85457
7.7729
8.73044
9.6317
10.3504
10.7883
10.6493
10.0844
9.35903
8.62232
7.92567
7.27357
6.66848
6.11194
5.62414
5.22049
4.92955
4.77082
5.01516
5.11991
5.23342
5.29721
5.31217
5.30529
5.30041
5.31127
5.35487
5.4885
5.78843
6.27731
6.92338
7.7666
8.6692
9.51597
10.1808
10.5963
10.52
10.0252
9.37249
8.70896
8.06285
7.44738
6.86396
6.32162
5.84138
5.44159
5.14541
5.00222
5.39454
5.54143
5.64057
5.66763
5.64198
5.59561
5.55512
5.5373
5.56066
5.69052
5.9751
6.4349
7.05248
7.85576
8.71832
9.53842
10.1819
10.5931
10.5819
10.1712
9.58527
8.96902
8.35427
7.75658
7.18093
6.64183
6.16091
5.75976
5.4604
5.33295
5.86157
6.03809
6.11506
6.10266
6.03472
5.94477
5.86362
5.81262
5.80985
5.92667
6.19413
6.633
7.23413
8.01227
8.85296
9.66371
10.3028
10.7253
10.7769
10.4493
9.92495
9.35155
8.76218
8.17632
7.60319
7.06262
6.57718
6.17206
5.87093
5.75797
6.40327
6.5933
6.6388
6.58752
6.47544
6.33989
6.21541
6.12785
6.0966
6.1935
6.44298
6.86638
7.45743
8.21991
9.04883
9.85978
10.5071
10.9504
11.0599
10.8147
10.3527
9.82174
9.25736
8.68276
8.11182
7.56876
7.07832
6.66894
6.36734
6.26608
7.00099
7.1858
7.19326
7.10343
6.94723
6.76613
6.59784
6.47229
6.41142
6.48323
6.71432
7.12587
7.70976
8.46151
9.28336
10.0983
10.76
11.2295
11.3918
11.2275
10.8306
10.3444
9.80834
9.24839
8.68267
8.13941
7.64623
7.23419
6.93353
6.84002
7.63063
7.78956
7.75932
7.63048
7.4318
7.20717
6.99647
6.8333
6.74288
6.78623
6.99893
7.40095
7.97864
8.72164
9.53789
10.3566
11.034
11.5302
11.7394
11.6524
11.3239
10.8858
10.3831
9.84354
9.28863
8.74942
8.25718
7.84527
7.54709
7.4565
8.26401
8.38102
8.31486
8.14827
7.91043
7.64609
7.39622
7.19761
7.07927
7.09334
7.28855
7.68286
8.2552
8.99016
9.80095
10.6202
11.3099
11.8295
12.0778
12.0617
11.8026
11.4159
10.9516
10.4387
9.90126
9.37165
8.88457
8.47526
8.18046
8.08761
8.87254
8.93851
8.8386
8.63753
8.36551
8.06691
7.78329
7.55397
7.41161
7.39993
7.58072
7.96957
8.53899
9.2675
10.0734
10.8876
11.5815
12.116
12.3953
12.4372
12.2457
11.9114
11.4886
11.0073
10.4934
9.97915
9.50161
9.09707
8.80499
8.70338
9.43097
9.44325
9.31275
9.0822
8.78254
8.45722
8.1485
7.89707
7.74028
7.71285
7.88533
8.27503
8.84777
9.5743
10.3781
11.1788
11.8611
12.3946
12.6931
12.7766
12.6443
12.3595
11.9774
11.5298
11.0427
10.5481
10.0835
9.68549
9.39449
9.27739
9.91817
9.88354
9.72554
9.47229
9.15376
8.81261
8.49365
8.23556
8.07141
8.03327
8.20432
8.60383
9.19018
9.92578
10.736
11.524
12.1867
12.6958
12.9942
13.0972
13.0069
12.7614
12.4136
11.9966
11.5357
11.0616
10.6114
10.22
9.92764
9.7888
10.3256
10.2537
10.0745
9.80877
9.48611
9.14655
8.83072
8.57393
8.40818
8.36623
8.54578
8.96572
9.57696
10.3329
11.1596
11.9418
12.5844
13.0591
13.3455
13.4446
13.3682
13.1396
12.8113
12.414
11.9722
11.5144
11.0761
10.6889
10.391
10.225
10.6586
10.5617
10.3751
10.1146
9.80473
9.47717
9.17066
8.9213
8.76112
8.72406
8.92559
9.37755
10.0255
10.8127
11.6657
12.4483
13.0704
13.511
13.7822
13.8683
13.7831
13.5483
13.2148
12.8152
12.3751
11.9202
11.4843
11.0939
10.7836
10.5858
10.9457
10.8435
10.6692
10.4265
10.1342
9.82372
9.53277
9.29694
9.14967
9.12808
9.3667
9.86318
10.56
11.3894
12.2758
13.0635
13.6641
14.075
14.3284
14.3972
14.2909
14.0347
13.6784
13.257
12.7979
12.3271
11.8735
11.4638
11.1278
10.8921
11.2483
11.1521
10.9936
10.7724
10.5032
10.2161
9.94735
9.73156
9.60452
9.61112
9.90174
10.4554
11.2116
12.0929
13.0188
13.8109
14.3909
14.7762
15.0116
15.0619
14.9266
14.6386
14.2459
13.7858
13.2885
12.7838
12.2985
11.855
11.4802
11.2006
11.6081
11.5201
11.3832
11.1905
10.9522
10.6963
10.4577
10.2695
10.1705
10.2214
10.5773
11.2008
12.0234
12.9635
13.929
14.7214
15.2803
15.6439
15.8621
15.8942
15.727
15.4028
14.9676
14.4558
13.9045
13.3451
12.8089
12.3158
11.8898
11.5604
12.0726
11.9955
11.8884
11.734
11.5373
11.3233
11.125
10.9754
10.9165
11.0305
11.465
12.1689
13.0623
14.0603
15.0561
15.8385
16.3705
16.7143
16.9145
16.929
16.732
16.374
15.8965
15.3311
14.714
14.0835
13.474
12.9088
12.4126
12.0208
12.7093
12.6469
12.5815
12.481
12.3429
12.1872
12.0457
11.9523
11.9542
12.1545
12.6837
13.4779
14.4387
15.4773
16.4837
17.2305
17.7222
18.041
18.2158
18.2089
17.9882
17.6066
17.0958
16.4833
15.8032
15.0882
14.3856
13.7212
13.1278
12.6539
13.6185
13.583
13.5831
13.5642
13.5131
13.4445
13.3901
13.3833
13.4878
13.8035
14.4479
15.3404
16.3523
17.3878
18.3641
19.0214
19.444
19.7139
19.842
19.7994
19.5632
19.1771
18.6536
18.009
17.2763
16.4818
15.6696
14.8779
14.1558
13.5682
14.9786
15.0046
15.1299
15.2488
15.3395
15.4126
15.5031
15.65
15.9133
16.3878
17.1672
18.1464
19.168
20.1219
20.9643
21.4277
21.715
21.8833
21.9201
21.8178
21.5758
21.2113
20.7117
20.0646
19.2979
18.435
17.5195
16.5839
15.6944
14.9531
17.2192
17.4179
17.7764
18.1414
18.4789
18.7977
19.1377
19.5331
20.0215
20.6813
21.5739
22.5706
23.4767
24.1682
24.6105
24.6415
24.6265
24.5625
24.433
24.2859
24.1307
23.9168
23.5465
22.9755
22.2248
21.3143
20.3023
19.2189
18.1502
17.2306
21.1442
21.7724
22.588
23.3912
24.1405
24.8335
25.5225
26.2015
26.8752
27.6018
28.3721
28.9806
29.2105
29.003
28.3648
27.4236
26.7458
26.2074
25.8386
25.7254
25.8928
26.2186
26.4168
26.4264
26.1583
25.5592
24.6403
23.4683
22.234
21.1448
26.4327
27.947
29.5654
31.026
32.2666
33.2261
33.945
34.3664
34.4852
34.3524
33.9087
33.0178
31.6175
29.8826
27.8722
26.1218
24.9711
24.1121
23.5474
23.4192
23.6864
24.2536
25.0185
25.8699
26.6665
27.2533
27.4019
27.1111
26.562
26.0617
23.3135
25.1788
27.0808
28.784
30.1138
30.9623
31.3152
31.142
30.4904
29.4416
28.0556
26.5456
24.8895
23.0816
21.1186
19.5546
18.4949
17.7266
17.2443
17.1186
17.2898
17.6948
18.2765
18.9861
19.7485
20.4778
21.1308
21.6669
22.0512
22.5583
12.6539
14.5609
15.5176
15.9938
16.027
15.6687
14.9968
14.2431
13.55
13.4014
14.0155
16.0453
19.5537
25.6768
33.4203
41.8896
49.1813
54.9076
53.1817
46.0651
38.9792
33.0406
28.0835
23.9836
20.4741
17.4384
14.9128
12.7892
11.2755
10.3224
6.6818
7.20375
7.73416
8.11615
8.29616
8.30947
8.18171
7.99301
7.81805
7.86632
8.28651
9.3412
11.2324
14.1114
17.5237
21.0519
24.104
26.1095
25.1099
22.1201
19.1514
16.5862
14.4578
12.6895
11.1664
9.80135
8.62669
7.60659
6.98221
6.5464
5.61426
5.81781
6.16791
6.46247
6.64167
6.71631
6.70538
6.64654
6.59494
6.6932
7.07317
7.91206
9.3747
11.4312
13.8099
16.2464
18.3847
19.6388
18.8432
16.761
14.6648
12.8371
11.3277
10.0764
9.00267
8.03731
7.19937
6.47001
6.01927
5.71355
5.23346
5.34791
5.61855
5.85409
6.01
6.09083
6.11489
6.10785
6.11688
6.25626
6.626
7.36758
8.57528
10.2238
12.1065
14.0063
15.6552
16.5251
15.8491
14.2237
12.5532
11.0868
9.87858
8.87888
8.02417
7.25692
6.58569
6.00284
5.61154
5.36184
5.12331
5.23098
5.46907
5.65878
5.78226
5.84517
5.87248
5.88367
5.9206
6.08867
6.46144
7.14132
8.18254
9.585
11.172
12.7494
14.068
14.7088
14.1192
12.7778
11.371
10.1298
9.10691
8.26011
7.53777
6.8877
6.31296
5.80583
5.44864
5.23144
5.19266
5.33111
5.54492
5.69928
5.78195
5.82083
5.83521
5.84528
5.88997
6.0641
6.43123
7.07513
8.03193
9.27588
10.6779
12.0495
13.139
13.6401
13.1231
11.9755
10.7438
9.65346
8.75291
8.00434
7.34752
6.74615
6.21223
5.74593
5.41278
5.23425
5.42546
5.60216
5.79522
5.90938
5.95049
5.95412
5.9468
5.94589
5.99127
6.17339
6.54042
7.15358
8.02645
9.19676
10.4853
11.7231
12.6555
13.0738
12.6246
11.6233
10.5082
9.48642
8.64188
7.94336
7.33638
6.79193
6.30764
5.88884
5.57385
5.42109
5.79835
6.00924
6.17677
6.24663
6.24436
6.21258
6.17808
6.161
6.20236
6.38817
6.75088
7.34802
8.19088
9.29846
10.5128
11.6629
12.4904
12.8595
12.4692
11.54
10.5177
9.59949
8.82543
8.17239
7.59742
7.07331
6.60261
6.19524
5.88391
5.74933
6.29208
6.52629
6.66114
6.68333
6.64069
6.57196
6.50771
6.47207
6.50575
6.6922
7.05138
7.63477
8.4639
9.53656
10.7011
11.7892
12.5456
12.8888
12.5632
11.7426
10.8019
9.94044
9.20554
8.57881
8.02005
7.50623
7.04042
6.63718
6.32648
6.20465
6.88337
7.12535
7.21914
7.19667
7.11503
7.00987
6.91581
6.86107
6.8844
7.06874
7.42483
7.99854
8.82212
9.87444
11.0026
12.0425
12.7468
13.075
12.8191
12.0951
11.2329
10.4267
9.72632
9.11983
8.57165
8.06348
7.59829
7.19428
6.88143
6.76632
7.5456
7.77567
7.82093
7.76038
7.64221
7.50333
7.38139
7.30842
7.3197
7.49963
7.85296
8.42138
9.24256
10.2808
11.3786
12.3755
13.0376
13.3572
13.1679
12.5401
11.7566
11.006
10.34
9.75304
9.21594
8.71265
8.24734
7.84082
7.52418
7.40905
8.24753
8.44283
8.43884
8.34648
8.19629
8.0283
7.88218
7.7929
7.79189
7.9657
8.31733
8.88434
9.70476
10.7304
11.7996
12.7534
13.3777
13.6886
13.561
13.0273
12.324
11.6308
11.0021
10.4377
9.9123
9.41564
8.95216
8.54496
8.22467
8.10301
8.95345
9.09019
9.05014
8.92853
8.75198
8.56102
8.39571
8.29301
8.28164
8.44903
8.80137
9.37113
10.1935
11.2067
12.2484
13.156
13.7416
14.0393
13.9653
13.5188
12.8958
12.2607
11.6724
11.1348
10.6261
10.1361
9.6745
9.26821
8.94702
8.81364
9.62452
9.69736
9.62837
9.48227
9.28637
9.07985
8.90171
8.79027
8.77204
8.93601
9.29406
9.87257
10.7025
11.7056
12.723
13.58
14.1212
14.3972
14.3638
13.9923
13.4455
12.8658
12.3189
11.8109
11.323
10.8444
10.3845
9.97372
9.65046
9.50346
10.2318
10.247
10.1526
9.98837
9.78141
9.56799
9.3852
9.2722
9.25331
9.42201
9.7952
10.393
11.2412
12.2421
13.2428
14.0432
14.5286
14.7689
14.7582
14.4434
13.9615
13.4301
12.9209
12.4417
11.9759
11.5113
11.0562
10.6415
10.3082
10.1367
10.7607
10.7259
10.6093
10.435
10.2267
10.0171
9.84044
9.73691
9.72474
9.90218
10.2967
10.9221
11.792
12.7918
13.7767
14.5294
14.9742
15.1787
15.169
14.8867
14.4511
13.9552
13.4731
13.0163
12.5689
12.1171
11.6669
11.2479
10.902
10.6999
11.2018
11.1277
10.9953
10.8212
10.6234
10.4319
10.2718
10.1804
10.1823
10.378
10.8024
11.4626
12.3563
13.3538
14.3206
15.022
15.4274
15.6094
15.6102
15.3541
14.9418
14.4615
13.9899
13.5412
13.1016
12.6559
12.2061
11.7792
11.4171
11.1798
11.5611
11.4585
11.3216
11.1622
10.9887
10.82
10.6832
10.6114
10.6383
10.8625
11.3265
12.0271
12.9469
13.9403
14.8866
15.5311
15.8943
16.0493
16.0573
15.8338
15.4545
14.9866
14.507
14.0447
13.5941
13.1408
12.6805
12.2371
11.8522
11.5764
11.8628
11.746
11.6194
11.483
11.3396
11.2024
11.0968
11.0526
11.1163
11.3798
11.8936
12.64
13.5887
14.5743
15.4962
16.0765
16.3855
16.5097
16.5194
16.3266
15.9871
15.531
15.044
14.5609
14.0875
13.6083
13.1197
12.644
12.2249
11.907
12.1526
12.0314
11.9231
11.8198
11.7149
11.6169
11.55
11.5421
11.654
11.9679
12.541
13.3375
14.317
15.291
16.1808
16.6807
16.9238
17.0081
17.0119
16.847
16.5488
16.1216
15.6269
15.1185
14.6086
14.0907
13.5629
13.0437
12.5774
12.2118
12.473
12.3609
12.285
12.2267
12.17
12.1192
12.0971
12.1378
12.3071
12.6818
13.322
14.1712
15.1793
16.1349
16.9813
17.3672
17.5341
17.5656
17.5543
17.4144
17.1602
16.7804
16.2956
15.7636
15.2134
14.6442
14.0611
13.4813
12.9526
12.5333
12.8898
12.8011
12.7748
12.7768
12.7807
12.7856
12.8185
12.9195
13.1548
13.5997
14.3118
15.2139
16.2385
17.1612
17.9333
18.1643
18.236
18.1987
18.1636
18.0461
17.8411
17.5231
17.0934
16.5518
15.9646
15.3402
14.6881
14.0309
13.4224
12.9391
13.4898
13.4365
13.4838
13.5683
13.6493
13.7257
13.8276
14.0001
14.31
14.8317
15.6145
16.5601
17.5829
18.4323
19.0565
19.0887
19.033
18.9103
18.8424
18.7442
18.5968
18.361
18.0209
17.5438
16.9365
16.2604
15.537
14.7883
14.0822
13.5186
14.3905
14.3905
14.5466
14.7376
14.9186
15.09
15.2815
15.5403
15.9324
16.5311
17.3711
18.3356
19.3079
19.9633
20.3553
20.124
19.8973
19.6731
19.5601
19.4765
19.3975
19.2716
19.0626
18.7174
18.1979
17.4976
16.7158
15.8779
15.0622
14.398
15.7397
15.8471
16.1489
16.4833
16.7982
17.0954
17.4022
17.7632
18.2405
18.9037
19.7557
20.6679
21.4189
21.7395
21.7706
21.1839
20.7464
20.3988
20.2253
20.1496
20.15
20.1628
20.1342
19.9857
19.664
19.1172
18.337
17.4376
16.5159
15.7394
17.763
18.0587
18.5656
19.0956
19.5909
20.0494
20.4963
20.9637
21.4908
22.1462
22.8797
23.4557
23.7641
23.594
23.1134
22.0675
21.3782
20.8957
20.6475
20.5709
20.656
20.8319
21.0272
21.1419
21.115
20.8599
20.3608
19.5766
18.6169
17.7587
20.683
21.2955
22.0923
22.8791
23.5929
24.2183
24.7756
25.2628
25.6746
25.9869
26.2094
26.2131
25.893
25.0583
23.8979
22.3685
21.4214
20.8063
20.484
20.3965
20.5572
20.9068
21.345
21.7757
22.1108
22.2571
22.1911
21.8292
21.2501
20.6122
23.3286
24.459
25.7149
26.8742
27.8292
28.5302
28.9966
29.1967
29.1523
28.9218
28.4962
27.7637
26.6541
25.0728
23.2567
21.3893
20.2858
19.5891
19.2157
19.1217
19.3227
19.7704
20.3811
21.082
21.7898
22.4034
22.8218
22.9793
22.9467
22.941
22.9261
24.3971
25.9645
27.3734
28.4925
29.2325
29.5832
29.5118
29.0294
28.2345
27.1562
25.7977
24.1418
22.178
20.1451
18.4028
17.4125
16.792
16.4471
16.3434
16.4797
16.838
17.3881
18.0999
18.9152
19.7485
20.4946
21.0923
21.5877
22.2198
16.9586
18.2021
19.56
20.8181
21.8277
22.4885
22.7675
22.6267
22.0926
21.2537
20.1812
18.9774
17.6382
16.1861
14.7487
13.7067
13.1313
12.7869
12.5757
12.4781
12.4818
12.5946
12.8168
13.1474
13.5708
14.05
14.5517
15.0594
15.5789
16.2968
17.3005
20.0244
21.1316
21.7896
21.9157
21.5339
20.7625
19.9487
19.2316
19.1962
19.9977
22.543
27.2314
35.9708
47.1408
60.1608
71.4983
80.8833
76.7611
64.3113
52.7743
43.5742
36.3672
31.0017
26.7217
23.0815
19.9533
17.196
15.0566
13.6676
8.22305
8.96263
9.57239
10.0469
10.2854
10.317
10.1669
9.9452
9.73595
9.77344
10.2021
11.3953
13.766
17.6469
22.3891
27.6218
32.2745
35.4589
33.3859
28.4277
23.7845
19.9561
16.9764
14.7659
13.0388
11.5573
10.2666
9.09665
8.35528
7.81906
6.6281
7.00375
7.4432
7.79295
7.9877
8.04616
7.98454
7.86762
7.77095
7.85736
8.26639
9.25081
11.0923
13.9224
17.3415
21.0269
24.2766
26.1463
24.5495
21.1295
17.8409
15.0877
12.9493
11.3432
10.099
9.05308
8.1526
7.35028
6.84511
6.52444
6.08113
6.35758
6.71637
6.99067
7.14166
7.18788
7.14838
7.07382
7.03863
7.17134
7.59917
8.51442
10.1128
12.4754
15.3042
18.2663
20.778
22.0072
20.6523
17.9261
15.2259
12.9435
11.1754
9.84936
8.83206
7.99511
7.2829
6.6606
6.24728
6.01912
5.92293
6.19109
6.51347
6.72871
6.83523
6.85659
6.81892
6.76623
6.77097
6.94278
7.39493
8.29039
9.76438
11.8698
14.3682
16.9084
18.9278
19.767
18.5548
16.2238
13.8577
11.8412
10.2827
9.12134
8.23592
7.52025
6.91892
6.40332
6.0406
5.85553
5.99889
6.28072
6.58031
6.75984
6.82307
6.81792
6.77581
6.73521
6.75666
6.95354
7.42122
8.29649
9.71736
11.729
14.0348
16.3051
17.9758
18.5619
17.4449
15.3595
13.2029
11.3468
9.9078
8.83778
8.02077
7.361
6.80927
6.34732
6.02934
5.914
6.28367
6.59732
6.86585
6.99552
7.01452
6.98254
6.93143
6.89632
6.94054
7.16982
7.66185
8.55925
9.96782
11.9097
14.0968
16.1819
17.5968
18.0181
16.968
15.0328
12.9648
11.1817
9.80193
8.79113
8.04443
7.46126
6.97545
6.56181
6.26678
6.17001
6.72896
7.06213
7.2951
7.37496
7.35713
7.30094
7.23955
7.20762
7.27384
7.53334
8.05333
8.9767
10.4071
12.3235
14.4342
16.3783
17.6022
17.906
16.8614
15.0183
13.0873
11.4058
10.0902
9.11527
8.38681
7.81781
7.34734
6.95439
6.67037
6.58759
7.29942
7.63776
7.83035
7.86329
7.81556
7.73796
7.66742
7.63892
7.72743
8.01733
8.57047
9.52679
10.9975
12.909
14.9625
16.7846
17.8465
18.0754
17.0926
15.3865
13.5422
11.9023
10.6073
9.63923
8.91052
8.34166
7.87565
7.49197
7.21147
7.13587
7.96158
8.28781
8.43524
8.42882
8.35667
8.26221
8.1858
8.16302
8.27574
8.59786
9.19009
10.188
11.7066
13.6164
15.6152
17.3172
18.2362
18.4052
17.4856
15.906
14.1472
12.559
11.2798
10.3094
9.57252
8.99492
8.52551
8.1423
7.85957
7.78325
8.68029
8.97568
9.07417
9.03875
8.94782
8.84298
8.76584
8.7531
8.89361
9.2516
9.88935
10.9372
12.501
14.4024
16.3381
17.9118
18.6975
18.8095
17.9585
16.5071
14.8456
13.3142
12.0519
11.0762
10.3291
9.73729
9.25907
8.87024
8.58103
8.49596
9.41721
9.66436
9.71513
9.65919
9.55742
9.45033
9.37913
9.38343
9.55692
9.95571
10.6463
11.751
13.3512
15.2329
17.0926
18.5218
19.1764
19.2285
18.4503
17.1322
15.5815
14.1133
12.8727
11.8932
11.1339
10.5275
10.0369
9.6382
9.33928
9.23795
10.1348
10.3201
10.3296
10.261
10.1575
10.0575
9.99969
10.0316
10.2445
10.6904
11.4419
12.6099
14.236
16.0843
17.8562
19.1227
19.6418
19.6233
18.9176
17.7355
16.3063
14.9098
13.6983
12.7191
11.9478
11.327
10.8206
10.4085
10.0965
9.9725
10.8013
10.9165
10.8965
10.8219
10.7263
10.6437
10.6089
10.6801
10.9411
11.4417
12.2572
13.4833
15.1145
16.8993
18.5581
19.6633
20.078
19.9758
19.3348
18.2817
16.9844
15.6665
14.493
13.5198
12.7386
12.1042
11.5774
11.1475
10.8185
10.6662
11.3936
11.4392
11.3999
11.328
11.251
11.1964
11.1981
11.3198
11.6296
12.1836
13.06
14.3294
15.9372
17.6257
19.1469
20.0866
20.4145
20.2722
19.693
18.7517
17.5908
16.3576
15.2303
14.2704
13.4826
12.8333
12.2837
11.8306
11.4795
11.2931
11.8985
11.885
11.8349
11.7762
11.7296
11.7144
11.764
11.9334
12.2912
12.9013
13.8362
15.1323
16.6948
18.2642
19.6337
20.3934
20.6267
20.4617
19.9622
19.141
18.1097
16.9695
15.8946
14.9564
14.1667
13.5012
12.9278
12.4441
12.0645
11.8392
12.3167
12.2629
12.2099
12.1764
12.1706
12.1998
12.2988
12.5204
12.9312
13.599
14.5857
15.8894
17.3895
18.8228
20.0341
20.6077
20.742
20.5536
20.1172
19.4086
18.5106
17.4896
16.4792
15.5717
14.7877
14.1079
13.5113
12.9881
12.5717
12.3032
12.6698
12.5899
12.5458
12.5434
12.5842
12.6656
12.8191
13.0963
13.5635
14.2876
15.3174
16.607
18.0298
19.3147
20.3666
20.7537
20.7892
20.5713
20.1835
19.5681
18.7837
17.879
16.961
16.1046
15.344
14.6606
14.0407
13.4772
13.0139
12.698
12.9905
12.8948
12.8635
12.9076
13.0037
13.1421
13.3531
13.6874
14.2119
14.9821
16.0428
17.3008
18.6314
19.7556
20.6501
20.8537
20.7905
20.5432
20.1689
19.6278
18.9575
18.158
17.3388
16.5506
15.8268
15.1578
14.5274
13.9336
13.4173
13.05
13.3098
13.2104
13.2113
13.3171
13.4746
13.673
13.942
14.3314
14.905
15.7088
16.7808
17.9894
19.212
20.1641
20.9011
20.9258
20.7694
20.49
20.1289
19.6199
19.0346
18.352
17.631
16.9279
16.2578
15.6182
14.9889
14.3693
13.8081
13.3876
13.6773
13.5939
13.6573
13.8342
14.058
14.3165
14.6404
15.0757
15.6797
16.4999
17.5566
18.6946
19.7895
20.5565
21.1309
20.9805
20.7333
20.4224
20.0709
19.5899
19.0539
18.4708
17.8616
17.2555
16.6615
16.0711
15.4631
14.8317
14.2334
13.7623
14.1581
14.1186
14.2779
14.5377
14.8312
15.1458
15.5101
15.969
16.5839
17.3938
18.3995
19.4369
20.3769
20.9398
21.3411
21.0177
20.6827
20.3415
19.9908
19.5385
19.0467
18.5427
18.047
17.5499
17.0539
16.5396
15.9813
15.3638
14.7446
14.2391
14.8159
14.8615
15.138
15.494
15.8592
16.2201
16.6085
17.0711
17.6656
18.4259
19.3344
20.2239
20.9737
21.3049
21.5141
21.0215
20.6033
20.235
19.8792
19.4522
19.0059
18.5631
18.1843
17.8098
17.4345
17.0318
16.5624
16.0002
15.3948
14.8797
15.7013
15.8785
16.2864
16.7463
17.184
17.5853
17.9811
18.4175
18.9478
19.6034
20.3558
21.0386
21.5465
21.6076
21.6013
20.9518
20.4604
20.0721
19.7074
19.2939
18.8944
18.5214
18.2262
17.9976
17.7686
17.5143
17.1866
16.7411
16.2103
15.7347
16.8012
17.1542
17.7065
18.2768
18.7863
19.2192
19.6013
19.9738
20.3858
20.8695
21.391
21.7956
21.9912
21.7532
21.5113
20.7363
20.1943
19.7989
19.425
19.0152
18.6429
18.3338
18.1329
18.0181
17.9603
17.8913
17.7576
17.5016
17.1326
16.7803
17.9629
18.5184
19.22
19.9026
20.4812
20.9352
21.2819
21.5508
21.7848
22.0198
22.2278
22.2775
22.1112
21.5581
21.0968
20.2683
19.7189
19.3396
18.9617
18.5465
18.1783
17.9024
17.769
17.7566
17.8452
17.975
18.0758
18.0716
17.9596
17.8476
18.7988
19.5246
20.3577
21.1398
21.7794
22.2445
22.5343
22.6638
22.6689
22.5908
22.4259
22.0929
21.5648
20.7551
20.162
19.4141
18.9329
18.6052
18.2366
17.8082
17.4175
17.1305
17.0077
17.0394
17.2219
17.5016
17.8124
18.0771
18.2879
18.5221
18.4776
19.3076
20.2285
21.0707
21.7444
22.1932
22.4114
22.3991
22.1761
21.8128
21.3263
20.6887
19.9227
19.0438
18.5221
18.0595
17.7545
17.5338
17.1979
16.7517
16.3073
15.9501
15.7537
15.7308
15.8864
16.1899
16.5857
17.009
17.4533
18.0419
16.0875
16.8589
17.7278
18.5378
19.187
19.6087
19.7873
19.7078
19.3875
18.9054
18.3033
17.6164
16.9133
16.3005
16.1567
16.211
16.1972
16.1474
15.8744
15.4173
14.8957
14.4127
14.053
13.8533
13.8187
13.9392
14.1894
14.5275
14.9604
15.62
11.7625
12.2608
12.8657
13.4657
13.9748
14.3323
14.5121
14.5017
14.3064
13.9922
13.6112
13.2357
12.9575
12.9433
13.399
14.1092
14.4522
14.6143
14.4329
13.9871
13.3948
12.7744
12.2165
11.7645
11.4344
11.2215
11.1162
11.1049
11.2026
11.5063
21.4776
25.2346
26.7225
27.4671
27.5096
26.9464
25.9264
24.9441
23.9576
23.5407
23.6335
26.0856
32.0444
44.574
60.7605
80.1175
97.651
112.613
104.956
85.293
67.5165
53.809
43.6736
36.5416
31.388
27.3339
23.871
20.7615
18.1711
16.4157
9.67475
10.7434
11.5483
12.0451
12.229
12.1545
11.8742
11.5508
11.2206
11.0857
11.3185
12.591
15.7198
21.2105
28.1271
35.9521
43.1997
48.242
44.5216
36.8238
29.7402
24.0425
19.7735
16.7191
14.5538
12.8931
11.5266
10.2812
9.48081
8.90245
7.7124
8.31506
8.89004
9.27358
9.43435
9.40963
9.22899
9.00743
8.80886
8.79754
9.14926
10.3075
12.8105
16.8881
21.9966
27.6696
32.8832
35.9695
33.1296
27.663
22.4831
18.2531
15.0697
12.7823
11.1684
9.95856
8.98648
8.14137
7.61452
7.32618
7.0565
7.51736
7.98633
8.29523
8.42008
8.39658
8.25296
8.08309
7.96702
8.04395
8.48302
9.63635
11.8808
15.3979
19.7526
24.4988
28.6273
30.7222
28.3188
23.8426
19.4426
15.8047
13.0622
11.1047
9.74128
8.74518
7.967
7.32279