/*--------------------------------*- C++ -*----------------------------------*\
  =========                 |
  \\      /  F ield         | OpenFOAM: The Open Source CFD Toolbox
   \\    /   O peration     | Website:  https://openfoam.org
    \\  /    A nd           | Version:  12
     \\/     M anipulation  |
\*---------------------------------------------------------------------------*/
FoamFile
{
    format      ascii;
    class       volScalarField;
    location    "250/air";
    object      k;
}
// * * * * * * * * * * * * * * * * * * * * * * * * * * * * * * * * * * * * * //

dimensions      [0 2 -2 0 0 0 0];

internalField   nonuniform List<scalar> 
243000
(
0.0743862
0.0806185
0.0832293
0.0837234
0.082566
0.079973
0.0760395
0.0710691
0.0651623
0.0589497
0.0521712
0.046549
0.0510663
0.0775502
0.101473
0.122972
0.139596
0.150423
0.15049
0.141473
0.128183
0.116624
0.105613
0.0952018
0.0854564
0.0765627
0.0693323
0.0635812
0.0620267
0.0619204
0.135541
0.138558
0.137958
0.135261
0.131307
0.126096
0.119727
0.112704
0.105128
0.098023
0.0911348
0.0875896
0.103377
0.13892
0.172132
0.202347
0.226357
0.243297
0.244761
0.232019
0.212564
0.195021
0.177949
0.161978
0.147077
0.133776
0.123038
0.114805
0.111851
0.111974
0.171408
0.175448
0.174843
0.171697
0.167058
0.160962
0.153578
0.14555
0.137033
0.129357
0.122539
0.121254
0.145132
0.185365
0.223477
0.25791
0.284942
0.303904
0.305969
0.291937
0.269619
0.248726
0.228089
0.208621
0.190462
0.174336
0.161267
0.151391
0.147292
0.147718
0.197257
0.202179
0.201789
0.198543
0.193524
0.186876
0.178863
0.170208
0.161125
0.153179
0.146665
0.148126
0.177107
0.219016
0.258715
0.294488
0.322193
0.341419
0.343938
0.330192
0.307249
0.285026
0.262776
0.241584
0.221797
0.204288
0.190084
0.179517
0.174821
0.175735
0.218536
0.224214
0.224121
0.2209
0.215661
0.208651
0.20023
0.191175
0.181748
0.17373
0.167712
0.172371
0.204369
0.2467
0.286644
0.322536
0.350017
0.36883
0.371728
0.358848
0.336138
0.313429
0.290366
0.268184
0.247441
0.229139
0.214277
0.203334
0.198196
0.199432
0.237457
0.243707
0.243827
0.24059
0.235121
0.22777
0.218998
0.209619
0.199935
0.191933
0.186498
0.194479
0.228151
0.270118
0.309646
0.345091
0.371982
0.390211
0.393507
0.381801
0.359805
0.337093
0.313695
0.290977
0.269684
0.250925
0.235668
0.224494
0.219009
0.22042
0.255287
0.261959
0.262123
0.258743
0.25294
0.245172
0.236003
0.226283
0.216345
0.208364
0.203549
0.214743
0.24919
0.290358
0.32916
0.363943
0.390193
0.40791
0.411666
0.401315
0.380324
0.357945
0.334525
0.311554
0.289946
0.2709
0.255381
0.244049
0.238307
0.239821
0.27284
0.279778
0.279776
0.27608
0.26978
0.261458
0.251788
0.241649
0.231412
0.223405
0.219228
0.233375
0.267956
0.308116
0.346072
0.380166
0.40588
0.423273
0.427571
0.418723
0.398915
0.377085
0.353841
0.330814
0.309061
0.289868
0.274201
0.26279
0.256903
0.258488
0.290629
0.297637
0.297254
0.293039
0.286045
0.277
0.266691
0.256023
0.245401
0.23732
0.233778
0.250495
0.284745
0.323827
0.360906
0.394375
0.419729
0.437026
0.441961
0.434715
0.416237
0.395144
0.37227
0.349372
0.327634
0.30842
0.292714
0.281307
0.275372
0.277027
0.308936
0.31576
0.314796
0.309836
0.301939
0.29199
0.280893
0.269565
0.258452
0.25017
0.247244
0.266128
0.299749
0.337725
0.373936
0.406877
0.432048
0.449498
0.455165
0.449608
0.432601
0.412437
0.39013
0.367552
0.345996
0.326903
0.311281
0.299973
0.294095
0.295822
0.327829
0.33417
0.332434
0.3265
0.317499
0.306476
0.294444
0.282319
0.27059
0.261962
0.259629
0.280233
0.313034
0.349897
0.385252
0.417751
0.442904
0.460728
0.467225
0.463424
0.448048
0.429005
0.407481
0.385432
0.364249
0.345441
0.330048
0.318962
0.31325
0.315049
0.34717
0.352703
0.350007
0.342894
0.332616
0.320376
0.307276
0.29422
0.281741
0.272615
0.27086
0.292702
0.324571
0.360303
0.394805
0.426922
0.452181
0.470564
0.477977
0.475969
0.462404
0.444684
0.424171
0.402882
0.382283
0.363953
0.348966
0.338244
0.332816
0.334673
0.366611
0.371017
0.367187
0.358737
0.347058
0.333493
0.319218
0.305106
0.291742
0.281971
0.280786
0.30337
0.334239
0.368816
0.402446
0.434204
0.459645
0.478731
0.487122
0.48691
0.475335
0.459141
0.439878
0.41959
0.39981
0.38217
0.367789
0.357591
0.352561
0.354449
0.38562
0.388615
0.383517
0.373637
0.360488
0.345541
0.330008
0.314737
0.300364
0.289835
0.289183
0.31208
0.341875
0.375245
0.407966
0.439348
0.464985
0.484869
0.494288
0.495822
0.486387
0.47192
0.454138
0.4351
0.416387
0.399657
0.38609
0.37658
0.372059
0.373937
0.403493
0.404897
0.398455
0.387115
0.372491
0.356153
0.339321
0.322817
0.307341
0.296128
0.296137
0.318814
0.347373
0.379414
0.411147
0.442082
0.467838
0.488546
0.499074
0.502263
0.495046
0.48249
0.466408
0.448857
0.431454
0.415856
0.403296
0.394625
0.390703
0.392522
0.419443
0.419193
0.411398
0.398636
0.382596
0.364906
0.346776
0.329075
0.31268
0.302171
0.303238
0.324937
0.351547
0.381597
0.412026
0.44232
0.468099
0.489458
0.501024
0.505811
0.500791
0.490302
0.476102
0.460251
0.444378
0.43012
0.418741
0.41103
0.407761
0.40946
0.432649
0.430819
0.421714
0.407614
0.390229
0.371291
0.35213
0.334048
0.318261
0.3083
0.31018
0.330754
0.355589
0.383845
0.412702
0.441275
0.465885
0.487428
0.499915
0.506087
0.503155
0.494874
0.48268
0.468678
0.454507
0.441765
0.431712
0.425047
0.422441
0.423945
0.442386
0.439073
0.428745
0.413468
0.395163
0.375585
0.356777
0.339045
0.323765
0.314258
0.316729
0.336105
0.359301
0.385878
0.413214
0.440236
0.463842
0.484359
0.49656
0.503105
0.50191
0.495598
0.485676
0.473685
0.461288
0.450127
0.441498
0.435927
0.433952
0.435188
0.448018
0.443323
0.432133
0.416267
0.398587
0.379579
0.361117
0.343726
0.328912
0.319828
0.322706
0.340839
0.362499
0.387495
0.413266
0.438934
0.461613
0.481206
0.493212
0.499953
0.499177
0.493778
0.484953
0.474759
0.464292
0.454782
0.447472
0.442975
0.441552
0.442473
0.449234
0.443751
0.433387
0.418503
0.401431
0.382983
0.364886
0.347847
0.333489
0.324836
0.327962
0.34483
0.365049
0.388482
0.412784
0.437138
0.458899
0.477633
0.489488
0.496381
0.496077
0.491608
0.483876
0.474815
0.465362
0.456559
0.449685
0.44579
0.444739
0.445324
0.448538
0.443618
0.433911
0.419877
0.403434
0.385577
0.367903
0.351259
0.337359
0.329143
0.332382
0.347965
0.366805
0.388569
0.411561
0.434644
0.455473
0.473398
0.485093
0.492087
0.492283
0.488709
0.482098
0.474038
0.465496
0.457499
0.451132
0.447217
0.445549
0.44523
0.446858
0.442266
0.433262
0.42014
0.40439
0.387208
0.370041
0.353854
0.340417
0.332654
0.335892
0.350167
0.367553
0.3878
0.409454
0.431278
0.451154
0.468292
0.479782
0.486814
0.487515
0.484783
0.479242
0.472171
0.464472
0.457185
0.451294
0.44735
0.445219
0.444199
0.443755
0.439305
0.431105
0.418996
0.40418
0.387779
0.371195
0.355534
0.342585
0.3353
0.338412
0.35126
0.367183
0.386056
0.406332
0.426885
0.445782
0.46213
0.473344
0.480334
0.48152
0.47957
0.475005
0.468907
0.462101
0.45548
0.449988
0.445994
0.443379
0.441722
0.438864
0.434606
0.427182
0.416252
0.402559
0.387165
0.371333
0.356251
0.34385
0.337029
0.339919
0.351193
0.365774
0.3832
0.402085
0.421332
0.439213
0.454741
0.46558
0.472436
0.474056
0.472811
0.46916
0.463968
0.458013
0.452075
0.446922
0.442807
0.439672
0.437408
0.431909
0.427999
0.421473
0.411746
0.399356
0.385143
0.370272
0.356014
0.344242
0.337812
0.340271
0.350166
0.363312
0.379149
0.396627
0.414532
0.431339
0.445976
0.456317
0.462921
0.46489
0.46425
0.461449
0.45713
0.451984
0.446674
0.441805
0.437524
0.433844
0.430962
0.422652
0.419316
0.413896
0.405491
0.394471
0.381608
0.36796
0.35473
0.343796
0.337823
0.339802
0.348333
0.359973
0.374173
0.390016
0.406535
0.422171
0.435785
0.445451
0.451648
0.453828
0.453667
0.451619
0.44811
0.44373
0.438985
0.434328
0.429852
0.425626
0.422128
0.411023
0.408547
0.404521
0.397638
0.388211
0.376921
0.36471
0.352907
0.343211
0.337868
0.339418
0.346653
0.356792
0.369244
0.383237
0.39799
0.41225
0.424542
0.433234
0.438799
0.440974
0.441119
0.439642
0.436812
0.433085
0.428835
0.42434
0.419618
0.414838
0.410753
0.3975
0.39653
0.394423
0.389665
0.382468
0.373484
0.363688
0.354145
0.346327
0.342216
0.34366
0.349825
0.358487
0.368904
0.380485
0.392739
0.404786
0.415042
0.422067
0.426515
0.4282
0.428172
0.426847
0.424378
0.421049
0.417097
0.412628
0.407535
0.402061
0.397334
0.393181
0.395501
0.396999
0.396145
0.393252
0.388807
0.383576
0.378399
0.374339
0.372607
0.374485
0.379492
0.385918
0.393108
0.400554
0.408229
0.415732
0.422147
0.42625
0.428601
0.429096
0.428269
0.426405
0.4236
0.419976
0.41563
0.410565
0.404697
0.398245
0.392613
0.495455
0.503105
0.509432
0.513675
0.516299
0.517226
0.517072
0.515945
0.514055
0.511004
0.507877
0.505618
0.50371
0.501928
0.498657
0.495927
0.494465
0.493938
0.493979
0.495311
0.497456
0.499901
0.502242
0.504164
0.505342
0.505478
0.504314
0.501721
0.49782
0.493929
0.13125
0.140118
0.1424
0.141551
0.138161
0.132664
0.125402
0.117429
0.109392
0.103817
0.101907
0.10908
0.125184
0.153964
0.187261
0.220602
0.248149
0.268945
0.26905
0.250665
0.228915
0.209072
0.190635
0.173734
0.158081
0.143864
0.131983
0.122064
0.116518
0.113973
0.250958
0.256851
0.25618
0.251491
0.244037
0.234194
0.223023
0.212534
0.203705
0.200216
0.203299
0.219197
0.243381
0.285455
0.334721
0.383099
0.423152
0.455416
0.457366
0.429521
0.39683
0.366729
0.338391
0.311999
0.287141
0.264452
0.245619
0.229835
0.221072
0.218601
0.32313
0.329374
0.330376
0.326278
0.318791
0.308471
0.296806
0.286153
0.277737
0.2761
0.283092
0.304007
0.333278
0.381411
0.436551
0.488918
0.531291
0.564823
0.568002
0.539954
0.504757
0.47097
0.438413
0.407518
0.378242
0.351436
0.329189
0.310839
0.300912
0.299305
0.376771
0.383677
0.38592
0.382427
0.375298
0.365235
0.354002
0.344028
0.336704
0.337153
0.347506
0.371092
0.402973
0.453151
0.509335
0.561339
0.602395
0.634414
0.638456
0.612785
0.57835
0.543925
0.509955
0.477191
0.445897
0.417123
0.392998
0.373294
0.361827
0.360195
0.422122
0.430342
0.433169
0.429942
0.42292
0.413044
0.40229
0.393082
0.386873
0.389199
0.402117
0.427026
0.460094
0.510506
0.565722
0.616094
0.654971
0.68508
0.690045
0.667538
0.635009
0.601141
0.566902
0.533341
0.501007
0.471149
0.445766
0.425128
0.412078
0.410084
0.46428
0.474062
0.476936
0.473578
0.466234
0.456175
0.445587
0.436886
0.431535
0.435328
0.449963
0.475427
0.508973
0.558744
0.612395
0.661031
0.697988
0.726626
0.732733
0.713618
0.683393
0.650595
0.616595
0.582701
0.549705
0.519059
0.492646
0.471194
0.45678
0.454372
0.506023
0.517397
0.519845
0.515922
0.507779
0.497068
0.486198
0.477603
0.472746
0.477455
0.493032
0.518474
0.552258
0.601082
0.653158
0.700447
0.736182
0.76399
0.771516
0.755919
0.728135
0.696663
0.663153
0.629121
0.595606
0.564261
0.53693
0.514721
0.49927
0.49661
0.549049
0.56168
0.563229
0.55833
0.548926
0.5371
0.525492
0.516563
0.511808
0.516605
0.532511
0.558347
0.591647
0.639496
0.690192
0.736641
0.771894
0.799559
0.808761
0.796818
0.771576
0.741566
0.708699
0.674717
0.640866
0.608992
0.580926
0.558101
0.541972
0.539218
0.594162
0.60737
0.607581
0.601316
0.590253
0.576929
0.564177
0.554514
0.549492
0.554652
0.570469
0.595433
0.628225
0.675098
0.72462
0.770665
0.806097
0.834182
0.845285
0.837079
0.814595
0.786317
0.754393
0.720745
0.686811
0.654619
0.626031
0.602746
0.586238
0.583504
0.641395
0.654189
0.652803
0.644766
0.631755
0.616655
0.602455
0.59173
0.586113
0.590871
0.606089
0.630277
0.66252
0.708341
0.756827
0.80275
0.838867
0.86779
0.880947
0.876576
0.857151
0.830945
0.800335
0.767396
0.733724
0.701519
0.672704
0.649183
0.632564
0.629869
0.690115
0.701401
0.698188
0.688085
0.672968
0.65595
0.640112
0.628086
0.621591
0.625371
0.639592
0.66296
0.694581
0.73923
0.786698
0.832599
0.869731
0.899743
0.915045
0.914475
0.8985
0.874749
0.845901
0.814126
0.781164
0.749332
0.720654
0.697191
0.680698
0.677954
0.739152
0.747875
0.742626
0.730339
0.7131
0.694154
0.676614
0.663138
0.65555
0.657877
0.670798
0.693245
0.724173
0.767463
0.813835
0.859648
0.897903
0.92914
0.946624
0.94958
0.937481
0.916595
0.889983
0.859876
0.828115
0.797103
0.768986
0.745905
0.729745
0.726775
0.786921
0.792205
0.784835
0.770393
0.75115
0.730394
0.711195
0.696216
0.687381
0.687917
0.6993
0.720743
0.750904
0.792629
0.837771
0.88329
0.922504
0.95506
0.974578
0.980728
0.972786
0.955138
0.931212
0.903275
0.873228
0.843486
0.816334
0.793957
0.7783
0.774861
0.83156
0.832975
0.823506
0.807052
0.786033
0.76369
0.742978
0.726533
0.716356
0.71497
0.72462
0.745052
0.774413
0.814412
0.858191
0.903106
0.942902
0.97668
0.997941
1.00694
1.00316
0.989052
0.968177
0.94285
0.914995
0.886953
0.861115
0.839672
0.824611
0.820458
0.871136
0.868991
0.857412
0.839175
0.8167
0.79308
0.771111
0.75335
0.741847
0.73856
0.74637
0.765961
0.794555
0.832834
0.875184
0.919104
0.958906
0.993491
1.01619
1.0276
1.02762
1.01723
0.999636
0.97723
0.95194
0.925973
0.90174
0.881388
0.866897
0.861736
0.904244
0.899067
0.88549
0.86579
0.84225
0.817762
0.794945
0.776158
0.763627
0.758435
0.764509
0.783728
0.811693
0.848588
0.889607
0.932044
0.970998
1.00551
1.02939
1.04267
1.04565
1.03898
1.0247
1.00535
0.98283
0.959189
0.93676
0.917594
0.903576
0.89712
0.930007
0.922227
0.906962
0.886222
0.862091
0.837288
0.81431
0.794919
0.780863
0.774219
0.779005
0.798008
0.825181
0.860727
0.900572
0.94193
0.980243
1.01386
1.03812
1.0526
1.05762
1.05416
1.04301
1.02662
1.00686
0.985624
0.965075
0.947092
0.933414
0.925427
0.948009
0.938076
0.921487
0.900236
0.876177
0.851822
0.828529
0.808548
0.793574
0.78603
0.790141
0.808961
0.835398
0.869679
0.90827
0.948159
0.985238
1.01817
1.04299
1.05878
1.0648
1.06341
1.05492
1.0411
1.02382
1.00485
0.986114
0.969193
0.955666
0.946024
0.958522
0.946986
0.929703
0.908771
0.884706
0.86027
0.837163
0.81729
0.802108
0.794317
0.798447
0.817094
0.84294
0.876005
0.913222
0.951336
0.986873
1.01916
1.04394
1.06017
1.06756
1.06791
1.06173
1.04986
1.03442
1.01721
1.00006
0.983927
0.97028
0.959064
0.963139
0.951028
0.933424
0.912405
0.888778
0.864708
0.841957
0.822197
0.807276
0.799876
0.8046
0.823166
0.848541
0.880387
0.916021
0.952093
0.98571
1.01618
1.04046
1.05712
1.06562
1.06686
1.06166
1.0519
1.03894
1.02391
1.00819
0.992506
0.978299
0.966024
0.96364
0.950147
0.932851
0.912542
0.8897
0.866314
0.844388
0.825161
0.810518
0.803826
0.8095
0.828066
0.852982
0.883482
0.917348
0.950896
0.982199
1.01069
1.0341
1.05083
1.06001
1.06201
1.05774
1.04917
1.03694
1.02263
1.00745
0.992167
0.978019
0.965913
0.957059
0.942707
0.926806
0.908598
0.88787
0.866376
0.845832
0.827506
0.81341
0.807613
0.814272
0.832853
0.857184
0.886082
0.91768
0.948397
0.977186
1.00345
1.02562
1.0421
1.05162
1.05441
1.05102
1.04329
1.03203
1.01808
1.00286
0.987401
0.972833
0.960496
0.94651
0.932345
0.918336
0.902714
0.884852
0.866334
0.847803
0.830673
0.817812
0.81294
0.820437
0.838921
0.862401
0.889246
0.918013
0.945417
0.971386
0.995224
1.01576
1.03159
1.04125
1.045
1.04262
1.0358
1.02527
1.01163
0.996106
0.979806
0.964003
0.950769
0.934338
0.921415
0.910151
0.897591
0.883877
0.868386
0.852006
0.836862
0.825995
0.822133
0.830203
0.84835
0.870485
0.894558
0.919885
0.943264
0.966
0.987112
1.00545
1.02007
1.0297
1.03454
1.03351
1.02799
1.01852
1.00513
0.989139
0.971482
0.953838
0.939075
0.923237
0.912788
0.905292
0.897379
0.887199
0.875083
0.862121
0.849896
0.841296
0.838778
0.847258
0.864535
0.884548
0.905057
0.925999
0.94455
0.963398
0.98117
0.996502
1.00905
1.01824
1.02409
1.02489
1.02106
1.01312
1.00066
0.984294
0.965257
0.94542
0.928359
0.916796
0.910654
0.90834
0.905445
0.900207
0.892686
0.883988
0.875643
0.870041
0.869363
0.878144
0.89367
0.910393
0.9264
0.941561
0.954028
0.968051
0.981897
0.992755
1.00213
1.00998
1.01625
1.01893
1.01701
1.01078
0.999282
0.983081
0.963037
0.94144
0.92226
0.92291
0.923257
0.928423
0.932519
0.933525
0.931992
0.929008
0.925756
0.923838
0.925283
0.933606
0.946095
0.957803
0.966869
0.973316
0.976792
0.983745
0.991387
0.996861
1.00308
1.01016
1.01774
1.02199
1.02189
1.01725
1.00721
0.991918
0.971501
0.94848
0.9274
0.951387
0.963231
0.979234
0.992846
1.00224
1.00808
1.01179
1.01361
1.01457
1.01645
1.02097
1.02451
1.02302
1.01655
1.00479
0.993565
0.990277
0.989279
0.988772
0.99268
1.00081
1.01188
1.02248
1.03031
1.03356
1.03066
1.0193
0.999532
0.975933
0.954147
0.981932
1.01278
1.04445
1.07026
1.08851
1.09987
1.10544
1.10459
1.09845
1.0882
1.07477
1.05727
1.03383
1.00614
0.974941
0.951933
0.940281
0.932734
0.927579
0.929374
0.93667
0.948
0.962448
0.978057
0.992054
1.00163
1.00344
0.997185
0.985411
0.975493
0.889649
0.926162
0.960515
0.98966
1.01107
1.02391
1.02839
1.02346
1.01039
0.990529
0.965432
0.939655
0.912349
0.883246
0.851653
0.829853
0.817494
0.809921
0.805369
0.806498
0.811558
0.819315
0.829038
0.84015
0.851295
0.860949
0.868738
0.874012
0.875296
0.878193
0.176782
0.189291
0.192656
0.191916
0.187795
0.180968
0.172162
0.163176
0.155065
0.151453
0.153849
0.166526
0.188593
0.225331
0.268321
0.312338
0.348895
0.377778
0.373058
0.342561
0.310324
0.282006
0.257251
0.235877
0.216607
0.198914
0.183363
0.169469
0.159647
0.154274
0.331982
0.349638
0.354057
0.350847
0.342334
0.330037
0.315924
0.303244
0.293527
0.291794
0.29961
0.321455
0.357028
0.414432
0.482059
0.548376
0.601268
0.642646
0.633703
0.5844
0.534262
0.491294
0.454643
0.422422
0.392509
0.364375
0.339455
0.316684
0.300965
0.293532
0.420419
0.438428
0.445502
0.443274
0.435145
0.422823
0.408752
0.396363
0.387474
0.388097
0.399964
0.426689
0.468401
0.531871
0.605256
0.675148
0.729418
0.769255
0.759488
0.709316
0.656413
0.609987
0.569798
0.533869
0.500113
0.468127
0.439783
0.414474
0.397812
0.392215
0.485583
0.50361
0.511692
0.509781
0.502064
0.490241
0.477015
0.465767
0.458557
0.462136
0.477171
0.506753
0.550176
0.6147
0.687575
0.755665
0.806869
0.842551
0.832909
0.78586
0.734528
0.688358
0.647692
0.61084
0.575934
0.542764
0.513227
0.487253
0.469901
0.46549
0.542041
0.560517
0.568492
0.566318
0.558508
0.546873
0.534312
0.524139
0.518453
0.524617
0.542324
0.573417
0.616789
0.6806
0.751095
0.815947
0.863173
0.894711
0.885782
0.842819
0.794372
0.749723
0.709665
0.67289
0.637803
0.60438
0.574392
0.548391
0.530394
0.526617
0.596105
0.615271
0.62238
0.61946
0.610996
0.599051
0.586721
0.577273
0.572771
0.580893
0.600368
0.632177
0.675189
0.737714
0.805588
0.867196
0.91072
0.938948
0.93128
0.892534
0.847319
0.804607
0.765549
0.729192
0.694216
0.660778
0.630563
0.604684
0.586294
0.582879
0.651064
0.670772
0.676371
0.672286
0.662652
0.649911
0.637354
0.628226
0.624525
0.633941
0.654444
0.686505
0.729075
0.790301
0.855853
0.914725
0.955267
0.981192
0.975341
0.940793
0.898791
0.858098
0.820171
0.784389
0.749634
0.716205
0.6859
0.660151
0.641584
0.638473
0.708539
0.728246
0.731732
0.7261
0.714881
0.70095
0.687787
0.678604
0.675363
0.685486
0.70646
0.738445
0.780502
0.840568
0.904165
0.960874
0.99925
1.02379
1.02021
0.989889
0.95105
0.912399
0.875663
0.84063
0.806304
0.773138
0.742924
0.717358
0.698771
0.695797
0.768868
0.787688
0.78859
0.781069
0.767988
0.752626
0.738591
0.729064
0.72597
0.736282
0.757271
0.788937
0.830462
0.889481
0.951322
1.00629
1.04324
1.06709
1.0661
1.0401
1.00454
0.96813
0.932862
0.898788
0.865151
0.832522
0.802577
0.77723
0.758716
0.755732
0.83129
0.848026
0.846289
0.836562
0.821515
0.804637
0.789601
0.779532
0.776325
0.786353
0.807004
0.838155
0.879139
0.937112
0.997223
1.05065
1.08671
1.11039
1.11212
1.09068
1.05861
1.02468
0.991157
0.958366
0.925744
0.893948
0.864515
0.839496
0.821127
0.8179
0.894379
0.907743
0.903369
0.891389
0.874455
0.856138
0.840098
0.829387
0.825861
0.835224
0.855268
0.885784
0.92621
0.983007
1.04128
1.09316
1.12864
1.15242
1.15679
1.14012
1.11182
1.08064
1.04918
1.01801
0.986788
0.956132
0.927513
0.903026
0.884889
0.881115
0.956185
0.965012
0.958061
0.944057
0.925464
0.905919
0.889001
0.87764
0.873665
0.882082
0.901383
0.931204
0.971133
1.02645
1.08273
1.13289
1.16788
1.1918
1.1986
1.18673
1.16241
1.13425
1.10518
1.07596
1.04636
1.01713
0.989648
0.966009
0.948244
0.943608
1.01436
1.01783
1.00879
0.99299
0.973071
0.95262
0.935037
0.923119
0.918658
0.926002
0.944558
0.973744
1.01328
1.0668
1.12096
1.16908
1.20347
1.22732
1.23625
1.22893
1.20869
1.18371
1.15726
1.1303
1.10265
1.07494
1.04869
1.02609
1.00894
1.00319
1.06627
1.06494
1.05398
1.03668
1.01585
0.994903
0.976956
0.964682
0.959814
0.96616
0.984136
1.01289
1.05222
1.10374
1.15572
1.20141
1.23483
1.25826
1.26883
1.26552
1.24925
1.22745
1.20373
1.17918
1.15373
1.12781
1.10282
1.08098
1.06439
1.05751
1.11003
1.10518
1.09226
1.07385
1.05262
1.03164
1.01373
1.00145
0.996383
1.00207
1.01984
1.04856
1.08801
1.13749
1.18733
1.23012
1.26203
1.28444
1.29605
1.29588
1.28319
1.26438
1.24328
1.22114
1.19794
1.17396
1.15041
1.12938
1.11289
1.10432
1.14509
1.1372
1.12261
1.1036
1.08253
1.06213
1.04476
1.03301
1.02788
1.03285
1.05053
1.07947
1.11881
1.16595
1.21341
1.25356
1.2846
1.30631
1.31832
1.32002
1.31027
1.29403
1.27523
1.25524
1.23414
1.21205
1.18994
1.16973
1.15324
1.14274
1.17081
1.1603
1.14452
1.12557
1.10533
1.08625
1.06978
1.05835
1.05338
1.05814
1.07605
1.10541
1.144
1.1885
1.23316
1.27018
1.30001
1.32205
1.33536
1.33871
1.33104
1.31668
1.29964
1.28129
1.26186
1.24139
1.22055
1.20101
1.1844
1.17189
1.18729
1.17453
1.15813
1.1401
1.12135
1.1035
1.08819
1.07754
1.07304
1.07812
1.0966
1.12626
1.16357
1.20509
1.2465
1.27991
1.30814
1.33016
1.345
1.35014
1.34519
1.33324
1.31743
1.29997
1.28152
1.26219
1.2422
1.223
1.20612
1.19177
1.1957
1.18132
1.16494
1.14752
1.13023
1.11429
1.10063
1.09118
1.08745
1.09338
1.11269
1.14209
1.17785
1.21596
1.25363
1.28298
1.30929
1.33111
1.34708
1.35389
1.35108
1.34164
1.32771
1.31154
1.29419
1.27557
1.25587
1.23649
1.21912
1.20364
1.19923
1.18323
1.16685
1.15038
1.13449
1.12008
1.10834
1.10041
1.09767
1.10486
1.12475
1.15355
1.1874
1.22168
1.25504
1.27989
1.30387
1.32485
1.34182
1.35012
1.34895
1.34111
1.32868
1.31392
1.29745
1.27936
1.26005
1.24061
1.22273
1.20745
1.19603
1.17838
1.16337
1.14982
1.13596
1.12343
1.11325
1.10684
1.10516
1.11369
1.13367
1.16146
1.19297
1.2222
1.25142
1.27145
1.29283
1.31266
1.33007
1.33939
1.33999
1.33436
1.32399
1.31039
1.29436
1.27637
1.25698
1.2371
1.21867
1.20358
1.18636
1.16898
1.15652
1.14623
1.13611
1.12606
1.11751
1.11242
1.11169
1.12119
1.14076
1.16686
1.19493
1.21973
1.24373
1.25861
1.27718
1.29565
1.31276
1.32263
1.325
1.32151
1.31328
1.3016
1.28709
1.26993
1.25041
1.22987
1.21047
1.19499
1.17418
1.15873
1.14991
1.14329
1.13719
1.12983
1.12341
1.11951
1.11954
1.12922
1.14767
1.17102
1.19501
1.21451
1.23307
1.24239
1.25803
1.275
1.29115
1.30106
1.30488
1.30349
1.29775
1.28825
1.27568
1.25988
1.24107
1.22006
1.19937
1.18298
1.16229
1.15039
1.14617
1.14427
1.14165
1.13762
1.13337
1.13062
1.13111
1.13985
1.15617
1.17577
1.19467
1.20775
1.22029
1.22371
1.23633
1.25164
1.26633
1.27577
1.28058
1.28117
1.27811
1.2713
1.26113
1.24749
1.23018
1.2096
1.18815
1.17065
1.1532
1.14663
1.14798
1.1512
1.1527
1.15194
1.14991
1.14824
1.14871
1.15534
1.16795
1.18201
1.19416
1.20002
1.20554
1.20284
1.2124
1.2259
1.23882
1.24734
1.25257
1.255
1.25456
1.25089
1.24381
1.23299
1.2186
1.1999
1.1787
1.16059
1.14927
1.14984
1.15772
1.16669
1.17288
1.17551
1.1755
1.17453
1.17394
1.17631
1.18232
1.18846
1.19215
1.18968
1.18699
1.17834
1.18492
1.19671
1.2078
1.21519
1.22034
1.22409
1.22611
1.22568
1.22248
1.2156
1.20482
1.18998
1.17167
1.15484
1.14959
1.15962
1.17555
1.19036
1.20127
1.20678
1.20769
1.20533
1.20083
1.19609
1.19246
1.18873
1.18232
1.17017
1.15856
1.14555
1.14992
1.16064
1.17041
1.17686
1.18151
1.18565
1.18914
1.19155
1.19243
1.19068
1.18506
1.17523
1.16255
1.15092
1.13467
1.15514
1.17904
1.20002
1.21439
1.22168
1.22265
1.2164
1.20556
1.19263
1.17918
1.16457
1.14736
1.12683
1.10839
1.09519
1.10008
1.11167
1.12157
1.12775
1.13131
1.13411
1.13691
1.14006
1.1433
1.14554
1.14501
1.14091
1.13463
1.13021
1.06537
1.09155
1.11971
1.14355
1.15997
1.16826
1.16893
1.16013
1.14497
1.12583
1.10478
1.08324
1.06108
1.0398
1.0232
1.01805
1.0286
1.04471
1.05719
1.06431
1.06649
1.06621
1.06494
1.06383
1.06323
1.0627
1.06147
1.0593
1.05688
1.05775
0.933021
0.950251
0.969156
0.98578
0.997833
1.00416
1.00445
0.99694
0.983838
0.966992
0.948687
0.932153
0.918043
0.909383
0.90821
0.92085
0.942888
0.967649
0.985793
0.995969
0.998018
0.994809
0.987954
0.979122
0.969532
0.95979
0.950414
0.941976
0.934788
0.931453
0.217651
0.233945
0.236577
0.235799
0.231321
0.223665
0.213839
0.20425
0.195836
0.19249
0.195094
0.209121
0.235568
0.282563
0.337934
0.398002
0.448162
0.489504
0.476882
0.428381
0.380239
0.339488
0.305821
0.279979
0.258678
0.239748
0.222607
0.206415
0.193553
0.18595
0.402936
0.431513
0.442142
0.441548
0.43327
0.419778
0.403929
0.389654
0.378754
0.376678
0.384237
0.409087
0.452944
0.530757
0.622649
0.711988
0.779966
0.827888
0.800295
0.722747
0.647982
0.586769
0.539167
0.501649
0.470388
0.441767
0.41519
0.38889
0.369068
0.358711
0.505452
0.535297
0.548931
0.548916
0.540867
0.527268
0.511336
0.49729
0.487509
0.488135
0.500409
0.530502
0.581414
0.667821
0.768324
0.86282
0.932281
0.976028
0.943471
0.861315
0.780924
0.714679
0.66314
0.622208
0.587422
0.555287
0.525678
0.497607
0.477892
0.471519
0.58019
0.609658
0.623972
0.623823
0.615884
0.602636
0.587516
0.574718
0.566869
0.57054
0.586655
0.620181
0.674648
0.763806
0.864386
0.957584
1.02268
1.05935
1.02458
0.944258
0.864202
0.797443
0.745025
0.703175
0.667326
0.634341
0.604093
0.576424
0.557281
0.553751
0.644748
0.673891
0.687603
0.686754
0.678539
0.665475
0.651155
0.639716
0.633859
0.640397
0.659665
0.695798
0.752439
0.842416
0.940975
1.03067
1.08994
1.11972
1.08398
1.00726
0.929358
0.863438
0.811022
0.768936
0.732771
0.699807
0.66978
0.643143
0.624571
0.62262
0.706488
0.735327
0.747569
0.745633
0.736735
0.723559
0.709844
0.699635
0.695568
0.704631
0.726433
0.764669
0.823005
0.913368
1.00961
1.09537
1.14885
1.17305
1.13733
1.06452
0.989228
0.924406
0.872135
0.829951
0.793609
0.76088
0.731305
0.705727
0.68781
0.68666
0.768964
0.797219
0.807315
0.804028
0.794109
0.780554
0.767235
0.758059
0.755532
0.766737
0.790601
0.830659
0.890578
0.981385
1.07551
1.15749
1.20588
1.22593
1.19122
1.12228
1.0495
0.985603
0.933308
0.890946
0.854469
0.822004
0.79292
0.768244
0.751036
0.75033
0.833719
0.860845
0.868203
0.863337
0.852181
0.838083
0.825006
0.816668
0.815531
0.828551
0.854192
0.895993
0.957572
1.04861
1.14089
1.21923
1.26335
1.28053
1.24773
1.1827
1.11232
1.04918
0.996689
0.954008
0.91749
0.885347
0.85683
0.832931
0.816316
0.815722
0.900759
0.9259
0.930146
0.923595
0.911155
0.896494
0.8836
0.875963
0.876166
0.89076
0.918044
0.961588
1.02494
1.11596
1.20623
1.28087
1.32138
1.33665
1.3066
1.24583
1.17807
1.11577
1.06307
1.01997
0.983371
0.951447
0.923449
0.900208
0.884013
0.883252
0.969044
0.991098
0.99217
0.983943
0.97034
0.955244
0.942602
0.935622
0.937241
0.953278
0.982222
1.02756
1.09278
1.18318
1.27099
1.34161
1.37889
1.39294
1.36644
1.31053
1.24579
1.18452
1.13167
1.0881
1.05138
1.01957
0.992026
0.96933
0.953394
0.952123
1.03682
1.05456
1.05279
1.04294
1.02844
1.0132
1.00101
0.994788
0.997977
1.01551
1.04624
1.09344
1.16038
1.24938
1.33399
1.40009
1.43428
1.44752
1.42524
1.37479
1.31366
1.25378
1.20094
1.15687
1.12002
1.08817
1.06099
1.03872
1.02293
1.02078
1.10178
1.11429
1.1101
1.09886
1.08387
1.06889
1.05749
1.05228
1.05732
1.07651
1.10926
1.1584
1.2267
1.31335
1.39391
1.45476
1.48585
1.49849
1.48085
1.43638
1.37953
1.32152
1.26895
1.22439
1.18719
1.15528
1.12831
1.10632
1.09055
1.08717
1.16156
1.16843
1.1622
1.14997
1.135
1.12081
1.11065
1.10683
1.11413
1.13526
1.17032
1.22145
1.29069
1.37388
1.44949
1.50426
1.53217
1.54417
1.53135
1.49317
1.44127
1.38562
1.33365
1.28868
1.25093
1.21884
1.19181
1.1699
1.15396
1.14901
1.21401
1.21547
1.20755
1.1948
1.18045
1.16764
1.15925
1.15737
1.16742
1.19079
1.22817
1.28087
1.35023
1.42833
1.49785
1.54635
1.57203
1.58332
1.57515
1.54325
1.49688
1.44412
1.39311
1.34787
1.30946
1.27699
1.24951
1.22736
1.21101
1.20418
1.25734
1.25443
1.24499
1.2323
1.21924
1.20845
1.20239
1.20316
1.21582
1.24125
1.2807
1.33436
1.40248
1.47403
1.53649
1.57856
1.60276
1.61471
1.61114
1.58521
1.54466
1.4953
1.44566
1.40037
1.36125
1.32807
1.29985
1.27705
1.25997
1.25097
1.29083
1.28444
1.27389
1.26193
1.25091
1.24278
1.23915
1.24266
1.25769
1.28533
1.32673
1.38093
1.44633
1.51054
1.56551
1.6006
1.62305
1.63621
1.63758
1.61809
1.58333
1.53785
1.49001
1.44499
1.40522
1.37099
1.34181
1.3179
1.29971
1.28834
1.31447
1.30524
1.29422
1.28382
1.27537
1.2697
1.26852
1.27519
1.29277
1.3227
1.36569
1.41983
1.48116
1.53767
1.5851
1.61315
1.63369
1.64814
1.65316
1.63964
1.61105
1.5705
1.5252
1.4809
1.44071
1.40535
1.37501
1.3495
1.32981
1.31595
1.32891
1.31732
1.30658
1.29797
1.29192
1.28899
1.29098
1.30089
1.32108
1.3532
1.39737
1.45022
1.50672
1.5554
1.5956
1.61694
1.63566
1.65133
1.65924
1.65019
1.62671
1.59098
1.54925
1.50674
1.46704
1.43105
1.3994
1.37218
1.35064
1.33444
1.33588
1.32194
1.31089
1.30463
1.30155
1.30171
1.30723
1.32023
1.34289
1.37679
1.42116
1.47178
1.52293
1.56382
1.59743
1.61279
1.63006
1.64682
1.65707
1.65076
1.63122
1.59969
1.56154
1.52125
1.48266
1.44691
1.41476
1.38652
1.36326
1.34563
1.33712
1.31994
1.30963
1.30577
1.30578
1.3094
1.31817
1.33396
1.35861
1.39316
1.4368
1.48447
1.5298
1.56274
1.5911
1.60157
1.61796
1.63592
1.64811
1.64346
1.62621
1.59602
1.55936
1.52032
1.48254
1.44722
1.41484
1.38612
1.3625
1.3454
1.3286
1.31047
1.30343
1.30334
1.30614
1.31348
1.32501
1.34269
1.36831
1.40264
1.44408
1.4867
1.52715
1.55354
1.57724
1.58419
1.60047
1.61993
1.63358
1.62984
1.61423
1.58646
1.55114
1.51325
1.47633
1.44151
1.40923
1.38008
1.35598
1.33893
1.31506
1.29845
1.29582
1.29888
1.30482
1.31396
1.32692
1.34494
1.36972
1.40249
1.44185
1.48164
1.51598
1.53625
1.55657
1.56163
1.57873
1.60008
1.61488
1.6115
1.5965
1.5701
1.53652
1.50025
1.46454
1.43047
1.39861
1.3694
1.34447
1.3268
1.29884
1.28635
1.2879
1.29405
1.30295
1.31356
1.32678
1.34417
1.36754
1.39824
1.43386
1.46785
1.49605
1.51137
1.52976
1.53486
1.55388
1.5776
1.59343
1.58997
1.5748
1.54862
1.51593
1.48067
1.4462
1.41351
1.38271
1.35398
1.32887
1.3109
1.28166
1.27502
1.28018
1.28961
1.30083
1.31242
1.3253
1.3412
1.36179
1.38791
1.41755
1.4451
1.46748
1.47927
1.49728
1.50479
1.52698
1.55368
1.57056
1.56676
1.55077
1.52391
1.49123
1.45638
1.42258
1.39112
1.362
1.33484
1.31074
1.29317
1.26353
1.26333
1.27195
1.28431
1.29709
1.30886
1.32029
1.33312
1.34906
1.36916
1.39187
1.4129