/*--------------------------------*- C++ -*----------------------------------*\
  =========                 |
  \\      /  F ield         | OpenFOAM: The Open Source CFD Toolbox
   \\    /   O peration     | Website:  https://openfoam.org
    \\  /    A nd           | Version:  12
     \\/     M anipulation  |
\*---------------------------------------------------------------------------*/
FoamFile
{
    format      ascii;
    class       volScalarField;
    location    "250/air";
    object      nut;
}
// * * * * * * * * * * * * * * * * * * * * * * * * * * * * * * * * * * * * * //

dimensions      [0 2 -1 0 0 0 0];

internalField   nonuniform List<scalar> 
243000
(
0.000144556
0.000144905
0.000141865
0.000137241
0.000131647
0.000125375
0.000118552
0.000111405
0.000103956
9.66285e-05
8.91079e-05
8.25286e-05
8.4106e-05
0.000103797
0.000118895
0.00013126
0.000140684
0.000147417
0.000149398
0.000147173
0.000142801
0.000139303
0.000136005
0.000132842
0.000129776
0.000126898
0.000124929
0.00012391
0.000126937
0.000131682
0.000585927
0.000570348
0.000548269
0.000523589
0.000498287
0.000472503
0.000446448
0.000420983
0.000396172
0.000373701
0.000352917
0.000339064
0.000360974
0.000418155
0.000465546
0.000505979
0.000538244
0.000563239
0.000572283
0.000565987
0.000552136
0.000540861
0.000530046
0.000520256
0.000511186
0.000503631
0.000499713
0.000500043
0.000511985
0.000531928
0.00077789
0.000786917
0.000785315
0.000777981
0.000767206
0.00075294
0.000735338
0.00071568
0.000694146
0.000673811
0.000654702
0.000648083
0.000705779
0.000802349
0.000884122
0.000951868
0.00100204
0.00103598
0.00104033
0.00101609
0.000976159
0.000937437
0.000897742
0.000858676
0.000820492
0.000784856
0.000754596
0.000730774
0.000720586
0.000721505
0.000834457
0.000844638
0.000843545
0.000836494
0.000825662
0.000811208
0.000793478
0.000773833
0.000752574
0.000733052
0.000716006
0.000715522
0.0007811
0.000872623
0.000951272
0.0010169
0.00106518
0.00109763
0.0011025
0.00108024
0.00104174
0.00100326
0.000963384
0.000923859
0.000885285
0.000849523
0.000819224
0.000795822
0.000785152
0.000787124
0.000878193
0.000889296
0.000888819
0.000882186
0.000871486
0.000857063
0.000839437
0.000820009
0.00079917
0.000780515
0.000765436
0.000771592
0.00084007
0.000926481
0.00100122
0.00106392
0.00110978
0.00114028
0.00114556
0.00112564
0.0010892
0.00105172
0.00101241
0.000973137
0.000934848
0.00089955
0.000869701
0.000846946
0.000836021
0.000838578
0.000915203
0.000926889
0.000926818
0.000920445
0.00090977
0.000895309
0.000877749
0.000858512
0.000838045
0.00082019
0.000806921
0.000819523
0.00088832
0.000969685
0.00104046
0.00110011
0.00114353
0.00117221
0.00117791
0.00116046
0.00112637
0.00109026
0.0010519
0.00101329
0.000975644
0.000941083
0.000911883
0.000889802
0.000878745
0.000881554
0.000948616
0.000960611
0.000960625
0.000954237
0.00094335
0.000928647
0.000910977
0.00089178
0.000871542
0.000854309
0.000842666
0.00086118
0.000928882
0.00100546
0.00107251
0.0011293
0.00117058
0.00119776
0.00120397
0.00118903
0.00115742
0.00112293
0.00108577
0.00104807
0.00101123
0.00097748
0.000948973
0.000927521
0.000916442
0.000919343
0.00098024
0.000992275
0.000992013
0.000985296
0.000973899
0.000958681
0.000940662
0.000921285
0.000901092
0.000884264
0.000874068
0.000897833
0.000963555
0.00103575
0.00109941
0.00115367
0.00119321
0.00121931
0.00122613
0.00121375
0.00118468
0.00115194
0.00111611
0.00107944
0.00104353
0.00101066
0.00098291
0.000962117
0.000951186
0.000954117
0.00101113
0.00102288
0.001022
0.00101463
0.00100239
0.000986371
0.000967735
0.000947937
0.000927565
0.000911015
0.000902124
0.000930239
0.000993456
0.0010617
0.00112234
0.00117445
0.00121267
0.00123813
0.00124568
0.00123585
0.00120936
0.00117849
0.00114413
0.00110865
0.00107381
0.00104192
0.00101502
0.000994946
0.000984314
0.00098727
0.00104182
0.00105288
0.00105111
0.00104274
0.00102935
0.00101224
0.000992729
0.000972258
0.000951474
0.00093491
0.000927156
0.000958853
0.00101934
0.00108403
0.00114199
0.0011923
0.00122957
0.00125481
0.00126321
0.00125593
0.00123206
0.00120321
0.00117049
0.00113638
0.00110277
0.001072
0.00104607
0.00102682
0.00101663
0.00101962
0.00107244
0.0010824
0.00107947
0.00106977
0.00105496
0.00103651
0.00101588
0.000994499
0.000973058
0.000956185
0.000949413
0.00098393
0.00104162
0.00110309
0.00115866
0.00120748
0.00124414
0.00126952
0.00127888
0.00127414
0.00125298
0.00122629
0.0011954
0.00116287
0.00113067
0.0011012
0.0010764
0.0010581
0.00104852
0.00105154
0.00110279
0.00111121
0.00110688
0.00109561
0.00107914
0.00105915
0.00103722
0.0010147
0.000992352
0.000974879
0.000968973
0.00100554
0.00106049
0.00111902
0.00117242
0.00122002
0.00125633
0.00128214
0.00129258
0.00129032
0.001272
0.0012476
0.00121874
0.00118801
0.00115745
0.00112947
0.00110599
0.00108882
0.00107998
0.00108301
0.00113236
0.00113886
0.00113294
0.00111991
0.00110165
0.00107999
0.00105658
0.00103271
0.00100923
0.000990882
0.000985845
0.00102356
0.00107594
0.00113176
0.0011832
0.00122974
0.00126591
0.00129239
0.00130399
0.00130413
0.00128876
0.00126681
0.00124018
0.00121147
0.00118277
0.0011565
0.00113456
0.00111867
0.00111071
0.0011137
0.00116044
0.00116471
0.00115707
0.00114219
0.00112207
0.00109867
0.00107367
0.00104828
0.00102343
0.00100401
0.000999832
0.00103794
0.00108789
0.00114116
0.00119077
0.00123639
0.00127254
0.00129987
0.00131272
0.00131512
0.00130277
0.00128342
0.00125921
0.00123273
0.00120611
0.00118174
0.00116154
0.0011471
0.00114013
0.00114303
0.00118614
0.00118804
0.00117861
0.00116188
0.00113991
0.00111476
0.00108809
0.00106106
0.00103467
0.00101428
0.00101153
0.00104891
0.00109637
0.0011471
0.00119492
0.00123966
0.00127576
0.00130405
0.0013183
0.00132282
0.00131348
0.00129686
0.00127522
0.00125116
0.00122682
0.00120454
0.00118624
0.00117338
0.00116747
0.0011702
0.0012085
0.00120805
0.00119686
0.00117834
0.0011546
0.00112774
0.00109936
0.00107075
0.00104319
0.00102431
0.00102345
0.0010593
0.00110313
0.00115035
0.00119581
0.00123958
0.00127563
0.0013047
0.00132022
0.00132675
0.00132032
0.00130653
0.00128758
0.00126608
0.00124417
0.00122414
0.00120787
0.00119667
0.00119184
0.00119432
0.0012266
0.00122396
0.00121108
0.00119087
0.00116542
0.001137
0.00110731
0.00107845
0.00105207
0.00103439
0.00103508
0.00106902
0.00110958
0.00115371
0.00119688
0.00123815
0.00127249
0.00130149
0.00131817
0.00132646
0.00132274
0.00131193
0.00129571
0.00127684
0.00125745
0.00123976
0.00122561
0.00121609
0.0012123
0.00121446
0.00123962
0.00123498
0.0012205
0.00119882
0.00117225
0.00114318
0.00111425
0.00108614
0.0010608
0.0010441
0.00104599
0.00107784
0.00111544
0.00115678
0.0011977
0.00123671
0.00126962
0.00129746
0.00131377
0.00132207
0.00132061
0.00131227
0.00129904
0.00128296
0.0012661
0.00125069
0.00123866
0.00123081
0.00122797
0.00122972
0.00124688
0.00124036
0.00122481
0.00120252
0.00117702
0.0011489
0.00112069
0.00109329
0.00106892
0.00105311
0.00105588
0.00108557
0.00112047
0.00115926
0.00119783
0.00123489
0.00126655
0.00129328
0.00130935
0.00131803
0.00131708
0.00130986
0.00129795
0.00128382
0.00126958
0.00125651
0.00124637
0.00124006
0.00123803
0.00123933
0.00124808
0.00124074
0.00122641
0.00120546
0.00118093
0.00115373
0.00112625
0.00109956
0.00107611
0.00106115
0.00106453
0.00109206
0.00112449
0.00116081
0.00119718
0.00123237
0.00126285
0.00128852
0.00130441
0.00131341
0.00131303
0.00130697
0.00129638
0.0012839
0.00127098
0.00125885
0.00124922
0.00124346
0.00124195
0.00124279
0.00124708
0.00124037
0.00122699
0.00120722
0.00118365
0.00115737
0.00113066
0.00110472
0.00108217
0.00106804
0.00107182
0.00109715
0.00112729
0.00116103
0.00119545
0.00122887
0.00125818
0.00128284
0.00129857
0.00130781
0.00130804
0.00130311
0.00129394
0.00128285
0.00127111
0.00126003
0.00125103
0.00124537
0.00124299
0.00124256
0.0012447
0.00123837
0.00122593
0.00120745
0.00118487
0.00115961
0.00113375
0.00110862
0.00108692
0.00107364
0.00107764
0.00110077
0.00112858
0.00115995
0.00119244
0.00122415
0.00125226
0.00127596
0.00129149
0.00130087
0.00130173
0.00129787
0.00129011
0.00128034
0.00126969
0.00125952
0.00125111
0.00124547
0.00124245
0.00124103
0.00124036
0.00123417
0.00122279
0.00120569
0.00118442
0.00116034
0.00113538
0.00111113
0.0010903
0.00107787
0.00108189
0.00110269
0.00112812
0.00115744
0.00118795
0.00121795
0.00124486
0.0012676
0.00128287
0.00129228
0.00129376
0.00129092
0.00128446
0.00127596
0.00126646
0.00125712
0.00124925
0.00124355
0.00123984
0.00123752
0.00123353
0.00122756
0.00121717
0.00120166
0.00118197
0.00115932
0.0011355
0.00111217
0.00109229
0.00108067
0.00108452
0.00110279
0.00112608
0.00115324
0.0011818
0.00121008
0.00123573
0.0012575
0.0012724
0.00128171
0.00128377
0.00128187
0.00127663
0.00126931
0.00126091
0.00125244
0.00124501
0.00123912
0.00123466
0.00123145
0.00122379
0.00121825
0.00120903
0.00119513
0.00117721
0.00115625
0.00113384
0.00111178
0.00109293
0.00108201
0.00108539
0.0011014
0.00112247
0.00114725
0.00117383
0.00120036
0.00122469
0.00124541
0.00125979
0.00126884
0.0012714
0.00127034
0.00126624
0.00126006
0.0012527
0.00124502
0.00123795
0.0012318
0.00122652
0.0012224
0.00121073
0.00120595
0.00119818
0.00118606
0.00117001
0.00115095
0.00113032
0.00110981
0.0010923
0.00108221
0.00108496
0.0010988
0.00111753
0.00113986
0.00116414
0.00118885
0.00121173
0.00123123
0.00124484
0.00125343
0.00125633
0.00125595
0.00125287
0.00124777
0.00124139
0.00123443
0.0012276
0.00122109
0.00121497
0.00120992
0.00119419
0.00119057
0.00118469
0.00117466
0.00116081
0.00114398
0.00112544
0.00110717
0.00109163
0.00108265
0.00108479
0.00109659
0.00111295
0.00113267
0.00115427
0.00117655
0.00119765
0.00121548
0.00122788
0.0012357
0.00123866
0.00123873
0.00123644
0.00123223
0.00122671
0.0012204
0.00121373
0.00120677
0.00119975
0.00119375
0.00117484
0.00117338
0.00117023
0.00116323
0.0011526
0.00113919
0.00112438
0.00110963
0.00109722
0.00109039
0.0010925
0.00110252
0.00111648
0.00113294
0.00115087
0.00116943
0.00118734
0.00120235
0.00121246
0.00121876
0.00122109
0.00122094
0.00121887
0.00121513
0.00121012
0.00120418
0.00119746
0.00118982
0.00118165
0.00117456
0.00116987
0.00117331
0.00117553
0.00117439
0.00117032
0.00116399
0.00115647
0.0011489
0.00114283
0.00114001
0.00114276
0.00115056
0.00116058
0.00117166
0.00118282
0.00119407
0.00120492
0.0012141
0.00121986
0.0012231
0.00122371
0.00122241
0.00121962
0.00121541
0.00120999
0.00120349
0.00119593
0.00118714
0.00117747
0.001169
0.00131794
0.00132813
0.00133628
0.00134196
0.00134559
0.00134692
0.00134702
0.00134597
0.00134378
0.00133926
0.00133495
0.00133201
0.00132975
0.00132809
0.0013239
0.00132013
0.00131799
0.00131706
0.00131691
0.00131854
0.00132134
0.00132456
0.00132762
0.00133007
0.00133152
0.0013316
0.00132999
0.00132647
0.00132118
0.00131592
0.000191736
0.000190748
0.000185263
0.000178151
0.000169998
0.000161179
0.000151928
0.000142844
0.000134256
0.000127641
0.000123718
0.000125637
0.000132961
0.00014671
0.000161647
0.000175865
0.000187604
0.000197136
0.000199771
0.000195875
0.000190764
0.000186395
0.000182546
0.000179237
0.000176283
0.00017375
0.000172215
0.000171584
0.000173878
0.0001785
0.00110812
0.00109136
0.00102334
0.000947971
0.000878547
0.000812654
0.000753628
0.000707778
0.000674696
0.000660397
0.000659473
0.000673367
0.000683844
0.000734519
0.000802913
0.000869771
0.000923834
0.000982146
0.0010064
0.000987017
0.000960658
0.000939484
0.000918189
0.000897604
0.000876455
0.000858508
0.000847395
0.000840657
0.000838632
0.000859582
0.00203299
0.00208418
0.0020023
0.00187751
0.00174941
0.00162308
0.00150759
0.00141723
0.00135209
0.00132539
0.00132568
0.00134914
0.00137298
0.00146609
0.0015901
0.0017049
0.00178892
0.00188586
0.00194342
0.00192938
0.00189257
0.00185761
0.00181691
0.00177334
0.00172719
0.00168696
0.00165906
0.00164347
0.00164184
0.00169106
0.00286375
0.00297271
0.0028976
0.00274786
0.00257955
0.00240791
0.00224815
0.00212052
0.00202761
0.00199288
0.0020007
0.00202903
0.00207129
0.00220042
0.00236612
0.00251364
0.00261367
0.00273616
0.00282769
0.00283144
0.00279593
0.00275338
0.00269641
0.00263079
0.00255922
0.00249471
0.00245169
0.00242999
0.00242681
0.00250266
0.00359002
0.00376019
0.00369012
0.00352236
0.00333088
0.00313163
0.00294295
0.00278986
0.00267967
0.00264268
0.00265741
0.00269338
0.00274905
0.00290798
0.00310065
0.00326952
0.00337989
0.00351932
0.00364151
0.00366797
0.00363996
0.00359284
0.00352189
0.00343405
0.00334155
0.00326401
0.00321022
0.00318405
0.00317937
0.00327658
0.00426526
0.00444315
0.00437028
0.00419929
0.00399921
0.0037865
0.00358238
0.00341541
0.00329543
0.00326041
0.00328137
0.00333387
0.00339426
0.00357309
0.00378094
0.00396212
0.00408169
0.00423178
0.00437801
0.00442751
0.0044111
0.00436029
0.00427949
0.00418373
0.00408396
0.00400063
0.00394113
0.00391129
0.00390326
0.00400668
0.00487081
0.00503371
0.00495375
0.00478649
0.00458804
0.00437292
0.00416442
0.00399354
0.00387102
0.0038404
0.00386735
0.00392662
0.00400448
0.00418337
0.00439787
0.00458449
0.00471252
0.00486929
0.00503053
0.00509968
0.00509841
0.00506598
0.00499383
0.00489737
0.00478777
0.00468839
0.00461341
0.00456747
0.004551
0.00465243
0.00540979
0.00554573
0.00545541
0.00529635
0.00510502
0.00489377
0.00468883
0.00452158
0.00440258
0.00437628
0.00440899
0.00446968
0.0045504
0.00473901
0.00494542
0.00513217
0.00526714
0.00542987
0.00559588
0.00569992
0.00571669
0.00568297
0.00560632
0.00550152
0.0053852
0.00528003
0.00519958
0.00515159
0.00513779
0.00523128
0.00588978
0.00599139
0.00589018
0.00574178
0.0055576
0.00535351
0.00515679
0.0049977
0.00488697
0.00486555
0.00490186
0.00495869
0.00503653
0.00522141
0.00542038
0.005604
0.00574363
0.00591211
0.00607693
0.00620017
0.00623048
0.00620429
0.00613097
0.00602749
0.00591203
0.00580672
0.00572517
0.00567683
0.00566455
0.00574597
0.00631655
0.00637895
0.006272
0.00613095
0.00595227
0.00575694
0.0055709
0.00542147
0.00532158
0.00530172
0.00533747
0.00539007
0.00546078
0.00563602
0.005823
0.00600149
0.00614713
0.0063192
0.0064811
0.00661813
0.00666238
0.00664512
0.00657921
0.00648221
0.00637253
0.00627127
0.00619227
0.00614536
0.006134
0.00620118
0.00669398
0.00671541
0.00660842
0.00646853
0.00629452
0.00610805
0.00593314
0.00579392
0.0057038
0.00568305
0.00571429
0.00576088
0.00582235
0.00598321
0.00615554
0.00632771
0.00647935
0.00665349
0.00681357
0.0069594
0.00701817
0.00701167
0.00695655
0.00687017
0.00677032
0.00667677
0.00660339
0.00655978
0.00654927
0.00660156
0.00702345
0.00700528
0.00690013
0.00675808
0.00658767
0.00640935
0.00624487
0.00611495
0.00603253
0.00600814
0.00603148
0.00606986
0.0061219
0.00626483
0.00642111
0.00658618
0.00674354
0.00691904
0.00707953
0.00722811
0.0073032
0.00730955
0.00726792
0.00719529
0.00710838
0.00702552
0.00696037
0.00692182
0.00691243
0.00695002
0.00730373
0.00725111
0.00714457
0.00700028
0.00683285
0.0066618
0.00650641
0.00638411
0.00630656
0.00627605
0.00628837
0.00631707
0.00636036
0.00648312
0.00662279
0.00678004
0.0069414
0.00711977
0.00728163
0.00742892
0.0075211
0.00754247
0.00751643
0.00745987
0.00738833
0.00731844
0.0072635
0.0072315
0.00722366
0.00724694
0.00753075
0.00745091
0.00734042
0.00719416
0.0070295
0.00686495
0.00671715
0.00660031
0.00652397
0.00648587
0.00648369
0.00650268
0.00653823
0.00663992
0.00676305
0.00691175
0.00707483
0.00725737
0.00742101
0.00756557
0.00767368
0.00771209
0.00770328
0.00766447
0.00761009
0.00755488
0.00751153
0.00748702
0.00748107
0.00749092
0.0076978
0.00760341
0.0074858
0.00733766
0.00717587
0.00701728
0.00687563
0.00676178
0.00668281
0.00663417
0.00661363
0.00662553
0.00665402
0.00673592
0.00684329
0.00698294
0.00714545
0.00733179
0.00749782
0.00764135
0.00776116
0.00781845
0.00782817
0.00780826
0.00777223
0.00773295
0.00770208
0.00768556
0.00768154
0.00767897
0.00780292
0.00770381
0.0075776
0.00742808
0.0072695
0.00711654
0.00697974
0.00686558
0.00678028
0.00671218
0.00667094
0.00668042
0.00670181
0.00676908
0.00686314
0.00699394
0.00715407
0.00734147
0.00751339
0.00765802
0.00778259
0.00786059
0.00788998
0.00788966
0.00787268
0.00785014
0.00783224
0.00782388
0.00782166
0.0078076
0.00784844
0.00774471
0.00761215
0.0074623
0.00730717
0.00715958
0.00702632
0.0069055
0.00679896
0.00671549
0.00665702
0.00666139
0.00666833
0.00671751
0.00679888
0.00692907
0.00709619
0.00728687
0.00746421
0.00761358
0.0077398
0.00783712
0.00788723
0.00790686
0.00790924
0.00790397
0.00789934
0.00789905
0.0078985
0.00787404
0.00783342
0.00772395
0.0075857
0.00743603
0.00728346
0.00713975
0.0069962
0.00686237
0.00674085
0.00664647
0.00657506
0.00656919
0.00655845
0.00658778
0.00665307
0.00677543
0.00694215
0.00714447
0.00733612
0.0075042
0.00763325
0.00774578
0.00781791
0.00785805
0.0078798
0.00789228
0.00790154
0.00790918
0.00791036
0.00787737
0.00775795
0.00764182
0.00749786
0.00734857
0.00718464
0.00702802
0.00687799
0.00673855
0.0066092
0.00650896
0.00642833
0.00640762
0.00637869
0.00638738
0.00643403
0.00654335
0.00670619
0.0069189
0.00711667
0.00729405
0.00744179
0.00757574
0.00767736
0.00774075
0.00778194
0.00781235
0.00783768
0.00785385
0.00785728
0.0078201
0.00762739
0.00750691
0.0073497
0.00718587
0.00701519
0.00685023
0.00669272
0.00654417
0.00641035
0.00630825
0.00622037
0.00618301
0.00613656
0.00612475
0.0061518
0.00624512
0.00639969
0.0066029
0.00679982
0.0069857
0.00715141
0.0072989
0.00741619
0.00751179
0.00759076
0.00765428
0.00770455
0.00773358
0.00774064
0.00771094
0.00742991
0.00728565
0.00712408
0.00695721
0.00678277
0.00661166
0.00645088
0.00629706
0.0061559
0.00605052
0.00595613
0.00590246
0.00584054
0.0058091
0.00581753
0.00589232
0.00603326
0.00622183
0.00641117
0.00659818
0.00677489
0.0069342
0.00706827
0.00718624
0.00728242
0.00736243
0.00742744
0.00747326
0.00749873
0.00749681
0.00710165
0.00694291
0.00679134
0.00663952
0.006478
0.00631572
0.00615711
0.00600113
0.00585488
0.00574298
0.00564164
0.00557355
0.00549999
0.00545088
0.00544135
0.00549886
0.00562425
0.00579282
0.00596838
0.00614919
0.00632866
0.00649631
0.00664219
0.00677657
0.00689406
0.00699008
0.00706666
0.00712468
0.00716381
0.00718223
0.0066787
0.00652195
0.00638445
0.00625022
0.00610772
0.0059654
0.00581477
0.00565823
0.00551397
0.0053922
0.00528395
0.00520514
0.0051244
0.00506164
0.00503763
0.00507896
0.00518756
0.00533328
0.00548994
0.00565749
0.00583187
0.00600236
0.00615447
0.0062983
0.00642969
0.00653991
0.00662761
0.00669326
0.00673808
0.006768
0.00618201
0.00604185
0.00592568
0.00580964
0.00569652
0.00556883
0.00542372
0.00527349
0.0051366
0.00500481
0.00489064
0.00480585
0.0047232
0.00465334
0.00462014
0.00464741
0.00473891
0.00486088
0.0049948
0.00514304
0.00530488
0.0054709
0.00562316
0.00577004
0.0059079
0.00602626
0.00612111
0.00619044
0.00623735
0.00627221
0.005633
0.00552061
0.00543024
0.0053432
0.00524239
0.0051262
0.00499569
0.00485749
0.0047228
0.00458718
0.00447167
0.00438501
0.00430632
0.00423983
0.00420237
0.00422134
0.00429603
0.004395
0.00450415
0.00462829
0.00476982
0.00492194
0.00506794
0.00521023
0.0053471
0.00546776
0.0055646
0.00563621
0.00568273
0.00571678
0.0050503
0.00497422
0.00490799
0.00483874
0.00475462
0.00465332
0.00453646
0.00440943
0.00428116
0.00415073
0.00404272
0.00396101
0.00389156
0.00383858
0.00380592
0.00382286
0.00388399
0.00396517
0.00404654
0.00414263
0.004255
0.00438199
0.00451141
0.00463943
0.00476481
0.00487501
0.00496478
0.00503318
0.00508257
0.0051194
0.00445194
0.00440444
0.00436406
0.00431406
0.00424442
0.00415875
0.00405874
0.0039488
0.00383651
0.00372575
0.00363615
0.00356919
0.00351689
0.00348123
0.00346441
0.00348481
0.00353675
0.00360128
0.00366045
0.00372872
0.00380585
0.00389776
0.00399217
0.0040906
0.00419047
0.0042836
0.00436163
0.00441978
0.00446085
0.00449239
0.00385272
0.00383528
0.00382065
0.00379275
0.00374487
0.00368293
0.00360996
0.00352907
0.00344708
0.0033688
0.00330659
0.00325963
0.00322455
0.0032067
0.00320345
0.00323974
0.0032999
0.0033609
0.00340539
0.00344746
0.00348152
0.0035147
0.00356182
0.00361529
0.00367537
0.00374046
0.00379492
0.00383137
0.00385536
0.00387497
0.00328294
0.00330322
0.00332072
0.00332272
0.00330487
0.00327679
0.00323995
0.00319531
0.00314901
0.00310241
0.00306591
0.00304696
0.00304236
0.00304889
0.00306922
0.00312214
0.00318655
0.0032473
0.00328853
0.00331934
0.00333362
0.00333491
0.00333223
0.00332794
0.00332161
0.00331312
0.00330709
0.00330101
0.00329015
0.00328615
0.00305544
0.00306607
0.00306613
0.00306241
0.00305516
0.00304745
0.0030395
0.00302715
0.0030134
0.00299927
0.00298996
0.00299356
0.00300987
0.00304187
0.00309103
0.00316954
0.00325207
0.00333045
0.00338521
0.00341964
0.0034284
0.00341428
0.00338452
0.00334596
0.0033027
0.00325772
0.00321443
0.00317308
0.00312694
0.00307692
0.000222276
0.000221469
0.00021527
0.00020726
0.000198042
0.000188109
0.000177877
0.000168249
0.000159708
0.000154046
0.000151991
0.000155545
0.000163706
0.000177968
0.000193883
0.000209598
0.000222758
0.000233928
0.000235523
0.00022927
0.000222352
0.000216627
0.000212082
0.000208784
0.000206244
0.000204204
0.000202911
0.000202107
0.000203436
0.000207515
0.00148449
0.00152729
0.00145873
0.00136499
0.00127135
0.00117977
0.0010979
0.00103542
0.000991838
0.000974144
0.000974952
0.000995587
0.00102135
0.00109542
0.00119348
0.00128561
0.00134986
0.0014236
0.00143936
0.00138956
0.00134138
0.00130972
0.00128671
0.00126558
0.00124173
0.00121914
0.00120216
0.0011866
0.00116757
0.00118454
0.00283345
0.00297358
0.00289603
0.00273646
0.00256586
0.00239568
0.00224253
0.00212732
0.00204888
0.0020253
0.0020355
0.00207098
0.0021063
0.00222723
0.00238743
0.00252513
0.00260458
0.00271187
0.00275505
0.00270161
0.00264437
0.00260866
0.00257955
0.00254569
0.00250038
0.00245391
0.00241782
0.00238964
0.00236622
0.00242317
0.0040549
0.00426822
0.00419407
0.00399531
0.00377474
0.00355128
0.00334902
0.00319663
0.00309386
0.00307232
0.00309271
0.00313697
0.00317686
0.00332626
0.00351451
0.00366924
0.00374275
0.00386626
0.00393943
0.00390769
0.00386816
0.00384649
0.00382195
0.00378215
0.00372038
0.00365353
0.00359964
0.00355955
0.00354138
0.00363705
0.00516127
0.00540552
0.00531836
0.00510083
0.00485517
0.00460488
0.00437533
0.00420231
0.00408598
0.00406823
0.00409667
0.00414387
0.00418435
0.00434945
0.00454468
0.00469976
0.00476657
0.00489812
0.00500133
0.00500328
0.00499448
0.00499393
0.00497712
0.00493338
0.00485705
0.00477296
0.00470356
0.00466185
0.00464678
0.00477101
0.00615882
0.00639085
0.00628722
0.00605968
0.00581091
0.00554863
0.00530944
0.00513098
0.00501292
0.00500805
0.0050441
0.00508377
0.00510826
0.00528036
0.00546994
0.00561706
0.00568134
0.00581712
0.00594794
0.00598684
0.0060142
0.00603569
0.00602609
0.00597861
0.00590324
0.00582503
0.00576039
0.00572717
0.00571548
0.00584178
0.00703159
0.00722831
0.00710464
0.00688349
0.00664142
0.00638459
0.0061478
0.00597389
0.00585899
0.00585892
0.00589362
0.00592933
0.00596024
0.00611213
0.00628724
0.00642364
0.00648952
0.00662749
0.00678167
0.00685335
0.00691881
0.00698576
0.00700557
0.00697109
0.00689381
0.00679711
0.0067127
0.00666039
0.00664651
0.00676769
0.0077923
0.0079429
0.00780162
0.00759608
0.00736585
0.00711777
0.00689124
0.00672704
0.00661851
0.00662007
0.0066536
0.00667895
0.0066936
0.00683876
0.00699876
0.00712474
0.00719475
0.00733564
0.00751245
0.00764203
0.0077398
0.00780484
0.00781954
0.00778221
0.00770147
0.0076056
0.00752344
0.00747578
0.00746871
0.00757862
0.00845574
0.00855628
0.00840227
0.00821538
0.00799352
0.00775722
0.00754437
0.00739146
0.00729092
0.00729057
0.00731933
0.00733722
0.0073335
0.00746661
0.0076115
0.00773046
0.00780757
0.00795115
0.0081422
0.00829145
0.00840779
0.00848603
0.00850802
0.00847481
0.00839942
0.00831022
0.00823411
0.00819141
0.00818914
0.0082844
0.00903539
0.00908354
0.00892883
0.00875199
0.00853684
0.00831252
0.00811362
0.00797109
0.00787886
0.00787292
0.00789419
0.00790462
0.00788469
0.0080041
0.00813449
0.00824983
0.00833807
0.0084869
0.00868327
0.00885178
0.008979
0.00906295
0.00909032
0.00906398
0.00899828
0.00891958
0.00885263
0.00881644
0.00881828
0.00889796
0.00954097
0.0095374
0.00939106
0.00921497
0.00900531
0.00879176
0.00860527
0.00847099
0.00838615
0.00837162
0.00838328
0.00838523
0.00835351
0.00845918
0.00857603
0.00869057
0.00879341
0.00894853
0.00914607
0.00932918
0.00946305
0.00954933
0.00958129
0.00956321
0.00950935
0.0094434
0.0093879
0.00936013
0.00936614
0.00943072
0.00997705
0.00992704
0.00978918
0.00961027
0.00940469
0.00920021
0.00902403
0.00889561
0.00881637
0.00879096
0.00879178
0.0087843
0.00874612
0.00883686
0.00894162
0.00905712
0.00917618
0.00933877
0.00953455
0.00972957
0.00986761
0.00995522
0.00999153
0.00998234
0.00994093
0.00988886
0.00984637
0.00982867
0.0098393
0.00988961
0.0103428
0.010257
0.0101202
0.00993923
0.00973701
0.00954018
0.00937223
0.00924795
0.00917138
0.00913397
0.00912325
0.00910626
0.00906525
0.00913968
0.00923309
0.00934999
0.00948582
0.00965645
0.00984927
0.0100545
0.0101958
0.0102853
0.0103263
0.0103263
0.0102978
0.0102597
0.0102307
0.0102239
0.0102398
0.0102767
0.0106317
0.0105253
0.0103837
0.0102005
0.0100014
0.00981127
0.00964981
0.00952815
0.00945184
0.0094015
0.00937879
0.00935262
0.00931054
0.00936657
0.00944835
0.00956591
0.00971829
0.00989709
0.0100874
0.0103013
0.0104464
0.0105394
0.0105859
0.0105955
0.0105801
0.0105562
0.0105406
0.0105443
0.0105656
0.0105907
0.0108383
0.0107279
0.010576
0.0103905
0.0101948
0.0100111
0.00985463
0.00973451
0.00965602
0.00959176
0.00955636
0.00952107
0.0094776
0.00951219
0.00958084
0.0096977
0.0098663
0.0100537
0.0102437
0.0104641
0.0106143
0.0107131
0.0107669
0.0107868
0.0107847
0.0107752
0.0107732
0.0107875
0.0108135
0.0108276
0.0109668
0.0108513
0.0106908
0.0105045
0.0103131
0.0101357
0.00998294
0.00986339
0.00977794
0.0096959
0.00964634
0.00960185
0.00955361
0.00956465
0.00961861
0.00973385
0.0099183
0.0101182
0.0103116
0.0105343
0.0106922
0.0107993
0.010863
0.0108945
0.0109062
0.0109115
0.010923
0.0109482
0.0109793
0.0109839
0.0110136
0.0108888
0.0107221
0.0105369
0.0103505
0.0101798
0.0100273
0.00990229
0.00980773
0.00970988
0.00964689
0.00959423
0.00953249
0.00952004
0.0095569
0.00966594
0.00985926
0.0100775
0.0102808
0.0105048
0.0106714
0.0107893
0.010866
0.0109114
0.0109381
0.0109589
0.0109844
0.0110209
0.0110582
0.0110556
0.0109738
0.0108354
0.0106624
0.0104804
0.0102987
0.0101288
0.0099759
0.0098477
0.00974096
0.00963049
0.00955527
0.00949197
0.0094115
0.00937584
0.00939355
0.00949287
0.00968973
0.0099219
0.0101395
0.0103613
0.0105379
0.0106746
0.0107676
0.0108293
0.0108728
0.0109112
0.0109519
0.0110006
0.0110466
0.0110422
0.0108467
0.0106926
0.0105115
0.0103206
0.0101386
0.00997523
0.00982493
0.00969548
0.00957421
0.0094547
0.00936861
0.00928745
0.00918849
0.00913053
0.00912761
0.00921487
0.00941569
0.00965898
0.00988629
0.0101044
0.0102762
0.0104307
0.010546
0.0106321
0.0107005
0.0107609
0.0108195
0.0108828
0.0109418
0.0109506
0.0106507
0.0104729
0.0102775
0.0100767
0.00988803
0.00971962
0.0095722
0.00944201
0.00930492
0.00917988
0.00907867
0.00897931
0.00886318
0.00878458
0.00876106
0.00883842
0.00904091
0.00928798
0.00952529
0.00973793
0.00989611
0.0100408
0.0101673
0.0102772
0.0103708
0.0104543
0.0105358
0.0106196
0.0106982
0.0107449
0.0103218
0.0101103
0.0099153
0.00973175
0.00954289
0.00937267
0.0092204
0.00908394
0.00893171
0.00880213
0.00868253
0.00856723
0.00843816
0.00833222
0.00829993
0.00837748
0.00857906
0.00882836
0.00906996
0.00927145
0.00941728
0.0095496
0.00968143
0.00980367
0.00991119
0.0100123
0.010113
0.010217
0.0103194
0.0104022
0.00982711
0.00960746
0.00942313
0.00925469
0.00908934
0.00892568
0.00876807
0.00862058
0.00845528
0.00831905
0.00818353
0.00805456
0.0079138
0.00780223
0.00776314
0.00784879
0.00805038
0.00830195
0.00853913
0.0087244
0.00885626
0.00896967
0.00908091
0.00921191
0.009339
0.00946175
0.00958037
0.00970235
0.00982475
0.00993278
0.0091983
0.00899336
0.00882585
0.00867027
0.00852707
0.00837024
0.00821439
0.00805686
0.00788279
0.0077377
0.00759181
0.00745256
0.00730959
0.00720219
0.00718087
0.00727751
0.0074837
0.00773682
0.00796265
0.00812773
0.00824041
0.00832837
0.00841105
0.00851375
0.00864772
0.00878564
0.00892205
0.00905917
0.00919343
0.00931681
0.00844887
0.00827669
0.008128
0.00799607
0.00786283
0.0077188
0.00756513
0.00740309
0.00722719
0.00707353
0.00692563
0.00678566
0.00665275
0.00657605
0.00658402
0.00669712
0.00691378
0.00716684
0.00737848
0.00752102
0.00760873
0.0076655
0.00771249
0.00777126
0.00786585
0.00800452
0.00814796
0.00829344
0.00843522
0.0085664
0.00760427
0.00746685
0.00734461
0.00723603
0.00711887
0.00698586
0.00683859
0.00668014
0.00651063
0.00635502
0.00621437
0.00608396
0.005992
0.0059617
0.00600804
0.00614681
0.00637664
0.00663048
0.00682911
0.00694941
0.00700759
0.00703036
0.00703537
0.00704631
0.00708078
0.00715712
0.00728846
0.007431
0.00757084
0.00770214
0.00669222
0.00658914
0.0064974
0.0064154
0.00631964
0.00620289
0.00606749
0.00592249
0.00577146
0.00562327
0.00549872
0.00541953
0.00538249
0.00539881
0.00548621
0.00566277
0.00591081
0.00616823
0.00635861
0.00646064
0.00648868
0.00647356
0.00643463
0.00639518
0.0063699
0.00637545
0.0064164
0.00651008
0.0066366
0.00675892
0.00575059
0.00568309
0.00562967
0.00557395
0.0055048
0.00541193
0.00529819
0.00517579
0.00505481
0.00495466
0.00488282
0.00485169
0.00485882
0.004918
0.00505499
0.00528001
0.00555558
0.00582698
0.00601868
0.00611133
0.00611156
0.00605161
0.0059623
0.0058681
0.00578766
0.00573276
0.00569567
0.00569442
0.0057241
0.00578372
0.00496696
0.00490993
0.00486534
0.00482262
0.00476931
0.00470817
0.00463977
0.004561
0.00448691
0.00442622
0.00439149
0.00439637
0.00444505
0.00455784
0.0047542
0.00504691
0.00536904
0.00567784
0.00589172
0.00598603
0.00596127
0.00585514
0.00570778
0.00554861
0.00539898
0.0052717
0.00517024
0.00509811
0.00504925
0.00501133
0.00445564
0.00439532
0.00434584
0.0042996
0.0042502
0.00420202
0.00415697
0.00410448
0.0040644
0.00404026
0.00404505
0.00409367
0.0041973
0.00438748
0.00467727
0.00506867
0.00546856
0.00584964
0.00611588
0.0062379
0.00621168
0.00607631
0.00587
0.00562746
0.00537876
0.00514673
0.00494787
0.00478807
0.00465682
0.00453175
0.00461993
0.00446474
0.00432177
0.00420109
0.00410536
0.00403543
0.00398828
0.00395329