/*--------------------------------*- C++ -*----------------------------------*\
  =========                 |
  \\      /  F ield         | OpenFOAM: The Open Source CFD Toolbox
   \\    /   O peration     | Website:  https://openfoam.org
    \\  /    A nd           | Version:  12
     \\/     M anipulation  |
\*---------------------------------------------------------------------------*/
FoamFile
{
    format      ascii;
    class       volScalarField;
    location    "250/air";
    object      p_rgh;
}
// * * * * * * * * * * * * * * * * * * * * * * * * * * * * * * * * * * * * * //

dimensions      [1 -1 -2 0 0 0 0];

internalField   nonuniform List<scalar> 
243000
(
31.9949
31.7408
31.5915
31.4216
31.2631
31.1153
30.9784
30.8572
30.7414
30.6465
30.5535
30.5214
30.4578
30.384
30.3289
30.4039
30.5708
30.7916
30.9934
31.2038
31.3374
31.4557
31.5296
31.5945
31.646
31.6899
31.7357
31.7649
31.8149
31.8116
31.9669
31.7371
31.5992
31.4321
31.2763
31.1301
30.9941
30.8734
30.7576
30.6629
30.5719
30.5388
30.4784
30.4155
30.366
30.4398
30.5989
30.8119
31.0124
31.2243
31.3574
31.4757
31.5489
31.6135
31.6647
31.7073
31.7533
31.7815
31.8367
31.8366
31.9049
31.6911
31.5625
31.3975
31.2468
31.1051
30.9742
30.8595
30.7485
30.6598
30.5734
30.5412
30.4799
30.4068
30.3512
30.4143
30.5591
30.7603
30.9506
31.1634
31.3008
31.4258
31.5049
31.5753
31.6316
31.6775
31.7276
31.7551
31.8145
31.8124
31.8138
31.6
31.4795
31.3188
31.1765
31.0424
30.9197
30.8126
30.7084
30.6255
30.5471
30.5145
30.4423
30.3513
30.2833
30.3279
30.4508
30.6357
30.8144
31.0272
31.1746
31.3121
31.4038
31.4859
31.5528
31.6069
31.6637
31.694
31.7533
31.7499
31.7015
31.4929
31.3793
31.2236
31.0895
30.9628
30.8483
30.7484
30.6512
30.5739
30.5035
30.4662
30.3772
30.2669
30.1834
30.2072
30.3059
30.4719
30.6395
30.8524
31.0113
31.1633
31.2705
31.3669
31.4465
31.5108
31.5754
31.6102
31.6678
31.6654
31.5702
31.3717
31.2647
31.1151
30.9894
30.8705
30.7642
30.6717
30.5818
30.51
30.4468
30.4022
30.2936
30.1661
30.0665
30.0703
30.1448
30.2916
30.4469
30.6594
30.828
30.994
31.1166
31.2275
31.32
31.3946
31.4667
31.5066
31.5621
31.5619
31.4215
31.2364
31.1354
30.9927
30.8756
30.7647
30.6668
30.5819
30.4992
30.4326
30.3752
30.3216
30.1915
30.0482
29.9325
29.9167
29.9676
30.0953
30.2377
30.4483
30.6251
30.8038
30.9416
31.067
31.1726
31.2578
31.3375
31.3833
31.4364
31.4388
31.2571
31.0873
30.9919
30.8569
30.7486
30.646
30.5566
30.4795
30.4038
30.3422
30.289
30.2249
30.0727
29.9149
29.7836
29.7489
29.7772
29.8857
30.0148
30.2216
30.4048
30.5944
30.7468
30.8867
31.0053
31.1013
31.1887
31.2404
31.2913
31.2975
31.0786
30.9247
30.8347
30.7083
30.6092
30.5153
30.4349
30.3653
30.2966
30.2399
30.1891
30.1133
29.94
29.7692
29.6232
29.5703
29.5773
29.6666
29.7815
29.9825
30.1699
30.3693
30.535
30.6882
30.8193
30.9258
31.0205
31.079
31.1286
31.1394
30.8869
30.7488
30.6644
30.5476
30.4581
30.3737
30.3025
30.2407
30.179
30.127
30.0768
29.9886
29.7962
29.6142
29.4544
29.384
29.3717
29.4414
29.5413
29.7345
29.9238
30.1306
30.3079
30.4732
30.6158
30.7326
30.8343
30.9
30.9492
30.9652
30.6827
30.56
30.4817
30.3756
30.2966
30.2225
30.1609
30.1072
30.0526
30.0053
29.9541
29.8533
29.6446
29.4531
29.2801
29.1939
29.1637
29.2137
29.2975
29.4808
29.6692
29.881
30.0676
30.2435
30.3963
30.5226
30.631
30.704
30.7539
30.7758
30.4666
30.3588
30.2875
30.1936
30.1262
30.0635
30.012
29.9668
29.9198
29.8773
29.8236
29.7104
29.4888
29.29
29.105
29.0044
28.9571
28.9876
29.0541
29.2251
29.4098
29.6234
29.8168
30.0011
30.1627
30.2974
30.4117
30.4919
30.5433
30.572
30.2395
30.1465
30.0834
30.0037
29.949
29.8987
29.8578
29.8217
29.7826
29.7458
29.6886
29.5637
29.333
29.1288
28.9334
28.8198
28.7559
28.7675
28.8157
28.9718
29.1497
29.3618
29.559
29.7492
29.9173
30.0591
30.1782
30.2652
30.3188
30.355
30.0031
29.9251
29.8721
29.8085
29.7679
29.7309
29.7016
29.6756
29.6451
29.614
29.5528
29.4175
29.182
28.9744
28.7707
28.6449
28.5641
28.5585
28.5879
28.7262
28.8941
29.1011
29.2985
29.4916
29.6636
29.8106
29.9332
30.0262
30.0823
30.1269
29.7603
29.6981
29.6575
29.6117
29.5862
29.5641
29.5479
29.5338
29.5126
29.4864
29.4209
29.2775
29.0424
28.8343
28.6245
28.4863
28.388
28.3657
28.3766
28.4948
28.6493
28.8472
29.041
29.2335
29.4065
29.5561
29.6804
29.7782
29.8369
29.8907
29.5157
29.4704
29.4444
29.4179
29.4093
29.4042
29.4028
29.4008
29.3891
29.3667
29.296
29.1485
28.9185
28.7136
28.501
28.352
28.2363
28.195
28.1886
28.2847
28.4224
28.6076
28.7937
28.9816
29.1522
29.3015
29.4254
29.5264
29.587
29.6508
29.2754
29.2482
29.2392
29.2345
29.2447
29.2577
29.271
29.2805
29.2772
29.2566
29.1811
29.0335
28.8123
28.6135
28.4017
28.2451
28.1156
28.0561
28.0322
28.1037
28.2217
28.3907
28.565
28.744
28.9082
29.0542
29.1752
29.2775
29.3394
29.4133
29.048
29.0411
29.0512
29.0692
29.0989
29.13
29.1573
29.1769
29.1798
29.16
29.0815
28.9364
28.7263
28.5354
28.3261
28.1651
28.0259
27.9526
27.9136
27.9628
28.0584
28.2063
28.3643
28.5299
28.6843
28.8235
28.9389
29.04
29.1018
29.1858
28.8455
28.859
28.8896
28.9299
28.9788
29.0267
29.0662
29.0948
29.1016
29.0823
29.0027
28.8633
28.6647
28.4819
28.2765
28.113
27.9662
27.8803
27.83
27.8631
27.938
28.0634
28.2035
28.3526
28.4931
28.6214
28.7276
28.8244
28.8849
28.9789
28.6794
28.7116
28.7623
28.8231
28.8892
28.9535
29.0039
29.0397
29.0488
29.0292
28.9509
28.8185
28.6321
28.4573
28.2566
28.092
27.9384
27.8405
27.7789
27.7995
27.8578
27.9626
28.0857
28.2177
28.3428
28.4586
28.555
28.646
28.7043
28.8054
28.5548
28.6048
28.6739
28.7534
28.8365
28.9171
28.9774
29.019
29.0277
29.0066
28.9317
28.8121
28.6376
28.4664
28.27
28.1052
27.9445
27.8367
27.7653
27.7757
27.8192
27.9037
28.0097
28.1249
28.2356
28.3393
28.4276
28.5134
28.5691
28.672
28.4719
28.5406
28.6296
28.7256
28.8215
28.9149
28.9905
29.0382
29.0433
29.0202
28.948
28.8341
28.6713
28.5078
28.3179
28.1547
27.9908
27.8749
27.7935
27.7967
27.8295
27.902
27.9857
28.082
28.1761
28.2671
28.348
28.4293
28.484
28.5805
28.4347
28.5218
28.6265
28.7483
28.8693
28.9759
29.0546
29.0989
29.0995
29.0727
29.0009
28.8924
28.7397
28.5832
28.4
28.2399
28.0753
27.9538
27.8654
27.8626
27.8876
27.9462
28.0167
28.1014
28.1858
28.2673
28.3341
28.4034
28.4541
28.5377
28.4606
28.5785
28.7066
28.8464
28.978
29.0883
29.1654
29.2037
29.199
29.1672
29.0928
28.9866
28.8414
28.6916
28.515
28.3593
28.1964
28.0722
27.981
27.9742
27.9935
28.0426
28.1034
28.177
28.25
28.3216
28.3817
28.4445
28.4909
28.5619
28.5694
28.7098
28.8562
29.0081
29.144
29.2541
29.3248
29.354
29.3425
29.3036
29.224
29.1161
28.9746
28.8304
28.6603
28.5101
28.3515
28.2285
28.1379
28.1303
28.147
28.1909
28.2459
28.3126
28.3788
28.4441
28.4995
28.5586
28.6025
28.6663
28.7555
28.9122
29.0704
29.2291
29.366
29.472
29.5321
29.549
29.5283
29.4798
29.392
29.2794
29.138
28.9969
28.832
28.6888
28.537
28.4189
28.3326
28.3277
28.3451
28.3881
28.442
28.5067
28.5706
28.6334
28.6865
28.743
28.7865
28.8472
29.0295
29.1916
29.3564
29.5164
29.649
29.7454
29.79
29.7916
29.7575
29.6955
29.5952
29.474
29.3286
29.1876
29.0262
28.89
28.7473
28.6379
28.5603
28.5617
28.5855
28.6356
28.6957
28.765
28.8314
28.8956
28.9499
29.0064
29.052
29.1133
29.3089
29.4826
29.6576
29.8213
29.9502
30.0359
30.065
30.0541
30.0055
29.9267
29.8106
29.6769
29.5236
29.3788
29.2186
29.0889
28.9584
28.8615
28.7927
28.799
28.8301
28.8885
28.9594
29.0382
29.1129
29.1824
29.2367
29.2887
29.3299
29.3871
29.9467
30.0952
30.243
30.3733
30.4681
30.52
30.5148
30.4749
30.395
30.2886
30.1455
29.9905
29.8254
29.6784
29.5229
29.4033
29.2928
29.2213
29.1735
29.2
29.2603
29.3508
29.4517
29.5579
29.6563
29.7459
29.8212
29.8903
29.9461
30.0192
29.2471
29.4757
29.7277
29.9374
30.0839
30.1646
30.1753
30.1401
30.0626
29.9565
29.8096
29.6483
29.478
29.3272
29.1655
29.0388
28.9167
28.8287
28.7523
28.7557
28.7952
28.8654
28.9488
29.0386
29.1207
29.1908
29.2389
29.2673
29.2747
29.3072
31.604
31.281
31.1425
30.9692
30.8241
30.6923
30.5759
30.4798
30.3862
30.3096
30.2084
30.1273
29.9567
29.7097
29.4659
29.3178
29.2828
29.355
29.5196
29.8127
30.0983
30.3679
30.5959
30.8011
30.9745
31.116
31.2354
31.3095
31.3894
31.3907
31.5628
31.275
31.1525
30.9837
30.8425
30.7131
30.5988
30.5042
30.4127
30.3381
30.2385
30.1582
29.985
29.7411
29.5003
29.3484
29.3023
29.3625
29.5265
29.8225
30.1115
30.3843
30.6145
30.8212
30.9955
31.1371
31.2569
31.3309
31.4149
31.4204
31.4967
31.237
31.1312
30.9678
30.8325
30.7073
30.5978
30.5062
30.4164
30.3434
30.2442
30.1629
29.9841
29.7356
29.4915
29.3344
29.2773
29.3246
29.4751
29.7649
30.0571
30.3422
30.5821
30.7969
30.9762
31.1206
31.2421
31.3138
31.3986
31.4031
31.4075
31.1679
31.0664
30.9125
30.7833
30.6646
30.5628
30.4773
30.3915
30.32
30.2197
30.1329
29.9438
29.6951
29.4501
29.288
29.2202
29.2552
29.3926
29.6764
29.9701
30.2606
30.5064
30.7271
30.9122
31.0611
31.1876
31.2617
31.3474
31.3544
31.2976
31.074
30.9822
30.8342
30.7136
30.6027
30.5086
30.4288
30.3471
30.2765
30.1758
30.0817
29.8791
29.6286
29.3814
29.2151
29.138
29.1618
29.2865
29.5636
29.8578
30.1533
30.4056
30.6328
30.8244
30.9786
31.1098
31.1867
31.2704
31.2811
31.1709
30.9669
30.8813
30.7393
30.627
30.5237
30.4369
30.3623
30.2844
30.2142
30.1136
30.0104
29.793
29.5391
29.289
29.1187
29.0342
29.0484
29.1602
29.4291
29.7226
30.0228
30.2821
30.5164
30.7152
30.8752
31.0107
31.0909
31.1711
31.1858
31.0289
30.8461
30.7648
30.629
30.5251
30.4292
30.3493
30.2795
30.2048
30.1338
30.0328
29.9197
29.6877
29.4297
29.1762
29.0022
28.9107
28.9172
29.0157
29.2755
29.5668
29.8711
30.1375
30.3793
30.5854
30.7512
30.8906
30.9745
31.0509
31.0701
30.8726
30.7112
30.6332
30.5046
30.409
30.3205
30.2473
30.1818
30.1102
30.0378
29.9355
29.8117
29.5656
29.3034
29.046
28.8689
28.7705
28.7695
28.8551
29.1048
29.3922
29.6992
29.9719
30.2211
30.4346
30.6057
30.7494
30.838
30.9112
30.9356
30.7027
30.5617
30.4871
30.3666
30.2797
30.1988
30.132
30.0707
30.0019
29.9296
29.8254
29.6885
29.4295
29.1633
28.9019
28.7217
28.6165
28.6078
28.6802
28.9185
29.2006
29.5087
29.7866
30.043
30.2638
30.4404
30.5885
30.6828
30.7538
30.7838
30.5198
30.3974
30.3266
30.2158
30.1379
30.0652
30.0048
29.9475
29.8811
29.8091
29.7027
29.5519
29.2825
29.0127
28.7472
28.5635
28.4515
28.4345
28.4937
28.719
28.9941
29.3018
29.584
29.8462
30.0738
30.2564
30.4091
30.51
30.58
30.616
30.3242
30.2187
30.1523
30.0527
29.9848
29.9208
29.867
29.814
29.7501
29.6777
29.5682
29.4049
29.1276
28.8552
28.5857
28.398
28.2787
28.2529
28.2983
28.509
28.7755
29.0807
29.3659
29.6327
29.8654
30.0543
30.2117
30.32
30.3903
30.433
30.1156
30.0262
29.9655
29.8786
29.8217
29.7672
29.7205
29.6723
29.6112
29.5391
29.4257
29.2507
28.9685
28.6949
28.4218
28.2297
28.1024
28.0668
28.0978
28.2919
28.5479
28.8484
29.1344
29.4048
29.6416
29.836
29.9973
30.1128
30.1849
30.2353
29.8945
29.8213
29.7677
29.6954
29.6505
29.6066
29.5679
29.5253
29.4674
29.3963
29.2789
29.0935
28.8094
28.5363
28.2603
28.0633
27.9273
27.881
27.8971
28.0722
28.3154
28.6083
28.8928
29.1648
29.4053
29.6043
29.7686
29.8898
29.9643
30.0237
29.6626
29.6065
29.5616
29.5059
29.4741
29.4419
29.4122
29.3763
29.3225
29.2531
29.1318
28.9382
28.6555
28.3849
28.1072
27.9051
27.7591
27.7012
27.7021
27.8561
28.0831
28.3656
28.6455
28.9167
29.1584
29.3614
29.5281
29.6545
29.731
29.8
29.4237
29.3851
29.3512
29.3139
29.2964
29.2772
29.2577
29.2296
29.1815
29.1148
28.99
28.7916
28.5136
28.248
27.9704
27.7632
27.6052
27.5341
27.5199
27.6508
27.8582
28.1266
28.3984
28.6656
28.906
29.1106
29.2787
29.4102
29.4886
29.5687
29.182
29.1623
29.1419
29.1247
29.1224
29.1175
29.1101
29.0915
29.0474
28.9835
28.8563
28.6558
28.3841
28.1246
27.8489
27.6404
27.4746
27.39
27.3591
27.4651
27.6492
27.8994
28.159
28.4187
28.6546
28.8582
29.0258
29.1608
29.2414
29.3345
28.9447
28.9456
28.9413
28.9456
28.9591
28.9699
28.9732
28.963
28.9229
28.862
28.7331
28.5338
28.2699
28.0167
27.7426
27.5333
27.3607
27.269
27.2275
27.3111
27.4682
27.6941
27.9368
28.1849
28.4129
28.6124
28.777
28.914
28.9956
29.1029
28.7231
28.7438
28.758
28.784
28.8131
28.8371
28.8496
28.8478
28.8148
28.7568
28.6276
28.4342
28.1803
27.935
27.6631
27.4502
27.266
27.1665
27.1178
27.1849
27.3203
27.5237
27.7457
27.977
28.192
28.3832
28.5423
28.679
28.7607
28.8827
28.5271
28.5692
28.6005
28.6444
28.6882
28.7252
28.7493
28.7566
28.7304
28.6747
28.5478
28.3632
28.1213
27.8853
27.6175
27.4026
27.2084
27.0951
27.0345
27.0855
27.2021
27.3849
27.5857
27.8008
28.0032
28.1853
28.3358
28.4692
28.5491
28.6834
28.3657
28.4253
28.4719
28.5332
28.5944
28.6471
28.6827
28.6978
28.6768
28.6226
28.5012
28.3274
28.0983
27.8722
27.61
27.3951
27.1933
27.0682
26.9946
27.0308
27.1256
27.281
27.4594
27.6584
27.8486
28.0211
28.1627
28.2933
28.3729
28.5166
28.2406
28.3179
28.3821
28.4639
28.5443
28.6125
28.6587
28.6791
28.6615
28.6133
28.5047
28.3393
28.118
27.9004
27.6447
27.4318
27.2241
27.0888
27.0045
27.0315
27.1047
27.2337
27.3865
27.5624
27.7361
27.8963
28.0294
28.1566
28.2356
28.3831
28.1597
28.2617
28.3448
28.4433
28.5388
28.626
28.6861
28.7088
28.6921
28.6458
28.5423
28.3876
28.1795
27.9721
27.724
27.5151
27.3032
27.1595
27.0657
27.0848
27.1441
27.2556
27.3936
27.5449
27.6905
27.8326
27.9538
28.0721
28.1497
28.2886
28.1374
28.2567
28.3678
28.4959
28.6091
28.7053
28.7677
28.7905
28.7739
28.7275
28.6269
28.4817
28.2861
28.0875
27.849
27.6452
27.4312
27.2818
27.1826
27.1949
27.2435
27.3376
27.4548
27.5867
27.7223
27.8543
27.9668
28.0765
28.1473
28.2613
28.2019
28.3483
28.4823
28.6243
28.7448
28.8448
28.9067
28.9275
28.9093
28.8614
28.7612
28.6222
28.4365
28.2476
28.0184
27.8206
27.6075
27.4562
27.3555
27.3636
27.4041
27.485
27.5871
27.7034
27.8223
27.942
28.0452
28.146
28.215
28.3145
28.3633
28.5292
28.6763
28.824
28.9482
29.0476
29.1053
29.121
29.0994
29.048
28.946
28.8083
28.6311
28.4504
28.2296
28.0386
27.8298
27.681
27.5831
27.5901
27.6262
27.6988
27.791
27.8966
28.0034
28.1109
28.209
28.3054
28.3738
28.466
28.6235
28.796
28.9499
29.0978
29.2208
29.3146
29.3637
29.3714
29.3436
29.2847
29.1767
29.0395
28.867
28.6925
28.4792
28.297
28.0981
27.9574
27.8669
27.8757
27.9102
27.9772
28.0645
28.1648
28.2659
28.3666
28.4586
28.5526
28.6247
28.7146
28.9802
29.1513
29.3052
29.4473
29.5626
29.6444
29.679
29.6742
29.6355
29.5672
29.4531
29.3144
29.1457
28.9785
28.7729
28.5972
28.4057
28.2711
28.1902
28.2075
28.2536
28.3332
28.4227
28.5222
28.6197
28.7145
28.804
28.8956
28.9687
29.0575
29.4137
29.5726
29.7178
29.8484
29.9514
30.018
30.0376
30.0218
29.9723
29.8924
29.7701
29.6248
29.4468
29.2756
29.0684
28.8955
28.7079
28.5792
28.5072
28.5298
28.5858
28.6795
28.7864
28.906
29.0254
29.1402
29.2375
29.3294
29.4037
29.4844
30.0426
30.1878
30.3151
30.4253
30.5049
30.5445
30.538
30.5001
30.4291
30.3289
30.1918
30.0373
29.8555
29.6876
29.4888
29.3308
29.155
29.0482
28.9945
29.0174
29.0716
29.1633
29.2801
29.4134
29.5497
29.6839
29.8012
29.9126
30.0076
30.1011
31
31.0911
31.1737
31.2411
31.2784
31.2754
31.2361
31.166
31.0673
30.9463
30.7975
30.643
30.4773
30.3355
30.1693
30.0527
29.9156
29.859
29.8499
29.9007
29.9769
30.0828
30.2034
30.3335
30.4618
30.5886
30.7134
30.8388
30.9526
31.0637
31.5033
31.1955
31.0701
30.8854
30.7273
30.5795
30.4459
30.3327
30.219
30.1249
29.9938
29.8621
29.6582
29.4463
29.2383
29.154
29.1604
29.2517
29.4012
29.6875
29.9327
30.184
30.3967
30.5956
30.7671
30.9122
31.0411
31.1202
31.2239
31.2315
31.4636
31.1751
31.0726
30.8939
30.7415
30.5981
30.4682
30.3582
30.2463
30.1528
30.021
29.8864
29.6824
29.469
29.2547
29.157
29.1448
29.2221
29.3678
29.6668
29.9297
30.189
30.4068
30.6101
30.7853
30.9327
31.0639
31.1444
31.2528
31.2659
31.3999
31.1373
31.0538
30.8836
30.7405
30.6009
30.4739
30.3664
30.2558
30.1624
30.0289
29.8918
29.6858
29.4689
29.2451
29.138
29.111
29.1755
29.3092
29.6083
29.8794
30.1571
30.3898
30.605
30.7863
30.9354
31.0676
31.1484
31.2578
31.2718
31.3152
31.0761
30.9949
30.8353
30.6996
30.5673
30.4475
30.3459
30.2372
30.1423
30.0033
29.862
29.6492
29.4297
29.2005
29.0856
29.0454
29.1013
29.2247
29.522
29.7977
30.0827
30.3228
30.5494
30.7406
30.8962
31.0318
31.1125
31.22
31.238
31.2106
30.9905
30.9159
30.76
30.6326
30.5075
30.3953
30.2986
30.1926
30.097
29.9549
29.8086
29.5843
29.3608
29.1259
29.0055
28.9543
29.004
29.118
29.4124
29.6913
29.9829
30.2309
30.4645
30.6633
30.8248
30.9659
31.0493
31.1545
31.179
31.0892
30.8914
30.8193
30.6677
30.5477
30.4293
30.3236
30.2307
30.1259
30.028
29.8825
29.7305
29.4943
29.2657
29.0251
28.9009
28.8407
28.8856
28.9906
29.2808
29.5617
29.8596
30.1155
30.3566
30.5634
30.731
30.8771
30.9642
31.0653
31.097
30.9525
30.7776
30.7059
30.559
30.446
30.3334
30.2331
30.1431
30.0383
29.9374
29.7872
29.6289
29.3815
29.1473
28.901
28.7747
28.7067
28.7477
28.8438
29.1289
29.4103
29.7137
29.9772
30.2263
30.4412
30.6136
30.7648
30.8567
30.9533
30.9927
30.8006
30.6473
30.5758
30.4346
30.3278
30.2206
30.1249
30.0368
29.9311
29.8263
29.6709
29.5066
29.2479
29.0085
28.7567
28.6296
28.5547
28.5919
28.6793
28.9582
29.2385
29.546
29.816
30.073
30.2954
30.473
30.6298
30.728
30.8203
30.8671
30.634
30.4991
30.4281
30.2943
30.1936
30.0915
29.9998
29.9128
29.8058
29.697
29.5359
29.3658
29.0961
28.8521
28.5948
28.4681
28.387
28.4203
28.4986
28.7698
29.0473
29.3573
29.6333
29.8966
30.1262
30.3113
30.4738
30.58
30.6692
30.7232
30.4545
30.3342
30.263
30.1378
30.0434
29.9468
29.8587
29.7723
29.6637
29.5515
29.3846
29.2081
28.9284
28.681
28.4185
28.2927
28.2062
28.2353
28.3037
28.5657
28.8384
29.1493
29.4304
29.6988
29.9346
30.1284
30.2969
30.4123
30.5001
30.5614
30.26
30.1528
30.0821
29.9654
29.8778
29.787
29.7024
29.6168
29.5065
29.3911
29.2182
29.0359
28.7475
28.4983
28.2313
28.107
28.015
28.0397
28.0975
28.3483
28.6141
28.9235
29.2079
29.4818
29.7233
29.9254
30.0992
30.2229
30.3116
30.3803
30.0474
29.9556
29.8852
29.7777
29.6973
29.6132
29.5324
29.4477
29.336
29.218
29.0394
28.8518
28.5566
28.3075
28.0373
27.9153
27.8175
27.8374
27.8836
28.1208
28.3774
28.6825
28.9676
29.2456
29.4942
29.7044
29.8827
30.0125
30.1025
30.1793
29.8162
29.7425
29.6717
29.5754
29.5036
29.427
29.3506
29.2673
29.1549
29.035
28.8511
28.6592
28.3598
28.1133
27.8414
27.7227
27.6187
27.6332
27.6668
27.888
28.1323
28.4297
28.7127
28.9918
29.2452
29.4637
29.6479
29.7847
29.875
29.959
29.5693
29.5122
29.4437
29.3609
29.2987
29.2309
29.1596
29.079
28.9668
28.8464
28.6587
28.4646
28.1645
27.9242
27.6535
27.5384
27.426
27.4339
27.4537
27.6562
27.8845
28.1705
28.4476
28.7247
28.9787
29.2028
29.3927
29.5395
29.6315
29.7228
29.3085
29.2667
29.2048
29.1375
29.0862
29.0287
28.9638
28.888
28.7766
28.6537
28.4613
28.2661
27.9672
27.735
27.4663
27.3603
27.2457
27.2501
27.2539
27.4342
27.6416
27.912
28.1789
28.4499
28.7013
28.9272
29.12
29.2749
29.3712
29.474
29.0357
29.0124
28.9597
28.91
28.8713
28.8268
28.769
28.6945
28.5832
28.4573
28.2606
28.0649
27.7686
27.5453
27.278
27.1822
27.0667
27.0767
27.0739
27.2349
27.4155
27.6642
27.9157
28.1756
28.4199
28.6444
28.8369
28.997
29.097
29.2138
28.7592
28.7561
28.7158
28.6869
28.663
28.6269
28.5739
28.4998
28.3894
28.2635
28.0658
27.8721
27.5825
27.3713
27.1074
27.0193
26.8963
26.9068
26.9007
27.0502
27.2125
27.4427
27.6732
27.9148
28.1452
28.3635
28.5519
28.7151
28.817
28.9488
28.4912
28.5074
28.4846
28.4733
28.4599
28.4302
28.3825
28.3131
28.2048
28.0797
27.8835
27.695
27.4163
27.2207
26.9635
26.8872
26.7556
26.7593
26.7424
26.8771
27.0255
27.2359
27.4494
27.6762
27.894
28.1006
28.2793
28.4397
28.5412
28.6889
28.2459
28.2771
28.2677
28.2703
28.2655
28.2473
28.2066
28.142
28.0358
27.913
27.7209
27.5412
27.2773
27.1006
26.8528
26.7906
26.6493
26.6491
26.6231
26.7384
26.865
27.0503
27.2438
27.4556
27.6602
27.8558
28.0279
28.1865
28.2864
28.4474
28.023
28.0673
28.0705
28.0879
28.095
28.0881
28.0541
27.9935
27.8907
27.7712
27.5862
27.4191
27.1728
27.018
26.7838
26.7331
26.5839
26.5818
26.548
26.6457
26.7514
26.9148
27.0807
27.2672
27.451
27.6334
27.7989
27.956
28.0532
28.225
27.8299
27.8897
27.9088
27.9411
27.9585
27.9612
27.9329
27.8767
27.7783
27.6621
27.4892
27.3379
27.1107
26.9792
26.7612
26.7194
26.5647
26.5631
26.5229
26.6053
26.692
26.8324
26.9788
27.1347
27.2945
27.4583
27.609
27.7568
27.8496
28.026
27.6878
27.7626
27.7956
27.8407
27.8668
27.8756
27.8529
27.8008
27.7071
27.5968
27.4381
27.3038
27.098
26.9912
26.7842
26.7524
26.5948
26.5952
26.5508
26.6216
26.6998
26.8208
26.9437
27.0753
27.203
27.3442
27.4796
27.6149
27.7016
27.8692
27.6081
27.6993
27.7441
27.8012
27.8336
27.8441
27.8236
27.7758
27.6915
27.5948
27.4466
27.3234
27.1396
27.0505
26.8524
26.8329
26.6745
26.6772
26.6318
26.6946
26.7618
26.8672
26.9762
27.0997
27.2129
27.3213
27.4284
27.5446
27.6219
27.7695
27.6007
27.6997
27.769
27.8344
27.8682
27.876
27.8554
27.8101
27.731
27.64
27.5053
27.4006
27.2325
27.1516
26.9644
26.959
26.8022
26.8088
26.7655
26.8232
26.8819
26.9766
27.0755
27.1867
27.2923
27.3892
27.4732
27.5696
27.6364
27.752
27.6963
27.8039
27.8783
27.9411
27.9724
27.9768
27.9548
27.9097
27.8336
27.7492
27.6285
27.5277
27.3658
27.292
27.1164
27.126
26.9751
26.9888
26.9503
27.0054
27.0586
27.1457
27.2372
27.3403
27.4404
27.5376
27.6176
27.6972
27.7485
27.8346
27.9128
28.0105
28.0814
28.1346
28.158
28.1565
28.1313
28.0843
28.008
27.9175
27.7937
27.6883
27.532
27.4664
27.3044
27.3325
27.1926
27.2169
27.1872
27.2419
27.2907
27.3712
27.457
27.5546
27.6509
27.7472
27.8355
27.9178
27.9718
28.042
28.222
28.3109
28.3754
28.415
28.4233
28.4081
28.368
28.3055
28.2156
28.1123
27.9797
27.8747
27.7291
27.6754
27.5326
27.5871
27.466
27.5066
27.4926
27.5491
27.5933
27.6647
27.7419
27.8311
27.9208
28.0132
28.1019
28.193
28.2614
28.3341
28.5461
28.6228
28.6781
28.7023
28.696
28.6657
28.6092
28.5305
28.4268
28.3185
28.189
28.0921
27.9639
27.9311
27.8167
27.9043
27.8082
27.87
27.8755
27.9409
27.9906
28.0626
28.1278
28.1998
28.2701
28.344
28.4201
28.5024
28.5689
28.6419
28.975
29.0109
29.0333
29.0282
29.0021
28.9548
28.8854
28.7986
28.6921
28.585
28.4633
28.3767
28.2605
28.2455
28.156
28.2818
28.2234
28.3152
28.3456
28.4274
28.4885
28.5684
28.6412
28.7188
28.7923
28.8651
28.9267
28.9874
29.0339
29.0805
29.6998
29.6809
29.649
29.5955
29.5227
29.4319
29.3239
29.2045
29.0733
28.9486
28.8185
28.7329
28.631
28.6443
28.5887
28.7725
28.7697
28.9076
28.9733
29.0875
29.1723
29.271
29.3578
29.4454
29.5257
29.603
29.6715
29.7371
29.7859
29.827
31.6015
31.328
31.2254
31.028
30.8498
30.6798
30.5296
30.4097
30.2956
30.2161
30.0909
29.9827
29.8009
29.6548
29.5168
29.5406
29.6368
29.7685
29.8776
30.1184
30.2566
30.4381
30.5789
30.7256
30.8482
30.9616
31.0741
31.1405
31.2584
31.2529
31.5348
31.2407
31.1735
30.9912
30.831
30.6774
30.5357
30.4207
30.3086
30.2283
30.1025
29.991
29.8049
29.64
29.481
29.471
29.5303
29.6305
29.7433
30.0096
30.1745
30.3749
30.5316
30.6989
30.8422
30.9654
31.083
31.1529
31.2769
31.277
31.4493
31.1665
31.1152
30.9472
30.8019
30.6588
30.5281
30.4215
30.3118
30.2315
30.1029
29.9836
29.7848
29.6099
29.4342
29.396
29.4238
29.4978
29.6068
29.8932
30.0848
30.3035
30.4749
30.6543
30.8135
30.95
31.0785
31.1536
31.28
31.2806
31.3438
31.0863
31.0428
30.8769
30.7424
30.6079
30.4867
30.3872
30.2816
30.2
30.0667
29.9439
29.736
29.5518
29.361
29.2996
29.3
29.3562
29.4626
29.7597
29.9733
30.2091
30.3951
30.5843
30.7522
30.8953
31.0316
31.1109
31.2377
31.2431
31.2267
30.9983
30.9569
30.7939
30.6686
30.5408
30.4272
30.3326
30.229
30.144
30.0069
29.881
29.6637
29.4716
29.2678
29.1881
29.1656
29.2083
29.3115
29.615
29.8464
30.0974
30.2973
30.4961
30.6719
30.8211
30.9637
31.0462
31.1699
31.1841
31.0991
30.9007
30.8569
30.6977
30.5801
30.4577
30.35
30.2586
30.1555
30.0665
29.9255
29.7969
29.5706
29.3719
29.1563
29.062
29.0201
29.0518
29.1509
29.4577
29.7035
29.9683
30.1816
30.39
30.573
30.7277
30.876
30.9627
31.0808
31.1047
30.9616
30.7912
30.7423
30.5878
30.4763
30.3583
30.2552
30.1656
30.062
29.969
29.8243
29.6933
29.4586
29.2544
29.028
28.9222
28.8633
28.8867
28.9803
29.2879
29.5448
29.8222
30.048
30.2658
30.4553
30.6154
30.7684
30.8605
30.9719
31.0052
30.8131
30.6676
30.6123
30.4633
30.3568
30.2426
30.143
30.0542
29.9494
29.8528
29.7045
29.5716
29.3296
29.1204
28.884
28.7691
28.6952
28.7125
28.7996
29.1061
29.3717
29.6598
29.897
30.1232
30.3188
30.4846
30.6415
30.74
30.8452
30.8868
30.6529
30.5281
30.4659
30.3231
30.2209
30.1102
30.0135
29.9247
29.8187
29.719
29.5675
29.4329
29.1851
28.9713
28.7255
28.6041
28.516
28.5293
28.6098
28.9134
29.1848
29.4816
29.7288
29.9621
30.1635
30.3348
30.4952
30.5994
30.6997
30.7495
30.48
30.3706
30.3024
30.1662
30.0679
29.961
29.8668
29.7778
29.6705
29.5686
29.4141
29.2784
29.0257
28.808
28.5533
28.4278
28.3267
28.3376
28.4113
28.7098
28.984
29.2871
29.5423
29.7827
29.9897
30.1654
30.3277
30.4368
30.533
30.5909
30.2904
30.1946
30.1204
29.9916
29.8974
29.7947
29.7029
29.6139
29.5059
29.4023
29.2452
29.1096
28.8525
28.6334
28.3708
28.2422
28.1287
28.1385
28.2048
28.4958
28.7703
29.0771
29.3381
29.5843
29.7972
29.9766
30.1393
30.2532
30.347
30.4109
30.0794
29.997
29.9192
29.7988
29.7092
29.6116
29.5225
29.4339
29.326
29.2218
29.0631
28.9297
28.6685
28.4513
28.1831
28.0534
27.9262
27.9347
27.9926
28.2735
28.5456
28.853
29.1171
29.3669
29.5842
29.7672
29.933
30.0508
30.1421
30.2113
29.847
29.7772
29.6982
29.5879
29.5041
29.4124
29.3266
29.24
29.1339
29.0307
28.8704
28.739
28.4729
28.2592
27.9856
27.8607
27.7254
27.7311
27.7782
28.0461
28.3128
28.6172
28.8815
29.1325
29.3513
29.5366
29.7043
29.8308
29.9208
29.9943
29.5955
29.5384
29.4595
29.3607
29.2836
29.1995
29.119
29.0367
28.9298
28.8257
28.6631
28.5319
28.2595
28.0493
27.769
27.6535
27.5175
27.5326
27.5682
27.819
28.0761
28.3738
28.6349
28.8843
29.1023
29.2879
29.452
29.5858
29.6774
29.7585
29.3252
29.2822
29.2056
29.1201
29.0522
28.9785
28.9014
28.8193
28.7089
28.605
28.4431
28.3126
28.037
27.834
27.5492
27.4398
27.2941
27.3269
27.3611
27.601
27.8422
28.1292
28.3824
28.6272
28.8417
29.0254
29.1845
29.3178
29.4098
29.5028
29.04
29.013
28.9417
28.8736
28.8159
28.7464
28.6682
28.5872
28.4791
28.3811
28.2218
28.0941
27.8194
27.6292
27.3437
27.2403
27.0787
27.1168
27.1472
27.3813
27.6102
27.8906
28.1342
28.3701
28.5771
28.7553
28.9092
29.0386
29.1273
29.2325
28.7488
28.7401
28.6794
28.6234
28.568
28.5018
28.428
28.3546
28.2538
28.1631
28.0061
27.8833
27.6133
27.4402
27.1567
27.0642
26.8894
26.9284
26.9452
27.163
27.375
27.6449
27.8829
28.1134
28.3163
28.4902
28.6356
28.7573
28.8381
28.9547
28.4676
28.4724
28.4142
28.3658
28.3149
28.2602
28.1962
28.1312
28.0395
27.9551
27.8017
27.686
27.4254
27.273
26.9941
26.9173
26.7305
26.7727
26.778
26.9753
27.1607
27.4059
27.6309
27.8511
28.0471
28.2219
28.365
28.4876
28.5584
28.6823
28.1939
28.2038
28.1491
28.1156
28.0779
28.0349
27.981
27.9259
27.843
27.7637
27.6158
27.51
27.2631
27.1356
26.8629
26.8066
26.6071
26.6545
26.6497
26.8286
26.9904
27.2088
27.4097
27.609
27.7868
27.9534
28.0922
28.2166
28.2851
28.4165
27.9314
27.9499
27.9104
27.894
27.8683
27.837
27.7942
27.7482
27.6712
27.5975
27.4573
27.3637
27.1335
27.0349
26.7693
26.7368
26.5259
26.5798
26.5674
26.728
26.8672
27.0621
27.2362
27.4144
27.5711
27.7197
27.8434
27.9582
28.0231
28.1601
27.7105
27.7408
27.718
27.716
27.7015
27.6811
27.6468
27.6061
27.5337
27.4665
27.3359
27.2564
27.0441
26.977
26.7199
26.7121
26.4918
26.5532
26.5353
26.6824
26.7988
26.9707
27.1194
27.2728
27.4088
27.5385
27.6458
27.7486
27.8029
27.9388
27.5498
27.5891
27.584
27.5928
27.5882
27.5758
27.5462
27.5088
27.441
27.38
27.2609
27.1951
27.0014
26.9668
26.718
26.7355
26.508
26.5788
26.5562
26.6976
26.8034
26.951
27.0735
27.1958
27.3082
27.4209
27.5106
27.5992
27.6426
27.7694
27.4625
27.509
27.5173
27.5341
27.5357
27.5269
27.4999
27.4646
27.4018
27.347
27.2387
27.1923
27.0123
27.0087
26.7648
26.8087
26.5757
26.6575
26.6319
26.7669
26.861
26.9937
27.1026
27.2113
27.2971
27.3808
27.4527
27.5244
27.5598
27.6634
27.458
27.5095
27.5308
27.5519
27.5525
27.5433
27.5174
27.4827
27.4235
27.3736
27.2748
27.2405
27.0793
27.1017
26.8611
26.932
26.6955
26.7911
26.763
26.8954
26.9816
27.1051
27.2045
27.2999
27.3708
27.4322
27.4863
27.5418
27.57
27.6406
27.5562
27.6034
27.6283
27.6461
27.6442
27.6317
27.6034
27.567
27.5087
27.4623
27.3717
27.3501
27.2016
27.2455
27.0061
27.1043
26.8679
26.9812
26.9518
27.0848
27.1666
27.2887
27.3817
27.4681
27.5303
27.5809
27.615
27.654
27.673
27.722
27.7542
27.7869
27.8088
27.818
27.8105
27.7922
27.7592
27.7196
27.6612
27.6186
27.5352
27.5189
27.3756
27.4383
27.1973
27.3244
27.0948
27.2261
27.2015
27.3353
27.4187
27.5438
27.6336
27.7164
27.775
27.8215
27.8501
27.8747
27.8795
27.9082
28.0705
28.0785
28.0865
28.0802
28.062
28.034
27.9936
27.949
27.8883
27.8416
27.7556
27.7402
27.5976
27.6769
27.4312
27.5917
27.3634
27.5138
27.5017
27.6493
27.7409
27.8712
27.9623
28.0471
28.1071
28.1538
28.1825
28.2055
28.2086
28.2202
28.4964
28.4835
28.4728
28.4469
28.4099
28.3632
28.3057
28.2458
28.1731
28.1175
28.0255
28.0069
27.8632
27.9579
27.706
27.9092
27.675
27.8574
27.8608
28.0337
28.1373
28.2776
28.3755
28.4663
28.531
28.5808
28.6119
28.6348
28.6383
28.644
29.0351
28.9954
28.9556
28.9004
28.8355
28.7628
28.6823
28.6026
28.5144
28.4445
28.3422
28.3183
28.1707
28.2784
28.0188
28.2775
28.0444
28.2731
28.2937
28.4907
28.6118
28.7702
28.8866
28.9952
29.0749
29.1361
29.1741
29.1983
29.2018
29.1972
29.7941
29.7161
29.6276
29.5227
29.4084
29.2885
29.1648
29.0472
28.9265
28.8289
28.7052
28.6684
28.5109
28.6268
28.3582
28.6847
28.4601
28.737
28.775
29
29.144
29.3323
29.4823
29.6267
29.7416
29.8361
29.9046
29.9534
29.9762
29.9796
32.0201
31.7599
31.7006
31.521
31.3442
31.1663
30.9971
30.8662
30.7429
30.6875
30.582
30.5366
30.3871
30.4002
30.442
30.8134
31.2574
31.6574
31.6244
31.5969
31.4285
31.3805
31.3377
31.3562
31.3818
31.425
31.4821
31.5055
31.6135
31.5688
31.916
31.6341
31.6063
31.4314
31.271
31.1073
30.9549
30.8367
30.7211
30.6686
30.5653
30.5162
30.3613
30.3548
30.3569
30.6661
31.0435
31.392
31.385
31.4224
31.3126
31.2999
31.2798
31.3132
31.35
31.3994
31.4691
31.5014
31.6199
31.5822
31.8031
31.5258
31.5187
31.3462
31.2007
31.0488
30.9095
30.8018
30.6941
30.6443
30.5384
30.4874
30.323
30.302
30.2691
30.5273
30.8484
31.1637
31.1767
31.2699
31.2081
31.2253
31.2226
31.2677
31.314
31.3691
31.4456
31.4822
31.6096
31.5837
31.6765
31.4268
31.4252
31.2543
31.1213
30.9789
30.8502
30.751
30.6481
30.5981
30.4888
30.4375
30.2622
30.2305
30.1655
30.3837
30.6552
30.9531
30.984
31.1134
31.0899
31.1335
31.1479
31.2044
31.2599
31.3205
31.4014
31.4358
31.5596
31.5403
31.5471
31.3311
31.3257
31.1574