/*--------------------------------*- C++ -*----------------------------------*\
  =========                 |
  \\      /  F ield         | OpenFOAM: The Open Source CFD Toolbox
   \\    /   O peration     | Website:  https://openfoam.org
    \\  /    A nd           | Version:  12
     \\/     M anipulation  |
\*---------------------------------------------------------------------------*/
FoamFile
{
    format      ascii;
    class       volScalarField;
    location    "1600/porous";
    object      rho;
}
// * * * * * * * * * * * * * * * * * * * * * * * * * * * * * * * * * * * * * //

dimensions      [1 -3 0 0 0 0 0];

internalField   nonuniform List<scalar> 
140000
(
933.891
933.891
933.891
933.891
933.891
933.891
933.891
933.891
933.892
933.898
934.18
934.402
934.6
934.787
934.966
935.139
935.31
935.476
935.641
935.803
935.963
936.121
936.278
936.433
936.587
936.739
936.89
937.039
937.187
937.333
937.477
937.62
937.762
937.901
938.039
938.176
938.311
938.444
938.576
938.707
938.837
938.965
939.093
939.219
939.344
939.467
939.589
939.71
939.829
939.947
940.064
940.178
940.291
940.402
940.51
940.617
940.72
940.82
940.914
940.98
940.585
940.332
940.137
939.976
939.836
939.713
939.603
939.503
939.412
939.332
933.891
933.891
933.891
933.891
933.891
933.891
933.891
933.891
933.891
933.896
934.111
934.287
934.445
934.595
934.74
934.881
935.02
935.156
935.291
935.424
935.556
935.687
935.817
935.947
936.075
936.203
936.33
936.456
936.581
936.706
936.829
936.953
937.075
937.197
937.318
937.438
937.558
937.677
937.795
937.912
938.029
938.146
938.262
938.377
938.492
938.606
938.719
938.831
938.942
939.052
939.161
939.269
939.376
939.481
939.585
939.686
939.786
939.883
939.977
940.053
939.815
939.66
939.537
939.434
939.342
939.26
939.184
939.115
939.05
938.993
933.891
933.891
933.891
933.891
933.891
933.891
933.891
933.891
933.891
933.895
934.093
934.25
934.392
934.523
934.65
934.772
934.891
935.008
935.122
935.235
935.346
935.457
935.566
935.674
935.782
935.888
935.994
936.099
936.204
936.308
936.411
936.514
936.616
936.718
936.82
936.921
937.022
937.122
937.222
937.321
937.42
937.519
937.618
937.717
937.815
937.912
938.01
938.106
938.202
938.298
938.392
938.486
938.579
938.671
938.762
938.851
938.938
939.025
939.106
939.178
938.988
938.869
938.778
938.704
938.639
938.582
938.531
938.484
938.441
938.402
933.891
933.891
933.891
933.891
933.891
933.891
933.891
933.891
933.891
933.895
934.088
934.241
934.377
934.503
934.623
934.738
934.849
934.958
935.064
935.168
935.27
935.371
935.47
935.568
935.665
935.761
935.856
935.95
936.043
936.136
936.228
936.319
936.41
936.5
936.589
936.678
936.767
936.855
936.943
937.03
937.117
937.203
937.29
937.376
937.462
937.547
937.632
937.716
937.8
937.883
937.966
938.048
938.129
938.208
938.287
938.365
938.441
938.515
938.586
938.648
938.47
938.358
938.273
938.204
938.145
938.094
938.048
938.006
937.969
937.935
933.891
933.891
933.891
933.891
933.891
933.891
933.891
933.891
933.891
933.895
934.087
934.239
934.373
934.497
934.615
934.728
934.837
934.943
935.046
935.147
935.245
935.342
935.438
935.532
935.625
935.716
935.807
935.896
935.985
936.072
936.159
936.245
936.33
936.415
936.498
936.582
936.664
936.746
936.827
936.908
936.989
937.069
937.149
937.228
937.307
937.386
937.464
937.542
937.618
937.695
937.77
937.844
937.918
937.991
938.062
938.132
938.2
938.267
938.331
938.386
938.21
938.099
938.014
937.945
937.885
937.833
937.786
937.744
937.706
937.671
933.891
933.891
933.891
933.891
933.891
933.891
933.891
933.891
933.891
933.895
934.087
934.239
934.373
934.497
934.614
934.727
934.835
934.94
935.043
935.142
935.24
935.336
935.43
935.523
935.614
935.704
935.793
935.88
935.967
936.053
936.137
936.221
936.304
936.386
936.468
936.548
936.628
936.707
936.786
936.864
936.942
937.019
937.095
937.172
937.248
937.323
937.398
937.472
937.545
937.618
937.689
937.76
937.83
937.899
937.966
938.032
938.097
938.159
938.219
938.27
938.095
937.983
937.898
937.827
937.766
937.713
937.665
937.622
937.582
937.546
933.891
933.891
933.891
933.891
933.891
933.891
933.891
933.891
933.891
933.895
934.087
934.239
934.373
934.497
934.615
934.727
934.836
934.941
935.043
935.143
935.24
935.336
935.43
935.522
935.613
935.703
935.791
935.878
935.964
936.049
936.133
936.216
936.298
936.379
936.459
936.539
936.618
936.696
936.773
936.85
936.927
937.002
937.078
937.153
937.227
937.301
937.374
937.447
937.519
937.59
937.66
937.729
937.797
937.864
937.929
937.993
938.056
938.116
938.174
938.222
938.048
937.936
937.85
937.779
937.717
937.663
937.614
937.57
937.53
937.493
933.891
933.891
933.891
933.891
933.891
933.891
933.891
933.891
933.891
933.895
934.088
934.239
934.373
934.498
934.616
934.728
934.837
934.943
935.045
935.145
935.243
935.338
935.432
935.525
935.616
935.705
935.793
935.88
935.966
936.051
936.134
936.217
936.299
936.38
936.46
936.539
936.617
936.695
936.772
936.849
936.924
937
937.075
937.149
937.223
937.296
937.369
937.441
937.512
937.582
937.652
937.72
937.787
937.853
937.918
937.981
938.042
938.101
938.158
938.206
938.031
937.919
937.833
937.761
937.699
937.645
937.596
937.551
937.51
937.473
933.891
933.891
933.891
933.891
933.891
933.891
933.891
933.891
933.891
933.895
934.088
934.24
934.374
934.498
934.616
934.729
934.838
934.944
935.047
935.147
935.245
935.341
935.435
935.527
935.618
935.708
935.796
935.883
935.969
936.054
936.137
936.22
936.302
936.383
936.463
936.542
936.62
936.698
936.775
936.851
936.926
937.002
937.077
937.151
937.225
937.298
937.37
937.442
937.513
937.583
937.652
937.72
937.787
937.852
937.917
937.979
938.04
938.098
938.154
938.202
938.027
937.915
937.828
937.757
937.695
937.64
937.591
937.546
937.505
937.467
933.891
933.891
933.891
933.891
933.891
933.891
933.891
933.891
933.891
933.895
934.088
934.24
934.374
934.499
934.617
934.73
934.839
934.945
935.048
935.149
935.247
935.343
935.437
935.53
935.621
935.711
935.799
935.886
935.972
936.057
936.141
936.224
936.305
936.386
936.466
936.545
936.624
936.701
936.778
936.854
936.93
937.005
937.08
937.154
937.228
937.301
937.374
937.445
937.516
937.586
937.655
937.723
937.79
937.855
937.919
937.981
938.042
938.1
938.156
938.202
938.028
937.916
937.829
937.757
937.695
937.641
937.591
937.546
937.505
937.467
933.891
933.891
933.891
933.891
933.891
933.891
933.891
933.891
933.891
933.895
934.088
934.24
934.374
934.499
934.617
934.731
934.84
934.946
935.049
935.15
935.248
935.345
935.439
935.532
935.623
935.713
935.802
935.889
935.975
936.06
936.144
936.227
936.308
936.389
936.469
936.548
936.627
936.704
936.781
936.857
936.933
937.009
937.083
937.158
937.232
937.305
937.377
937.449
937.52
937.59
937.659
937.727
937.794
937.859
937.923
937.985
938.045
938.103
938.158
938.205
938.031
937.918
937.832
937.76
937.698
937.643
937.594
937.548
937.507
937.47
933.891
933.891
933.891
933.891
933.891
933.891
933.891
933.891
933.891
933.895
934.088
934.24
934.375
934.499
934.618
934.731
934.841
934.947
935.05
935.151
935.25
935.346
935.441
935.534
935.625
935.715
935.804
935.891
935.977
936.062
936.146
936.229
936.311
936.392
936.472
936.551
936.629
936.707
936.784
936.86
936.936
937.011
937.086
937.161
937.235
937.308
937.381
937.452
937.523
937.593
937.662
937.73
937.797
937.862
937.926
937.988
938.048
938.106
938.161
938.208
938.034
937.921
937.835
937.763
937.701
937.646
937.596
937.551
937.51
937.472
933.891
933.891
933.891
933.891
933.891
933.891
933.891
933.891
933.891
933.895
934.088
934.24
934.375
934.499
934.617
934.731
934.841
934.947
935.051
935.152
935.25
935.347
935.442
935.535
935.627
935.717
935.805
935.893
935.979
936.064
936.148
936.231
936.313
936.394
936.474
936.553
936.631
936.709
936.786
936.862
936.938
937.014
937.089
937.163
937.237
937.311
937.383
937.455
937.526
937.596
937.665
937.733
937.8
937.865
937.929
937.991
938.051
938.109
938.164
938.21
938.036
937.923
937.837
937.765
937.703
937.648
937.599
937.554
937.512
937.475
933.891
933.891
933.891
933.891
933.891
933.891
933.891
933.891
933.891
933.895
934.088
934.24
934.374
934.499
934.617
934.731
934.841
934.947
935.051
935.152
935.251
935.348
935.443
935.536
935.628
935.718
935.806
935.894
935.98
936.065
936.149
936.232
936.314
936.395
936.475
936.555
936.633
936.711
936.788
936.864
936.94
937.016
937.091
937.166
937.24
937.313
937.386
937.457
937.528
937.599
937.668
937.736
937.803
937.868
937.931
937.994
938.054
938.111
938.166
938.212
938.038
937.926
937.839
937.767
937.705
937.65
937.601
937.556
937.514
937.477
933.891
933.891
933.891
933.891
933.891
933.891
933.891
933.891
933.891
933.895
934.088
934.24
934.375
934.499
934.617
934.731
934.841
934.947
935.051
935.152
935.251
935.348
935.443
935.536
935.628
935.718
935.807
935.895
935.981
936.066
936.15
936.233
936.315
936.396
936.476
936.556
936.634
936.712
936.789
936.865
936.941
937.017
937.092
937.167
937.241
937.315
937.387
937.459
937.53
937.6
937.67
937.738
937.804
937.87
937.933
937.995
938.055
938.113
938.168
938.214
938.04
937.927
937.84
937.769
937.707
937.652
937.602
937.557
937.516
937.478
933.891
933.891
933.891
933.891
933.891
933.891
933.891
933.891
933.891
933.895
934.088
934.24
934.374
934.499
934.617
934.73
934.84
934.947
935.051
935.152
935.251
935.348
935.443
935.537
935.629
935.719
935.808
935.895
935.982
936.067
936.151
936.234
936.316
936.397
936.477
936.556
936.635
936.712
936.79
936.866
936.943
937.018
937.094
937.168
937.242
937.316
937.389
937.461
937.532
937.602
937.671
937.739
937.806
937.871
937.935
937.997
938.057
938.114
938.168
938.215
938.041
937.928
937.841
937.77
937.708
937.653
937.603
937.558
937.517
937.479
933.891
933.891
933.891
933.891
933.891
933.891
933.891
933.891
933.891
933.895
934.088
934.24
934.374
934.498
934.617
934.73
934.84
934.947
935.051
935.152
935.251
935.348
935.444
935.537
935.629
935.719
935.808
935.896
935.982
936.067
936.151
936.234
936.316
936.397
936.477
936.557
936.635
936.713
936.79
936.867
936.943
937.019
937.094
937.169
937.243
937.317
937.39
937.462
937.533
937.603
937.672
937.74
937.807
937.872
937.936
937.998
938.057
938.115
938.169
938.215
938.041
937.929
937.842
937.77
937.708
937.653
937.604
937.559
937.517
937.48
933.891
933.891
933.891
933.891
933.891
933.891
933.891
933.891
933.891
933.895
934.088
934.24
934.374
934.498
934.616
934.73
934.84
934.946
935.05
935.152
935.251
935.348
935.444
935.537
935.629
935.719
935.808
935.896
935.982
936.067
936.151
936.234
936.316
936.397
936.478
936.557
936.636
936.714
936.791
936.868
936.944
937.02
937.095
937.17
937.244
937.318
937.39
937.462
937.533
937.604
937.673
937.741
937.808
937.873
937.936
937.998
938.058
938.115
938.17
938.215
938.042
937.929
937.842
937.771
937.709
937.654
937.604
937.559
937.518
937.48
933.891
933.891
933.891
933.891
933.891
933.891
933.891
933.891
933.891
933.895
934.088
934.24
934.374
934.498
934.616
934.729
934.839
934.946
935.05
935.152
935.251
935.348
935.444
935.537
935.629
935.719
935.808
935.896
935.982
936.067
936.151
936.234
936.316
936.397
936.478
936.557
936.636
936.714
936.791
936.868
936.944
937.02
937.096
937.17
937.245
937.318
937.391
937.463
937.534
937.604
937.673
937.742
937.808
937.873
937.937
937.999
938.058
938.115
938.17
938.216
938.042
937.929
937.843
937.771
937.709
937.654
937.604
937.559
937.518
937.48
933.891
933.891
933.891
933.891
933.891
933.891
933.891
933.891
933.891
933.895
934.088
934.24
934.374
934.498
934.616
934.729
934.839
934.946
935.05
935.151
935.251
935.348
935.444
935.537
935.629
935.72
935.809
935.896
935.982
936.067
936.151
936.234
936.316
936.398
936.478
936.558
936.637
936.715
936.792
936.869
936.945
937.021
937.096
937.171
937.245
937.319
937.391
937.463
937.535
937.605
937.674
937.742
937.809
937.874
937.937
937.999
938.059
938.116
938.17
938.216
938.042
937.93
937.843
937.771
937.709
937.654
937.605
937.56
937.518
937.481
933.891
933.891
933.891
933.891
933.891
933.891
933.891
933.891
933.891
933.895
934.088
934.239
934.373
934.497
934.615
934.729
934.839
934.945
935.05
935.151
935.251
935.348
935.444
935.537
935.629
935.72
935.809
935.896
935.982
936.068
936.152
936.235
936.317
936.398
936.479
936.559
936.638
936.716
936.793
936.87
936.946
937.022
937.097
937.172
937.246
937.319
937.392
937.464
937.535
937.605
937.675
937.743
937.809
937.874
937.938
938
938.059
938.116
938.17
938.216
938.042
937.93
937.843
937.771
937.709
937.654
937.605
937.56
937.518
937.481
933.891
933.891
933.891
933.891
933.891
933.891
933.891
933.891
933.891
933.895
934.088
934.239
934.373
934.497
934.615
934.728
934.838
934.945
935.049
935.151
935.251
935.348
935.444
935.537
935.629
935.72
935.809
935.896
935.983
936.068
936.152
936.235
936.317
936.399
936.479
936.559
936.638
936.716
936.794
936.87
936.947
937.022
937.098
937.172
937.246
937.32
937.393
937.465
937.536
937.606
937.675
937.743
937.81
937.875
937.938
938
938.059
938.116
938.171
938.216
938.043
937.93
937.844
937.772
937.71
937.655
937.605
937.56
937.519
937.481
933.891
933.891
933.891
933.891
933.891
933.891
933.891
933.891
933.891
933.895
934.088
934.239
934.373
934.497
934.615
934.728
934.838
934.945
935.049
935.151
935.25
935.348
935.444
935.537
935.63
935.72
935.809
935.897
935.983
936.068
936.152
936.235
936.318
936.399
936.48
936.56
936.639
936.717
936.794
936.871
936.947
937.023
937.098
937.173
937.247
937.32
937.393
937.465
937.536
937.606
937.676
937.743
937.81
937.875
937.939
938
938.06
938.117
938.171
938.216
938.043
937.93
937.844
937.772
937.71
937.655
937.606
937.56
937.519
937.481
933.891
933.891
933.891
933.891
933.891
933.891
933.891
933.891
933.891
933.895
934.088
934.239
934.373
934.497
934.615
934.728
934.838
934.945
935.049
935.151
935.25
935.348
935.444
935.537
935.63
935.72
935.809
935.897
935.983
936.068
936.153
936.236
936.318
936.4
936.48
936.56
936.639
936.717
936.795
936.872
936.948
937.023
937.099
937.173
937.247
937.321
937.393
937.465
937.536
937.607
937.676
937.744
937.81
937.875
937.939
938
938.06
938.117
938.171
938.216
938.043
937.93
937.844
937.772
937.71
937.655
937.606
937.561
937.519
937.482
933.891
933.891
933.891
933.891
933.891
933.891
933.891
933.891
933.891
933.895
934.088
934.239
934.373
934.497
934.615
934.728
934.838
934.945
935.049
935.151
935.25
935.348
935.444
935.537
935.63
935.72
935.809
935.897
935.983
936.069
936.153
936.236
936.318
936.4
936.481
936.56
936.639
936.718
936.795
936.872
936.948
937.024
937.099
937.173
937.247
937.321
937.393
937.465
937.536
937.606
937.676
937.744
937.81
937.875
937.939
938
938.06
938.117
938.171
938.216
938.043
937.93
937.844
937.772
937.71
937.655
937.606
937.561
937.519
937.482
933.891
933.891
933.891
933.891
933.891
933.891
933.891
933.891
933.891
933.895
934.087
934.239
934.372
934.497
934.614
934.728
934.837
934.944
935.049
935.15
935.25
935.348
935.443
935.537
935.63
935.72
935.809
935.897
935.984
936.069
936.153
936.236
936.319
936.4
936.481
936.561
936.64
936.718
936.795
936.872
936.948
937.023
937.098
937.173
937.247
937.32
937.393
937.465
937.536
937.606
937.675
937.743
937.81
937.875
937.938
938
938.06
938.117
938.171
938.217
938.043
937.93
937.844
937.772
937.71
937.655
937.606
937.561
937.519
937.482
933.891
933.891
933.891
933.891
933.891
933.891
933.891
933.891
933.891
933.895
934.087
934.239
934.372
934.496
934.614
934.728
934.837
934.944
935.048
935.15
935.25
935.348
935.443
935.537
935.63
935.72
935.809
935.897
935.984
936.069
936.153
936.236
936.319
936.4
936.481
936.56
936.639
936.718
936.795
936.872
936.948
937.023
937.098
937.173
937.246
937.32
937.392
937.464
937.535
937.606
937.675
937.743
937.81
937.875
937.938
938
938.059
938.116
938.171
938.216
938.043
937.93
937.844
937.772
937.71
937.655
937.605
937.56
937.519
937.481
933.891
933.891
933.891
933.891
933.891
933.891
933.891
933.891
933.891
933.895
934.087
934.239
934.372
934.496
934.614
934.728
934.837
934.944
935.048
935.15
935.25
935.348
935.443
935.537
935.63
935.72
935.809
935.897
935.984
936.069
936.153
936.236
936.318
936.4
936.48
936.56
936.639
936.717
936.795
936.871
936.947
937.023
937.098
937.172
937.246
937.319
937.392
937.464
937.535
937.605
937.674
937.742
937.809
937.874
937.938
937.999
938.059
938.116
938.171
938.216
938.043
937.93
937.844
937.772
937.71
937.655
937.605
937.56
937.519
937.481
933.891
933.891
933.891
933.891
933.891
933.891
933.891
933.891
933.891
933.895
934.087
934.239
934.372
934.496
934.614
934.727
934.837
934.944
935.048
935.15
935.25
935.347
935.443
935.537
935.629
935.72
935.809
935.897
935.983
936.069
936.153
936.236
936.318
936.399
936.48
936.56
936.638
936.717
936.794
936.87
936.946
937.022
937.097
937.171
937.245
937.318
937.391
937.463
937.534
937.604
937.673
937.741
937.808
937.874
937.937
937.999
938.059
938.116
938.17
938.216
938.042
937.93
937.843
937.771
937.709
937.654
937.605
937.56
937.518
937.481
933.891
933.891
933.891
933.891
933.891
933.891
933.891
933.891
933.891
933.895
934.087
934.239
934.372
934.496
934.614
934.727
934.837
934.944
935.048
935.15
935.249
935.347
935.443
935.537
935.629
935.72
935.809
935.897
935.983
936.068
936.152
936.235
936.317
936.399
936.479
936.559
936.638
936.716
936.793
936.869
936.945
937.021
937.096
937.17
937.244
937.317
937.39
937.462
937.533
937.603
937.672
937.741
937.807
937.873
937.937
937.998
938.058
938.116
938.17
938.216
938.042
937.929
937.843
937.771
937.709
937.654
937.605
937.559
937.518
937.48
933.891
933.891
933.891
933.891
933.891
933.891
933.891
933.891
933.891
933.895
934.088
934.239
934.372
934.496
934.614
934.727
934.837
934.944
935.048
935.15
935.249
935.347
935.442
935.536
935.629
935.719
935.809
935.896
935.983
936.068
936.152
936.234
936.316
936.398
936.478
936.558
936.637
936.715
936.792
936.868
936.944
937.02
937.095
937.169
937.243
937.316
937.389
937.461
937.532
937.602
937.671
937.74
937.807
937.872
937.936
937.998
938.058
938.115
938.17
938.216
938.042
937.929
937.843
937.771
937.709
937.654
937.604
937.559
937.518
937.48
933.891
933.891
933.891
933.891
933.891
933.891
933.891
933.891
933.891
933.895
934.088
934.239
934.372
934.496
934.614
934.727
934.837
934.943
935.048
935.149
935.249
935.346
935.442
935.536
935.628
935.719
935.808
935.896
935.982
936.067
936.151
936.234
936.316
936.397
936.477
936.557
936.635
936.713
936.79
936.867
936.943
937.019
937.094
937.168
937.242
937.315
937.388
937.46
937.531
937.601
937.67
937.739
937.806
937.871
937.935
937.998
938.057
938.115
938.17
938.216
938.042
937.929
937.842
937.771
937.709
937.654
937.604
937.559
937.517
937.48
933.891
933.891
933.891
933.891
933.891
933.891
933.891
933.891
933.891
933.895
934.087
934.239
934.372
934.496
934.614
934.727
934.837
934.943
935.047
935.149
935.248
935.346
935.441
935.535
935.627
935.718
935.807
935.895
935.981
936.066
936.15
936.233
936.314
936.396
936.476
936.555
936.634
936.712
936.789
936.866
936.942
937.018
937.093
937.167
937.241
937.314
937.387
937.459
937.53
937.6
937.67
937.738
937.805
937.871
937.935
937.997
938.057
938.115
938.17
938.216
938.042
937.929
937.842
937.77
937.708
937.653
937.604
937.559
937.517
937.48
933.891
933.891
933.891
933.891
933.891
933.891
933.891
933.891
933.891
933.895
934.088
934.239
934.372
934.496
934.614
934.727
934.836
934.943
935.047
935.148
935.248
935.345
935.44
935.534
935.626
935.717
935.806
935.894
935.98
936.065
936.149
936.231
936.313
936.394
936.474
936.554
936.633
936.711
936.788
936.865
936.941
937.017
937.092
937.166
937.24
937.313
937.386
937.458
937.529
937.599
937.668
937.737
937.804
937.87
937.934
937.997
938.057
938.115
938.17
938.216
938.042
937.929
937.842
937.77
937.708
937.653
937.604
937.558
937.517
937.479
933.891
933.891
933.891
933.891
933.891
933.891
933.891
933.891
933.891
933.895
934.087
934.239
934.372
934.496
934.614
934.726
934.836
934.942
935.046
935.148
935.247
935.344
935.439
935.533
935.625
935.716
935.805
935.892
935.979
936.064
936.147
936.23
936.312
936.393
936.473
936.552
936.631
936.709
936.787
936.864
936.94
937.015
937.09
937.165
937.239
937.312
937.384
937.456
937.527
937.598
937.667
937.736
937.803
937.869
937.933
937.996
938.057
938.114
938.169
938.216
938.041
937.928
937.842
937.77
937.708
937.653
937.603
937.558
937.516
937.479
933.891
933.891
933.891
933.891
933.891
933.891
933.891
933.891
933.891
933.895
934.087
934.239
934.372
934.496
934.613
934.726
934.835
934.942
935.045
935.147
935.246
935.343
935.438
935.532
935.624
935.714
935.803
935.891
935.977
936.062
936.145
936.228
936.31
936.391
936.471
936.55
936.629
936.707
936.785
936.862
936.938
937.014
937.089
937.163
937.237
937.31
937.383
937.454
937.526
937.596
937.666
937.734
937.802
937.868
937.933
937.995
938.056
938.114
938.169
938.215
938.041
937.928
937.841
937.769
937.707
937.652
937.602
937.557
937.516
937.478
933.891
933.891
933.891
933.891
933.891
933.891
933.891
933.891
933.891
933.895
934.087
934.239
934.372
934.495
934.613
934.726
934.835
934.941
935.044
935.146
935.245
935.342
935.437
935.53
935.622
935.713
935.801
935.889
935.975
936.06
936.143
936.226
936.307
936.388
936.469
936.548
936.627
936.705
936.783
936.86
936.936
937.012
937.087
937.161
937.235
937.308
937.381
937.452
937.524
937.594
937.663
937.732
937.8
937.866
937.931
937.994
938.055
938.113
938.168
938.215
938.04
937.927
937.84
937.768
937.706
937.651
937.601
937.556
937.514
937.477
933.891
933.891
933.891
933.891
933.891
933.891
933.891
933.891
933.891
933.895
934.087
934.238
934.372
934.495
934.612
934.725
934.834
934.94
935.043
935.144
935.243
935.34
935.435
935.529
935.62
935.711
935.799
935.887
935.973
936.057
936.141
936.223
936.305
936.386
936.466
936.546
936.625
936.703
936.78
936.857
936.934
937.009
937.084
937.159
937.232
937.305
937.378
937.45
937.521
937.591
937.661
937.73
937.797
937.864
937.929
937.992
938.053
938.111
938.167
938.213
938.038
937.925
937.838
937.766
937.704
937.649
937.599
937.554
937.513
937.475
933.891
933.891
933.891
933.891
933.891
933.891
933.891
933.891
933.891
933.895
934.087
934.238
934.371
934.495
934.612
934.724
934.833
934.939
935.042
935.143
935.242
935.338
935.433
935.527
935.618
935.708
935.797
935.884
935.97
936.055
936.138
936.221
936.302
936.383
936.463
936.543
936.622
936.7
936.778
936.854
936.931
937.006
937.081
937.156
937.229
937.302
937.375
937.447
937.518
937.588
937.658
937.727
937.794
937.861
937.926
937.99
938.05
938.109
938.165
938.212
938.037
937.923
937.836
937.764
937.702
937.647
937.597
937.552
937.51
937.473
933.891
933.891
933.891
933.891
933.891
933.891
933.891
933.891
933.891
933.895
934.087
934.238
934.371
934.494
934.611
934.723
934.832
934.937
935.04
935.141
935.24
935.336
935.431
935.524
935.616
935.706
935.794
935.881
935.967
936.051
936.135
936.217
936.299
936.38
936.46
936.54
936.619
936.697
936.774
936.851
936.927
937.003
937.078
937.152
937.226
937.299
937.371
937.443
937.514
937.584
937.654
937.723
937.791
937.857
937.923
937.986
938.048
938.106
938.162
938.209
938.034
937.921
937.834
937.762
937.7
937.644
937.595
937.55
937.508
937.471
933.891
933.891
933.891
933.891
933.891
933.891
933.891
933.891
933.891
933.895
934.087
934.238
934.37
934.493
934.61
934.722
934.831
934.936
935.039
935.139
935.238
935.334
935.429
935.522
935.613
935.703
935.791
935.878
935.964
936.048
936.132
936.214
936.296
936.377
936.457
936.536
936.615
936.693
936.771
936.847
936.924
936.999
937.074
937.148
937.222
937.295
937.367
937.439
937.51
937.581
937.65
937.719
937.787
937.854
937.919
937.983
938.045
938.104
938.16
938.207
938.032
937.919
937.832
937.76
937.697
937.642
937.593
937.548
937.506
937.469
933.891
933.891
933.891
933.891
933.891
933.891
933.891
933.891
933.891
933.895
934.087
934.237
934.37
934.493
934.609
934.721
934.829
934.934
935.037
935.137
935.235
935.331
935.426
935.519
935.61
935.699
935.788
935.875
935.96
936.045
936.128
936.211
936.292
936.373
936.453
936.533
936.611
936.689
936.767
936.844
936.92
936.995
937.07
937.145
937.218
937.291
937.364
937.436
937.507
937.577
937.647
937.716
937.784
937.851
937.917
937.981
938.043
938.102
938.159
938.207
938.031
937.918
937.831
937.759
937.697
937.642
937.592
937.547
937.506
937.469
933.891
933.891
933.891
933.891
933.891
933.891
933.891
933.891
933.891
933.895
934.086
934.237
934.369
934.492
934.608
934.72
934.828
934.933
935.035
935.135
935.233
935.329
935.423
935.516
935.607
935.697
935.785
935.872
935.957
936.042
936.125
936.208
936.289
936.37
936.45
936.53
936.609
936.687
936.765
936.841
936.918
936.993
937.068
937.143
937.217
937.29
937.362
937.434
937.506
937.577
937.647
937.716
937.784
937.852
937.918
937.983
938.046
938.106
938.163
938.211
938.035
937.922
937.835
937.764
937.702
937.647
937.598
937.553
937.512
937.474
933.891
933.891
933.891
933.891
933.891
933.891
933.891
933.891
933.891
933.895
934.086
934.237
934.369
934.491
934.607
934.718
934.826
934.931
935.033
935.133
935.231
935.327
935.421
935.514
935.605
935.695
935.783
935.87
935.956
936.04
936.124
936.207
936.289
936.37
936.45
936.53
936.61
936.688
936.766
936.843
936.92
936.996
937.072
937.147
937.221
937.295
937.368
937.441
937.513
937.584
937.655
937.725
937.794
937.862
937.93
937.995
938.059
938.12
938.179
938.228
938.052
937.939
937.853
937.781
937.72
937.665
937.616
937.572
937.531
937.494
933.891
933.891
933.891
933.891
933.891
933.891
933.891
933.891
933.891
933.895
934.086
934.236
934.369
934.491
934.607
934.718
934.826
934.931
935.033
935.133
935.231
935.327
935.422
935.515
935.606
935.697
935.785
935.873
935.959
936.045
936.129
936.213
936.296
936.378
936.459
936.54
936.621
936.7
936.779
936.858
936.935
937.013
937.09
937.166
937.241
937.317
937.391
937.465
937.539
937.612
937.684
937.756
937.827
937.897
937.966
938.034
938.1
938.163
938.224
938.275
938.099
937.986
937.901
937.83
937.769
937.715
937.667
937.623
937.584
937.548
933.891
933.891
933.891
933.891
933.891
933.891
933.891
933.891
933.891
933.895
934.086
934.236
934.369
934.492
934.608
934.72
934.828
934.934
935.037
935.138
935.237
935.334
935.43
935.525
935.618
935.71
935.8
935.89
935.978
936.065
936.152
936.238
936.323
936.407
936.491
936.575
936.657
936.74
936.821
936.903
936.983
937.064
937.143
937.223
937.302
937.38
937.458
937.535
937.612
937.689
937.765
937.84
937.915
937.989
938.062
938.134
938.203
938.271
938.336
938.391
938.214
938.102
938.017
937.947
937.887
937.835
937.788
937.746
937.708
937.673
933.891
933.891
933.891
933.891
933.891
933.891
933.891
933.891
933.891
933.895
934.087
934.239
934.373
934.498
934.616
934.73
934.841
934.949
935.056
935.16
935.263
935.364
935.463
935.562
935.659
935.756
935.851
935.945
936.038
936.131
936.222
936.313
936.404
936.494
936.584
936.673
936.762
936.85
936.938
937.025
937.112
937.199
937.285
937.371
937.456
937.541
937.626
937.71
937.794
937.878
937.961
938.043
938.125
938.206
938.287
938.366
938.443
938.518
938.591
938.652
938.473
938.361
938.276
938.207
938.148
938.096
938.05
938.008
937.971
937.936
933.891
933.891
933.891
933.891
933.891
933.891
933.891
933.891
933.891
933.895
934.092
934.248
934.388
934.519
934.644
934.765
934.884
935.001
935.115
935.229
935.34
935.451
935.561
935.67
935.777
935.884
935.99
936.096
936.2
936.304
936.407
936.51
936.612
936.714
936.816
936.917
937.018
937.118
937.218
937.317
937.417
937.516
937.614
937.712
937.81
937.907
938.004
938.1
938.196
938.292
938.387
938.481
938.575
938.668
938.76
938.851
938.94
939.027
939.11
939.182
938.991
938.871
938.78
938.705
938.641
938.584
938.532
938.485
938.442
938.403
933.891
933.891
933.891
933.891
933.891
933.891
933.891
933.891
933.891
933.896
934.11
934.285
934.442
934.591
934.735
934.876
935.014
935.15
935.286
935.419
935.552
935.683
935.814
935.944
936.073
936.201
936.328
936.454
936.58
936.704
936.828
936.951
937.073
937.194
937.315
937.436
937.555
937.674
937.792
937.91
938.027
938.143
938.258
938.373
938.487
938.6
938.713
938.824
938.935
939.045
939.154
939.263
939.37
939.477
939.582
939.685
939.787
939.885
939.979
940.056
939.818
939.662
939.539
939.435
939.343
939.261
939.186
939.116
939.052
938.994
933.891
933.891
933.891
933.891
933.891
933.891
933.891
933.891
933.892
933.898
934.18
934.4
934.597
934.783
934.961
935.134
935.304
935.471
935.636
935.799
935.96
936.119
936.277
936.433
936.587
936.74
936.891
937.041
937.188
937.334
937.478
937.62
937.761
937.901
938.038
938.175
938.309
938.443
938.575
938.705
938.835
938.962
939.089
939.214
939.338
939.46
939.581
939.701
939.82
939.938
940.054
940.169
940.283
940.396
940.506
940.614
940.72
940.821
940.916
940.982
940.587
940.334
940.139
939.977
939.838
939.715
939.604
939.504
939.413
939.333
933.891
933.891
933.891
933.891
933.891
933.891
933.891
933.891
933.891
933.896
934.109
934.311
934.501
934.683
934.86
935.032
935.202
935.368
935.532
935.695
935.855
936.014
936.172
936.327
936.482
936.635
936.786
936.936
937.085
937.231
937.377
937.52
937.662
937.803
937.941
938.079
938.214
938.348
938.481
938.613
938.743
938.872
938.999
939.126
939.251
939.375
939.498
939.619
939.739
939.857
939.974
940.089
940.203
940.315
940.423
940.531
940.635
940.735
940.831
940.903
940.577
940.336
940.144
939.983
939.844
939.721
939.61
939.51
939.419
939.338
933.891
933.891
933.891
933.891
933.891
933.891
933.891
933.891
933.891
933.894
934.046
934.198
934.345
934.488
934.628
934.766
934.902
935.037
935.17
935.301
935.432
935.562
935.692
935.82
935.948
936.075
936.201
936.327
936.452
936.577
936.7
936.823
936.946
937.067
937.188
937.308
937.428
937.547
937.665
937.783
937.9
938.017
938.133
938.248
938.363
938.477
938.591
938.703
938.815
938.925
939.035
939.143
939.25
939.356
939.461
939.563
939.664
939.762
939.857
939.938
939.772
939.635
939.521
939.422
939.334
939.254
939.181
939.113
939.049
938.992
933.891
933.891
933.891
933.891
933.891
933.891
933.891
933.891
933.891
933.894
934.03
934.165
934.295
934.42
934.542
934.66
934.777
934.891
935.004
935.115
935.225
935.334
935.442
935.549
935.656
935.762
935.867
935.971
936.075
936.179
936.281
936.384
936.486
936.587
936.688
936.789
936.889
936.989
937.088
937.188
937.287
937.385
937.484
937.582
937.68
937.777
937.874
937.971
938.067
938.162
938.257
938.351
938.444
938.537
938.627
938.717
938.806
938.892
938.976
939.051
938.928
938.828
938.746
938.676
938.615
938.56
938.511
938.466
938.425
938.387
933.891
933.891
933.891
933.891
933.891
933.891
933.891