/*--------------------------------*- C++ -*----------------------------------*\
  =========                 |
  \\      /  F ield         | OpenFOAM: The Open Source CFD Toolbox
   \\    /   O peration     | Website:  https://openfoam.org
    \\  /    A nd           | Version:  12
     \\/     M anipulation  |
\*---------------------------------------------------------------------------*/
FoamFile
{
    format      ascii;
    class       volScalarField;
    location    "1600/porous";
    object      T;
}
// * * * * * * * * * * * * * * * * * * * * * * * * * * * * * * * * * * * * * //

dimensions      [0 0 0 1 0 0 0];

internalField   nonuniform List<scalar> 
140000
(
400
400
400
400
400
400
400
400
400
399.993
399.69
399.452
399.239
399.038
398.845
398.657
398.473
398.293
398.115
397.94
397.766
397.594
397.424
397.255
397.087
396.921
396.757
396.594
396.433
396.273
396.115
395.958
395.803
395.65
395.498
395.348
395.2
395.052
394.907
394.762
394.619
394.477
394.336
394.197
394.058
393.921
393.786
393.652
393.519
393.388
393.259
393.131
393.005
392.881
392.76
392.641
392.526
392.415
392.309
392.235
392.677
392.959
393.176
393.357
393.512
393.648
393.771
393.882
393.983
394.071
400
400
400
400
400
400
400
400
400
399.995
399.764
399.576
399.406
399.244
399.088
398.936
398.786
398.639
398.494
398.349
398.207
398.065
397.924
397.784
397.644
397.506
397.368
397.23
397.094
396.958
396.823
396.689
396.555
396.422
396.29
396.158
396.027
395.896
395.767
395.638
395.509
395.381
395.253
395.126
395
394.875
394.75
394.626
394.503
394.381
394.261
394.141
394.023
393.906
393.791
393.678
393.567
393.46
393.355
393.271
393.535
393.708
393.843
393.959
394.06
394.152
394.235
394.312
394.383
394.447
400
400
400
400
400
400
400
400
400
399.996
399.784
399.615
399.463
399.321
399.185
399.054
398.925
398.8
398.676
398.554
398.434
398.314
398.196
398.079
397.963
397.847
397.732
397.618
397.504
397.391
397.279
397.167
397.055
396.944
396.833
396.723
396.613
396.504
396.395
396.286
396.177
396.069
395.961
395.853
395.745
395.638
395.531
395.425
395.319
395.214
395.11
395.006
394.904
394.802
394.702
394.603
394.507
394.412
394.321
394.242
394.452
394.584
394.684
394.766
394.837
394.9
394.957
395.009
395.056
395.099
400
400
400
400
400
400
400
400
400
399.996
399.789
399.625
399.479
399.343
399.215
399.091
398.971
398.854
398.739
398.627
398.516
398.408
398.3
398.194
398.089
397.985
397.882
397.78
397.679
397.578
397.478
397.379
397.28
397.182
397.085
396.988
396.891
396.795
396.7
396.604
396.509
396.415
396.32
396.226
396.132
396.039
395.945
395.853
395.761
395.67
395.579
395.489
395.4
395.312
395.225
395.14
395.056
394.975
394.896
394.828
395.024
395.148
395.241
395.317
395.381
395.438
395.489
395.534
395.575
395.613
400
400
400
400
400
400
400
400
400
399.996
399.79
399.627
399.483
399.349
399.223
399.101
398.984
398.87
398.758
398.65
398.543
398.438
398.335
398.233
398.133
398.033
397.935
397.838
397.742
397.647
397.553
397.46
397.367
397.275
397.184
397.093
397.003
396.914
396.825
396.737
396.649
396.561
396.474
396.387
396.301
396.215
396.129
396.044
395.96
395.877
395.794
395.712
395.631
395.552
395.473
395.396
395.321
395.248
395.177
395.117
395.31
395.433
395.526
395.602
395.668
395.725
395.776
395.822
395.864
395.902
400
400
400
400
400
400
400
400
400
399.996
399.79
399.627
399.483
399.35
399.224
399.102
398.985
398.872
398.762
398.654
398.548
398.445
398.343
398.243
398.144
398.047
397.95
397.855
397.761
397.668
397.576
397.485
397.395
397.306
397.217
397.13
397.043
396.956
396.871
396.785
396.701
396.616
396.533
396.449
396.366
396.284
396.202
396.121
396.041
395.961
395.882
395.805
395.728
395.653
395.579
395.506
395.435
395.367
395.301
395.244
395.437
395.56
395.654
395.731
395.798
395.856
395.909
395.957
396
396.039
400
400
400
400
400
400
400
400
400
399.996
399.79
399.627
399.483
399.35
399.223
399.102
398.985
398.872
398.761
398.654
398.548
398.445
398.343
398.243
398.145
398.048
397.953
397.858
397.765
397.673
397.582
397.491
397.402
397.314
397.226
397.14
397.054
396.969
396.884
396.8
396.717
396.634
396.552
396.47
396.388
396.308
396.227
396.148
396.069
395.992
395.915
395.839
395.764
395.691
395.619
395.549
395.48
395.414
395.35
395.297
395.489
395.612
395.706
395.785
395.852
395.911
395.965
396.013
396.058
396.098
400
400
400
400
400
400
400
400
400
399.996
399.79
399.627
399.483
399.349
399.222
399.101
398.983
398.87
398.759
398.651
398.546
398.442
398.341
398.241
398.142
398.046
397.95
397.856
397.763
397.671
397.58
397.49
397.401
397.313
397.226
397.14
397.054
396.969
396.886
396.802
396.719
396.637
396.555
396.474
396.393
396.313
396.233
396.155
396.077
396
395.924
395.849
395.775
395.702
395.632
395.562
395.495
395.43
395.368
395.315
395.507
395.631
395.725
395.804
395.871
395.931
395.985
396.034
396.079
396.12
400
400
400
400
400
400
400
400
400
399.996
399.789
399.626
399.482
399.348
399.221
399.1
398.982
398.868
398.757
398.649
398.544
398.44
398.338
398.238
398.139
398.042
397.947
397.852
397.759
397.667
397.576
397.486
397.398
397.31
397.223
397.137
397.051
396.967
396.883
396.8
396.717
396.635
396.553
396.472
396.391
396.311
396.232
396.154
396.076
395.999
395.923
395.849
395.775
395.703
395.633
395.564
395.497
395.433
395.372
395.319
395.511
395.635
395.73
395.809
395.876
395.937
395.991
396.04
396.085
396.126
400
400
400
400
400
400
400
400
400
399.996
399.789
399.626
399.482
399.348
399.221
399.099
398.981
398.867
398.756
398.647
398.541
398.437
398.335
398.235
398.136
398.039
397.943
397.849
397.756
397.664
397.573
397.483
397.394
397.306
397.219
397.133
397.047
396.963
396.879
396.796
396.713
396.631
396.549
396.468
396.388
396.308
396.228
396.15
396.072
395.996
395.92
395.845
395.772
395.7
395.63
395.562
395.495
395.431
395.37
395.319
395.51
395.634
395.729
395.808
395.876
395.936
395.99
396.039
396.085
396.126
400
400
400
400
400
400
400
400
400
399.996
399.789
399.626
399.482
399.348
399.22
399.098
398.98
398.866
398.755
398.646
398.54
398.436
398.333
398.233
398.134
398.037
397.941
397.846
397.753
397.661
397.569
397.479
397.39
397.302
397.215
397.129
397.044
396.96
396.876
396.793
396.71
396.628
396.546
396.464
396.384
396.304
396.224
396.146
396.068
395.992
395.916
395.841
395.768
395.696
395.626
395.558
395.492
395.428
395.367
395.316
395.507
395.631
395.726
395.805
395.873
395.933
395.987
396.037
396.082
396.123
400
400
400
400
400
400
400
400
400
399.996
399.789
399.625
399.481
399.348
399.22
399.098
398.98
398.865
398.754
398.645
398.538
398.434
398.332
398.231
398.132
398.034
397.938
397.844
397.75
397.658
397.567
397.477
397.388
397.3
397.213
397.126
397.041
396.957
396.873
396.789
396.707
396.624
396.542
396.461
396.38
396.3
396.221
396.142
396.065
395.988
395.912
395.837
395.764
395.693
395.623
395.554
395.488
395.425
395.364
395.313
395.504
395.628
395.723
395.802
395.87
395.93
395.984
396.034
396.079
396.12
400
400
400
400
400
400
400
400
400
399.996
399.789
399.626
399.481
399.347
399.22
399.098
398.98
398.865
398.753
398.644
398.537
398.433
398.33
398.23
398.131
398.033
397.937
397.842
397.748
397.656
397.565
397.475
397.386
397.298
397.21
397.124
397.039
396.954
396.87
396.787
396.704
396.622
396.54
396.458
396.377
396.297
396.218
396.139
396.061
395.985
395.909
395.834
395.761
395.689
395.619
395.551
395.485
395.421
395.361
395.31
395.502
395.625
395.72
395.799
395.867
395.928
395.982
396.031
396.077
396.118
400
400
400
400
400
400
400
400
400
399.996
399.789
399.625
399.481
399.347
399.22
399.098
398.979
398.865
398.753
398.644
398.537
398.432
398.33
398.229
398.129
398.032
397.936
397.841
397.747
397.655
397.563
397.473
397.384
397.296
397.209
397.123
397.037
396.953
396.869
396.785
396.702
396.62
396.538
396.456
396.375
396.295
396.215
396.137
396.059
395.982
395.906
395.831
395.758
395.687
395.617
395.548
395.483
395.419
395.359
395.308
395.499
395.623
395.718
395.797
395.865
395.925
395.98
396.029
396.075
396.116
400
400
400
400
400
400
400
400
400
399.996
399.789
399.626
399.481
399.348
399.22
399.098
398.98
398.865
398.753
398.643
398.537
398.432
398.329
398.228
398.129
398.031
397.935
397.84
397.746
397.654
397.563
397.472
397.383
397.295
397.208
397.122
397.036
396.951
396.867
396.784
396.701
396.618
396.536
396.454
396.373
396.293
396.213
396.135
396.057
395.98
395.904
395.829
395.756
395.685
395.615
395.547
395.481
395.417
395.357
395.306
395.498
395.622
395.717
395.795
395.864
395.924
395.978
396.028
396.073
396.114
400
400
400
400
400
400
400
400
400
399.996
399.789
399.626
399.482
399.348
399.221
399.098
398.98
398.865
398.753
398.644
398.536
398.432
398.329
398.228
398.128
398.031
397.934
397.839
397.746
397.653
397.562
397.472
397.383
397.294
397.207
397.121
397.035
396.951
396.866
396.783
396.7
396.617
396.535
396.453
396.372
396.292
396.212
396.133
396.055
395.978
395.902
395.828
395.755
395.683
395.613
395.545
395.479
395.416
395.356
395.305
395.497
395.621
395.716
395.794
395.862
395.923
395.977
396.026
396.072
396.113
400
400
400
400
400
400
400
400
400
399.996
399.789
399.626
399.482
399.348
399.221
399.099
398.98
398.865
398.753
398.644
398.536
398.432
398.329
398.227
398.128
398.03
397.934
397.839
397.745
397.653
397.562
397.472
397.382
397.294
397.207
397.12
397.035
396.95
396.866
396.782
396.699
396.616
396.534
396.452
396.371
396.291
396.211
396.132
396.054
395.977
395.901
395.827
395.753
395.682
395.612
395.544
395.478
395.415
395.355
395.305
395.496
395.62
395.715
395.794
395.862
395.922
395.976
396.026
396.071
396.112
400
400
400
400
400
400
400
400
400
399.996
399.789
399.626
399.482
399.348
399.221
399.099
398.981
398.866
398.753
398.644
398.537
398.432
398.328
398.227
398.128
398.03
397.934
397.839
397.745
397.653
397.562
397.471
397.382
397.294
397.207
397.12
397.034
396.949
396.865
396.781
396.698
396.615
396.533
396.451
396.37
396.29
396.21
396.131
396.053
395.976
395.9
395.826
395.753
395.681
395.611
395.543
395.478
395.415
395.355
395.305
395.496
395.619
395.714
395.793
395.861
395.922
395.976
396.025
396.071
396.112
400
400
400
400
400
400
400
400
400
399.996
399.789
399.626
399.482
399.349
399.222
399.099
398.981
398.866
398.754
398.644
398.537
398.432
398.328
398.227
398.128
398.03
397.934
397.839
397.745
397.653
397.561
397.471
397.382
397.294
397.206
397.12
397.034
396.949
396.865
396.781
396.697
396.615
396.532
396.451
396.37
396.289
396.209
396.131
396.053
395.976
395.9
395.825
395.752
395.68
395.611
395.543
395.477
395.414
395.355
395.304
395.495
395.619
395.714
395.793
395.861
395.921
395.976
396.025
396.07
396.112
400
400
400
400
400
400
400
400
400
399.996
399.789
399.626
399.482
399.349
399.222
399.1
398.981
398.866
398.754
398.644
398.537
398.432
398.328
398.227
398.128
398.03
397.933
397.838
397.745
397.652
397.561
397.471
397.382
397.293
397.206
397.119
397.033
396.948
396.864
396.78
396.697
396.614
396.532
396.45
396.369
396.288
396.209
396.13
396.052
395.975
395.899
395.825
395.751
395.68
395.61
395.542
395.477
395.414
395.354
395.304
395.495
395.619
395.714
395.793
395.861
395.921
395.975
396.025
396.07
396.111
400
400
400
400
400
400
400
400
400
399.996
399.789
399.627
399.483
399.349
399.222
399.1
398.982
398.867
398.754
398.645
398.537
398.432
398.329
398.227
398.128
398.03
397.933
397.838
397.745
397.652
397.561
397.471
397.381
397.293
397.205
397.118
397.032
396.947
396.863
396.779
396.696
396.613
396.531
396.449
396.368
396.288
396.208
396.129
396.051
395.974
395.899
395.824
395.751
395.679
395.61
395.542
395.476
395.414
395.354
395.304
395.495
395.619
395.714
395.792
395.86
395.921
395.975
396.024
396.07
396.111
400
400
400
400
400
400
400
400
400
399.996
399.789
399.627
399.483
399.35
399.223
399.101
398.982
398.867
398.755
398.645
398.537
398.432
398.329
398.227
398.127
398.029
397.933
397.838
397.744
397.652
397.561
397.47
397.381
397.292
397.204
397.118
397.031
396.946
396.862
396.778
396.695
396.612
396.53
396.449
396.367
396.287
396.208
396.129
396.051
395.974
395.898
395.823
395.75
395.679
395.609
395.542
395.476
395.413
395.354
395.304
395.495
395.618
395.713
395.792
395.86
395.92
395.975
396.024
396.069
396.111
400
400
400
400
400
400
400
400
400
399.996
399.79
399.627
399.483
399.35
399.223
399.101
398.982
398.867
398.755
398.645
398.537
398.432
398.329
398.227
398.127
398.029
397.933
397.838
397.744
397.652
397.56
397.47
397.38
397.292
397.204
397.117
397.031
396.946
396.861
396.778
396.694
396.612
396.53
396.448
396.367
396.287
396.207
396.128
396.05
395.973
395.898
395.823
395.75
395.678
395.609
395.541
395.476
395.413
395.353
395.303
395.494
395.618
395.713
395.792
395.86
395.92
395.974
396.024
396.069
396.11
400
400
400
400
400
400
400
400
400
399.996
399.79
399.627
399.483
399.35
399.223
399.101
398.983
398.867
398.755
398.645
398.537
398.432
398.329
398.227
398.127
398.029
397.933
397.837
397.744
397.651
397.56
397.469
397.38
397.291
397.203
397.116
397.03
396.945
396.861
396.777
396.694
396.611
396.529
396.448
396.367
396.286
396.207
396.128
396.05
395.973
395.897
395.823
395.75
395.678
395.609
395.541
395.476
395.413
395.353
395.303
395.494
395.618
395.713
395.792
395.86
395.92
395.974
396.024
396.069
396.11
400
400
400
400
400
400
400
400
400
399.996
399.79
399.627
399.483
399.35
399.223
399.101
398.983
398.868
398.755
398.645
398.538
398.432
398.329
398.227
398.127
398.029
397.932
397.837
397.744
397.651
397.56
397.469
397.38
397.291
397.203
397.116
397.03
396.945
396.86
396.777
396.694
396.611
396.529
396.448
396.367
396.286
396.207
396.128
396.05
395.973
395.898
395.823
395.75
395.678
395.609
395.541
395.476
395.413
395.353
395.303
395.494
395.618
395.713
395.792
395.86
395.92
395.974
396.024
396.069
396.11
400
400
400
400
400
400
400
400
400
399.996
399.79
399.627
399.484
399.35
399.223
399.101
398.983
398.868
398.755
398.645
398.538
398.432
398.329
398.227
398.127
398.029
397.932
397.837
397.743
397.651
397.56
397.469
397.38
397.291
397.203
397.116
397.03
396.945
396.86
396.777
396.694
396.611
396.529
396.448
396.367
396.287
396.207
396.128
396.051
395.974
395.898
395.823
395.75
395.679
395.609
395.541
395.476
395.413
395.353
395.303
395.494
395.618
395.713
395.792
395.86
395.92
395.974
396.024
396.069
396.11
400
400
400
400
400
400
400
400
400
399.996
399.79
399.627
399.484
399.35
399.224
399.101
398.983
398.868
398.755
398.646
398.538
398.432
398.329
398.227
398.127
398.029
397.932
397.837
397.743
397.651
397.56
397.469
397.38
397.291
397.203
397.116
397.03
396.945
396.861
396.777
396.694
396.612
396.53
396.448
396.367
396.287
396.208
396.129
396.051
395.974
395.898
395.824
395.75
395.679
395.609
395.542
395.476
395.413
395.354
395.303
395.494
395.618
395.713
395.792
395.86
395.92
395.974
396.024
396.069
396.11
400
400
400
400
400
400
400
400
400
399.996
399.79
399.627
399.484
399.35
399.223
399.101
398.983
398.868
398.756
398.646
398.538
398.432
398.329
398.227
398.127
398.029
397.932
397.837
397.743
397.651
397.56
397.469
397.38
397.291
397.203
397.117
397.031
396.945
396.861
396.778
396.695
396.612
396.53
396.449
396.368
396.288
396.209
396.13
396.052
395.975
395.899
395.824
395.751
395.68
395.61
395.542
395.476
395.413
395.354
395.303
395.495
395.618
395.713
395.792
395.86
395.92
395.975
396.024
396.069
396.111
400
400
400
400
400
400
400
400
400
399.996
399.79
399.627
399.484
399.35
399.224
399.102
398.983
398.868
398.756
398.646
398.538
398.433
398.329
398.227
398.128
398.029
397.933
397.837
397.744
397.651
397.56
397.47
397.38
397.292
397.204
397.117
397.031
396.946
396.862
396.778
396.695
396.613
396.531
396.45
396.369
396.289
396.209
396.131
396.053
395.976
395.9
395.825
395.752
395.68
395.61
395.543
395.477
395.414
395.354
395.304
395.495
395.619
395.714
395.792
395.86
395.921
395.975
396.024
396.07
396.111
400
400
400
400
400
400
400
400
400
399.996
399.79
399.627
399.484
399.35
399.224
399.102
398.983
398.868
398.756
398.646
398.538
398.433
398.329
398.228
398.128
398.03
397.933
397.838
397.744
397.652
397.56
397.47
397.381
397.292
397.205
397.118
397.032
396.947
396.863
396.779
396.697
396.614
396.532
396.451
396.37
396.29
396.211
396.132
396.054
395.977
395.901
395.826
395.753
395.681
395.611
395.543
395.477
395.414
395.354
395.304
395.495
395.619
395.714
395.793
395.861
395.921
395.975
396.025
396.07
396.111
400
400
400
400
400
400
400
400
400
399.996
399.79
399.627
399.484
399.35
399.224
399.102
398.984
398.868
398.756
398.646
398.539
398.433
398.33
398.228
398.128
398.03
397.933
397.838
397.744
397.652
397.561
397.471
397.382
397.293
397.206
397.119
397.033
396.948
396.864
396.781
396.698
396.615
396.533
396.452
396.371
396.291
396.212
396.133
396.055
395.978
395.902
395.827
395.754
395.682
395.612
395.544
395.478
395.415
395.354
395.304
395.495
395.619
395.714
395.793
395.861
395.921
395.976
396.025
396.071
396.112
400
400
400
400
400
400
400
400
400
399.996
399.79
399.627
399.484
399.351
399.224
399.102
398.984
398.869
398.756
398.647
398.539
398.434
398.33
398.229
398.129
398.031
397.934
397.839
397.745
397.653
397.562
397.472
397.383
397.295
397.207
397.12
397.035
396.95
396.866
396.782
396.699
396.616
396.534
396.453
396.372
396.292
396.213
396.134
396.056
395.979
395.903
395.828
395.755
395.683
395.612
395.544
395.478
395.415
395.355
395.304
395.495
395.619
395.714
395.793
395.861
395.922
395.976
396.025
396.071
396.112
400
400
400
400
400
400
400
400
400
399.996
399.79
399.627
399.484
399.35
399.224
399.102
398.984
398.869
398.757
398.647
398.54
398.434
398.331
398.229
398.13
398.031
397.935
397.84
397.746
397.654
397.563
397.473
397.384
397.296
397.208
397.122
397.036
396.951
396.867
396.783
396.7
396.617
396.536
396.454
396.374
396.293
396.214
396.135
396.057
395.98
395.904
395.829
395.755
395.683
395.613
395.545
395.478
395.415
395.355
395.304
395.496
395.619
395.715
395.793
395.862
395.922
395.976
396.026
396.071
396.112
400
400
400
400
400
400
400
400
400
399.996
399.79
399.627
399.484
399.351
399.224
399.102
398.984
398.869
398.757
398.648
398.54
398.435
398.332
398.23
398.131
398.033
397.936
397.841
397.747
397.655
397.564
397.474
397.385
397.297
397.21
397.123
397.038
396.952
396.868
396.784
396.701
396.619
396.537
396.455
396.375
396.295
396.215
396.136
396.059
395.981
395.905
395.83
395.756
395.684
395.613
395.545
395.479
395.415
395.355
395.304
395.495
395.619
395.715
395.794
395.862
395.922
395.976
396.026
396.071
396.113
400
400
400
400
400
400
400
400
400
399.996
399.79
399.627
399.484
399.351
399.224
399.103
398.985
398.87
398.758
398.649
398.541
398.436
398.333
398.232
398.132
398.034
397.937
397.842
397.749
397.657
397.566
397.476
397.387
397.299
397.212
397.125
397.039
396.954
396.87
396.786
396.703
396.62
396.538
396.457
396.376
396.296
396.217
396.138
396.06
395.983
395.907
395.832
395.758
395.685
395.614
395.546
395.479
395.416
395.355
395.304
395.496
395.62
395.715
395.794
395.862
395.923
395.977
396.027
396.072
396.113
400
400
400
400
400
400
400
400
400
399.996
399.79
399.627
399.484
399.351
399.225
399.103
398.985
398.871
398.759
398.649
398.542
398.437
398.334
398.233
398.133
398.035
397.939
397.844
397.751
397.659
397.568
397.478
397.389
397.301
397.214
397.127
397.041
396.956
396.872
396.788
396.704
396.622
396.54
396.459
396.378
396.298
396.219
396.14
396.062
395.985
395.909
395.833
395.759
395.687
395.615
395.547
395.48
395.416
395.355
395.304
395.496
395.621
395.716
395.795
395.863
395.924
395.978
396.027
396.073
396.114
400
400
400
400
400
400
400
400
400
399.996
399.79
399.627
399.484
399.351
399.225
399.104
398.986
398.872
398.76
398.651
398.544
398.439
398.336
398.235
398.135
398.037
397.941
397.846
397.753
397.661
397.57
397.48
397.392
397.303
397.216
397.13
397.044
396.958
396.874
396.79
396.707
396.624
396.542
396.461
396.38
396.3
396.221
396.142
396.064
395.987
395.911
395.835
395.761
395.688
395.617
395.548
395.481
395.418
395.357
395.305
395.497
395.622
395.717
395.796
395.864
395.925
395.979
396.029
396.074
396.115
400
400
400
400
400
400
400
400
400
399.996
399.79
399.628
399.485
399.352
399.226
399.104
398.987
398.873
398.761
398.652
398.545
398.441
398.338
398.237
398.137
398.04
397.943
397.849
397.755
397.663
397.573
397.483
397.394
397.306
397.219
397.132
397.046
396.961
396.877
396.793
396.709
396.627
396.545
396.464
396.383
396.303
396.224
396.145
396.067
395.99
395.914
395.838
395.764
395.691
395.62
395.55
395.483
395.419
395.358
395.307
395.499
395.623
395.719
395.798
395.866
395.927
395.981
396.031
396.076
396.117
400
400
400
400
400
400
400
400
400
399.996
399.79
399.628
399.485
399.352
399.226
399.105
398.988
398.874
398.762
398.654
398.547
398.442
398.34
398.239
398.14
398.042
397.946
397.851
397.758
397.666
397.576
397.486
397.397
397.309
397.222
397.135
397.049
396.964
396.88
396.796
396.713
396.63
396.548
396.467
396.386
396.306
396.227
396.148
396.07
395.993
395.917
395.842
395.767
395.694
395.623
395.553
395.486
395.422
395.36
395.309
395.501
395.626
395.721
395.8
395.869
395.929
395.983
396.033
396.078
396.12
400
400
400
400
400
400
400
400
400
399.996
399.79
399.628
399.485
399.353
399.227
399.106
398.989
398.875
398.764
398.655
398.549
398.445
398.342
398.241
398.142
398.045
397.949
397.855
397.761
397.67
397.579
397.489
397.401
397.313
397.225
397.139
397.053
396.968
396.883
396.799
396.716
396.634
396.552
396.471
396.39
396.31
396.231
396.152
396.075
395.997
395.921
395.846
395.771
395.698
395.626
395.556
395.489
395.424
395.363
395.311
395.504
395.628
395.724
395.803
395.871
395.932
395.986
396.036
396.081
396.122
400
400
400
400
400
400
400
400
400
399.996
399.791
399.629
399.486
399.354
399.228
399.107
398.991
398.877
398.766
398.657
398.551
398.447
398.345
398.244
398.145
398.048
397.952
397.858
397.765
397.673
397.583
397.493
397.404
397.316
397.229
397.143
397.057
396.972
396.887
396.803
396.72
396.638
396.556
396.475
396.394
396.315
396.235
396.157
396.079
396.002
395.925
395.85
395.775
395.702
395.63
395.56
395.492
395.427
395.365
395.314
395.506
395.631
395.726
395.805
395.874
395.934
395.988
396.038
396.083
396.124
400
400
400
400
400
400
400
400
400
399.996
399.79
399.629
399.486
399.354
399.229
399.109
398.992
398.879
398.768
398.66
398.554
398.45
398.348
398.247
398.149
398.052
397.956
397.862
397.769
397.677
397.587
397.497
397.408
397.32
397.233
397.147
397.061
396.976
396.891
396.807
396.724
396.642
396.56
396.479
396.398
396.318
396.239
396.161
396.083
396.005
395.929
395.853
395.779
395.705
395.633
395.562
395.494
395.429
395.367
395.314
395.507
395.631
395.727
395.806
395.874
395.934
395.989
396.038
396.083
396.124
400
400
400
400
400
400
400
400
400
399.996
399.791
399.629
399.487
399.355
399.23
399.11
398.994
398.88
398.77
398.662
398.556
398.452
398.35
398.25
398.152
398.055
397.959
397.865
397.772
397.68
397.59
397.5
397.411
397.323
397.236
397.149
397.063
396.978
396.894
396.81
396.727
396.644
396.562
396.481
396.4
396.32
396.241
396.162
396.084
396.006
395.929
395.853
395.778
395.704
395.631
395.56
395.491
395.425
395.363
395.31
395.502
395.627
395.722
395.801
395.869
395.929
395.983
396.032
396.077
396.118
400
400
400
400
400
400
400
400
400
399.996
399.791
399.63
399.488
399.356
399.231
399.111
398.995
398.882
398.772
398.664
398.558
398.455
398.353
398.253
398.154
398.057
397.961
397.867
397.774
397.682
397.591
397.501
397.412
397.324
397.236
397.149
397.063
396.977
396.892
396.808
396.724
396.641
396.559
396.477
396.395
396.315
396.235
396.155
396.076
395.998
395.92
395.844
395.768
395.692
395.619
395.546
395.476
395.409
395.345
395.291
395.484
395.608
395.703
395.782
395.849
395.909
395.963
396.011
396.056
396.096
400
400
400
400
400
400
400
400
400
399.996
399.791
399.63
399.488
399.356
399.231
399.112
398.995
398.882
398.772
398.664
398.558
398.454
398.352
398.251
398.152
398.055
397.958
397.863
397.77
397.677
397.585
397.494
397.404
397.315
397.226
397.138
397.051
396.964
396.878
396.792
396.707
396.623
396.539
396.456
396.373
396.291
396.209
396.128
396.047
395.967
395.888
395.809
395.731
395.654
395.578
395.504
395.431
395.362
395.296
395.239
395.432
395.556
395.651
395.728
395.795
395.854
395.907
395.955
395.998
396.038
400
400
400
400
400
400
400
400
400
399.996
399.792
399.63
399.487
399.355
399.23
399.11
398.993
398.879
398.768
398.659
398.552
398.447
398.343
398.241
398.14
398.041
397.942
397.845
397.75
397.655
397.561
397.467
397.375
397.283
397.191
397.101
397.011
396.921
396.832
396.743
396.655
396.567
396.48
396.393
396.307
396.221
396.136
396.051
395.967
395.883
395.8
395.717
395.635
395.554
395.474
395.394
395.318
395.243
395.172
395.112
395.306
395.429
395.523
395.599
395.665
395.723
395.774
395.82
395.862
395.901
400
400
400
400
400
400
400
400
400
399.996
399.79
399.627
399.483
399.349
399.222
399.099
398.979
398.862
398.748
398.635
398.524
398.415
398.307
398.2
398.095
397.991
397.888
397.785
397.684
397.584
397.484
397.385
397.286
397.188
397.091
396.994
396.897
396.801
396.705
396.61
396.514
396.42
396.325
396.232
396.138
396.045
395.952
395.859
395.767
395.676
395.585
395.494
395.404
395.315
395.226
395.139
395.053
394.971
394.891
394.823
395.02
395.145
395.238
395.314
395.379
395.436
395.487
395.533
395.574
395.611
400
400
400
400
400
400
400
400
400
399.996
399.785
399.617
399.467
399.326
399.192
399.061
398.933
398.807
398.683
398.561
398.44
398.32
398.202
398.084
397.967
397.851
397.736
397.622
397.508
397.395
397.283
397.171
397.06
396.949
396.838
396.728
396.618
396.508
396.399
396.29
396.181
396.073
395.965
395.858
395.75
395.644
395.537
395.431
395.326
395.22
395.116
395.012
394.908
394.806
394.704
394.603
394.505
394.409
394.317
394.238
394.449
394.581
394.682
394.764
394.836
394.899
394.955
395.007
395.055
395.097
400
400
400
400
400
400
400
400
400
399.995
399.766
399.578
399.409
399.248
399.094
398.942
398.793
398.645
398.499
398.355
398.211
398.069
397.927
397.786
397.646
397.507
397.369
397.232
397.095
396.96
396.825
396.691
396.557
396.424
396.292
396.161
396.029
395.899
395.769
395.64
395.512
395.384
395.257
395.131
395.005
394.881
394.757
394.633
394.511
394.389
394.268
394.148
394.029
393.911
393.794
393.679
393.567
393.458
393.353
393.268
393.532
393.706
393.842
393.957
394.059
394.15
394.233
394.31
394.382
394.446
400
400
400
400
400
400
400
400
400
399.993
399.691
399.454
399.242
399.042
398.85
398.663
398.479
398.299
398.12
397.944
397.769
397.596
397.425
397.255
397.087
396.92
396.755
396.593
396.431
396.272
396.114
395.958
395.804
395.651
395.499
395.349
395.201
395.054
394.908
394.764
394.622
394.481
394.341
394.202
394.065
393.929
393.795
393.662
393.53
393.399
393.269
393.141
393.014
392.888
392.765
392.644
392.526
392.413
392.306
392.233
392.675
392.957
393.175
393.355
393.51
393.647
393.769
393.88
393.981
394.07
400
400
400
400
400
400
400
400
400
399.995
399.767
399.55
399.346
399.149
398.959
398.773
398.59
398.41
398.232
398.057
397.883
397.71
397.539
397.37
397.202
397.035
396.87
396.707
396.544
396.384
396.225
396.068
395.912
395.758
395.606
395.455
395.306
395.158
395.012
394.867
394.723
394.581
394.44
394.299
394.161
394.023
393.887
393.753
393.62
393.488
393.358
393.23
393.104
392.979
392.857
392.738
392.621
392.509
392.402
392.322
392.686
392.955
393.169
393.348
393.503
393.64
393.763
393.874
393.975
394.065
400
400
400
400
400
400
400
400
400
399.997
399.834
399.671
399.513
399.359
399.208
399.06
398.913
398.768
398.625
398.482
398.341
398.2
398.06
397.921
397.782
397.644
397.507
397.37
397.234
397.099
396.964
396.83
396.696
396.563
396.431
396.3
396.169
396.038
395.909
395.779
395.651
395.523
395.395
395.268
395.142
395.016
394.891
394.767
394.644
394.522
394.401
394.28
394.162
394.044
393.929
393.815
393.703
393.594
393.488
393.398
393.583
393.735
393.862
393.971
394.069
394.158
394.239
394.314
394.384
394.448
400
400
400
400
400
400
400
400
400
399.998
399.851
399.707
399.567
399.433
399.302
399.174
399.049
398.925
398.804
398.684
398.565
398.447
398.33
398.214
398.099
397.984
397.87
397.757
397.644
397.532
397.42
397.309
397.198
397.087
396.977
396.867
396.758
396.649
396.54
396.432
396.324
396.216
396.108
396
395.893
395.786
395.679
395.573
395.468
395.363
395.259
395.155
395.052
394.951
394.85
394.751
394.654
394.558
394.466
394.382
394.518
394.629
394.72
394.797
394.864
394.924
394.978
395.028
395.074
395.116
400
400
400
400
400
400
400
400
400
399.998
399.855
399.715
399.581
399.453
399.329
399.209
399.092
398.977
398.864
398.754
398.645
398.537
398.431
398.326
398.222
398.119
398.016
397.915
397.814
397.714
397.615
397.517
397.418
397.321
397.224
397.128
397.032
396.936
396.841
396.746
396.651
396.557
396.463
396.369
396.276
396.183
396.09
395.998
395.906
395.815
395.724
395.634
395.545
395.457
395.37
395.284
395.2
395.118
395.037
394.966
395.091
395.193
395.277
395.348
395.41
395.464
395.512
395.557
395.596
395.633
400
400
400
400
400
400
400
400
400
399.998
399.856
399.717
399.585
399.458
399.337
399.219
399.104
398.992
398.883
398.776
398.67
398.567
398.464
398.364
398.264
398.166
398.068
397.972
397.877
397.782
397.688
397.595
397.503
397.412
397.321
397.23
397.141
397.052
396.963
396.875
396.788
396.701
396.614
396.527
396.441
396.355
396.27
396.185
396.101
396.018
395.935
395.853
395.772
395.692
395.614
395.536
395.46
395.386
395.314
395.25
395.373
395.475
395.559
395.631
395.693
395.748
395.797
395.842
395.883
395.92
400
400
400
400
400
400
400
400
400
399.998
399.856
399.717
399.585
399.459
399.337
399.22
399.106
398.995
398.886
398.78
398.676
398.573
398.472
398.373
398.275
398.178
398.083
397.988
397.895
397.802
397.711
397.62
397.53
397.441
397.353
397.266
397.179
397.093
397.007
396.922
396.838
396.754
396.67
396.587
396.505
396.422
396.341
396.26
396.18
396.1
396.021
395.943
395.866
395.791
395.716
395.643
395.572
395.502
395.435
395.375
395.497
395.599
395.685
395.757
395.82
395.877
395.927
395.974
396.016
396.055
400
400
400
400
400
400
400
400
400
399.998
399.856
399.717
399.585
399.458
399.337
399.219
399.105
398.994
398.886
398.779
398.675
398.573
398.473
398.374
398.276
398.18
398.085
397.991
397.898
397.806
397.716
397.626
397.537
397.449
397.362
397.275
397.19
397.105
397.021
396.937
396.854
396.771
396.689
396.607
396.526
396.445
396.365
396.286
396.207
396.13
396.053
395.977
395.902