/*--------------------------------*- C++ -*----------------------------------*\
  =========                 |
  \\      /  F ield         | OpenFOAM: The Open Source CFD Toolbox
   \\    /   O peration     | Website:  https://openfoam.org
    \\  /    A nd           | Version:  12
     \\/     M anipulation  |
\*---------------------------------------------------------------------------*/
FoamFile
{
    format      ascii;
    class       volScalarField;
    location    "550/air";
    object      alphat;
}
// * * * * * * * * * * * * * * * * * * * * * * * * * * * * * * * * * * * * * //

dimensions      [1 -1 -1 0 0 0 0];

internalField   nonuniform List<scalar> 
243000
(
0.000221894
0.000220092
0.000212074
0.000202958
0.000192802
0.000182363
0.00017207
0.000162279
0.000153178
0.000145007
0.000138004
0.000132418
0.000128316
0.000125181
0.000122368
0.000119507
0.000116314
0.000112676
0.00010842
0.000103311
9.57822e-05
8.55576e-05
8.47809e-05
0.000101984
0.000113327
0.000124586
0.000135586
0.000146421
0.000158805
0.000175401
0.000841031
0.000833953
0.000793692
0.000749865
0.000704679
0.000660037
0.000617424
0.000577685
0.000541145
0.000508359
0.000479557
0.000454977
0.000433938
0.000415976
0.000401526
0.000390112
0.000380246
0.000371132
0.000361052
0.000347025
0.000329521
0.000300615
0.000310819
0.00038619
0.000434383
0.000480537
0.000531885
0.000576973
0.000629307
0.000699075
0.00109624
0.0011285
0.0011168
0.00109537
0.00106681
0.00103388
0.000998479
0.000961964
0.000925147
0.000889476
0.000855687
0.000824577
0.000794857
0.000766373
0.000741084
0.000718802
0.000697141
0.000674885
0.000648822
0.000614168
0.000575595
0.000521674
0.000509562
0.000626652
0.000694689
0.00074964
0.000803375
0.000839361
0.000877666
0.000928939
0.00115923
0.00118928
0.00117968
0.00115947
0.0011316
0.00109899
0.0010634
0.00102615
0.000988186
0.000951121
0.000915907
0.000883595
0.000852601
0.000822426
0.000794961
0.000770193
0.000745945
0.000721013
0.000691862
0.000654901
0.000616354
0.000565566
0.000540872
0.000655227
0.000741809
0.00080812
0.000870235
0.000910384
0.000949805
0.000998681
0.00120147
0.00122707
0.00121965
0.00120154
0.00117566
0.00114477
0.0011104
0.00107379
0.00103595
0.000998661
0.000963207
0.000930884
0.00089991
0.000869271
0.000840502
0.000813739
0.000787123
0.000759493
0.000727193
0.000688754
0.000650736
0.000604248
0.000576051
0.000669438
0.000772932
0.00084849
0.000918915
0.000963405
0.00100411
0.0010506
0.00122939
0.00125026
0.00124481
0.00122911
0.00120582
0.00117734
0.00114491
0.00110969
0.00107269
0.00103587
0.00100086
0.00096922
0.000938974
0.000908538
0.000879007
0.000850674
0.000822048
0.000791966
0.000756819
0.000717763
0.000680658
0.000638799
0.00061081
0.000680221
0.000794381
0.000874597
0.000952822
0.00100255
0.00104498
0.00108953
0.00124643
0.00126344
0.00125973
0.00124654
0.0012261
0.00120036
0.00117026
0.00113682
0.00110108
0.00106516
0.00103104
0.00100048
0.000971326
0.00094148
0.000911538
0.000882012
0.000851755
0.000819575
0.000781981
0.00074304
0.000707094
0.000669564
0.000643323
0.000690975
0.000808501
0.000891742
0.000974995
0.00102987
0.00107467
0.001118
0.00125509
0.00126945
0.00126724
0.00125652
0.00123904
0.0012162
0.0011886
0.00115716
0.00112294
0.00108822
0.00105525
0.00102599
0.000998097
0.000969039
0.000938956
0.000908579
0.000877033
0.000843175
0.000803563
0.000765348
0.00073063
0.000696781
0.000672837
0.000703405
0.000816913
0.00090343
0.000987599
0.00104796
0.00109513
0.00113812
0.00125679
0.00126955
0.00126947
0.00126111
0.00124638
0.00122637
0.00120137
0.00117207
0.00113954
0.00110622
0.00107459
0.00104671
0.00102013
0.000991953
0.000961952
0.000931036
0.000898529
0.000863353
0.000822925
0.000785448
0.00075171
0.000720694
0.000699048
0.000718928
0.000819772
0.000909828
0.000992316
0.00105807
0.00110815
0.00115136
0.00125314
0.00126561
0.00126769
0.001262
0.00124976
0.0012323
0.00120962
0.00118243
0.00115177
0.00112001
0.00108985
0.0010634
0.00103811
0.00101081
0.000981091
0.000949926
0.000916779
0.000880576
0.000840578
0.00080364
0.00077062
0.000741596
0.000721816
0.000734747
0.000820194
0.000912555
0.000991177
0.00106158
0.00111461
0.00115854
0.00124508
0.00125826
0.00126255
0.00125966
0.00125021
0.001235
0.00121448
0.00118921
0.00116027
0.00113023
0.00110162
0.00107661
0.00105252
0.00102611
0.00099685
0.000965709
0.00093223
0.000895242
0.000856239
0.000820005
0.000787522
0.000759771
0.000741271
0.000749559
0.000819752
0.000913014
0.000988186
0.0010597
0.00111588
0.00116073
0.00123333
0.00124803
0.0012547
0.00125461
0.00124796
0.00123524
0.00121661
0.00119312
0.00116582
0.00113738
0.00111039
0.00108677
0.0010638
0.0010383
0.00100965
0.000978782
0.000945259
0.00090773
0.000870061
0.000834685
0.000802601
0.000775511
0.000757709
0.000762694
0.000819025
0.000911457
0.000983851
0.00105259
0.0011123
0.00115869
0.00121837
0.00123537
0.00124463
0.00124732
0.00124332
0.00123306
0.00121658
0.00119467
0.00116892
0.00114198
0.00111655
0.00109425
0.00107232
0.00104775
0.00101986
0.000989498
0.000956163
0.000918361
0.000882375
0.000847899
0.000816101
0.00078916
0.000771496
0.000773813
0.000818352
0.000907716
0.000978137
0.00104213
0.00110418
0.00115246
0.00120077
0.00122059
0.00123267
0.0012381
0.00123672
0.0012287
0.00121431
0.00119425
0.00116999
0.00114449
0.00112042
0.00109938
0.00107841
0.00105481
0.00102782
0.000998169
0.000965206
0.000928445
0.000893631
0.000859897
0.000828265
0.00080105
0.000782889
0.00078258
0.000818291
0.000901403
0.000971382
0.00103227
0.0010924
0.00114272
0.00118088
0.00120397
0.00121904
0.00122719
0.00122835
0.00122251
0.00121
0.0011918
0.00116927
0.00114524
0.00112242
0.0011024
0.00108239
0.00105982
0.00103384
0.00100508
0.000972631
0.000937542
0.000903903
0.000870862
0.000839276
0.000811488
0.000791999
0.000788904
0.00081777
0.000893333
0.000963627
0.00102231
0.00107801
0.00113004
0.00115934
0.00118571
0.00120392
0.00121481
0.00121836
0.00121462
0.0012039
0.00118748
0.00116674
0.00114437
0.00112288
0.00110374
0.00108454
0.00106305
0.00103821
0.00101047
0.00097869
0.00094562
0.000913278
0.00088095
0.000849337
0.000820716
0.000799206
0.000793048
0.000816237
0.000884137
0.000955083
0.00101228
0.00106483
0.00111504
0.00113869
0.00116622
0.00118751
0.00120106
0.00120688
0.00120519
0.00119621
0.00118144
0.00116254
0.00114192
0.00112185
0.00110375
0.0010853
0.0010648
0.00104117
0.00101453
0.000983687
0.000952887
0.00092193
0.000890346
0.000858688
0.000828986
0.00080515
0.000795383
0.000813515
0.000874217
0.000945907
0.00100204
0.00105208
0.00109827
0.00111931
0.00114726
0.00117004
0.00118609
0.00119402
0.00119431
0.00118705
0.00117397
0.00115686
0.00113796
0.00111936
0.00110234
0.00108486
0.00106537
0.00104295
0.00101746
0.000988594
0.000959697
0.000930084
0.000899252
0.000867559
0.000836678
0.000810369
0.000796664
0.000809579
0.000863826
0.000936239
0.000991524
0.00103945
0.00108151
0.00110083
0.00112938
0.00115288
0.00117017
0.00118
0.00118211
0.00117655
0.00116521
0.00114986
0.00113266
0.0011155
0.00109959
0.00108311
0.00106487
0.00104365
0.00101945
0.000993141
0.000966163
0.000937904
0.000907862
0.000876185
0.000844138
0.00081515
0.000796852
0.0008045
0.000853122
0.00092623
0.000980802
0.00102698
0.00106623
0.00108304
0.00111238
0.00113649
0.00115435
0.00116506
0.00116875
0.00116481
0.00115518
0.00114161
0.0011261
0.00111041
0.00109565
0.00108025
0.00106325
0.00104345
0.00102121
0.000997505
0.000972443
0.000945565
0.000916367
0.000884791
0.000851679
0.000820065
0.000797124
0.000798694
0.000842273
0.00091604
0.000969958
0.00101466
0.00105193
0.00106583
0.00109607
0.00112084
0.00113928
0.00115037
0.00115459
0.00115198
0.001144
0.00113222
0.00111842
0.00110423
0.00109068
0.00107645
0.00106077
0.00104311
0.00102339
0.00100197
0.00097873
0.000953238
0.000924959
0.000893615
0.000859642
0.000825523
0.000798094
0.0007928
0.000831591
0.000905893
0.000959087
0.00100249
0.00103836
0.00104918
0.00108037
0.00110584
0.00112479
0.0011364
0.00114126
0.0011397
0.00113312
0.00112307
0.00111106
0.00109847
0.00108613
0.00107326
0.00105922
0.00104361
0.00102611
0.00100673
0.000985231
0.000961132
0.000933852
0.000902916
0.000868403
0.000832101
0.000799922
0.000787762
0.000821606
0.000896104
0.000948405
0.000990583
0.0010254
0.00103313
0.00106526
0.00109134
0.00111078
0.00112308
0.00112868
0.00112827
0.00112314
0.00111482
0.00110463
0.00109372
0.00108275
0.00107128
0.00105894
0.0010451
0.00102955
0.00101206
0.000992242
0.000969565
0.000943391
0.000913068
0.00087831
0.0008402
0.000803878
0.00078467
0.000813464
0.000887241
0.000938344
0.000979256
0.00101313
0.00101789
0.00105074
0.00107727
0.00109724
0.00111041
0.0011168
0.00111759
0.00111399
0.00110743
0.00109911
0.00108994
0.00108046
0.00107058
0.00105981
0.00104775
0.0010341
0.00101847
0.00100038
0.000979225
0.000954293
0.000924788
0.000890087
0.000850698
0.000810575
0.000784906
0.000808639
0.000880189
0.000929661
0.000969113
0.00100192
0.00100374
0.00103706
0.00106391
0.00108433
0.00109844
0.00110566
0.00110769
0.00110573
0.00110101
0.00109463
0.00108729
0.0010796
0.00107145
0.00106253
0.00105245
0.00104087
0.00102731
0.00101115
0.000991693
0.000968172
0.000939657
0.000905249
0.000864857
0.000821543
0.000789381
0.00080967
0.000876071
0.000923066
0.000960606
0.000992055
0.000991626
0.0010249
0.00105171
0.00107241
0.00108742
0.00109556
0.00109886
0.00109873
0.00109604
0.00109194
0.00108701
0.00108156
0.00107575
0.00106934
0.00106193
0.00105301
0.00104199
0.00102808
0.00101054
0.000988559
0.000961048
0.000926956
0.000885704
0.000839252
0.00080083
0.000817456
0.000877124
0.000920171
0.000954757
0.000984328
0.000983447
0.00101606
0.00104241
0.00106314
0.00107881
0.00108828
0.00109331
0.0010956
0.00109583
0.00109499
0.00109359
0.00109193
0.00109003
0.00108756
0.00108411
0.00107882
0.00107085
0.00105941
0.00104372
0.00102298
0.000996151
0.000962105
0.000919966
0.000870666
0.00082604
0.000837278
0.000886162
0.000923994
0.000954736
0.000981218
0.000987264
0.0010182
0.0010439
0.0010652
0.00108245
0.00109491
0.00110351
0.00111032
0.00111587
0.00112096
0.00112608
0.00113136
0.00113627
0.00114002
0.00114173
0.00114041
0.00113511
0.00112523
0.00111018
0.00108941
0.00106221
0.00102757
0.000984828
0.000935163
0.000887153
0.000888471
0.000919752
0.000947412
0.000970686
0.00099142
0.00106316
0.00109098
0.00111615
0.0011388
0.00115854
0.00117653
0.0011922
0.00120699
0.00122055
0.00123451
0.00124942
0.00126456
0.00127738
0.0012869
0.00129197
0.00129203
0.00128661
0.00127593
0.00125969
0.00123763
0.00121015
0.0011769
0.00113811
0.0010969
0.00105675
0.00104432
0.00105184
0.00106088
0.00106875
0.00107684
0.00147312
0.00148728
0.0015013
0.00151431
0.00152266
0.00153049
0.0015414
0.00155144
0.00155879
0.00156954
0.00158432
0.00159953
0.0016079
0.0016116
0.00160996
0.00160473
0.00159554
0.00158464
0.001571
0.00155449
0.00153811
0.00152246
0.00150721
0.00149424
0.0014884
0.00148848
0.00149019
0.00149024
0.00148827
0.00148595
0.000268218
0.000272357
0.000264845
0.00025388
0.000240965
0.000227193
0.000213302
0.000199806
0.000186941
0.00017498
0.000164106
0.000154581
0.000146152
0.000138134
0.000130292
0.000122754
0.000115281
0.000109367
0.000105244
0.000101769
9.52391e-05
8.64522e-05
9.54985e-05
0.000111851
0.00012826
0.000145538
0.000155778
0.000161432
0.000173901
0.000194485
0.00119855
0.00128765
0.00119072
0.00106354
0.000938467
0.00082832
0.000734402
0.000654559
0.00058595
0.000527734
0.000477012
0.000429552
0.000380179
0.000345165
0.000336584
0.000348161
0.00036708
0.000395462
0.00042647
0.000452281
0.000446716
0.000399911
0.000491795
0.000693583
0.000823882
0.000897
0.000885946
0.000831914
0.000769189
0.000752423
0.00198733
0.00219689
0.00210842
0.00193591
0.00174144
0.00155546
0.00138864
0.0012422
0.00111387
0.00100437
0.000908997
0.00081979
0.000726372
0.000663956
0.000651034
0.000670077
0.000696902
0.000734089
0.000778028
0.000825463
0.000849124
0.000813354
0.000922122
0.00119991
0.00142836
0.00155452
0.00155936
0.00149396
0.00139878
0.00138614
0.00261473
0.00287593
0.00281822
0.0026472
0.00242849
0.00220296
0.00198956
0.00179468
0.00161995
0.00146912
0.00133474
0.00120734
0.0010815
0.00100009
0.000981671
0.000999322
0.00102347
0.00105859
0.00110811
0.00117509
0.00123378
0.00122595
0.00133105
0.00162949
0.00193104
0.00210432
0.00213481
0.0020833
0.0019851
0.00199021
0.00312153
0.00338777
0.00336059
0.00320793
0.00298941
0.00274868
0.00250936
0.00228265
0.00207464
0.00188982
0.00172587
0.0015736
0.00142586
0.00133243
0.00130705
0.00131709
0.00133193
0.00135994
0.00141525
0.00150357
0.00159494
0.00161974
0.0017223
0.00201953
0.00235347
0.00257553
0.00263093
0.00260495
0.00252087
0.00254089
0.00353414
0.00378397
0.00378005
0.00364964
0.00344337
0.00320232
0.00295152
0.00270586
0.0024739
0.00226488
0.00208199
0.00191422
0.00175502
0.00165432
0.00162024
0.00161821
0.00161941
0.00163851
0.00170535
0.00181301
0.00192661
0.00198129
0.00208494
0.0023657
0.00269685
0.00296039
0.00305787
0.00306077
0.00300226
0.00303239
0.00387321
0.00409576
0.00410733
0.0039983
0.00380997
0.00357766
0.00332545
0.00307045
0.00282452
0.0025995
0.00240449
0.00223112
0.00206818
0.00196292
0.00191824
0.00190102
0.00188599
0.00189776
0.00197969
0.0020961
0.00222414
0.00230162
0.00240848
0.00265831
0.00295597
0.0032478
0.00340301
0.00345319
0.0034273
0.00346256
0.00414891
0.00434373
0.00436286
0.00427219
0.00410456
0.00388676
0.00364005
0.00338344
0.00313172
0.00289946
0.00269683
0.00252375
0.0023651
0.00225643
0.00219889
0.00216496
0.00213296
0.00214288
0.00223324
0.00234901
0.00248255
0.00257703
0.00268692
0.00289475
0.00316465
0.00347297
0.00366957
0.00377001
0.00378459
0.00382714
0.0043706
0.00454838
0.00457588
0.00449638
0.00434239
0.00413868
0.00390231
0.00365059
0.00339976
0.00316843
0.00296595
0.00279274
0.00264217
0.00253275
0.00246104
0.00240994
0.00236225
0.00237598
0.00246177
0.00256979
0.0027005
0.00280508
0.00291585
0.003078
0.00334135
0.00365804
0.00389247
0.0040263
0.00407846
0.0041312
0.00455303
0.00471318
0.00475043
0.00468784
0.00454321
0.00434959
0.00412052
0.00387547
0.00363269
0.00340791
0.00321233
0.00304574
0.00289847
0.00278814
0.00270378
0.00263636
0.00257639
0.0025944
0.00266467
0.00275805
0.00287862
0.00298593
0.00309087
0.00322527
0.00348645
0.00381017
0.00408034
0.0042345
0.0043137
0.00438208
0.00469092
0.0048358
0.00487929
0.00483755
0.00471641
0.00453047
0.00430901
0.00406996
0.00383394
0.00362068
0.0034362
0.00328024
0.0031395
0.00302281
0.00292731
0.00284567
0.00277854
0.00279726
0.00284249
0.00291338
0.00301631
0.00311983
0.00321467
0.00334444
0.00359999
0.00392519
0.00421877
0.00441089
0.00450817
0.00458821
0.0047821
0.00492069
0.00497388
0.00495034
0.00485399
0.00468942
0.00447376
0.00424137
0.00401252
0.00381123
0.00363914
0.00349546
0.00336074
0.00324015
0.00313305
0.00303994
0.00297365
0.00298382
0.0029964
0.00303707
0.00311614
0.00320934
0.00329705
0.00343438
0.00368371
0.00398795
0.00429006
0.00453039
0.00466682
0.00476647
0.0048321
0.00497277
0.00503798
0.00503347
0.00496005
0.00481844
0.00462082
0.00439428
0.00417326
0.00398135
0.00382366
0.0036918
0.00356256
0.00343879
0.00332253
0.00322177
0.00316009
0.00315219
0.00312807
0.00313259
0.00318331
0.00326107
0.00335016
0.00349493
0.00371328
0.0040021
0.00431234
0.00458691
0.00476185
0.00489118
0.00484881
0.00499573
0.00507461
0.00508959
0.00504081
0.00491863
0.00474094
0.00453219
0.00431883
0.00413769
0.00399211
0.00387056
0.00374615
0.00362033
0.00349814
0.00339478
0.00333727
0.00330093
0.00323983
0.00320483
0.00322283
0.00328191
0.00337569
0.0035057
0.0036981
0.00396934
0.00428679
0.00458779
0.00480576
0.00497324
0.00483781
0.00499244
0.00508726
0.00512347
0.00509809
0.00499908
0.00483789
0.00464829
0.00445188
0.00428197
0.0041465
0.00403372
0.00391355
0.00378724
0.00366326
0.00356451
0.00350503
0.0034338
0.00333474
0.00325892
0.0032393
0.00327567
0.00335479
0.00347092
0.00364759
0.00390176
0.00422161
0.00455055
0.00481278
0.00501704
0.00480251
0.004966
0.0050805
0.00513837
0.00513476
0.00506096
0.0049156
0.00474621
0.00456995
0.0044159
0.00428964
0.0041839
0.00406759
0.00394267
0.00382072
0.00373111
0.00366133
0.00355265
0.00341571
0.00329906
0.00323773
0.0032449
0.0033015
0.0034081
0.00357251
0.0038124
0.0041307
0.00448175
0.00478354
0.00502954
0.00473744
0.00492376
0.00505817
0.00513761
0.00515461
0.00510715
0.00498021
0.00482994
0.00467661
0.00454136
0.00442366
0.00432413
0.00421164
0.00409043
0.00397715
0.00389168
0.00380139
0.00365747
0.00348477
0.00332869
0.00322456
0.00319666
0.00323115
0.00332787
0.00348352
0.00371121
0.00402376
0.00438725
0.00472166
0.00501634
0.00464412
0.00486106
0.00502674
0.00512619
0.00516385
0.00514037
0.00503509
0.00490515
0.00478146
0.00465971
0.00455164
0.00445812
0.00434908
0.00423399
0.00413124
0.00404058
0.00391992
0.00374623
0.00354234
0.00334981
0.00320334
0.00313665
0.00315137
0.00323548
0.00338426
0.00360252
0.00390724
0.00427532
0.00463475
0.0049816
0.00453321
0.00477662
0.00498011
0.00511323
0.00516957
0.00516733
0.00508569
0.00498564
0.00488142
0.0047733
0.00467565
0.00458372
0.00448221
0.00437584
0.00427337
0.00416679
0.00401384
0.00381481
0.00358574
0.00336215
0.00317735
0.00306872
0.00306563
0.00313578
0.00327926
0.00349054
0.00378745
0.00415617
0.00453154
0.00491422
0.00441067
0.00467986
0.00491876
0.0050948
0.00518466
0.00520011
0.00514403
0.00506752
0.00497991
0.00488531
0.00479788
0.00470876
0.00460928
0.00450088
0.0043869
0.00425295
0.00407296
0.00385475
0.00360816
0.00336221
0.00314615
0.00300232
0.00297773
0.00303596
0.00317395
0.0033802
0.00366966
0.00403706
0.0044198
0.00482238
0.00428323
0.00458178
0.00485028
0.00505952
0.00518508
0.00523079
0.00520667
0.00514908
0.00507581
0.00499249
0.00490722
0.00481437
0.00470641
0.00458319
0.00444501
0.00428194
0.00408196
0.0038523
0.00359759
0.00334122
0.00310532
0.00293448
0.00287537
0.00293902
0.00307407
0.00327651
0.00356108
0.00392056
0.00430394
0.00471406
0.00416039
0.00448001
0.00477461
0.00501323
0.00515598
0.00523816
0.00524323
0.00520054
0.00513644
0.00505622
0.0049652
0.0048607
0.00473377
0.00458673
0.00441937
0.00423279
0.00402094
0.00378897
0.00353745
0.0032846
0.00304555
0.00285812
0.00278129
0.00284118
0.00298389
0.00318157
0.00346859
0.00381669
0.00419003
0.00459346
0.00404744
0.00438663
0.0046889
0.00492721
0.0051013
0.00521477
0.00523583
0.00520178
0.00513687
0.00504844
0.00494116
0.00481426
0.00465989
0.00448364
0.00428643
0.00408304
0.00386967
0.00364662
0.00341172
0.00317844
0.0029542
0.00276574
0.00267596
0.00273963
0.00291722
0.003119
0.00339785
0.00373448
0.00409588
0.00447594
0.0039518
0.0042764
0.00456579
0.00482371
0.00502264
0.00514187
0.00516096
0.00512152
0.00504367
0.00493497
0.00479941
0.00464072
0.0044557
0.00425182
0.00403198
0.0038235
0.00362307
0.00342265
0.00321937
0.00302134
0.00282781
0.00265456
0.00255786
0.00262548
0.00284808
0.00307419
0.0033597
0.00369098
0.00403662
0.00438551
0.0038334
0.00415251
0.00444295
0.00469632
0.00488338
0.00497707
0.00497615
0.00491573
0.00481147
0.00467348
0.00450664
0.00431662
0.00411345
0.00389958
0.00368099
0.00348914
0.00332109
0.0031579
0.00299849
0.00284449
0.00269038
0.00254141
0.00244036
0.00249747
0.00274777
0.00301434
0.00329272
0.00361355
0.0039416
0.00426043
0.00371929
0.00400826
0.00425936
0.00447249
0.00461572
0.00466002
0.00462237
0.00453224
0.00440385
0.00424823
0.00407233
0.00388298
0.00369163
0.00350792
0.00333216
0.00318592
0.0030676
0.00294981
0.00283533
0.0027215
0.00260193
0.00247571
0.0023691
0.00238502
0.00259119
0.00287765
0.00316867
0.00348197
0.00379564
0.00407952
0.00349263
0.00373303
0.00392206
0.00406927
0.00415312
0.00415232
0.00409498
0.00400249
0.00388639
0.00375623
0.00361901
0.00348118
0.00335055
0.00323159
0.003127
0.00304113
0.00296985
0.00289028
0.00280874
0.00272242
0.00262636
0.0025162
0.00240654
0.00236074
0.00245172
0.00266181
0.0029323
0.00322013
0.00350954
0.00376864
0.00314143
0.00331141
0.00344141
0.00354324
0.00360523
0.00360938
0.00358174
0.00353561
0.00347732
0.0034119
0.00334475
0.00328068
0.00322197
0.00316244
0.00310424
0.00305325
0.00300224
0.00294866
0.00289037
0.00282527
0.00274997
0.0026607
0.00256639
0.00249535
0.00250009
0.00259149
0.00274803
0.00293691
0.00313906
0.00333916
0.00297786
0.00308138
0.00317227
0.0032525
0.00331465
0.00334265
0.00335135
0.00334721
0.00333417
0.00331364
0.00328774
0.00325622
0.00322236
0.00318353
0.00314729
0.00310577
0.00306541
0.00302624
0.00298588
0.00294328
0.00289645
0.00284012
0.00278202
0.00273414
0.00273606
0.00278687
0.00286307
0.00294793
0.00303305
0.00311516
0.00312795
0.00318054
0.0032243
0.00326278
0.00329223
0.00330531
0.00330776
0.00330011
0.00328618
0.00326996
0.00325599
0.00323809
0.00321255
0.00318072
0.00314771
0.0031167
0.00309193
0.00307439
0.00305793
0.00304256
0.00302781
0.00301125
0.00299328
0.00297732
0.00299641
0.0030322
0.0030704
0.00310676
0.00313834
0.00316838
0.000304643
0.000309923
0.000300359
0.000287997
0.000273547
0.000258038
0.000242242
0.000226698
0.0002116
0.000197125
0.000183248
0.000170119
0.0001572
0.000144872
0.00013501
0.00012961
0.000129498
0.000141335
0.000155183
0.000165509
0.000170073
0.000165483
0.000164588
0.000178012
0.000191872
0.000199796
0.000205358
0.00020812
0.000214678
0.000225114
0.00148407
0.00163387
0.00155557
0.00139991
0.00123556
0.00108815
0.000962073
0.000854851
0.000761216
0.000678518
0.000602437
0.000524428
0.000440518
0.000410418
0.000457574
0.000548445
0.000641934
0.000745703
0.000860601
0.000945697
0.000984045
0.000975234
0.000992984
0.00105231
0.00108589
0.00109154
0.00107435
0.00102028
0.000943765
0.000905295
0.0024953
0.0028061
0.00276102
0.0025727
0.00233071
0.0020879
0.0018651
0.00166644
0.00148737
0.00132601
0.00117664
0.00102237
0.0008586
0.000811348
0.000904696
0.00105496
0.00119955
0.00136886
0.00156584
0.00172438
0.00181076
0.00182206
0.00186111
0.00195719
0.00201664
0.00203259
0.00200141
0.00190343
0.00175977
0.00169547
0.00330638
0.00368897
0.00368447
0.00351025
0.00324791
0.00295958
0.00267723
0.00241307
0.0021673
0.00194228
0.00173448
0.00151421
0.00129325
0.00124394
0.00136837
0.00154745
0.00171515
0.00192712
0.00217804
0.00239194
0.00252597
0.00257146
0.00263515
0.00275427
0.00283515
0.00286273
0.00283045
0.00271697
0.00253533
0.00246504
0.00398895
0.00437304
0.00440352
0.00425426
0.00399597
0.00368995
0.00337332
0.00306479
0.00277037
0.00249862
0.00224276
0.00197994
0.0017293
0.00168768
0.00182727
0.00201334
0.00218687
0.00242321
0.00270621
0.00295806
0.00313383
0.00322069
0.00331018
0.00344513
0.00355025
0.003594
0.00356852
0.0034557
0.00325897
0.00318768
0.00458127
0.0049296
0.00498105
0.00485549
0.00461073
0.00430195
0.00396716
0.00362991
0.00330182
0.00299619
0.00270704
0.00242328
0.00216515
0.00213489
0.00227439
0.00245135
0.00262144
0.00286581
0.00316361
0.00343968
0.00365226
0.00377803
0.00388994
0.00403747
0.00416617
0.00423633
0.00423271
0.00411968
0.00392519
0.00385174
0.00508252
0.00539214
0.00545486
0.00534889
0.00512095
0.00481771
0.00447551
0.00412166
0.00377248
0.00344647
0.00313851
0.00284862
0.00260062
0.00257972
0.00270629
0.00286245
0.00302214
0.00326635
0.00356578
0.00385936
0.00410137
0.0042577
0.00438389
0.0045361
0.00468472
0.00478037
0.00480656
0.00471894
0.00452956
0.00445464
0.00550881
0.00578561
0.00584873
0.00575687
0.00554679
0.00525426
0.00491234
0.00455176
0.00419271
0.0038572
0.00354756
0.00325744
0.00303419
0.0030161
0.00312087
0.00324855
0.0033956
0.00363486
0.00392501
0.00422263
0.00448825
0.0046709
0.0048064
0.00495007
0.00510905
0.0052329
0.00529164
0.0052377
0.00507049
0.00499576
0.00587948
0.00614261
0.00620348
0.00611342
0.00590805
0.00562356
0.00528756
0.00492944
0.00457102
0.00423643
0.00393486
0.00365898
0.00345961
0.00343906
0.00351619
0.00361208
0.00374813
0.00396845
0.00424116
0.00453936
0.00482076
0.00501757
0.0051579
0.00529878
0.00545242
0.0055995
0.00569005
0.00567973
0.00554438
0.00547724
0.00622322
0.0064644
0.0065268
0.006436
0.00623028
0.00594804
0.00561383
0.00526065
0.00491402
0.00459048
0.00430378
0.00405213
0.00386936
0.00384502
0.00389119
0.00395555
0.00408081
0.00426871
0.00451447
0.00481229
0.00510938
0.00532022
0.00546746
0.00560885
0.00576027
0.00590537
0.0060102
0.00604107
0.00594924
0.00590181
0.00649486
0.00671699
0.00678405
0.0067179
0.00652398
0.00624222
0.00591092
0.00556296
0.0052281
0.00492342
0.00465705
0.00443204
0.00426684
0.00422689
0.00424526
0.00428165
0.00438895
0.00453588
0.00474603
0.00503793
0.00532534
0.00554675
0.00570206
0.00583894
0.00598671
0.0061382
0.00626941
0.00632536
0.00628525
0.00627152
0.00671136
0.00692395
0.00699925
0.00694811
0.00678183
0.00651619
0.00618628
0.00584567
0.00552322
0.00523995
0.00499679
0.00479682
0.0046475
0.00459277
0.00458041
0.00459362
0.00466858
0.00477045
0.00493716
0.00519308
0.00545297
0.00568359
0.00585159
0.00599284
0.00614258
0.00630359
0.00645289
0.00654963
0.00655594
0.0065716
0.00687793
0.00709062
0.00717825
0.0071442
0.00699942
0.00675969
0.00644752
0.00611363
0.00580734
0.00554444
0.00532419
0.00514547
0.0050082
0.00493753
0.00489889
0.00489377
0.00492038
0.00497319
0.00508838
0.00528863
0.00552488
0.00576124
0.00594122
0.00609122
0.00624444
0.00641559
0.00658547
0.0067215
0.00677374
0.00683292
0.00700085
0.00722303
0.00732544
0.00731105
0.00719173
0.00697428
0.00668376
0.00637075
0.00608334
0.00583979
0.00564032
0.00547818
0.00534848
0.00526287
0.00520283
0.00517438
0.00514444
0.00514288
0.00519961
0.00533842
0.0055446
0.00577931
0.00597154
0.00613424
0.00629479
0.00647755
0.00667045
0.00684262
0.00694401
0.00704738
0.00708884
0.00732757
0.00744349
0.00745105
0.00736167
0.00716761
0.00689999
0.00661648
0.00635305
0.00612813
0.00594624
0.00579574
0.00566918
0.00557067
0.00549325
0.00542739
0.00534127
0.00527628
0.00527144
0.00534845
0.00551553
0.00573863
0.00594347
0.00612383
0.00629716
0.00649399
0.00671202
0.00692326
0.00707132
0.00722009
0.00715201
0.00740357
0.00753652
0.00756968
0.00751134
0.0073464
0.00710269
0.006854
0.00661696
0.00641114
0.00624236
0.00609891
0.00597086
0.00585744
0.00576186
0.00564644
0.00550586
0.0053747
0.00530322
0.00531398
0.00543971
0.00564293
0.00586052
0.00606361
0.00625556
0.00646973
0.00671452
0.00696674
0.0071603
0.00735629
0.00719333
0.0074555
0.00761069
0.00767291
0.00764383
0.00751365
0.00729915
0.00709018
0.00687242
0.00668812
0.00652857
0.00638715
0.00625088
0.0061244
0.00599387
0.00582455
0.00562918
0.00543405
0.00529386
0.00524138
0.00531485
0.00549654
0.00572708
0.00595762
0.00617405
0.00640938
0.00668248
0.00697634
0.00721713
0.00746226
0.00721334
0.00748407
0.00767221
0.00776587
0.00776619
0.00767396
0.00750318
0.00731593
0.00712451
0.00695463
0.0068009
0.00665396
0.00650335
0.00635259
0.00617347
0.00594969
0.00569852
0.00544422
0.00523998
0.0051249
0.00514557
0.0053032
0.00554694
0.00580961
0.00605642
0.00631729
0.00662047
0.00695533
0.00724396
0.00754415
0.00720895
0.00749398
0.00771931
0.00785422
0.00788895
0.00782893
0.00769743
0.00753196
0.00736572
0.00720464
0.00704641
0.00688466
0.00670943
0.00651515
0.00628398
0.00600438
0.00569903
0.00539165
0.00513265
0.00496188
0.00493036
0.0050631
0.00532635
0.00562242
0.0059062
0.00619784
0.00653324
0.00690725
0.00724289
0.00759839
0.00717577
0.0074877
0.00775527
0.00792874
0.00799281
0.00797885
0.0078792
0.00773352
0.00757525
0.00741352
0.00724116
0.00705083
0.00683288
0.00658754
0.00630047
0.00596661
0.00561338
0.00526156
0.00496159
0.00474761
0.00466618
0.00477828
0.00505764
0.00540281
0.00572796
0.00605538
0.00642506
0.00683302
0.00721464
0.00762046
0.00711453
0.00746547
0.00776078
0.00795971
0.00806538
0.00810617
0.00801352
0.00787595
0.0077159
0.00754203
0.0073463
0.0071156
0.0068457
0.00654145
0.00619532
0.00581449
0.00542596
0.00504364
0.00471975
0.00447887
0.00436101
0.00443542
0.0047393
0.00515196
0.00552918
0.00589475
0.00629673
0.00673351
0.00715876
0.00759418
0.00702053
0.00740526
0.0077306
0.007944
0.00809345
0.00815028
0.00806726
0.00792496
0.00774948
0.00754971
0.00731943
0.00704182
0.00671547
0.00635296
0.00595071
0.00553797
0.00513147
0.00474122
0.00441225
0.00416157
0.00401984
0.00406185
0.00436759
0.00484689
0.00530069
0.00571772
0.00614437
0.00660352
0.00705996
0.00751884
0.00689779
0.007288
0.00759791
0.00785584
0.00803478
0.00808569
0.00799277
0.00783018
0.00762565
0.00738918
0.00711737
0.00679608
0.00642059
0.00601287
0.0055728
0.00515212
0.00475437
0.00438114
0.0040682
0.00382458
0.00367605
0.00367805
0.0039553
0.00449841
0.00503034
0.00550551
0.0059757
0.00646594
0.0069552
0.00741742
0.00667414
0.0070576
0.00740063
0.00766768
0.00783605
0.00785163
0.00773007
0.00753543
0.00729578
0.00702287
0.00671646
0.00636615
0.00597095
0.00554854
0.00510831
0.00471313
0.00435558
0.00402212
0.00374811
0.00354089
0.00339857
0.00335799
0.00354742
0.0040879
0.00468586
0.00520969
0.00571959
0.00623799
0.00674516
0.00720216
0.00636136
0.00675216
0.00706338
0.00729485
0.0074191
0.00738143
0.00722529
0.0070027
0.00674095
0.00645297
0.00614061
0.00579658
0.00542398
0.00503836
0.00465094
0.00431474
0.00401737
0.00375379
0.00354425
0.00337526
0.00324236
0.00316584
0.00324685
0.0036632
0.00423224
0.00479191
0.00532545
0.00585938
0.00637688
0.00682259
0.0058723
0.00622729
0.00648428
0.00666051
0.0067252
0.00664861
0.00648099
0.0062631
0.00601929
0.00576086
0.00548993
0.00520128
0.00489954
0.00459633
0.00429982
0.00403803
0.00382338
0.00363224
0.003474
0.00333744
0.00321803
0.00312453
0.00312091
0.00333175
0.00374987
0.00425115
0.00476318
0.00528238
0.00579032
0.00622961
0.00514741
0.00545352
0.00565131
0.00578021
0.00582309
0.00575837
0.00563095
0.00547097
0.005296
0.00511359
0.00492494
0.00472595
0.00451913
0.00430796
0.0040977
0.00392113
0.00375854
0.00361427
0.00349136
0.00338329
0.00328525
0.00319948
0.00316049
0.00323133
0.00343277
0.00376614
0.00415045
0.00457547
0.00501006
0.00540974
0.00441952
0.00464827
0.00481033
0.00493012
0.00499469
0.00498663
0.00493483
0.00485963
0.00477037
0.00467202
0.00456565
0.00444597
0.00430809
0.00415879
0.00401483
0.00386954
0.00373644
0.00362041
0.00352544
0.00344682
0.00337871
0.00332154
0.00329381
0.003323
0.00341968
0.00358083
0.00380418
0.00406456
0.00433698
0.00461893
0.00409392
0.00423455
0.00435251
0.00445382