/*--------------------------------*- C++ -*----------------------------------*\
  =========                 |
  \\      /  F ield         | OpenFOAM: The Open Source CFD Toolbox
   \\    /   O peration     | Website:  https://openfoam.org
    \\  /    A nd           | Version:  12
     \\/     M anipulation  |
\*---------------------------------------------------------------------------*/
FoamFile
{
    format      ascii;
    class       volScalarField;
    location    "550/air";
    object      epsilon;
}
// * * * * * * * * * * * * * * * * * * * * * * * * * * * * * * * * * * * * * //

dimensions      [0 2 -3 0 0 0 0];

internalField   nonuniform List<scalar> 
243000
(
8.08249
9.17821
9.52644
9.64088
9.48857
9.15419
8.69503
8.16872
7.61215
7.07006
6.58478
6.19697
5.91496
5.66734
5.374
4.99746
4.52297
3.97045
3.35874
2.70903
1.98324
1.41786
1.28501
1.81215
2.20402
2.56447
2.8763
3.13336
3.44798
3.9954
5.41737
6.13449
6.12929
5.96372
5.67722
5.31489
4.91624
4.50778
4.10386
3.7239
3.37687
3.07166
2.79595
2.54513
2.32843
2.13639
1.94578
1.75005
1.53169
1.27163
1.00441
0.709702
0.717703
1.222
1.53554
1.83533
2.1472
2.36298
2.63879
3.10522
6.18119
6.72485
6.51264
6.13997
5.66811
5.15624
4.64215
4.14935
3.68951
3.27819
2.91775
2.61056
2.33808
2.09689
1.89824
1.73367
1.58191
1.43446
1.27153
1.07693
0.886351
0.663993
0.643543
1.18165
1.59478
2.01576
2.4512
2.78024
3.17081
3.75513
7.31387
7.87341
7.67717
7.28279
6.76505
6.19311
5.6076
5.0362
4.49573
4.00745
3.57761
3.21199
2.88586
2.59203
2.34365
2.13328
1.93841
1.74921
1.54134
1.30744
1.09263
0.851176
0.771351
1.36966
1.95259
2.53564
3.12219
3.55268
4.02346
4.67105
8.14668
8.65107
8.48652
8.10633
7.5878
7.00086
6.38537
5.77127
5.17992
4.63896
4.16114
3.75624
3.3942
3.06141
2.77032
2.51597
2.27713
2.0435
1.78822
1.52134
1.28896
1.04308
0.932422
1.47524
2.22058
2.94587
3.68206
4.21479
4.75791
5.44307
8.73168
9.15479
9.02534
8.67956
8.18887
7.61727
7.00091
6.37072
5.75147
5.17753
4.66907
4.24054
3.85673
3.49606
3.16898
2.87402
2.59301
2.31534
2.01377
1.72163
1.4772
1.23635
1.11161
1.55738
2.41945
3.23297
4.11202
4.75414
5.36652
6.0757
9.10233
9.45149
9.35695
9.0569
8.61168
8.07524
7.47814
6.851
6.22151
5.63029
5.10522
4.66533
4.27043
3.89101
3.53403
3.20289
2.88318
2.56398
2.21963
1.90977
1.65743
1.42627
1.29794
1.63755
2.55847
3.42105
4.40991
5.15896
5.84158
6.56971
9.29492
9.59033
9.52854
9.27928
8.89031
8.40176
7.83755
7.22725
6.60104
6.00511
5.47464
5.0326
4.63451
4.24343
3.86253
3.50033
3.14606
2.78971
2.4087
2.08734
1.82924
1.60856
1.48313
1.72694
2.64756
3.54684
4.5891
5.43888
6.18497
6.93552
9.33216
9.59815
9.58208
9.38451
9.05228
8.61724
8.09552
7.51235
6.89993
6.30957
5.78264
5.3452
4.94939
4.55217
4.15311
3.76542
3.38149
2.99244
2.58947
2.25647
1.99215
1.77983
1.66063
1.84068
2.6846
3.61912
4.66054
5.60206
6.41196
7.18465
9.2512
9.5139
9.54685
9.40773
9.12935
8.74575
8.26605
7.71588
7.12649
6.55039
6.03424
5.60637
5.2167
4.81714
4.40567
3.99829
3.59007
3.17274
2.75942
2.41642
2.14538
1.93798
1.8251
1.96129
2.69736
3.65149
4.64961
5.66169
6.52812
7.32435
9.07635
9.35352
9.43568
9.35973
9.1421
8.80639
8.3689
7.85168
7.28793
6.73337
6.23367
5.8194
5.43811
5.03968
4.62105
4.19985
3.773
3.33185
2.91575
2.56612
2.28809
2.0818
1.97336
2.07869
2.70046
3.65741
4.59836
5.63618
6.55315
7.36981
8.82515
9.13162
9.26493
9.2516
9.09655
8.81398
8.4155
7.93184
7.39523
6.86433
6.38573
5.98726
5.61586
5.22173
4.80094
4.37167
3.93171
3.47233
3.05894
2.70555
2.42011
2.21111
2.10412
2.18605
2.69916
3.6405
4.53497
5.52769
6.49364
7.33482
8.51309
8.86058
9.04769
9.09536
8.99896
8.77065
8.41713
7.96503
7.45668
6.95021
6.4948
6.11335
5.75279
5.36597
4.94771
4.5158
4.06761
3.59935
3.19154
2.83553
2.5421
2.32659
2.21676
2.27831
2.69686
3.59891
4.45603
5.36268
6.35609
7.22173
8.15491
8.55053
8.79336
8.89917
8.85988
8.68135
8.37298
7.9592
7.47933
6.99826
6.56443
6.20117
5.85236
5.47561
5.06419
4.63459
4.18239
3.72025
3.3157
2.95694
2.65505
2.42917
2.31041
2.35089
2.69771
3.5298
4.36573
5.21192
6.15912
7.04489
7.76122
8.21005
8.50884
8.6699
8.685
8.55377
8.28743
7.913
7.46796
7.01407
6.60173
6.25402
5.91838
5.55433
5.1535
4.73055
4.2782
3.83067
3.43139
3.07061
2.75976
2.51997
2.38438
2.40207
2.69325
3.44318
4.26466
5.06375
5.92393
6.81805
7.3478
7.84702
8.20014
8.41375
8.47845
8.39245
8.1654
7.83017
7.42234
7.0006
6.61157
6.27831
5.95463
5.60579
5.21882
4.80601
4.35818
3.93071
3.5393
3.17762
2.85732
2.60062
2.44153
2.43355
2.67828
3.34623
4.15547
4.91783
5.70996
6.55539
6.96322
7.4706
7.87292
8.13475
8.24437
8.20133
8.01275
7.71386
7.34538
6.95811
6.59541
6.27974
5.96806
5.63378
5.26338
4.86324
4.42887
4.02328
3.64117
3.27954
2.94966
2.67355
2.48673
2.44877
2.65099
3.24316
4.04034
4.77215
5.50935
6.2689
6.61486
7.11363
7.53443
7.83734
7.98676
7.98413
7.83265
7.57095
7.24048
6.8882
6.55347
6.25725
5.96172
5.64329
5.29001
4.9047
4.49725
4.11134
3.73904
3.37821
3.03893
2.74218
2.52518
2.45117
2.61088
3.13654
3.92121
4.62587
5.31561
5.9867
6.2943
6.78778
7.21025
7.52872
7.71122
7.74477
7.62921
7.40527
7.11206
6.79427
6.48763
6.21161
5.93381
5.63564
5.30041
4.93416
4.5611
4.19615
3.83465
3.47558
3.12751
2.80996
2.56015
2.44236
2.55884
3.02815
3.80007
4.47973
5.12887
5.73719
5.99604
6.48745
6.9096
7.22994
7.42452
7.48756
7.40554
7.21804
6.96214
6.67875
6.4007
6.14615
5.88757
5.61032
5.29789
4.96385
4.62368
4.27989
3.93003
3.57373
3.21787
2.87985
2.59648
2.43159
2.49866
2.91968
3.67902
4.33497
4.94875
5.51049
5.71686
6.20803
6.63019
6.95325
7.15012
7.22226
7.16587
7.01273
6.79373
6.54499
6.29626
6.06442
5.82701
5.57374
5.29682
4.99923
4.68832
4.36498
4.02733
3.67493
3.31279
2.95582
2.63882
2.42634
2.4363
2.81405
3.56071
4.19298
4.775
5.30105
5.45514
5.94692
6.36956
6.69422
6.89555
6.97847
6.94344
6.81905
6.63503
6.42154
6.2031
5.99358
5.78017
5.55387
5.30851
5.04242
4.75789
4.45423
4.12925
3.78194
3.41539
3.04195
2.69267
2.43095
2.37961
2.71615
3.4486
4.05634
4.60875
5.106
5.21075
5.70274
6.12431
6.44991
6.65871
6.75353
6.74057
6.64463
6.49425
6.31518
6.1273
5.942
5.7521
5.55277
5.33452
5.09619
4.83616
4.55182
4.24014
3.89929
3.53042
3.14289
2.76313
2.45254
2.33871
2.63589
3.34876
3.93035
4.45417
4.92582
4.98541
5.47445
5.89249
6.21968
6.43872
6.54565
6.55478
6.48742
6.37002
6.22484
6.06769
5.9078
5.74457
5.56979
5.37833
5.1667
4.93106
4.66676
4.36964
4.03667
3.66715
3.26726
2.85972
2.50044
2.32503
2.5861
3.27025
3.82367
4.3184
4.7645
4.78196
5.26491
5.67783
6.00508
6.23568
6.35445
6.38524
6.34758
6.26327
6.15242
6.02699
5.89727
5.76174
5.61573
5.45394
5.27167
5.06313
4.82129
4.54055
4.21645
3.84651
3.43407
2.99777
2.59052
2.35098
2.58943
3.22407
3.74364
4.20615
4.62511
4.61177
5.08305
5.48638
5.81127
6.05251
6.18426
6.2365
6.23051
6.18179
6.11005
6.02511
5.9323
5.83432
5.72747
5.60561
5.46131
5.28615
5.07045
4.80698
4.49026
4.11572
3.68513
3.21375
2.74987
2.43895
2.65609
3.2329
3.7075
4.12916
4.51704
4.4986
4.95316
5.34302
5.66306
5.91175
6.06338
6.14439
6.17946
6.18062
6.16385
6.13798
6.10758
6.07308
6.02897
5.96799
5.87673
5.74156
5.55198
5.29972
4.97908
4.58566
4.12065
3.5978
3.06046
2.66337
2.83729
3.32781
3.75076
4.1262
4.47201
4.5488
4.98283
5.36461
5.69508
5.97208
6.17465
6.31828
6.433
6.52733
6.61501
6.70416
6.79689
6.88354
6.94869
6.97579
6.94664
6.84357
6.65801
6.38403
6.02007
5.56666
5.02677
4.41844
3.79243
3.28889
3.35961
3.70788
4.03536
4.33027
4.6074
5.66768
6.11801
6.54666
6.94899
7.31351
7.65477
7.96362
8.26044
8.53961
8.83578
9.15874
9.49386
9.78249
9.99827
10.1114
10.1062
9.97141
9.71599
9.33739
8.84289
8.25354
7.58043
6.85282
6.15094
5.54585
5.39813
5.5109
5.64113
5.7593
5.88524
15.0082
15.4403
15.8771
16.2896
16.5529
16.8187
17.1873
17.5175
17.7655
18.1438
18.6608
19.198
19.4939
19.6192
19.5508
19.3518
19.0127
18.6193
18.1272
17.5566
17.0061
16.4943
16.0135
15.6336
15.4963
15.5079
15.5576
15.5461
15.4759
15.3951
14.286
17.3984
18.5504
18.8576
18.5001
17.6684
16.5244
15.2048
13.7913
12.3755
11.0232
9.80836
8.68711
7.56463
6.44858
5.3932
4.40163
3.67853
3.1854
2.81376
2.21022
1.47861
1.78155
2.51887
3.46337
4.29558
4.50263
4.30182
4.59601
5.4656
9.20868
10.1698
10.6804
10.836
10.6673
10.2271
9.58619
8.82044
7.98722
7.13107
6.29332
5.52896
4.81171
4.15176
3.61483
3.21768
2.91134
2.74681
2.6285
2.41887
1.97492
1.31733
1.52012
2.21326
3.22368
4.00098
4.32226
4.25186
4.40859
4.80113
8.55649
9.05986
9.26606
9.28295
9.12164
8.79213
8.31407
7.72489
7.06443
6.37124
5.67893
5.03696
4.41705
3.83524
3.37792
3.07107
2.86389
2.77341
2.69802
2.4873
2.14671
1.61423
1.75243
2.50246
3.55881
4.42754
4.83269
4.80984
4.9335
5.22958
8.39144
8.64803
8.69818
8.63728
8.48018
8.21639
7.83737
7.35648
6.79876
6.19786
5.59838
5.04448
4.47096
3.91368
3.46917
3.17404
2.98285
2.89368
2.80337
2.56899
2.33803
1.9717
2.07269
2.81539
3.87783
4.80602
5.26708
5.29533
5.40326
5.66666
8.29842
8.36778
8.31861
8.21983
8.07674
7.86643
7.56235
7.16257
6.68177
6.16028
5.63212
5.13471
4.60249
4.06085
3.61529
3.31266
3.11603
3.00998
2.8951
2.65567
2.52857
2.30573
2.40824
3.09166
4.11982
5.05675
5.56491
5.65268
5.76215
6.0202
8.18374
8.0994
7.98647
7.8753
7.754
7.59072
7.34694
7.0122
6.59769
6.14037
5.66841
5.22072
4.72416
4.19714
3.75012
3.43722
3.23089
3.1078
2.98609
2.76214
2.693
2.58807
2.71322
3.32571
4.27277
5.19684
5.72702
5.88219
6.00524
6.26367
8.01396
7.81665
7.66721
7.55943
7.46462
7.34341
7.15031
6.86811
6.50623
6.10388
5.6845
5.2768
4.81328
4.30277
3.85764
3.53693
3.32285
3.19012
3.08002
2.8679
2.82958
2.8102
2.95917
3.50032
4.34588
5.23203
5.79038
5.99377
6.13373
6.39804
7.78621
7.51823
7.35354
7.25906
7.19249
7.10849
6.95711
6.71774
6.39904
6.04132
5.67341
5.30234
4.86448
4.37388
3.93534
3.61144
3.39449
3.26523
3.16636
2.96605
2.94142
2.9755
3.13823
3.61612
4.36915
5.17073
5.75781
6.02036
6.1747
6.43682
7.50695
7.20885
7.04678
6.97139
6.93207
6.87983
6.76236
6.55777
6.27563
5.95408
5.62787
5.29907
4.8847
4.41235
3.98542
3.66376
3.45018
3.33651
3.24464
3.05556
3.03076
3.09452
3.26099
3.68424
4.34025
5.03836
5.61905
5.94941
6.13117
6.38717
7.18984
6.89473
6.74905
6.69626
6.68172
6.65558
6.56488
6.38819
6.13643
5.84784
5.55546
5.25837
4.87788
4.42509
4.01221
3.69815
3.49416
3.4
3.31497
3.14112
3.11018
3.17863
3.34218
3.7154
4.27905
4.88709
5.42225
5.79391
6.0049
6.26172
6.8481
6.58084
6.46106
6.43287
6.44044
6.43514
6.36528
6.21079
5.9844
5.72519
5.46292
5.19205
4.83831
4.41537
4.02013
3.71918
3.53104
3.45622
3.37992
3.22213
3.17982
3.24255
3.39508
3.71668
4.20185
4.73196
5.20364
5.58615
5.82373
6.07977
6.4929
6.27169
6.18386
6.18069
6.20673
6.21815
6.16461
6.02805
5.82327
5.58992
5.35489
5.10695
4.77876
4.38417
4.01342
3.73144
3.56701
3.50791
3.44264
3.30117
3.24398
3.29183
3.42711
3.69224
4.11683
4.59359
4.99992
5.3497
5.5993
5.85794
6.13581
5.97142
5.919
5.93891
5.98055
6.00483
5.96467
5.84286
5.65707
5.44675
5.23611
5.00869
4.70527
4.34057
3.99759
3.73966
3.60281
3.55847
3.50646
3.38132
3.30808
3.33426
3.44456
3.65369
4.01452
4.45781
4.82111
5.10592
5.35151
5.6096
5.78762
5.68361
5.66768
5.70762
5.76259
5.79667
5.76764
5.65861
5.49004
5.30068
5.11176
4.90324
4.62426
4.29078
3.97862
3.74947
3.64118
3.61227
3.57484
3.46601
3.37649
3.3755
3.45207
3.60769
3.90697
4.30876
4.64822
4.88347
5.09652
5.34621
5.45727
5.41118
5.43008
5.48764
5.55385
5.59565
5.57623
5.47896
5.32685
5.15699
4.9877
4.79703
4.54266
4.24175
3.96331
3.76879
3.68735
3.6745
3.65175
3.55878
3.45385
3.42059
3.45248
3.55951
3.80263
4.1592
4.47556
4.69083
4.85307
5.07639
5.1554
5.15945
5.20686
5.28019
5.35593
5.40415
5.39359
5.30813
5.17262
5.02157
4.87066
4.6975
4.4685
4.20169
3.96091
3.80431
3.74798
3.7511
3.74233
3.66364
3.54504
3.47399
3.45212
3.5136
3.70653
4.01661
4.31012
4.51777
4.64249
4.8124
4.90257
4.934
5.00117
5.08728
5.17109
5.22524
5.22393
5.15138
5.03358
4.90154
4.76849
4.61375
4.41175
4.18077
3.98134
3.8628
3.83164
3.84968
3.85351
3.7858
3.6564
3.54193
3.45787
3.47419
3.6212
3.88578
4.15665
4.35278
4.45589
4.56419
4.6941
4.74607
4.81954
4.91311
5.00359
5.06411
5.07312
5.01588
4.91784
4.80577
4.69156
4.55682
4.38511
4.19245
4.03837
3.95529
3.94947
3.98106
3.99539
3.93562
3.7967
3.62859
3.47825
3.44346
3.54698
3.76944
4.0182
4.20076
4.28669
4.3469
4.52525
4.5937
4.67198
4.76634
4.86129
4.92939
4.95035
4.91177
4.83588
4.74552
4.65494
4.54674
4.40617
4.25722
4.14695
4.09852
4.11631
4.16072
4.18371
4.12864
3.97625
3.74743
3.52347
3.42591
3.4839
3.66893
3.89669
4.0655
4.1378
4.16797
4.39094
4.47358
4.56108
4.65929
4.75749
4.83441
4.87001
4.85335
4.80419
4.74502
4.67983
4.60079
4.50042
4.39626
4.32986
4.31747
4.35747
4.41399
4.44377
4.38937
4.21383
3.92255
3.61005
3.42847
3.43394
3.58513
3.79402
3.94961
4.01208
4.02725
4.28744
4.38514
4.48948
4.60171
4.7089
4.79656
4.85291
4.863
4.8475
4.82266
4.79293
4.75169
4.69756
4.64312
4.6256
4.65317
4.71651
4.78513
4.81922
4.75925
4.55228
4.18961
3.76651
3.46925
3.40419
3.52025
3.71359
3.85555
3.9142
3.92689
4.21108
4.33281
4.45848
4.58944
4.72231
4.84024
4.92443
4.96933
4.99605
5.01582
5.03396
5.04564
5.05152
5.05911
5.10452
5.18163
5.27472
5.35719
5.39165
5.31452
5.06155
4.60885
4.04302
3.58291
3.41151
3.48603
3.66164
3.7904
3.85095
3.86902
4.16708
4.31576
4.47955
4.6561
4.83136
4.98728
5.11416
5.20948
5.29647
5.3826
5.47154
5.56503
5.66242
5.76348
5.90345
6.05599
6.19612
6.2981
6.32481
6.20645
5.87411
5.2909
4.52746
3.82933
3.48949
3.50952
3.66632
3.78117
3.83896
3.86618
4.17292
4.37301
4.59683
4.83283
5.07206
5.29055
5.48983
5.67058
5.85883
6.05673
6.26106
6.48656
6.74381
7.00885
7.3175
7.60733
7.83419
7.96834
7.96674
7.75017
7.26001
6.45617
5.39485
4.33141
3.71366
3.63403
3.75497
3.85467
3.90988
3.94338
4.29997
4.57521
4.88378
5.20688
5.55428
5.88843
6.23248
6.58219
6.95386
7.35529
7.77922
8.23182
8.78721
9.37383
10.02
10.5847
10.978
11.1574
11.0634
10.6117
9.77795
8.56391
7.01833
5.36019
4.26268
3.99515
4.04423
4.1068
4.14237
4.17601
4.70789
5.10093
5.54758
6.03166
6.59253
7.17234
7.77055
8.42479
9.15213
9.95661
10.8454
11.8377
12.9506
14.1988
15.5307
16.6222
17.2796
17.4657
17.0941
16.0992
14.5307
12.5211
10.1785
7.53469
5.63063
4.96533
4.83025
4.79052
4.75355
4.75943
5.94483
6.5373
7.27706
8.12032
9.07057
10.1222
11.258
12.5558
14.0166
15.6432
17.4655
19.535
21.8356
24.2346
26.7099
28.5001
29.3224
29.2057
28.073
25.9695
23.0923
19.7901
16.2715
12.2829
9.19754
7.69114
7.07667
6.7194
6.44892
6.30753
9.90759
10.9406
12.2874
13.8358
15.5786
17.605
19.8121
22.3364
25.1284
28.174
31.5046
35.1799
39.0413
42.6928
45.7273
47.1667
46.9816
45.2398
42.4422
38.9742
35.0761
30.8235
26.5019
21.985
18.0887
15.4328
13.8298
12.5991
11.5857
10.9076
22.4209
24.2635
26.6124
29.2541
32.0813
35.3164
38.787
42.5721
46.5258
50.6027
54.6725
58.4662
61.5765
63.269
62.771
60.2993
56.9355
53.1287
49.2519
45.5151
42.0749
38.9607
36.1013
34.0034
33.0233
31.8664
30.3794
28.4419
26.2299
24.3553
44.4688
47.6417
50.6978
53.5658
55.8619
58.1997
60.6343
62.9516
64.659
66.0878
66.8832
66.3363
64.4647
61.6918
57.6276
52.8578
48.4027
44.4169
41.0313
38.3136
36.372
35.182
34.6441
35.1006
36.8856
39.4251
41.6799
43.4838
44.7656
45.6007
20.9689
25.6446
27.0594
27.5241
27.0582
25.8765
24.1925
22.194
19.9849
17.6745
15.3223
13.0442
10.7748
8.71369
7.20954
6.44928
6.46243
8.34722
10.5943
12.078
12.184
10.5777
9.59516
10.6426
11.3193
11.0102
10.3123
9.2429
8.69509
8.5491
12.2176
13.1311
13.4965
13.6809
13.5589
13.1242
12.4282
11.5416
10.5253
9.42337
8.25848
7.08361
5.87933
4.95072
4.51916
4.5565
4.96819
6.1723
7.6086
8.58816
8.88903
8.32717
7.86874
8.08607
8.18229
7.99819
7.71546
7.26903
7.13916
7.29417
11.2959
11.5229
11.4874
11.3762
11.1669
10.8298
10.3487
9.73221
9.00512
8.19103
7.30363
6.37288
5.3772
4.64777
4.37239
4.48581
4.87128
5.79522
7.01423
7.94632
8.36135
8.1682
7.96965
8.14822
8.19362
8.03889
7.83112
7.48668
7.4403
7.65943
11.0448
10.9331
10.7114
10.4749
10.2305
9.94557
9.5775
9.10447
8.52953
7.86272
7.10867
6.31882
5.42097
4.7591
4.50797
4.58792
4.88913
5.60179
6.65452
7.55698
8.03657
8.05462
8.04825
8.28505
8.36793
8.2622
8.09521
7.79454
7.76311
7.9898
10.8183
10.495
10.1781
9.89786
9.65884
9.42462
9.13884
8.76401
8.29166
7.72451
7.08315
6.38189
5.5546
4.93461
4.67195
4.68898
4.89393
5.42072
6.31706
7.15783
7.66343
7.82982
7.97238
8.28705
8.43518
8.39024
8.27055
8.01464
7.9801
8.19786
10.5127
10.0553
9.69691
9.4185
9.20894
9.02633
8.80656
8.50483
8.10875
7.62339
7.07288
6.44007
5.68156
5.09487
4.81036
4.75901
4.86671
5.24223
5.9806
6.73149
7.24979
7.51512
7.76004
8.1352
8.37308
8.38578
8.31002
8.12738
8.0819
8.26655
10.1269
9.59276
9.22776
8.9768
8.80887
8.67617
8.51057
8.26543
7.92891
7.50859
7.03436
6.46902
5.77804
5.22184
4.91321
4.79709
4.82192
5.08407
5.68671
6.34785
6.8565
7.1726
7.46322
7.87197
8.19264
8.27813
8.2499
8.11911
8.08136
8.23785
9.67043
9.1128
8.76708
8.55702
8.43437
8.34686
8.22513
8.02424
7.735
7.37067
6.95497
6.46833
5.83745
5.31218
4.98117
4.80899
4.77193
4.97148
5.44937
6.01819
6.50047
6.83904
7.15438
7.54765
7.90951
8.07466
8.0969
8.02333
7.98405
8.09505
9.16898
8.62944
8.32072
8.15601
8.07641
8.02732
7.94025
7.77381
7.52285
7.20736
6.84671
6.42606
5.86477
5.36732
5.01803
4.80196
4.73147
4.88154
5.25415
5.73152
6.17408
6.51549
6.83543
7.20886
7.56575
7.79223
7.86513
7.84161
7.80582
7.86959
8.651
8.15507
7.89314
7.77299
7.73139
7.7133
7.65266
7.51292
7.2938
7.02146
6.71453
6.35123
5.86671
5.38999
5.02907
4.78348
4.70549
4.8094
5.09299
5.48208
5.87694
6.20619
6.51486
6.86363
7.20665
7.44847
7.57086
7.58955
7.5604
7.58718
8.13531
7.69647
7.48503
7.40714
7.39793
7.40347
7.36267
7.24381
7.05204
6.81898
6.5636
6.25586
5.83578
5.39121
5.02086
4.76166
4.68675
4.75137
4.95864
5.26739
5.60931
5.91484
6.20204
6.5194
6.84077
7.08487
7.23234
7.2853
7.26354
7.2666
7.63435
7.2597
7.09786
7.05859
7.076
7.09847
7.07278
6.97073
6.80331
6.60675
6.39977
6.14562
5.7805
5.36448
4.99988
4.74653
4.67314
4.70626
4.85155
5.08815
5.37355
5.64622
5.90436
6.18498
6.47802
6.71653
6.8665
6.94581
6.93175
6.92128
7.15546
6.84908
6.73391
6.72891
6.76616
6.80096
6.78696
6.69898
6.55421
6.39208
6.22992
6.02608
5.70942
5.32326
4.97551
4.74712
4.67043
4.67948
4.77507
4.94702
5.17437
5.40655
5.62972
5.87007
6.12857
6.35474
6.50148
6.58873
6.58138
6.56424
6.7041
6.46721
6.39573
6.41855
6.47061
6.51398
6.50951
6.43453
6.31189
6.18258
6.06177
5.90342
5.62989
5.27707
4.95968
4.76451
4.68481
4.67682
4.73343
4.84782
5.01689
5.20165
5.38477
5.58307
5.80226
6.00862
6.14727
6.22991
6.2261
6.20678
6.28539
6.11589
6.08453
6.12827
6.19161
6.24117
6.24528
6.18395
6.08405
5.98645
5.90377
5.78566
5.55244
5.2387
4.96891
4.80228
4.72376
4.70493
4.73339
4.79592
4.90632
5.03676
5.17434
5.32986
5.507
5.68641
5.81199
5.8851
5.87839
5.85851
5.90468
5.79733
5.80064
5.86
5.93212
5.98722
5.99991
5.95478
5.87931
5.81306
5.76597
5.68399
5.49197
5.22855
5.01535
4.87111
4.79811
4.77269
4.78095
4.80332
4.84904
4.9174
5.00228
5.11379
5.24803
5.39488
5.50252
5.56261
5.55068
5.52773
5.57
5.51701
5.54524
5.61695
5.69676
5.75841
5.78138
5.75642
5.70804
5.67427
5.6614
5.6145
5.46932
5.2669
5.10842
4.98725
4.92406
4.89589
4.88853
4.87421
4.85869
4.85124
4.87293
4.93687
5.0282
5.13906
5.22489
5.26932
5.25129
5.22267
5.28263
5.2772
5.32494
5.40562
5.4936
5.56452
5.60132
5.60148
5.58444
5.58636
5.6089
5.60132
5.51284
5.37718
5.26733
5.17403
5.12622
5.09903
5.07873
5.02904
4.94736
4.85044
4.79325
4.8011
4.84881
4.92243
4.9838
5.01094
4.98628
4.95428
5.04552
5.07669
5.14322
5.23688
5.33604
5.42042
5.47688
5.50768
5.52792
5.57126
5.63851
5.6799
5.65478
5.58072
5.52502
5.46849
5.44311
5.42096
5.38794
5.29956
5.14295
4.93921
4.77232
4.71139
4.71139
4.7476
4.78305
4.79292
4.76158
4.72781
4.85945
4.91823
5.00564
5.11734
5.23565
5.34494
5.4286
5.49745
5.56737
5.66203
5.78338
5.88346
5.92777
5.92313
5.93652
5.93119
5.93836
5.92705
5.879
5.74251
5.49378
5.15381
4.84147
4.67395
4.61976
4.61813
4.62718
4.62125
4.58363
4.54997
4.72487
4.80755
4.92133
5.05991
5.20167
5.345
5.48054
5.59931
5.73023
5.89253
6.08518
6.26155
6.39445
6.48223
6.5944
6.66538
6.72198
6.73121
6.66358
6.46084
6.09041
5.56598
5.04542
4.71228
4.58034
4.54117
4.52472
4.50348
4.46044
4.42857
4.64575
4.75611
4.89586
5.0731
5.27621
5.4754
5.6682
5.8568
6.07191
6.3287
6.62279
6.90892
7.16793
7.39225
7.65719
7.85264
7.99366
8.03999
7.9469
7.64627
7.10319
6.3145
5.47314
4.89222
4.62995
4.53265
4.49138
4.45493
4.40493
4.37471
4.62901
4.78291
4.98575
5.22921
5.50227
5.78083
6.06142
6.35391
6.69329
7.09095
7.53975
7.99714
8.45424
8.89897
9.41734
9.82804
10.1193
10.2377
10.1105
9.66048
8.82102
7.63828
6.30794
5.30659
4.83688
4.65562
4.57231
4.51203
4.44802
4.41693
4.74369
4.96763
5.25506
5.59289
5.97289
6.37693
6.79761
7.25481
7.79043
8.41219
9.11262
9.85457
10.6442
11.4668
12.4241
13.2106
13.7677
14.0218
13.8135
12.9927
11.6532
9.89314
7.89508
6.17917
5.35624
5.01772
4.85523
4.7477
4.6554
4.61598
5.10869
5.43579
5.85494
6.34298
6.89601
7.50986
8.16612
8.90118
9.76604
10.7647
11.8937
13.1266
14.4912
15.9694
17.6701
19.0669
20.0474
20.2409
19.5853
18.1544
16.107
13.591
10.7353
8.02761
6.55368
5.89379
5.56113
5.34571
5.18284
5.10855
6.03778
6.52557
7.16516
7.90919
8.76004
9.74288
10.814
12.0385
13.474
15.121
16.982
19.0493
21.369
23.8956
26.6735
28.8233
29.5475
29.0708
27.6106
25.3505
22.492
19.1962
15.4942
11.8746
9.32064
7.98288
7.25767
6.77915
6.43275
6.24651
8.42644
9.1767
10.204
11.4027
12.7781
14.4093
16.2127
18.2856
20.6706
23.3572
26.3478
29.6448
33.2786
37.0402
40.5586
41.7722
41.316
39.5492
37.0007
33.8936
30.4218
26.6899
22.6623
18.774
15.5774
13.0267
11.4598
10.3457
9.52565
9.01012
14.88
16.0326
17.6846
19.6058
21.7978
24.4108
27.3028
30.578
34.2022
38.1333
42.3325
46.7392
51.1798
54.6553
56.0043
54.7635
52.1219
48.6548
45.0266
41.4196
37.9776
34.6659
31.4387
28.7057
26.4269
24.0671
21.5218
19.2983
17.4951
16.1499
30.8458
32.4599
34.6912
37.2219
40.0252
43.3171
46.9485
50.9245
55.0513
59.2537
63.3356
66.7874
68.6472
68.134
65.5956
60.8195
55.7115
50.8115
46.6394
43.25
40.6818
38.8284
37.6135
37.4183
37.9437
38.3797
38.2336
37.0189
35.0522
32.9377
50.7699
53.8985
56.5557
58.7965
60.8808
63.1603
65.6875
68.2436
70.4791
72.3702
73.3881
72.5187
69.6848
65.2379
59.4306
52.5596
46.4867
41.4991
37.7322
35.1409
33.6911
33.2548
33.8019
35.4456
38.2541
41.5814
44.7201
47.4972
49.8404
51.833
27.6932
33.8872
35.364
35.8445
35.2747
33.7953
31.6276
28.9946
26.0062
22.7954
19.3715
15.8724
12.2706
9.65279
9.10685
11.4242
16.1485
23.0105
26.9083
28.8459
28.751
27.3472
25.6973
24.1541
22.4414
20.4415
18.3509
15.8801
14.0485
12.5049
15.3501
16.3705
16.4995
16.5884
16.4525
15.9947
15.2308
14.2203
13.0216
11.6675
10.1714
8.53232
6.78638
5.90324
6.32136
8.07843
10.7935
14.3618
16.3534
17.3411
17.36
16.8
15.9814
15.0501
14.0997
13.1237
12.1861
11.142
10.5553
10.1968
14.0574
14.0929
13.7897
13.5228
13.2369
12.8694
12.3717
11.7225
10.9265
9.98315
8.88507
7.61797
6.21107
5.64832
6.14747
7.57017
9.65234
12.3473
14.0315
14.9323
15.0831
14.7785
14.2624
13.6334
12.9656
12.2542
11.5841
10.8175
10.4566
10.3361
13.641
13.226
12.7392
12.3371
12.0017
11.6862
11.3209
10.8502
10.2503
9.50105
8.5785
7.48346
6.23885
5.79724
6.25485
7.39664
9.04677
11.1921
12.7217
13.6269
13.9048
13.7781
13.4745
13.0637
12.5846
12.0249
11.4697
10.8237
10.5475
10.4516
13.2538
12.597
12.0295
11.5922
11.2682
11.0102
10.7379
10.3811
9.90387
9.27584
8.48124
7.50909
6.36997
6.00576
6.39004
7.28068
8.57035
10.2861
11.6653
12.5713
12.9558
12.9717
12.8355
12.5996
12.2747
11.8391
11.3657
10.8137
10.5544
10.4978
12.7732
11.9834
11.4024
10.9869
10.7082
10.5121
10.3129
10.0357
9.64261
9.1025
8.41174
7.53517
6.51315
6.20733
6.50673
7.17102
8.15077
9.50763
10.7178
11.5979
12.0571
12.1892
12.1847
12.0914
11.8976
11.5798
11.1935
10.7232
10.4738
10.4306
12.1887
11.3551
10.8038
10.4421
10.2229
10.0866
9.94543
9.72623
9.39401
8.92391
8.31675
7.54147
6.65185
6.38997
6.59815
7.06013
7.77869
8.83237
9.85432
10.6758
11.1727
11.3886
11.4909
11.5132
11.4308
11.2197
10.9248
10.5416
10.2873
10.215
11.5307
10.721
10.2278
9.93501
9.777
9.69296
9.59676
9.42026
9.13429
8.72462
8.19185
7.52653
6.7809
6.5512
6.66601
6.95145
7.46136
8.26435
9.11979
9.8593
10.3552
10.6046
10.7583
10.8741
10.8862
10.7685
10.5567
10.2548
10.0064
9.88927
10.8381
10.1001
9.67966
9.45734
9.35517
9.31388
9.25154
9.1068
8.85822
8.50437
8.04958
7.49673
6.89754
6.68975
6.71347
6.85132
7.21282
7.79362
8.48424
9.12629
9.59949
9.86661
10.05
10.2016
10.287
10.2479
10.11
9.88214
9.64741
9.49323
10.1523
9.50454
9.16203
9.00444
8.95059
8.94252
8.90492
8.78461
8.56881
8.26971
7.89862
7.46068
6.99969
6.80466
6.74481
6.76734
7.00224
7.40229
7.93459
8.47143
8.90619
9.17645
9.372
9.54128
9.66011
9.68255
9.60636
9.44235
9.22882
9.05674
9.49112
8.93877
8.67311
8.57401
8.5611
8.57719
8.55792
8.45751
8.27318
8.03035
7.74765
7.42588
7.09008
6.8968
6.76545
6.71124
6.82978
7.08029
7.46702
7.89849
8.28125
8.54081
8.73416
8.90574
9.04055
9.09523
9.06821
8.95681
8.7687
8.59589
8.8713
8.4089
8.21382
8.16679
8.18665
8.2197
8.21446
8.13208
7.98029
7.79632
7.60421
7.39584
7.16834
6.96844
6.78249
6.67698
6.69634
6.82298
7.08124
7.40883
7.731
7.96742
8.14719
8.308
8.44361
8.51771
8.51585
8.44801
8.28787
8.12574
8.28944
7.91844
7.78689
7.78455
7.82834
7.87401
7.87997
7.81611
7.6997
7.57703
7.4742
7.37232
7.2306
7.02497
6.80715
6.65887
6.6037
6.63144
6.77859
7.00633
7.26106
7.46354
7.62079
7.76095
7.88412
7.96389
7.97546
7.93672
7.80484
7.66051
7.74971
7.46919
7.39517
7.42706
7.48903
7.54473
7.56068
7.51811
7.44097
7.38128
7.36362
7.35811
7.28134
7.07635
6.85806
6.66786
6.55671
6.50979
6.56257
6.69584
6.87699
7.03506
7.16206
7.27437
7.37465
7.44727
7.46306
7.43852
7.33292
7.21059
7.25516
7.0616
7.03865
7.09563
7.17206
7.23698
7.26407
7.24708
7.21351
7.21797
7.27923
7.356
7.33047
7.13865
6.93544
6.71654
6.56602
6.46373
6.43985
6.48468
6.58531
6.68689
6.7751
6.85398
6.92394
6.97897
6.99078
6.97089
6.88385
6.78441
6.80903
6.69682
6.71626
6.79278
6.88182
6.95717
6.99944
7.01388
7.02779
7.09297
7.22942
7.377
7.39614
7.23731
7.05129
6.82251
6.64954
6.50703
6.42135
6.38493
6.39579
6.42486
6.4627
6.50239
6.53707
6.56647
6.56713
6.54365
6.46817
6.38952
6.41662
6.37756
6.42833
6.52275
6.62476
6.71394
6.77796
6.82846
6.88991
7.01832
7.21942
7.43745
7.50583
7.39278
7.23214
7.01193
6.83139
6.66322
6.52957
6.41526
6.32508
6.25886
6.22868
6.22097
6.21659
6.21499
6.19819
6.16528
6.0968
6.03391
6.08309
6.10372
6.18124
6.29348
6.41061
6.51919
6.61272
6.70258
6.81773
7.004
7.28635
7.56615
7.6997
7.63063
7.51437
7.32354
7.15144
6.97165
6.79973
6.60602
6.40202
6.20451
6.07962
6.01232
5.96396
5.92775
5.88866
5.84262
5.77701
5.7269
5.81258
5.8748
5.97926
6.11258
6.25414
6.38966
6.52243
6.65534
6.8321
7.10029
7.45911
7.80568
8.00622
8.00014
7.95295
7.81599
7.67361
7.49633
7.28894
7.00329
6.66233
6.3054
6.0285
5.88031
5.78114
5.70699
5.64267
5.58128
5.51508
5.4748
5.60445
5.69795
5.83106
5.99122
6.16725
6.33606
6.5104
6.71907
6.97654
7.32816
7.77265
8.19818
8.48472
8.57336
8.63488
8.58274
8.49723
8.34524
8.087
7.686
7.17146
6.60603
6.12007
5.83537
5.67502
5.55792
5.46632
5.38769
5.31795
5.285
5.46163
5.58141
5.75141
5.93973
6.15319
6.39249
6.64323
6.92945
7.28403
7.73972
8.2918
8.82329
9.23159
9.46046
9.69473
9.77378
9.7851
9.6709
9.33689
8.78164
8.0391
7.19196
6.41974
5.92198
5.65451
5.49258
5.37215
5.27274
5.19544
5.16693
5.3897
5.53601
5.74309
6.00278
6.29753
6.61219
6.95528
7.34721
7.82906
8.42379
9.12348
9.8091
10.4
10.8423
11.3469
11.6346
11.8087
11.6964
11.2463
10.4769
9.43455
8.21077
7.02678
6.2245
5.80434
5.54829
5.37083
5.25023
5.16381
5.13606
5.41173
5.62327
5.90959
6.25443
6.64238
7.06396
7.53903
8.08113
8.74025
9.53281
10.4482
11.3685
12.2419
13.0162
13.9419
14.5539
14.8815
14.7127
14.0722
13.0062
11.5793
9.8816
8.13219
6.892
6.2068
5.81694
5.56367
5.3917
5.2738
5.24
5.63355
5.9272
6.32094
6.78655
7.31235
7.89408
8.56484
9.32909
10.2486
11.3358
12.5791
13.8646
15.1766
16.4673
18.0315
19.0569
19.3695
18.9898
18.0309
16.5664
14.6895
12.4677
10.0438
8.21502
7.08894
6.45642
6.06173
5.79672
5.61921
5.55952
6.21418
6.62394
7.17584
7.82391
8.55932
9.38894
10.3598
11.464
12.7799
14.3159
16.0614
17.9096
19.8845
21.9408
24.3792
25.4597
25.4536
24.5624
23.0963
21.1583
18.8459
16.1764
13.1541
10.6934
8.95385
7.8429
7.16708
6.71282
6.40798
6.27669
7.55181
8.12885
8.92269
9.85212
10.9132
12.1325
13.5686
15.1963
17.1122
19.3189
21.8017
24.4602
27.3414
30.3512
33.4009
33.7206
32.7458
30.9353
28.7913
26.397
23.8058
20.9598
17.7639
14.9825
12.6893
10.8217
9.57979
8.72465
8.13461
7.8223
10.6498
11.453
12.6056
13.9544
15.5001
17.3029
19.4198
21.8017
24.5494
27.6469
31.0606
34.6731
38.473
42.0904
44.2622
42.6107
39.9557
36.8806
34.004
31.3161
28.78
26.2419
23.6506
21.3383
19.1662
16.9957
14.8458
13.2165
12.0078
11.26
17.91
18.932
20.4998
22.3359
24.445
26.9315
29.825
33.0429
36.6414
40.559
44.6978
48.8447
52.6692
54.6286
54.2742
49.5002
44.7474
40.3616
36.9193
34.2385
32.1924
30.5582
29.3788
28.5991
27.8579
26.7217
25.0614
22.7982
20.6355
19.0573
32.8387
33.9759
35.6542
37.6023
39.8509
42.5606
45.7204
49.1987
52.9234
56.7625
60.4591
63.4939
64.5147
62.863
58.7928
50.7375
44.2626
38.9919
35.3362
32.9754
31.6884
31.3036
31.8361
33.1208
34.7707
36.1989
37.0787
37.1485
36.1798
34.4872
48.0586
50.7069
52.7108
54.324
55.9624
57.9144
60.225
62.7013
65.1119
67.274
68.6982
68.4101
65.4072
60.2242
53.2532
43.6875
36.6726
31.5567
28.2595
26.3219
25.6108
25.9938
27.3987
29.732
32.9168
36.4838
39.9492
43.2212
46.1738
48.7667
35.0621
42.6949
44.4516
44.6248
43.8475
42.0228
39.3311
36.0083
32.164
27.9509
23.3203
18.4333
13.342
11.109
14.5863
24.1099
33.4995
44.6169
50.3445
52.1243
50.8756
47.8671
44.0937
40.2256
36.335
32.3205
28.3376
23.9353
20.3407
17.0174
18.6975
19.8178
19.9012
19.7685
19.5628
19.0572
18.2085
17.0541
15.646
13.998
12.1212
9.97597
7.67565
7.41681
9.93829
14.7414
19.4801
24.6493
27.1372
27.8694
27.2762
25.8944
24.1757
22.3711
20.5819
18.8069
17.1364
15.3922
14.2867
13.3595
16.804
16.721
16.2573
15.839
15.4755
15.0723
14.5516
13.8574
12.9718
11.8628
10.5119
8.88542
7.08666
7.19247
9.27093
12.7899
16.4309
20.2395
22.2453
22.947
22.6198
21.7071
20.5381
19.2881
18.0234
16.73
15.5133
14.2614
13.6252
13.1694
16.1403
15.4795
14.8102
14.2883
13.8861
13.5503
13.1906
12.7152
12.0706
11.2011
10.0723
8.66124
7.09188
7.34011
9.112
11.8734
14.7809
17.792
19.6018
20.3695
20.2548
19.6502
18.8263
17.9165
16.9591
15.929