/*--------------------------------*- C++ -*----------------------------------*\
  =========                 |
  \\      /  F ield         | OpenFOAM: The Open Source CFD Toolbox
   \\    /   O peration     | Website:  https://openfoam.org
    \\  /    A nd           | Version:  12
     \\/     M anipulation  |
\*---------------------------------------------------------------------------*/
FoamFile
{
    format      ascii;
    class       volScalarField;
    location    "550/air";
    object      k;
}
// * * * * * * * * * * * * * * * * * * * * * * * * * * * * * * * * * * * * * //

dimensions      [0 2 -2 0 0 0 0];

internalField   nonuniform List<scalar> 
243000
(
0.131036
0.139071
0.13908
0.136874
0.132348
0.126427
0.119689
0.112662
0.105664
0.09908
0.093283
0.0886452
0.0852558
0.0824321
0.0793698
0.075646
0.0710052
0.0654865
0.0590928
0.0518216
0.0427204
0.0338522
0.0322933
0.0420579
0.0488821
0.0552992
0.0611054
0.0662801
0.0724057
0.0819059
0.208831
0.221313
0.215822
0.206933
0.195731
0.18329
0.170502
0.157928
0.145846
0.134658
0.124547
0.115703
0.107808
0.100707
0.0946332
0.0893467
0.0841831
0.0788766
0.0727914
0.0650389
0.0563379
0.045422
0.0461072
0.0671604
0.0798613
0.0917914
0.104521
0.114233
0.126084
0.144164
0.254661
0.269547
0.263894
0.253774
0.240638
0.225954
0.210699
0.195531
0.18082
0.167128
0.154652
0.143602
0.133432
0.124074
0.11608
0.109248
0.10277
0.096291
0.0889006
0.0796091
0.0699228
0.057628
0.0559281
0.0840711
0.102891
0.120122
0.137227
0.149434
0.163208
0.182737
0.284851
0.299406
0.294471
0.284356
0.27076
0.255312
0.238986
0.222488
0.206291
0.191083
0.177174
0.164891
0.15353
0.142902
0.133586
0.125442
0.117676
0.109905
0.101075
0.0905732
0.0803211
0.0678977
0.0630948
0.0924662
0.117609
0.13985
0.161171
0.175909
0.191241
0.211308
0.306054
0.318786
0.314803
0.305395
0.29228
0.277047
0.260595
0.243637
0.226721
0.210664
0.19595
0.183022
0.171059
0.159662
0.149339
0.140028
0.131018
0.121922
0.111619
0.100194
0.0896295
0.077667
0.0715808
0.0969554
0.127986
0.154425
0.179839
0.19709
0.213818
0.233946
0.320505
0.331014
0.32797
0.31961
0.307502
0.293065
0.277072
0.260219
0.2431
0.226664
0.211581
0.198425
0.186255
0.174429
0.16334
0.15302
0.14288
0.132529
0.120845
0.108809
0.0981259
0.086923
0.0804735
0.100387
0.13541
0.164238
0.193504
0.21352
0.231648
0.251695
0.329491
0.338097
0.335931
0.328786
0.317978
0.304678
0.289509
0.273126
0.25616
0.239684
0.224552
0.211454
0.199335
0.187323
0.175654
0.164487
0.153364
0.141879
0.12897
0.116602
0.105935
0.0955706
0.0892402
0.103738
0.140462
0.170676
0.2027
0.225423
0.245084
0.265114
0.33411
0.341373
0.340002
0.334122
0.324777
0.312815
0.298693
0.283021
0.266462
0.250196
0.235246
0.222398
0.210498
0.198462
0.186378
0.174528
0.162567
0.150114
0.136199
0.12372
0.113124
0.10353
0.0975623
0.107501
0.143592
0.17491
0.208095
0.233474
0.254567
0.274825
0.335003
0.341515
0.34125
0.336618
0.328685
0.318118
0.305191
0.290397
0.274431
0.258569
0.243975
0.231502
0.219917
0.20797
0.195614
0.183241
0.170597
0.157329
0.142897
0.13031
0.119744
0.110753
0.105235
0.112218
0.144817
0.177302
0.210195
0.238081
0.260724
0.28133
0.333065
0.339477
0.340373
0.337149
0.330524
0.32125
0.309441
0.295599
0.280387
0.265091
0.250986
0.238969
0.227755
0.215959
0.203469
0.190731
0.17756
0.163614
0.149083
0.136402
0.125819
0.117236
0.112116
0.11712
0.145175
0.178356
0.209816
0.239734
0.263832
0.284928
0.328839
0.335616
0.337691
0.335968
0.330809
0.322711
0.311981
0.299037
0.284586
0.269987
0.25647
0.244971
0.234145
0.222556
0.21005
0.197099
0.183559
0.169063
0.154671
0.141989
0.131357
0.122994
0.118154
0.121799
0.145201
0.178543
0.20837
0.238972
0.264483
0.286073
0.322715
0.330254
0.333572
0.333345
0.32968
0.322876
0.313118
0.301049
0.287353
0.273456
0.260606
0.249645
0.23921
0.22788
0.21547
0.202449
0.188689
0.173794
0.159699
0.147097
0.136386
0.128071
0.123363
0.126007
0.145082
0.177972
0.206486
0.235857
0.26285
0.285134
0.315021
0.323654
0.328306
0.329548
0.327291
0.321792
0.313139
0.301871
0.288923
0.275712
0.263546
0.253124
0.243073
0.232054
0.219842
0.206884
0.19303
0.177984
0.164273
0.151778
0.140958
0.132534
0.127782
0.129594
0.144949
0.176577
0.204089
0.231164
0.259093
0.282158
0.306077
0.316026
0.322092
0.32476
0.323882
0.319577
0.312019
0.301702
0.28949
0.276963
0.265408
0.255528
0.245861
0.2352
0.223282
0.210506
0.196661
0.181922
0.168499
0.156087
0.145131
0.136452
0.131429
0.132404
0.144967
0.174248
0.201308
0.226811
0.253674
0.277493
0.296104
0.307547
0.315075
0.319128
0.319576
0.316413
0.309865
0.300511
0.289175
0.277362
0.266396
0.256964
0.247697
0.237445
0.225902
0.213411
0.199669
0.185502
0.172395
0.160071
0.148951
0.139894
0.134313
0.1344
0.144804
0.171303
0.198162
0.222479
0.247129
0.271459
0.285465
0.298371
0.307375
0.312781
0.31446
0.312397
0.306793
0.298386
0.287973
0.276986
0.266645
0.257616
0.248698
0.238905
0.227808
0.215684
0.202156
0.188716
0.17599
0.163779
0.152473
0.142935
0.136558
0.135655
0.144269
0.167978
0.19473
0.218167
0.241136
0.264396
0.275408
0.288715
0.299112
0.3058
0.308617
0.307612
0.302934
0.295402
0.285955
0.275843
0.266192
0.257643
0.249064
0.239696
0.229105
0.217402
0.204302
0.191654
0.179347
0.167271
0.155775
0.145671
0.138357
0.136304
0.143299
0.164415
0.191079
0.213815
0.235435
0.256592
0.266134
0.279432
0.290443
0.298274
0.302129
0.302133
0.298356
0.291721
0.283205
0.273972
0.265044
0.257013
0.248878
0.239962
0.22988
0.218643
0.206379
0.194428
0.182542
0.170616
0.158936
0.148228
0.139902
0.136506
0.141875
0.160702
0.187267
0.209399
0.229862
0.248829
0.257449
0.270819
0.28203
0.290368
0.295117
0.29604
0.293146
0.287427
0.279827
0.271458
0.263251
0.255751
0.248092
0.239741
0.230184
0.219515
0.208313
0.19708
0.185635
0.173885
0.162041
0.150732
0.141311
0.136318
0.140029
0.156898
0.183354
0.204942
0.224424
0.241859
0.249233
0.262755
0.274113
0.282614
0.287736
0.289427
0.287367
0.282542
0.275864
0.268356
0.260881
0.253941
0.246795
0.239019
0.230107
0.220355
0.210192
0.199679
0.188693
0.177147
0.165177
0.15329
0.142765
0.136089
0.137896
0.153062
0.179405
0.20048
0.219117
0.235436
0.241417
0.255139
0.266655
0.275332
0.280577
0.282519
0.281112
0.277139
0.271379
0.264744
0.258019
0.251671
0.245088
0.237959
0.230036
0.221365
0.212123
0.202301
0.191785
0.180478
0.168433
0.156036
0.144429
0.136053
0.135689
0.149299
0.175509
0.196055
0.213936
0.229422
0.233971
0.247918
0.259602
0.268426
0.273853
0.276095
0.275227
0.271973
0.267095
0.26136
0.255423
0.249664
0.243729
0.237348
0.230336
0.222606
0.214192
0.205031
0.194996
0.183964
0.171913
0.159109
0.1465
0.136385
0.133715
0.145791
0.171783
0.191752
0.208921
0.223749
0.22691
0.241067
0.252876
0.26183
0.26752
0.2701
0.269804
0.267277
0.263263
0.258426
0.253298
0.24819
0.242902
0.237282
0.231055
0.224157
0.216511
0.207996
0.198458
0.187746
0.175766
0.162657
0.149147
0.137366
0.13235
0.142912
0.168434
0.187743
0.204206
0.218445
0.220302
0.234574
0.246436
0.255535
0.261569
0.264502
0.26479
0.26301
0.259859
0.255919
0.251617
0.247204
0.242653
0.237735
0.232288
0.226193
0.21931
0.211463
0.202463
0.192123
0.180284
0.16696
0.152696
0.139315
0.132032
0.141153
0.165784
0.184314
0.200022
0.213644
0.214252
0.228535
0.240396
0.249602
0.256014
0.2593
0.260174
0.259185
0.256915
0.253899
0.25046
0.246877
0.243107
0.239012
0.234432
0.229219
0.223184
0.216083
0.207689
0.197773
0.186118
0.172626
0.157649
0.142791
0.133197
0.141354
0.164224
0.181724
0.196535
0.209458
0.209129
0.22323
0.234946
0.244183
0.250951
0.254627
0.256093
0.255963
0.254655
0.252704
0.250379
0.247826
0.245115
0.242143
0.238729
0.234655
0.229662
0.223437
0.21571
0.206226
0.194697
0.180959
0.165198
0.148723
0.136691
0.143878
0.164555
0.180563
0.194135
0.20619
0.205694
0.219406
0.230826
0.240001
0.247026
0.251284
0.253547
0.254543
0.254601
0.254162
0.253471
0.252655
0.251727
0.250534
0.248874
0.246372
0.242633
0.237331
0.230174
0.2209
0.209224
0.194944
0.178143
0.159827
0.145107
0.150547
0.167827
0.181998
0.19407
0.204841
0.207245
0.220297
0.23146
0.240913
0.248702
0.254349
0.258304
0.261449
0.264021
0.266398
0.268802
0.271291
0.273612
0.275363
0.276114
0.275387
0.272714
0.267835
0.260529
0.250642
0.238022
0.222499
0.204242
0.184379
0.167126
0.168836
0.180512
0.191174
0.200481
0.20901
0.240087
0.252701
0.264412
0.275174
0.284741
0.293571
0.301423
0.308892
0.31583
0.323093
0.330925
0.338963
0.34582
0.35092
0.353605
0.353532
0.350442
0.344503
0.335591
0.323737
0.309297
0.292343
0.273353
0.25422
0.236845
0.232158
0.235418
0.23924
0.242649
0.246228
0.45995
0.468769
0.477594
0.485856
0.491126
0.496309
0.503491
0.509966
0.514777
0.522005
0.531874
0.542063
0.54766
0.55006
0.548833
0.545155
0.538821
0.531403
0.522096
0.511115
0.500382
0.490281
0.480651
0.472828
0.469741
0.469919
0.470944
0.470808
0.469449
0.467873
0.191526
0.212997
0.216887
0.214109
0.206613
0.196068
0.183733
0.170583
0.157149
0.14403
0.131647
0.120529
0.110305
0.100079
0.0897453
0.0796643
0.0697389
0.0620664
0.0566023
0.0522089
0.0446713
0.0348155
0.0401875
0.0518125
0.0649012
0.0771525
0.0818054
0.0814365
0.0874108
0.100853
0.325033
0.354107
0.349012
0.3323
0.309753
0.284967
0.259801
0.235287
0.211847
0.189963
0.169663
0.150905
0.132426
0.117125
0.107814
0.103379
0.100921
0.101688
0.103264
0.101761
0.0911568
0.0703504
0.0838585
0.120874
0.159087
0.185573
0.191674
0.184054
0.180164
0.185986
0.403458
0.436603
0.432609
0.414967
0.390182
0.362071
0.332703
0.30334
0.274702
0.247716
0.222483
0.198974
0.175357
0.156098
0.144929
0.140119
0.137946
0.139268
0.141324
0.139434
0.131129
0.111146
0.123327
0.168752
0.220014
0.256711
0.268704
0.262296
0.257018
0.26345
0.45831
0.488085
0.4846
0.468059
0.444252
0.416522
0.386628
0.355788
0.324971
0.295473
0.26766
0.241618
0.21523
0.193499
0.180358
0.173993
0.170659
0.170892
0.171958
0.169147
0.16512
0.150939
0.161185
0.208363
0.266836
0.310996
0.328069
0.324941
0.320415
0.328611
0.497987
0.5211
0.517498
0.50263
0.481002
0.455217
0.426491
0.395898
0.364555
0.334076
0.305242
0.278256
0.250689
0.22748
0.21246
0.204099
0.199035
0.197604
0.197532
0.194659
0.195393
0.187772
0.197739
0.242972
0.303458
0.352709
0.374226
0.375351
0.372858
0.382696
0.526192
0.54181
0.537763
0.524743
0.505786
0.482627
0.455873
0.426454
0.395544
0.365099
0.336292
0.309406
0.281723
0.257668
0.240932
0.230478
0.223522
0.220448
0.22026
0.21812
0.221741
0.220197
0.231078
0.27278
0.330684
0.383132
0.409187
0.41497
0.415379
0.426426
0.545096
0.553748
0.549226
0.538085
0.521976
0.501713
0.477331
0.449546
0.419665
0.389935
0.361864
0.33577
0.308649
0.284168
0.2659
0.253439
0.244674
0.240408
0.241079
0.239101
0.244341
0.24746
0.259538
0.29678
0.349205
0.402337
0.433884
0.444878
0.448497
0.460507
0.556072
0.55926
0.55434
0.545023
0.531778
0.514467
0.492564
0.466663
0.438194
0.409653
0.382806
0.35792
0.331771
0.307172
0.287559
0.273327
0.263032
0.258468
0.259689
0.257523
0.263318
0.269584
0.282473
0.314929
0.362293
0.413515
0.44908
0.465769
0.472805
0.485558
0.560402
0.560327
0.555725
0.547925
0.536943
0.522228
0.502763
0.47888
0.452083
0.425075
0.399784
0.376346
0.351359
0.326861
0.306168
0.29049
0.279105
0.27515
0.276098
0.273489
0.278886
0.28696
0.300139
0.327894
0.371002
0.418861
0.456851
0.47835
0.488985
0.502489
0.55969
0.55775
0.55406
0.548294
0.539181
0.526537
0.508988
0.486933
0.462043
0.436839
0.413319
0.391468
0.367726
0.343439
0.32201
0.305283
0.293356
0.290282
0.290425
0.28736
0.291797
0.300173
0.313053
0.337144
0.376285
0.420976
0.459452
0.484125
0.49764
0.512369
0.554396
0.551902
0.549374
0.54585
0.539329
0.528368
0.512488
0.49198
0.468691
0.445464
0.423851
0.403651
0.381137
0.357214
0.335409
0.318098
0.306259
0.30395
0.302959
0.299217
0.302134
0.310022
0.321928
0.343318
0.378883
0.420447
0.457561
0.48517
0.500999
0.516569
0.545009
0.54345
0.542601
0.5412
0.537061
0.528393
0.513866
0.494749
0.472937
0.451544
0.431807
0.413221
0.391891
0.368533
0.346728
0.329341
0.318439
0.316326
0.314007
0.30932
0.310283
0.31693
0.327593
0.346757
0.379394
0.417554
0.452296
0.481165
0.499836
0.516828
0.532541
0.533047
0.534207
0.534896
0.532873
0.526295
0.513665
0.495761
0.475342
0.455518
0.437641
0.420536
0.400366
0.37778
0.356374
0.339438
0.329933
0.327555
0.323879
0.318034
0.316792
0.321607
0.331034
0.347976
0.376231
0.412064
0.445287
0.472946
0.493627
0.512313
0.518085
0.521193
0.524587
0.527243
0.527269
0.522403
0.511585
0.495433
0.476331
0.458066
0.441801
0.426021
0.407001
0.385405
0.364819
0.348898
0.340885
0.337805
0.332898
0.325796
0.32211
0.324663
0.332594
0.346444
0.370456
0.403476
0.435918
0.46257
0.483941
0.504317
0.502483
0.508327
0.514071
0.518659
0.520512
0.517401
0.508089
0.493662
0.476345
0.459591
0.444734
0.430157
0.412308
0.39194
0.37262
0.358424
0.351593
0.347559
0.341437
0.333011
0.326691
0.326555
0.331738
0.342493
0.363009
0.393027
0.424454
0.451486
0.472537
0.493569
0.486575
0.495
0.503018
0.50946
0.512941
0.511566
0.503659
0.490951
0.475532
0.460525
0.446991
0.433515
0.4169
0.398017
0.380435
0.368437
0.362345
0.357253
0.349899
0.340061
0.331007
0.327642
0.329134
0.337195
0.354673
0.381749
0.411977
0.439649
0.460699
0.481136
0.471196
0.481974
0.491861
0.49999
0.504944
0.505273
0.498885
0.487853
0.474487
0.461382
0.449121
0.436768
0.421517
0.4044
0.389132
0.379185
0.373395
0.367282
0.358707
0.347332
0.335599
0.328493
0.325991
0.331346
0.346148
0.370397
0.39924
0.426905
0.448363
0.467916
0.456443
0.469633
0.481311
0.490773
0.497108
0.498991
0.4943
0.485083
0.474187
0.462756
0.451869
0.440732
0.427046
0.412009
0.399437
0.39101
0.385025
0.378057
0.368327
0.355353
0.34098
0.329437
0.32297
0.325292
0.337654
0.359396
0.38677
0.413951
0.435655
0.455002
0.442718
0.457955
0.471635
0.48274
0.490224
0.493556
0.490707
0.483884
0.475099
0.465402
0.456184
0.446416
0.434567
0.422077
0.411704
0.404256
0.39781
0.390061
0.37927
0.364723
0.347665
0.331265
0.320719
0.319459
0.329409
0.348998
0.374962
0.401493
0.423185
0.442459
0.430106
0.447286
0.463087
0.47639
0.485631
0.490281
0.489422
0.484912
0.478267
0.470775
0.463334
0.45514
0.445387
0.435032
0.42629
0.419265
0.412347
0.403889
0.392147
0.376147
0.356264
0.335388
0.319938
0.314577
0.321767
0.339481
0.364167
0.389983
0.411498
0.4308
0.418775
0.438142
0.456191
0.471767
0.483137
0.489781
0.491511
0.489279
0.485023
0.4798
0.474236
0.467731
0.459852
0.45121
0.443599
0.436802
0.429507
0.420411
0.407807
0.390514
0.367993
0.342787
0.321223
0.311389
0.315321
0.331188
0.35492
0.379704
0.401047
0.420557
0.408985
0.430619
0.451021
0.468959
0.482485
0.492339
0.496866
0.497096
0.495372
0.492481
0.488939
0.484363
0.478321
0.471249
0.464719
0.458325
0.450823
0.441163
0.427734
0.409193
0.384373
0.354943
0.327423
0.311119
0.31103
0.324762
0.347824
0.37147
0.39249
0.412055
0.401247
0.425241
0.448012
0.468286
0.485388
0.498643
0.506009
0.509064
0.510116
0.509831
0.508573
0.506312
0.502518
0.497361
0.492237
0.486663
0.479334
0.469251
0.454948
0.435006
0.407891
0.374232
0.339965
0.315909
0.311139
0.322719
0.344502
0.367001
0.387439
0.406596
0.396764
0.422648
0.44783
0.472011
0.493473
0.509996
0.520528
0.527039
0.531665
0.534751
0.536224
0.536744
0.536311
0.534148
0.531542
0.527828
0.521506
0.51132
0.495949
0.473925
0.443705
0.405134
0.362974
0.328929
0.317154
0.326078
0.346734
0.368429
0.388187
0.406474
0.396659
0.425971
0.455311
0.483421
0.509193
0.529367
0.544619
0.55633
0.565767
0.573508
0.57923
0.5832
0.588248
0.59161
0.59432
0.59475
0.591014
0.581119
0.56397
0.538043
0.50229
0.456691
0.404605
0.356968
0.333763
0.338631
0.356251
0.376289
0.394853
0.412296
0.408841
0.441898
0.475135
0.507745
0.539335
0.56533
0.586114
0.604365
0.620978
0.6362
0.650152
0.66332
0.676542
0.690587
0.703964
0.712156
0.712566
0.702624
0.681597
0.648156
0.602154
0.545152
0.480402
0.413863
0.372646
0.368903
0.381979
0.398945
0.415061
0.430688
0.445215
0.482773
0.522172
0.561935
0.600085
0.633953
0.664016
0.69335
0.721935
0.749856
0.777779
0.806805
0.836882
0.865911
0.894265
0.911019
0.913247
0.899254
0.869239
0.823214
0.762555
0.690964
0.61247
0.5263
0.463626
0.441681
0.444839
0.454391
0.464859
0.47651
0.545143
0.588253
0.635611
0.684475
0.732746
0.779515
0.823854
0.869196
0.914365
0.959106
1.00423
1.05102
1.09729
1.13688
1.16575
1.17424
1.16217
1.13029
1.08402
1.02713
0.961443
0.886574
0.807215
0.724437
0.657168
0.617782
0.602269
0.59438
0.589364
0.589876
0.798793
0.84536
0.898363
0.953816
1.00844
1.06264
1.11515
1.16765
1.21834
1.26673
1.31159
1.34984
1.37808
1.38849
1.37515
1.33893
1.29262
1.24071
1.18665
1.13265
1.08037
1.02952
0.98069
0.943206
0.929369
0.921207
0.91171
0.895228
0.872081
0.851699
1.15341
1.20385
1.25039
1.29296
1.32638
1.3566
1.38524
1.40988
1.42589
1.438
1.44355
1.4337
1.40777
1.37034
1.31756
1.25564
1.19679
1.14321
1.09587
1.05631
1.02672
1.00703
0.996307
0.999978
1.02817
1.06922
1.10631
1.13673
1.15923
1.1756
0.247267
0.275845
0.278958
0.275506
0.266236
0.25288
0.236921
0.219532
0.201274
0.182704
0.164028
0.145834
0.127429
0.110011
0.096574
0.0894441
0.0893957
0.105987
0.125049
0.137872
0.140321
0.12871
0.122079
0.133818
0.143658
0.144758
0.142126
0.135507
0.13353
0.135642
0.416617
0.453299
0.448476
0.428418
0.400742
0.370034
0.338609
0.307599
0.277199
0.247627
0.218426
0.188748
0.15757
0.139328
0.140326
0.154203
0.174177
0.209153
0.249403
0.277746
0.28821
0.277358
0.27218
0.284604
0.291317
0.288971
0.281599
0.266346
0.253887
0.251421
0.519455
0.556513
0.551247
0.529607
0.499485
0.465604
0.430206
0.394372
0.358405
0.322742
0.287065
0.249945
0.210331
0.18975
0.19409
0.212262
0.235828
0.274633
0.323033
0.360747
0.379121
0.375564
0.375015
0.389526
0.397088
0.395126
0.387074
0.369151
0.353889
0.352572
0.591275
0.621564
0.614912
0.593596
0.564336
0.531191
0.495814
0.458971
0.421024
0.38266
0.343806
0.302837
0.259086
0.237706
0.24242
0.260065
0.282609
0.320444
0.371163
0.414372
0.438964
0.443195
0.448548
0.465914
0.475646
0.475277
0.467957
0.449973
0.433852
0.434194
0.642742
0.663045
0.655282
0.635202
0.60818
0.577337
0.543611
0.507441
0.469278
0.430135
0.390187
0.347924
0.303162
0.28191
0.285241
0.299968
0.31933
0.353573
0.403208
0.44854
0.477525
0.489178
0.500508
0.521025
0.534246
0.536525
0.531063
0.514557
0.498703
0.500119
0.679002
0.689056
0.680238
0.661936
0.637851
0.610014
0.578651
0.543965
0.506575
0.467861
0.428286
0.386557
0.342972
0.322166
0.322975
0.333529
0.348733
0.378248
0.424325
0.469179
0.501545
0.519238
0.535453
0.558905
0.576536
0.582223
0.579627
0.565728
0.550796
0.552035
0.70195
0.703867
0.694403
0.678233
0.657406
0.632846
0.604131
0.57136
0.535369
0.497917
0.459808
0.419943
0.378974
0.358533
0.356128
0.361923
0.372796
0.397802
0.439438
0.482798
0.51706
0.538735
0.557654
0.582818
0.604689
0.614421
0.615394
0.605108
0.591627
0.592607
0.714146
0.710604
0.700831
0.686939
0.669439
0.648171
0.622154
0.591532
0.557376
0.521805
0.485992
0.448941
0.411385
0.391036
0.38514
0.386106
0.393183
0.415095
0.451447
0.491885
0.526864
0.551176
0.571884
0.596276
0.620434
0.634871
0.639623
0.633709
0.622178
0.622091
0.718402
0.712482
0.703132
0.691067
0.676026
0.657537
0.634124
0.605818
0.573853
0.540668
0.50774
0.474165
0.440263
0.419754
0.410383
0.406901
0.411396
0.429888
0.460906
0.497739
0.532189
0.557688
0.579173
0.602994
0.626938
0.645116
0.653656
0.65237
0.643289
0.642224
0.71777
0.710393
0.702351
0.692179
0.67918
0.662826
0.641385
0.615155
0.585766
0.555404
0.525769
0.496007
0.465662
0.444819
0.432249
0.425043
0.428156
0.442646
0.46827
0.501253
0.534548
0.560476
0.58217
0.605388
0.628948
0.647749
0.659098
0.661874
0.65579
0.654557
0.711025
0.703429
0.697226
0.690234
0.679805
0.66519
0.64548
0.621072
0.593994
0.566741
0.540661
0.514779
0.487707
0.466487
0.451173
0.441254
0.443219
0.453623
0.473834
0.502766
0.533391
0.558935
0.580323
0.602201
0.624868
0.644244
0.658095
0.663645
0.660672
0.660307
0.700119
0.693569
0.689582
0.685173
0.677776
0.665441
0.64715
0.624465
0.599585
0.575419
0.552935
0.530776
0.506598
0.4851
0.467715
0.456355
0.456536
0.463078
0.478096
0.501914
0.528395
0.552835
0.573623
0.59423
0.615932
0.635643
0.650532
0.659408
0.659191
0.659676
0.686119
0.68168
0.680143
0.67828
0.673253
0.663329
0.647132
0.625974
0.603377
0.582134
0.563083
0.544339
0.52267
0.501088
0.482569
0.471124
0.468617
0.471548
0.48159
0.499562
0.52196
0.544688
0.56441
0.583641
0.604027
0.623738
0.639462
0.650575
0.652901
0.655069
0.669999
0.668525
0.669521
0.670071
0.667293
0.659321
0.645186
0.626205
0.605957
0.587507
0.571647
0.555915
0.536385
0.515127
0.496563
0.485397
0.479979
0.479452
0.484806
0.496922
0.514915
0.535128
0.553408
0.571202
0.590076
0.609412
0.62578
0.638256
0.642952
0.646885
0.652795
0.654741
0.658191
0.660903
0.660341
0.654191
0.642017
0.625528
0.607905
0.592165
0.579225
0.566075
0.548448
0.528084
0.510743
0.499169
0.491179
0.487161
0.48822
0.49478
0.507916
0.52474
0.541212
0.557614
0.574949
0.593565
0.610337
0.623953
0.630416
0.636108
0.635508
0.640697
0.646582
0.651336
0.652811
0.648619
0.63838
0.624649
0.609827
0.596816
0.586497
0.575578
0.559807
0.541028
0.525576
0.512847
0.502669
0.495298
0.492244
0.493594
0.501502
0.514158
0.528398
0.543475
0.559372
0.577023
0.593933
0.608482
0.616408
0.623668
0.618985
0.627123
0.635238
0.641957
0.645275
0.643238
0.635181
0.624613
0.61234
0.602239
0.59433
0.585426
0.571643
0.555283
0.541078
0.527108
0.51496
0.504484
0.497408
0.493952
0.496244
0.504026
0.515524
0.529264
0.543906
0.560491
0.577323
0.592593
0.601896
0.610541
0.603593
0.614447
0.624949
0.633512
0.638656
0.638954
0.633803
0.62586
0.61665
0.609345
0.603794
0.596864
0.585424
0.571486
0.557669
0.542684
0.528708
0.515386
0.504484
0.496191
0.492767
0.495051
0.503149
0.515361
0.528952
0.544543
0.561171
0.576975
0.587566
0.59787
0.589629
0.603017
0.616027
0.627031
0.634337
0.636889
0.634773
0.629671
0.623806
0.619368
0.616241
0.611407
0.602298
0.589678
0.5763
0.560524
0.544877
0.528886
0.514336
0.501272
0.49181
0.488134
0.491933
0.502166
0.514846
0.529654
0.546064
0.562302
0.574095
0.586105
0.577239
0.593239
0.609107
0.622733
0.632452
0.63841
0.639382
0.637443
0.6349
0.633426
0.632735
0.629798
0.622384
0.610935
0.598222
0.581964
0.564872
0.546355
0.528298
0.510493
0.494603
0.48439
0.482756
0.490266
0.502
0.516292
0.532602
0.549132
0.562125
0.575763
0.566685
0.585604
0.604137
0.620411
0.633169
0.643515
0.647901
0.649253
0.650119
0.651829
0.653802
0.652772
0.647098
0.636949
0.625269
0.609055
0.590895
0.570103
0.54863
0.52602
0.503516
0.484849
0.47698
0.480619
0.491083
0.505102
0.521348
0.538078
0.552323
0.566985
0.558132
0.580065
0.601395
0.620593
0.638796
0.6531
0.66114
0.666126
0.670737
0.67594
0.6809
0.682203
0.678645
0.670384
0.660386
0.645197
0.626665
0.604149
0.579363
0.551716
0.522197
0.494264
0.476706
0.47493
0.483363
0.496913
0.513024
0.529915
0.545021
0.560676
0.552207
0.577088
0.601626
0.626512
0.649972
0.668433
0.680571
0.689719
0.698641
0.707916
0.716489
0.721123
0.720734
0.715642
0.708774
0.696233
0.678721
0.655404
0.627596
0.594664
0.556722
0.517518
0.486964
0.476361
0.481361
0.494263
0.510493
0.527705
0.543578
0.559516
0.549862
0.57868
0.609535
0.64013
0.6688
0.691853
0.708823
0.72305
0.737313
0.751767
0.765249
0.774832
0.779947
0.780422
0.779486
0.772094
0.757803
0.735011
0.704248
0.663773
0.615587
0.563167
0.516142
0.48991
0.488838
0.499145
0.514675
0.531702
0.547651
0.563614
0.557035
0.592076
0.628555
0.664931
0.699286
0.728007
0.751153
0.772123
0.79357
0.815235
0.835998
0.853378
0.867411
0.877674
0.887075
0.887572
0.878294
0.853191
0.815551
0.766241
0.707233
0.641447
0.576337
0.52869
0.513807
0.518817
0.531487
0.546779
0.56181
0.577036
0.58181
0.622974
0.666207
0.709488
0.750406
0.786991
0.818694
0.84924
0.880864
0.912976
0.944584
0.973851
1.00115
1.02548
1.048
1.05576
1.04025
1.0058
0.958707
0.900448
0.832797
0.757787
0.67958
0.613892
0.576882
0.568716
0.57421
0.584606
0.59637
0.609663
0.643478
0.691322
0.742197
0.793595
0.843345
0.890723
0.934417
0.978259
1.02343
1.0691
1.11442
1.15805
1.1999
1.23608
1.26153
1.25243
1.21956
1.17016
1.1125
1.04823
0.9786
0.904386
0.827671
0.761031
0.714068
0.68401
0.673619
0.67218
0.675029
0.682287
0.79245
0.843711
0.901546
0.961137
1.02022
1.07895
1.13526
1.19234
1.24949
1.30576
1.36011
1.41038
1.45287
1.47523
1.46727
1.42448
1.36564
1.29885
1.23304
1.16941
1.10866
1.05013
0.995442
0.954918
0.929106
0.907169
0.884199
0.86555
0.851347
0.844195
1.09861
1.14625
1.20146
1.25902
1.31631
1.37362
1.42953
1.48496
1.53701
1.58527
1.62723
1.65377
1.65443
1.62607
1.57047
1.48687
1.40176
1.322
1.25459
1.19996
1.15836
1.12813
1.11009
1.11261
1.13253
1.15651
1.1742
1.17877
1.16998
1.15597
1.39124
1.44958
1.49875
1.53999
1.57635
1.60994
1.64217
1.67064
1.69111
1.70563
1.70803
1.68283
1.63098
1.55797
1.46616
1.35931
1.2638
1.1844
1.12381
1.08207
1.0592
1.05326
1.06473
1.09509
1.14761
1.20991
1.26957
1.32455
1.37279
1.41597
0.297604
0.332136
0.333446
0.32854
0.31771
0.302141
0.283265
0.262355
0.239909
0.216489
0.191808
0.16626
0.139032
0.117673
0.112398
0.130145
0.163999
0.208921
0.233773
0.247453
0.250055
0.245411
0.239498
0.234381
0.228021
0.219203
0.208921
0.194478
0.183894
0.174763
0.499918
0.5423
0.534748
0.511928
0.480309
0.445063
0.408832
0.372698
0.336467
0.299948
0.261452
0.21919
0.174325
0.163772
0.19597
0.255106
0.323777
0.404956
0.454317
0.481836
0.487811
0.478512
0.463395
0.447924
0.432135
0.413408
0.391629
0.361339
0.334991
0.316169
0.625613
0.663031
0.654153
0.628794
0.594407
0.556164
0.516378
0.475713
0.433823
0.3903
0.343233
0.289913
0.233036
0.226829
0.272247
0.341062
0.417999
0.50668
0.568321
0.606548
0.620476
0.616199
0.603653
0.589044
0.572566
0.551654
0.526694
0.491121
0.460109
0.440161
0.712164
0.737906
0.727512
0.702012
0.668444
0.631314
0.59213
0.550941
0.507269
0.46066
0.409297
0.350078
0.287791
0.286449
0.336751
0.404875
0.480391
0.567671
0.635271
0.681382
0.702856
0.705053
0.697667
0.686747
0.672354
0.652163
0.627102
0.590519
0.557341
0.536431
0.773017
0.786407
0.774257
0.749778
0.718642
0.684228
0.647146
0.606993
0.563294
0.515733
0.46274
0.401298
0.338747
0.342244
0.392359
0.454781
0.523742
0.605421
0.674649
0.726151
0.754237
0.762712
0.761206
0.755088
0.744257
0.726533
0.703217
0.66793
0.633958
0.613699
0.814423
0.817245
0.803473
0.78082
0.753003
0.722022
0.687645
0.649215
0.606418
0.559257
0.50661
0.44595
0.387113
0.394428
0.440929
0.494944
0.554789
0.627963
0.695524
0.750122
0.783509
0.797639
0.801645
0.800672
0.794144
0.780078
0.759795
0.727431
0.693696
0.674718
0.84001
0.83508
0.820485
0.800298
0.776174
0.748812
0.717318
0.680958
0.639693
0.593969
0.543346
0.48598
0.433715
0.443164
0.483672
0.527929
0.577719
0.640914
0.703465
0.758702
0.796138
0.814961
0.823769
0.827651
0.825786
0.816018
0.799638
0.771558
0.739193
0.719614
0.853614
0.84331
0.828902
0.811479
0.791092
0.767201
0.738571
0.704492
0.66528
0.621917
0.574757
0.522729
0.4786
0.488391
0.521405
0.555529
0.595548
0.648261
0.706574
0.760972
0.799506
0.820097
0.831347
0.83932
0.84215
0.836872
0.824906
0.802118
0.772317
0.751435
0.858231
0.846331
0.832682
0.817376
0.799662
0.778918
0.753086
0.721489
0.684838
0.6447
0.602196
0.557018
0.521401
0.529968
0.554729
0.579105
0.61071
0.65256
0.704115
0.754107
0.793499
0.816617
0.830219
0.840108
0.84607
0.844898
0.837468
0.820408
0.794332
0.772912
0.858295
0.845661
0.833234
0.81974
0.804269
0.785777
0.762127
0.733237
0.699725
0.6636
0.626682
0.589247
0.561632
0.567803
0.584136
0.599768
0.622769
0.654691
0.696814
0.742336
0.781492
0.806159
0.821362
0.832647
0.840389
0.842531
0.837464
0.825676
0.805885
0.78629
0.850481
0.838439
0.829129
0.819301
0.805936
0.789393
0.767763
0.741181
0.711089
0.679662
0.648945
0.61955
0.599034
0.601891
0.610161
0.618643
0.632592
0.655024
0.687718
0.727709
0.765071
0.790602
0.807055
0.819344
0.828454
0.832698
0.831008
0.822107
0.805634
0.79078
0.83846
0.828007
0.821578
0.815097
0.80524
0.790605
0.770816
0.746717
0.720103
0.693743
0.669506
0.64791
0.633311
0.632336
0.633428
0.635605
0.640853
0.653706
0.677797
0.711417
0.74574
0.77145
0.788822
0.801799
0.811882
0.818028
0.818599
0.813589
0.800598
0.788876
0.823185
0.815556
0.812239
0.808786
0.80186
0.789922
0.772022
0.750626
0.727695
0.706539
0.688749
0.67432
0.664066
0.659419
0.654769
0.650471
0.64811
0.652311
0.66798
0.694544
0.724902
0.7501
0.768109
0.781563
0.792221
0.799835
0.802441
0.800661
0.79185
0.783445
0.80585
0.80202
0.80183
0.8012
0.796839
0.787317
0.772073
0.753626
0.734627
0.718629
0.707015
0.698856
0.691527
0.683674
0.675154
0.6641
0.654826
0.651469
0.659068
0.678038
0.703694
0.727681
0.74609
0.759924
0.770857
0.779489
0.78392
0.78456
0.779616
0.77464
0.78756
0.788169
0.79086
0.792795
0.791007
0.783777
0.77144
0.75637
0.741534
0.730528
0.724667
0.721755
0.716217
0.705921
0.69421
0.677028
0.661702
0.651618
0.651633
0.662818
0.683044
0.705071
0.723632
0.737859
0.748912
0.758194
0.764127
0.766999
0.765054
0.76321
0.769562
0.774252
0.779814
0.784141
0.784911
0.780109
0.771109
0.759508
0.749021
0.742753
0.742126
0.7435
0.738959
0.727348
0.712215
0.689975
0.669376
0.653123
0.646311
0.649705
0.663762
0.682974
0.701368
0.716048
0.727227
0.736916
0.744044
0.748841
0.749256
0.750348
0.752605
0.760883
0.769244
0.776042
0.779168
0.777278
0.771708
0.763997
0.757569
0.755866
0.760085
0.76477
0.760864
0.748486
0.730203
0.703834
0.67866
0.656843
0.643521
0.639549
0.646729
0.662029
0.679768
0.694952
0.706387
0.716381
0.724473
0.730805
0.733421
0.737351
0.737225
0.74863
0.759888
0.769305
0.774835
0.776285
0.774117
0.77045
0.768146
0.77092
0.779303
0.786504
0.78348
0.769846
0.749327
0.719719
0.690583
0.66364
0.64365
0.632985
0.632848
0.642946
0.659257
0.674882
0.686785
0.697142
0.706078
0.713715
0.718414
0.725205
0.723662
0.737873
0.752162
0.764489
0.772966
0.778225
0.779726
0.779836
0.781931
0.788997
0.800947
0.810128
0.807234
0.792803
0.77103
0.739065
0.706522
0.674855
0.648789
0.630573
0.623114
0.6268
0.640375
0.656142
0.6687
0.679554
0.689354
0.698226
0.704914
0.714433
0.712012
0.729191
0.746405
0.761468
0.77299
0.783197
0.788574
0.792842
0.799381
0.810522
0.825603
0.836361
0.833768
0.819117
0.79719
0.76377
0.7284
0.692447
0.660247
0.634117
0.618477
0.614817
0.62396
0.63923
0.652418
0.663984
0.674751
0.684888
0.693514
0.705268
0.702355
0.722392
0.742496
0.760494
0.777424
0.792077
0.801651
0.810323
0.821432
0.836593
0.854638
0.866992