/*--------------------------------*- C++ -*----------------------------------*\
  =========                 |
  \\      /  F ield         | OpenFOAM: The Open Source CFD Toolbox
   \\    /   O peration     | Website:  https://openfoam.org
    \\  /    A nd           | Version:  12
     \\/     M anipulation  |
\*---------------------------------------------------------------------------*/
FoamFile
{
    format      ascii;
    class       volScalarField;
    location    "550/air";
    object      nut;
}
// * * * * * * * * * * * * * * * * * * * * * * * * * * * * * * * * * * * * * //

dimensions      [0 2 -1 0 0 0 0];

internalField   nonuniform List<scalar> 
243000
(
0.000191196
0.000189653
0.000182742
0.000174891
0.00016614
0.000157146
0.000148278
0.000139843
0.000132005
0.000124966
0.000118934
0.000114123
0.000110596
0.000107909
0.000105501
0.000103054
0.000100323
9.72088e-05
9.35696e-05
8.92176e-05
8.28205e-05
7.27416e-05
7.30398e-05
8.78506e-05
9.75725e-05
0.000107321
0.000116833
0.000126182
0.000136843
0.000151117
0.000724509
0.000718586
0.000683946
0.000646226
0.000607331
0.00056889
0.000532191
0.000497962
0.000466486
0.000438236
0.000413423
0.000392244
0.000374122
0.000358632
0.000346151
0.000336294
0.000327792
0.000319955
0.000311338
0.000299383
0.000284402
0.000261637
0.000266585
0.000332199
0.000373813
0.000413174
0.000457908
0.000497008
0.000542201
0.000602367
0.000944267
0.000972367
0.000962375
0.000943998
0.00091946
0.000891146
0.00086069
0.000829265
0.000797568
0.000766843
0.000737743
0.000710939
0.000685332
0.000660739
0.000638859
0.000619586
0.000600895
0.000581736
0.000559401
0.000529639
0.000496449
0.000450138
0.000437447
0.000538327
0.000597442
0.000644239
0.000691416
0.000722866
0.000756058
0.00080033
0.000998463
0.00102471
0.00101655
0.000999237
0.000975304
0.000947275
0.000916661
0.00088461
0.00085193
0.000820007
0.00078968
0.000761833
0.000735116
0.000709052
0.000685288
0.000663866
0.000642944
0.000621492
0.000596527
0.000564702
0.000531411
0.000487453
0.000464492
0.00056182
0.000637551
0.000694191
0.00074879
0.000783904
0.000818099
0.000860319
0.0010348
0.00105723
0.00105097
0.00103548
0.00101327
0.000986726
0.000957169
0.000925676
0.000893109
0.000860996
0.000830461
0.000802598
0.000775888
0.00074942
0.000724534
0.000701399
0.000678445
0.00065469
0.000627048
0.000593886
0.000560927
0.000520473
0.000494565
0.000573488
0.000663895
0.000728561
0.000790529
0.00082946
0.000864797
0.000904958
0.0010588
0.00107717
0.00107262
0.00105922
0.00103924
0.00101477
0.0009869
0.000956605
0.000924767
0.000893065
0.000862914
0.000835634
0.000809544
0.000783253
0.00075772
0.000733242
0.000708571
0.00068273
0.000652666
0.000618916
0.000586637
0.000550009
0.000524318
0.000582377
0.000682067
0.00075091
0.000819532
0.000863071
0.00089993
0.000938413
0.00107344
0.00108849
0.00108545
0.00107421
0.00105669
0.00103459
0.00100872
0.000979972
0.000949229
0.00091831
0.000888915
0.000862564
0.000837412
0.000811634
0.000785758
0.000760267
0.000734208
0.000706586
0.000674439
0.000640731
0.000609372
0.000576353
0.000552215
0.00059146
0.000694036
0.00076635
0.00083853
0.000886496
0.000925425
0.000962855
0.00108088
0.00109362
0.00109189
0.00108278
0.00106781
0.00104821
0.0010245
0.000997483
0.000968056
0.000938169
0.00090977
0.000884531
0.000860468
0.000835377
0.000809393
0.000783183
0.000756033
0.000726989
0.000693118
0.000659977
0.000629627
0.000599706
0.000577602
0.000602269
0.000700906
0.000776298
0.000849252
0.000902008
0.000942994
0.000980114
0.00108232
0.00109364
0.00109378
0.00108669
0.0010741
0.00105694
0.00103548
0.0010103
0.000982342
0.000953663
0.000926419
0.000902376
0.000879443
0.000855118
0.000829217
0.000802558
0.000774599
0.000744447
0.000709701
0.000677279
0.000647782
0.000620267
0.000600194
0.000615732
0.000703078
0.00078175
0.000853204
0.000910636
0.000954145
0.000991447
0.0010792
0.0010902
0.00109218
0.00108743
0.00107698
0.00106202
0.00104255
0.00101921
0.000992851
0.000965528
0.000939551
0.000916735
0.000894917
0.000871359
0.000845718
0.000818861
0.000790368
0.000759358
0.000724907
0.000692963
0.000664094
0.000638282
0.000619859
0.000629456
0.000703212
0.000784061
0.000852121
0.000913597
0.000959646
0.000997571
0.00107226
0.00108381
0.0010877
0.00108536
0.00107734
0.00106432
0.00104672
0.00102501
0.00100015
0.000974305
0.000949666
0.000928097
0.000907326
0.000884542
0.000859307
0.000832485
0.000803723
0.000772061
0.000738432
0.000707093
0.0006787
0.00065399
0.000636696
0.000642305
0.000702654
0.000784431
0.000849789
0.000911908
0.000960698
0.000999402
0.00106209
0.00107496
0.00108088
0.00108097
0.00107535
0.00106449
0.00104852
0.00102836
0.0010049
0.000980435
0.000957195
0.00093683
0.000917032
0.000895038
0.000870342
0.000843773
0.00081499
0.000782875
0.000750371
0.000719775
0.000691748
0.000667628
0.000650942
0.000653692
0.000701841
0.000783038
0.000846153
0.000905726
0.000957568
0.000997587
0.00104914
0.001064
0.00107216
0.00107464
0.00107132
0.00106258
0.00104846
0.00102967
0.00100754
0.000984368
0.000962475
0.000943255
0.000924355
0.000903177
0.000879147
0.000853028
0.000824425
0.000792096
0.000760983
0.000731181
0.000703442
0.000679482
0.000662921
0.000663435
0.000701154
0.000779727
0.000841264
0.000896808
0.000950526
0.000992173
0.00103392
0.00105122
0.00106181
0.00106664
0.00106558
0.00105878
0.00104647
0.00102927
0.00100843
0.000986495
0.000965773
0.000947646
0.000929588
0.000909257
0.000886013
0.000860519
0.000832255
0.000800645
0.000770661
0.000741538
0.000713984
0.000689832
0.000672872
0.000671138
0.000701107
0.000774154
0.000835424
0.000888327
0.000940321
0.000983721
0.00101672
0.00103686
0.00105002
0.0010572
0.00105833
0.0010534
0.00104272
0.00102712
0.00100777
0.000987112
0.000967474
0.000950225
0.000932999
0.00091356
0.000891208
0.000866491
0.000838689
0.000808468
0.00077951
0.000751008
0.000723533
0.00069895
0.000680931
0.000676789
0.00070069
0.000767032
0.000828699
0.000879726
0.000927858
0.000972729
0.000998137
0.00102106
0.00103695
0.00104649
0.00104968
0.00104657
0.00103742
0.00102336
0.00100556
0.00098633
0.000967842
0.00095136
0.000934827
0.000916339
0.000894971
0.00087115
0.000843935
0.000815433
0.000787593
0.000759724
0.000732271
0.000707041
0.000687409
0.000680569
0.000699417
0.000758915
0.000821278
0.000871058
0.000916503
0.000959742
0.000980363
0.00100421
0.00102276
0.0010346
0.00103974
0.0010384
0.00103076
0.00101812
0.0010019
0.000984181
0.000966921
0.000951345
0.00093547
0.000917831
0.000897525
0.000874669
0.000848191
0.000821674
0.000795045
0.00076784
0.000740396
0.00071433
0.000692818
0.000682829
0.000697139
0.000750162
0.000813302
0.000862195
0.000905494
0.000945227
0.000963654
0.000987875
0.00100766
0.00102166
0.00102862
0.00102899
0.00102283
0.00101164
0.000996958
0.000980726
0.000964732
0.000950102
0.00093507
0.000918319
0.000899059
0.000877207
0.00085237
0.000827516
0.000802062
0.000775528
0.000748108
0.000721117
0.000697591
0.000684188
0.000693859
0.000741025
0.000804902
0.000853098
0.000894588
0.000930801
0.000947717
0.000972462
0.000992849
0.0010079
0.0010165
0.00101844
0.00101375
0.00100406
0.000990895
0.000976124
0.000961383
0.000947704
0.000933544
0.000917878
0.000899671
0.000878937
0.000856261
0.000833064
0.00080879
0.000782959
0.000755607
0.000727699
0.000701986
0.000684763
0.000689659
0.000731643
0.000796213
0.000843823
0.000883813
0.000917632
0.000932374
0.000957792
0.000978699
0.000994248
0.0010036
0.00100689
0.0010036
0.000995383
0.000983759
0.000970444
0.00095697
0.000944287
0.000931065
0.000916474
0.000899494
0.000880377
0.000859978
0.000838447
0.000815377
0.000790296
0.000763081
0.000734342
0.000706486
0.000685482
0.000684915
0.000722172
0.000787374
0.000834443
0.000873168
0.000905311
0.000917528
0.000943722
0.000965197
0.000981221
0.000990908
0.000994638
0.000992506
0.000985716
0.000975635
0.000963795
0.000951618
0.000939985
0.000927773
0.000914326
0.000899122
0.000882183
0.000863772
0.000843831
0.00082197
0.000797703
0.000770732
0.000741332
0.000711447
0.000686607
0.000680147
0.000712895
0.000778585
0.000825044
0.000862652
0.000893612
0.000903151
0.000930175
0.000952245
0.000968702
0.000978831
0.000983104
0.000981862
0.00097627
0.000967676
0.000957376
0.000946573
0.000935985
0.000924944
0.000912892
0.000899485
0.00088446
0.000867827
0.000849396
0.000828749
0.000805364
0.000778786
0.000748999
0.000717354
0.000688647
0.000676235
0.000704291
0.000770119
0.000815811
0.000852362
0.000882435
0.0008893
0.000917138
0.000939727
0.000956592
0.000967307
0.000972213
0.000971949
0.000967599
0.000960493
0.000951762
0.000942402
0.000932997
0.000923159
0.00091256
0.000900693
0.000887363
0.000872369
0.000855399
0.000835989
0.000813575
0.000787563
0.000757631
0.00072455
0.000692446
0.000674084
0.000697357
0.000762464
0.000807118
0.000842579
0.000871862
0.00087615
0.000904613
0.000927581
0.00094488
0.000956347
0.000961936
0.000962692
0.000959652
0.000954062
0.000946933
0.000939072
0.000930956
0.00092248
0.000913252
0.000902923
0.000891223
0.000877847
0.000862373
0.000844281
0.000822955
0.000797681
0.00076786
0.000733792
0.000698587
0.000674795
0.000693388
0.000756387
0.000799615
0.000833823
0.0008622
0.000863946
0.000892803
0.000916041
0.000933723
0.000945987
0.000952289
0.0009541
0.00095248
0.000948467
0.000943012
0.000936737
0.00093015
0.000923172
0.000915535
0.000906918
0.000897009
0.000885418
0.000871604
0.000854987
0.000834892
0.000810501
0.000780989
0.000746156
0.000708362
0.000679175
0.000694473
0.000752855
0.000793916
0.00082649
0.000853714
0.000853499
0.000882315
0.000905511
0.000923424
0.000936447
0.00094355
0.00094645
0.000946395
0.000944136
0.00094064
0.000936428
0.000931778
0.000926817
0.000921346
0.000915022
0.000907411
0.000898007
0.000886145
0.000871185
0.000852427
0.000828927
0.000799738
0.000764255
0.000723908
0.000689473
0.000701437
0.000753826
0.000791442
0.000821468
0.00084708
0.000846461
0.000874694
0.000897484
0.000915417
0.000928995
0.000937251
0.000941634
0.000943656
0.000943907
0.000943218
0.000942052
0.000940653
0.000939056
0.000936984
0.000934061
0.000929583
0.00092281
0.000913071
0.000899708
0.000882032
0.000859143
0.000830033
0.00079386
0.000751203
0.000711519
0.000718925
0.000761741
0.000794796
0.000821506
0.00084445
0.000849796
0.000876567
0.000898783
0.000917201
0.000932128
0.000942955
0.000950399
0.000956317
0.000961134
0.000965546
0.000969978
0.00097455
0.000978818
0.000982091
0.000983616
0.000982552
0.000978083
0.000969691
0.000956888
0.000939182
0.00091597
0.000886361
0.000849694
0.000806763
0.000764326
0.000763628
0.000790917
0.000815114
0.000835361
0.000853341
0.000915324
0.000939388
0.000961137
0.0009807
0.00099774
0.0010133
0.0010268
0.00103957
0.00105126
0.00106329
0.00107613
0.00108919
0.00110025
0.00110849
0.00111292
0.00111304
0.00110846
0.00109936
0.00108552
0.00106668
0.00104317
0.00101469
0.000981344
0.000945625
0.000910334
0.000898602
0.000905108
0.000913153
0.000920091
0.000927159
0.00126863
0.00128087
0.00129297
0.00130421
0.00131146
0.00131812
0.00132745
0.00133614
0.00134247
0.00135165
0.00136436
0.00137748
0.00138473
0.00138797
0.00138662
0.00138217
0.00137431
0.00136498
0.00135336
0.00133918
0.00132508
0.00131159
0.00129843
0.00128703
0.00128154
0.00128155
0.00128303
0.00128324
0.00128163
0.00127972
0.000231092
0.000234682
0.000228222
0.000218789
0.000207675
0.00019582
0.000183861
0.00017224
0.000161163
0.000150863
0.000141501
0.000133301
0.000126055
0.000119163
0.000112409
0.000105907
9.94442e-05
9.42502e-05
9.05203e-05
8.71857e-05
8.12579e-05
7.37794e-05
8.15881e-05
9.59192e-05
0.000109458
0.000124716
0.000133764
0.000138749
0.000149621
0.000167488
0.00103253
0.00110969
0.00102645
0.000917142
0.000809501
0.000714624
0.000633692
0.000564869
0.000505699
0.000455434
0.00041166
0.000370688
0.000328009
0.000297378
0.000289405
0.000298925
0.000314854
0.000338806
0.000365119
0.000385291
0.00037868
0.000338129
0.000416349
0.000594125
0.000706573
0.00077465
0.000764993
0.000717062
0.000662641
0.000648424
0.00171216
0.00189363
0.00181777
0.00166949
0.00150212
0.00134195
0.00119823
0.00107204
0.000961369
0.000866815
0.000784455
0.000707401
0.000626548
0.000571803
0.000559632
0.000575373
0.000598002
0.000629408
0.000666238
0.00070348
0.000720889
0.000688752
0.000781116
0.00102417
0.00122416
0.00133958
0.00134463
0.00128734
0.00120508
0.00119446
0.00225281
0.00247922
0.00242985
0.0022828
0.00209457
0.00190037
0.00171656
0.00154865
0.00139799
0.00126776
0.00115172
0.00104156
0.0009325
0.000861021
0.000843892
0.000858408
0.000878761
0.000908314
0.00094931
0.00100233
0.00104952
0.00103993
0.00112813
0.00138786
0.0016525
0.0018112
0.00183909
0.00179456
0.00171006
0.00171506
0.00268958
0.00292062
0.00289741
0.00276616
0.0025781
0.00237084
0.00216474
0.00196943
0.0017901
0.00163054
0.00148888
0.00135711
0.00122891
0.00114687
0.0011237
0.00113175
0.00114419
0.00116754
0.00121298
0.00128415
0.0013589
0.00137625
0.00146126
0.00171855
0.00201169
0.00221414
0.00226492
0.00224318
0.00217142
0.00218947
0.00304494
0.003262
0.00325889
0.00314679
0.00296927
0.00276175
0.0025458
0.00233417
0.00213422
0.00195376
0.00179563
0.00165032
0.00151204
0.00142367
0.00139311
0.00139089
0.00139175
0.00140735
0.00146222
0.00155019
0.00164322
0.00168612
0.00177122
0.00201365
0.00230334
0.00254214
0.00263123
0.00263473
0.00258584
0.00261277
0.00333688
0.00353058
0.00354084
0.00344711
0.003285
0.00308501
0.00286785
0.00264822
0.00243623
0.00224192
0.0020732
0.00192289
0.00178127
0.00168906
0.00164952
0.00163441
0.00162146
0.00163054
0.00169827
0.00179409
0.00189894
0.00196116
0.00204868
0.00226467
0.00252538
0.00278453
0.00292606
0.00297184
0.00295146
0.00298311
0.0035742
0.00374415
0.00376096
0.00368292
0.00353855
0.00335104
0.00313862
0.0029176
0.0027006
0.00250002
0.00232464
0.00217443
0.00203649
0.0019415
0.00189109
0.00186178
0.00183436
0.00184137
0.00191686
0.00201231
0.00212151
0.00219821
0.00228829
0.00246845
0.00270374
0.00297627
0.00315234
0.00324311
0.00325829
0.0032965
0.00376512
0.00391976
0.00394431
0.00387584
0.00374314
0.00356767
0.00336411
0.00314731
0.00293104
0.00273123
0.00255593
0.00240556
0.00227461
0.00217921
0.00211683
0.0020729
0.00203206
0.00204216
0.00211448
0.00220308
0.00230964
0.00239493
0.0024862
0.00262641
0.00285417
0.00313396
0.00334295
0.00346146
0.00350987
0.00355784
0.00392119
0.00406074
0.00409368
0.00404052
0.00391583
0.00374899
0.00355165
0.00334044
0.00313106
0.0029369
0.00276753
0.00262291
0.00249494
0.00239894
0.00232594
0.0022681
0.00221662
0.00223051
0.00228997
0.00236598
0.00246388
0.00255121
0.00263906
0.00275338
0.00297802
0.00326367
0.00350383
0.0036407
0.00371164
0.00377323
0.00403937
0.00416567
0.00420412
0.00416853
0.00406476
0.00390443
0.00371358
0.00350744
0.00330366
0.00311945
0.00295967
0.00282433
0.00270216
0.00260096
0.00251856
0.00244859
0.00239066
0.00240572
0.00244402
0.00250075
0.00258368
0.00266773
0.00274733
0.00285417
0.00307477
0.0033622
0.00362105
0.00379243
0.00387896
0.00395014
0.00411728
0.00423817
0.00428493
0.00426502
0.00418241
0.00404106
0.00385511
0.00365456
0.00345687
0.00328274
0.00313379
0.00300915
0.0028924
0.0027881
0.00269591
0.00261612
0.00255853
0.00256723
0.00257768
0.0026085
0.00267104
0.0027462
0.00281828
0.00293091
0.00314674
0.00341598
0.00368234
0.00389495
0.00401572
0.00410384
0.00415984
0.00428249
0.00433924
0.00433585
0.00427315
0.00415146
0.00398121
0.00378584
0.0035947
0.00342859
0.00329207
0.00317779
0.003066
0.00295919
0.00285928
0.00277288
0.00271926
0.00271361
0.00269239
0.00269217
0.00273033
0.00279187
0.00286322
0.0029827
0.00317335
0.00342807
0.00370148
0.00394268
0.00409792
0.00421096
0.00417392
0.00430145
0.00436991
0.00438337
0.00434199
0.00423716
0.00408395
0.00390393
0.00371949
0.00356261
0.00343657
0.00333136
0.00322397
0.00311559
0.00301068
0.00292192
0.0028722
0.0028431
0.00279003
0.00275616
0.00276558
0.00281042
0.00288397
0.00299419
0.00316137
0.00340036
0.00367931
0.00394338
0.00413575
0.00428157
0.004164
0.00429771
0.00438008
0.00441185
0.00439045
0.00430573
0.00416659
0.00400317
0.00383367
0.0036863
0.00356897
0.00347156
0.00336803
0.0032594
0.00315295
0.00306786
0.00301724
0.00295871
0.00287318
0.00280453
0.00278108
0.00280579
0.0028688
0.0029659
0.00311884
0.00334255
0.00362289
0.00391095
0.00414092
0.00431901
0.00413314
0.00427415
0.00437355
0.00442398
0.00442122
0.00435832
0.0042329
0.00408674
0.00393451
0.0038011
0.00369191
0.00360067
0.00350061
0.00339329
0.00328858
0.0032114
0.00315276
0.00306222
0.00294432
0.00284082
0.00278161
0.00278107
0.00282425
0.00291241
0.00305444
0.00326542
0.00354405
0.00385061
0.0041146
0.00432929
0.00407588
0.00423732
0.00435367
0.00442262
0.00443759
0.00439733
0.00428792
0.00415811
0.00402544
0.00390869
0.00380706
0.00372126
0.00362462
0.00352052
0.003423
0.00334999
0.00327488
0.00315367
0.00300515
0.00286797
0.00277223
0.00274192
0.00276596
0.00284415
0.00297793
0.0031776
0.00345117
0.00376825
0.00406038
0.00431733
0.0039945
0.00418239
0.00432601
0.00441213
0.0044449
0.00442511
0.00433461
0.00422209
0.00411497
0.00401036
0.00391696
0.00383645
0.00374292
0.00364408
0.00355577
0.00347889
0.00337818
0.00323116
0.00305598
0.00288768
0.0027561
0.00269184
0.00269902
0.00276564
0.00289287
0.00308399
0.00335055
0.00367124
0.0039848
0.00428636
0.00389811
0.0041089
0.00428503
0.00440031
0.00444918
0.00444756
0.00437775
0.00429029
0.00420083
0.00410786
0.00402355
0.00394477
0.0038574
0.00376617
0.00367862
0.00358864
0.00346007
0.00329108
0.00309441
0.00289977
0.00273584
0.00263549
0.00262737
0.002681
0.00280317
0.00298779
0.00324729
0.00356848
0.00389523
0.00422732
0.00379171
0.00402492
0.00423155
0.00438378
0.00446146
0.00447496
0.00442668
0.0043604
0.00428513
0.00420369
0.00412859
0.00405228
0.00396703
0.00387437
0.00377727
0.0036643
0.00351183
0.0033261
0.0031145
0.00290106
0.00271087
0.00258089
0.00255189
0.00259774
0.00271353
0.00289314
0.00314589
0.00346561
0.00379846
0.00414749
0.00368135
0.00393993
0.00417196
0.0043529
0.00446133
0.00450108
0.00448029
0.00443049
0.00436766
0.00429612
0.00422309
0.00414368
0.00405141
0.00394631
0.00382874
0.0036903
0.00352016
0.00332428
0.00310581
0.00288387
0.00267727
0.00252417
0.00246557
0.00251544
0.00262866
0.00280426
0.00305288
0.00336548
0.00369818
0.00405362
0.0035749
0.00385175
0.0041063
0.00431273
0.00443666
0.00450718
0.00451195
0.00447534
0.00442057
0.0043519
0.00427408
0.00418473
0.00407624
0.00395065
0.00380775
0.00364857
0.00346781
0.00326967
0.00305399
0.00283553
0.00262703
0.00246019
0.00238646
0.00243142
0.00255211
0.00272297
0.00297361
0.00327647
0.00360025
0.00394959
0.00347724
0.00377099
0.00403263
0.0042388
0.00438885
0.00448703
0.00450594
0.00447706
0.00442175
0.00434613
0.00425442
0.00414583
0.00401368
0.00386279
0.00369391
0.00351977
0.00333733
0.00314662
0.00294522
0.00274404
0.00254911
0.00238229
0.00229751
0.00234554
0.00249683
0.00267081
0.00291337
0.00320591
0.00351913
0.00384846
0.0033952
0.00367637
0.00392655
0.00414902
0.004321
0.00442462
0.00444194
0.0044086
0.00434217
0.0042492
0.00413321
0.00399726
0.00383858
0.00366368
0.003475
0.00329607
0.0031244
0.00295298
0.00277866
0.00260825
0.00244058
0.00228804
0.00219793
0.00224811
0.0024377
0.00263327
0.00288156
0.0031693
0.00346866
0.00377085
0.00329315
0.00356937
0.00382035
0.00403939
0.00420126
0.00428308
0.00428319
0.00423191
0.00414278
0.00402459
0.00388158
0.00371862
0.00354416
0.00336044
0.0031726
0.00300767
0.00286361
0.00272401
0.00258742
0.00245523
0.00232222
0.00219187
0.00209928
0.00213954
0.002352
0.00258323
0.00282435
0.003103
0.00338739
0.00366352
0.00319539
0.00344538
0.00366246
0.00384678
0.00397106
0.00401039
0.00397883
0.00390196
0.00379203
0.00365863
0.00350772
0.00334519
0.00318083
0.00302292
0.0028718
0.00274602
0.00264459
0.00254391
0.00244597
0.00234854
0.00224579
0.00213616
0.00204065
0.00204593
0.00221961
0.00246671
0.00271865
0.0029901
0.00326174
0.00350763
0.00300084
0.00320871
0.00337221
0.00349979
0.003573
0.00357338
0.00352483
0.00344591
0.00334654
0.00323498
0.00311726
0.00299893
0.00288673
0.00278454
0.00269465
0.0026209
0.00255988
0.00249195
0.00242232
0.00234858
0.0022663
0.00217123
0.00207484
0.00202958
0.00210333
0.0022828
0.00251663
0.00276548
0.00301577
0.00323986
0.00269958
0.00284662
0.00295915
0.00304758
0.00310186
0.00310638
0.00308327
0.00304414
0.00299444
0.00293851
0.00288096
0.00282599
0.0027756
0.00272469
0.00267473
0.002631
0.00258736
0.00254158
0.00249181
0.00243622
0.0023718
0.00229504
0.00221281
0.00214841
0.00214876
0.00222571
0.00236051
0.00252366
0.00269829
0.00287101
0.00256129
0.00265078
0.00272937
0.00279889
0.00285292
0.00287763
0.00288551
0.0028823
0.00287137
0.00285391
0.00283183
0.00280479
0.00277574
0.00274243
0.00271134
0.00267575
0.00264119
0.00260766
0.00257317
0.00253676
0.00249668
0.00244842
0.00239764
0.00235468
0.00235396
0.00239675
0.0024625
0.00253601
0.00260951
0.00268053
0.0026925
0.00273779
0.00277554
0.00280882
0.0028344
0.00284593
0.00284822
0.00284184
0.00282998
0.00281604
0.00280405
0.00278874
0.00276684
0.0027395
0.00271113
0.0026845
0.00266323
0.00264819
0.00263416
0.00262105
0.00260845
0.00259424
0.0025787
0.00256395
0.00257936
0.00260978
0.00264283
0.00267443
0.0027017
0.00272764
0.000262421
0.00026704
0.000258823
0.000248194
0.000235764
0.000222416
0.000208818
0.000195435
0.000182438
0.000169978
0.000158036
0.000146737
0.000135634
0.000125001
0.000116428
0.000111644
0.000111296
0.000121117
0.000132841
0.000141644
0.000145444
0.000140953
0.000139789
0.000151433
0.000164089
0.000171289
0.000176293
0.000178797
0.000184556
0.000193691
0.00127859
0.00140835
0.00134121
0.00120743
0.00106598
0.000938972
0.000830289
0.000737816
0.000657039
0.000585641
0.000519936
0.000452637
0.000380067
0.000352901
0.000392156
0.000469673
0.000549574
0.000637858
0.000735767
0.000808422
0.000841022
0.000831433
0.000847324
0.000901545
0.000933467
0.000939636
0.000925003
0.000878329
0.000812601
0.000779955
0.00214989
0.00241898
0.00238075
0.00221897
0.00201073
0.00180159
0.00160957
0.00143828
0.00128381
0.0011445
0.00101546
0.00088226
0.000740442
0.000697208
0.000775405
0.000903953
0.00102752
0.00117133
0.00133893
0.00147394
0.00154711
0.00155412
0.00158818
0.00167592
0.00173197
0.00174791
0.0017219
0.00163818
0.0015149
0.00146063
0.00284881
0.00318032
0.00317705
0.00302742
0.00280168
0.00255337
0.00231009
0.00208238
0.00187039
0.00167609
0.00149651
0.00130625
0.00111443
0.00106856
0.00117327
0.00132676
0.00147022
0.00164976
0.00186318
0.00204492
0.0021579
0.00219476
0.00224988
0.00235808
0.00243328
0.0024606
0.00243459
0.00233789
0.00218218
0.00212361
0.00343682
0.00377005
0.00379694
0.00366881
0.00344653
0.00318301
0.00291023
0.0026443
0.00239035
0.00215566
0.00193447
0.00170711
0.00148915
0.00144947
0.00156736
0.00172708
0.00187527
0.0020756
0.00231626
0.00252967
0.00267801
0.00275058
0.00282798
0.00294822
0.0030453
0.00308779
0.00306902
0.00297321
0.0028049
0.00274592
0.00394701
0.00424967
0.00429469
0.0041869
0.00397623
0.00371032
0.00342192
0.00313126
0.00284824
0.00258421
0.00233407
0.00208823
0.00186334
0.00183345
0.00195166
0.00210374
0.00224901
0.00245629
0.00270954
0.00294312
0.00312275
0.00322879
0.00332522
0.00345581
0.00357281
0.00363813
0.00363863
0.00354411
0.00337839
0.00331781
0.00437903
0.00464815
0.00470294
0.00461189
0.0044156
0.00415442
0.00385964
0.00355465
0.00325339
0.00297165
0.00270502
0.00245349
0.00223708
0.00221552
0.00232321
0.00245752
0.00259397
0.00280133
0.00305617
0.00330481
0.00350932
0.0036418
0.00375012
0.00388352
0.00401682
0.00410433
0.00413143
0.00405882
0.0038981
0.00383674
0.00474647
0.00498707
0.00504214
0.00496313
0.00478203
0.00453001
0.00423541
0.00392459
0.00361476
0.00332469
0.00305636
0.00280433
0.00260926
0.00259061
0.00268009
0.00278998
0.00291567
0.00311926
0.00336597
0.00361829
0.00384321
0.00399786
0.00411421
0.00423961
0.0043801
0.00449251
0.00454749
0.00450472
0.00436364
0.00430259
0.0050659
0.00529429
0.00534755
0.00526994
0.00509273
0.00484743
0.00455781
0.00424906
0.00393968
0.0036503
0.00338878
0.00314888
0.00297452
0.00295444
0.00302056
0.00310313
0.00321934
0.00340719
0.00363885
0.00389023
0.0041286
0.00429614
0.00441666
0.00453944
0.00467563
0.00480681
0.00488916
0.00488456
0.00477129
0.00471698
0.00535978
0.00556946
0.00562472
0.00554742
0.00536976
0.00512627
0.00483802
0.00453318
0.00423386
0.00395397
0.00370524
0.00348626
0.00332651
0.00330385
0.00334367
0.0033991
0.00350624
0.00366662
0.00387492
0.00412487
0.00437587
0.00455545
0.00468207
0.00480569
0.00494014
0.00506978
0.00516414
0.00519491
0.00511949
0.00508227
0.00559291
0.00578617
0.00584516
0.00578875
0.00562214
0.00537897
0.00509299
0.00479246
0.0045029
0.00423928
0.00400821
0.0038124
0.00366827
0.00363276
0.00364881
0.00368012
0.00377232
0.00389775
0.00407504
0.00431896
0.00456484
0.00475359
0.00488706
0.00500631
0.00513706
0.00527243
0.00538941
0.00544085
0.00540836
0.00540012
0.00577849
0.00596352
0.00602958
0.00598584
0.00584288
0.00561432
0.0053292
0.00503477
0.00475581
0.00451047
0.00429958
0.00412571
0.00399581
0.003948
0.00393773
0.00394887
0.00401406
0.00410087
0.00424025
0.00445596
0.00467625
0.00487164
0.0050156
0.00513823
0.00527067
0.00541407
0.00554683
0.00563415
0.00564185
0.0056587
0.00592111
0.00610621
0.00618266
0.00615341
0.00602915
0.00582278
0.00555332
0.00526436
0.00499919
0.00477141
0.00458041
0.00442534
0.00430632
0.00424515
0.00421233
0.00420807
0.00423177
0.00427657
0.00437138
0.00454022
0.0047387
0.00493876
0.00509267
0.00522265
0.00535792
0.00550997
0.00566057
0.00578144
0.00582935
0.00588346
0.00602629
0.00621956
0.00630784
0.00629574
0.00619343
0.00600607
0.00575525
0.00548477
0.0052356
0.00502456
0.00485176
0.00471146
0.00459934
0.00452562
0.00447443
0.0044506
0.00442584
0.00442366
0.00446891
0.00458428
0.00475641
0.00495469
0.00511877
0.00525956
0.00540084
0.00556276
0.00573328
0.00588505
0.00597563
0.00606779
0.00610189
0.00630844
0.00640795
0.00641476
0.00633835
0.00617143
0.00593996
0.00569469
0.00546665
0.00527179
0.00511455
0.00498468
0.00487562
0.00479098
0.00472483
0.00466971
0.00459658
0.00453978
0.00453212
0.00459404
0.00473228
0.00492017
0.00509474
0.00525042
0.00540239
0.00557622
0.00576841
0.00595377
0.00608469
0.00621608
0.00615586
0.00637264
0.00648656
0.00651561
0.00646558
0.00632407
0.00611303
0.00589725
0.00569285
0.00551467
0.0053691
0.00524562
0.0051356
0.00503849
0.00495692
0.00485948
0.00473955
0.00462607
0.00456131
0.004565
0.004668
0.00483838
0.00502338
0.00519828
0.00536596
0.00555451
0.00576974
0.00599045
0.00616075
0.00633289
0.0061908
0.0064157
0.00654931
0.00660318
0.00657815
0.0064667
0.00628067
0.00609975
0.00591209
0.00575269
0.00561531
0.00549384
0.00537723
0.00526886
0.00515794
0.00501396
0.00484692
0.00467849
0.00455502
0.00450514
0.00456155
0.00471298
0.00490852
0.00510665
0.00529514
0.00550168
0.00574121
0.00599793
0.00620898
0.00642362
0.00620698
0.00643886
0.00660111
0.00668199
0.0066822
0.00660319
0.00645447
0.00629353
0.0061283
0.00598191
0.00584983
0.00572404
0.0055951
0.00546636
0.00531379
0.00512279
0.00490769
0.00468835
0.00451006
0.00440611
0.00441724
0.00454738
0.00475341
0.0049788
0.00519326
0.00542159
0.00568686
0.00597912
0.0062313
0.00649346
0.00620146
0.00644646
0.00664059
0.00675691
0.00678677
0.00673499
0.00662135
0.0064789
0.00633549
0.00619707
0.0060615
0.00592329
0.00577365
0.00560766
0.00541011
0.00517087
0.004909
0.00464398
0.0044189
0.00426726
0.00423277
0.00434174
0.00456378
0.00481714
0.00506347
0.00531806
0.00561081
0.00593721
0.00622958
0.00653932
0.00617116
0.00644011
0.00667068
0.00682029
0.00687585
0.00686277
0.00677759
0.00665218
0.00651632
0.00637766
0.00623022
0.00606753
0.00588122
0.00567128
0.00542544
0.00513916
0.00483588
0.00453267
0.00427265
0.00408432
0.0040076
0.00409737
0.00433232
0.00462831
0.00490943
0.00519478
0.00551737
0.00587269
0.00620439
0.00655724
0.00611697
0.00641989
0.0066747
0.00684634
0.00693648
0.00697287
0.00689346
0.00677542
0.00663829
0.00648946
0.0063221
0.00612469
0.00589359
0.00563283
0.00533581
0.00500876
0.00467483
0.00434566
0.00406532
0.0038544
0.00374648
0.00380114
0.00405831
0.00441177
0.00473865
0.0050563
0.00540636
0.00578609
0.00615532
0.00653314
0.00603477
0.00636713
0.00664864
0.00683255
0.00696057
0.0070111
0.00694039
0.0068186
0.00666841
0.00649746
0.00630041
0.00606262
0.00578275
0.00547159
0.00512588
0.00477102
0.00442148
0.00408578
0.00380143
0.00358281
0.00345508
0.00348193
0.00373686
0.0041495
0.00454164
0.00490287
0.00527397
0.00567302
0.00606918
0.00646721
0.00592868
0.00626664
0.00653379
0.00675562
0.0069102
0.00695614
0.00687724
0.00673822
0.00656314
0.00636066
0.0061278
0.0058523
0.00552991
0.00517957
0.00480099
0.004439
0.00409706
0.00377623
0.00350615
0.00329448
0.00316228
0.00315571
0.00338336
0.00384857
0.00431141
0.0047226
0.00512964
0.00555461
0.0059786
0.00637892
0.00573632
0.00606694
0.00636301
0.00659391
0.00673986
0.00675553
0.00665215
0.00648565
0.00628036
0.00604644
0.00578368
0.00548301
0.0051435
0.00478034
0.00440144
0.00406127
0.00375401
0.00346759
0.0032314
0.003052
0.00292668
0.00288525
0.00303686
0.0034958
0.00401525
0.00446878
0.00491021
0.00535915
0.00579821
0.00619359
0.00546636
0.00580409
0.00607304
0.00627339
0.00638197
0.00635158
0.00621847
0.00602792
0.00580357
0.00555658
0.00528854
0.00499311
0.00467291
0.00434131
0.00400797
0.00371851
0.0034631
0.00323672
0.00305642
0.00291067
0.00279481
0.00272466
0.00278473
0.00313371
0.0036254
0.00411033
0.00457157
0.00503338
0.00548092
0.00586612
0.00504578
0.00535259
0.00557487
0.00572797
0.00578534
0.0057213
0.00557828
0.00539175
0.00518278
0.00496114
0.00472863
0.00448073
0.00422142
0.00396078
0.00370582
0.00348038
0.00329606
0.0031319
0.00299598
0.00287854
0.00277519
0.00269229
0.00268259
0.00285633
0.00321345
0.00364647
0.00408871
0.00453726
0.00497597
0.00535531
0.00442248
0.00468724
0.00485859
0.00497088
0.00500939
0.00495546
0.00484697
0.00471022
0.00456043
0.0044041
0.00424228
0.00407145
0.00389378
0.00371244
0.00353148
0.00337956
0.00323988
0.003116
0.00301047
0.00291767
0.00283313
0.00275805
0.00272053
0.00277645
0.00294596
0.00323244
0.00356363
0.00393057
0.00430519
0.00464993
0.00379824
0.00399601