/*--------------------------------*- C++ -*----------------------------------*\
  =========                 |
  \\      /  F ield         | OpenFOAM: The Open Source CFD Toolbox
   \\    /   O peration     | Website:  https://openfoam.org
    \\  /    A nd           | Version:  12
     \\/     M anipulation  |
\*---------------------------------------------------------------------------*/
FoamFile
{
    format      ascii;
    class       volScalarField;
    location    "550/air";
    object      p_rgh;
}
// * * * * * * * * * * * * * * * * * * * * * * * * * * * * * * * * * * * * * //

dimensions      [1 -1 -2 0 0 0 0];

internalField   nonuniform List<scalar> 
243000
(
28.8115
29.0138
29.2123
29.2279
29.2212
29.1888
29.1456
29.0983
29.0402
28.9727
28.8707
28.7202
28.4919
28.1252
27.6821
27.3181
27.0914
27.0195
27.0355
27.1655
27.3408
27.657
27.7602
27.6272
27.5001
27.4992
27.5896
27.7816
28.1533
28.6781
28.8149
29.0067
29.2223
29.2512
29.251
29.218
29.1746
29.1257
29.0653
28.9952
28.8899
28.738
28.5087
28.1408
27.7006
27.3409
27.1129
27.035
27.0443
27.1737
27.3483
27.6588
27.7595
27.6519
27.518
27.5067
27.5974
27.7886
28.14
28.5757
28.7524
28.9411
29.1549
29.1902
29.2067
29.1876
29.1559
29.1183
29.0661
28.9988
28.8949
28.7432
28.5133
28.1447
27.7044
27.3492
27.1219
27.0396
27.0474
27.1763
27.3489
27.6267
27.7608
27.6781
27.5424
27.5175
27.6083
27.8011
28.1486
28.5373
28.6423
28.8284
29.0221
29.0706
29.1084
29.1107
29.0978
29.0739
29.0317
28.9721
28.8707
28.7185
28.487
28.1212
27.6916
27.3454
27.1194
27.0382
27.0483
27.177
27.3489
27.5916
27.7583
27.7012
27.5754
27.5306
27.616
27.8052
28.1421
28.5043
28.5113
28.6844
28.8602
28.924
28.9832
29.0072
29.015
29.0072
28.9771
28.9271
28.8305
28.6776
28.4437
28.0828
27.6665
27.333
27.1121
27.0337
27.0464
27.1761
27.3465
27.5631
27.7434
27.7176
27.6152
27.5474
27.6218
27.8046
28.1226
28.4719
28.3659
28.5223
28.6848
28.7655
28.8452
28.8912
28.9194
28.9283
28.9117
28.8725
28.7814
28.6279
28.3919
28.0374
27.6365
27.3171
27.1031
27.0284
27.0449
27.1759
27.3444
27.5424
27.7229
27.7341
27.6554
27.5661
27.6259
27.7952
28.0916
28.4313
28.2041
28.3487
28.5024
28.6001
28.6986
28.7657
28.8136
28.8383
28.8357
28.8079
28.7228
28.569
28.3313
27.9849
27.6011
27.2966
27.0918
27.0218
27.043
27.1756
27.3419
27.5268
27.6997
27.7446
27.6922
27.5869
27.6288
27.7782
28.0485
28.3799
28.0362
28.1727
28.3206
28.4339
28.5489
28.6353
28.7011
28.741
28.7512
28.7348
28.6557
28.5021
28.2636
27.9273
27.5618
27.2729
27.0791
27.0146
27.0411
27.1754
27.3399
27.5166
27.6782
27.7488
27.7223
27.6101
27.6321
27.7564
27.9962
28.319
27.8691
28.0011
28.1452
28.2722
28.4011
28.5043
28.5861
28.6398
28.6615
28.6557
28.5822
28.4293
28.1912
27.8665
27.5202
27.2476
27.0654
27.0076
27.04
27.1746
27.3377
27.5108
27.6643
27.7504
27.7429
27.6364
27.6351
27.7334
27.9391
28.2504
27.7096
27.8392
27.9808
28.1191
28.2591
28.3766
28.4719
28.5376
28.5696
28.5728
28.5044
28.3525
28.1162
27.8047
27.4772
27.2213
27.0511
27.0008
27.0398
27.1738
27.3365
27.5076
27.657
27.7511
27.7582
27.6644
27.6375
27.712
27.8809
28.1765
27.5634
27.6913
27.8305
27.9777
28.1261
28.2552
28.3616
28.4375
28.4783
28.4886
28.4244
28.2739
28.0408
27.7436
27.4345
27.1951
27.0368
26.9945
27.0401
27.1743
27.3374
27.5076
27.6542
27.752
27.773
27.692
27.6408
27.6948
27.8264
28.1008
27.4358
27.5604
27.697
27.8505
28.0048
28.1431
28.2581
28.3423
28.3901
28.4058
28.3445
28.1959
27.9674
27.6848
27.3934
27.1702
27.023
26.989
27.0407
27.1753
27.3387
27.5092
27.6548
27.7531
27.7858
27.7177
27.6488
27.6847
27.7799
28.0273
27.331
27.4493
27.5821
27.7396
27.897
28.0425
28.164
28.2546
28.3076
28.3268
28.267
28.1206
27.8978
27.6293
27.3548
27.1472
27.0103
26.9845
27.0416
27.1768
27.3405
27.5117
27.6571
27.7559
27.7963
27.7422
27.6619
27.6833
27.7433
27.9594
27.2499
27.3608
27.4878
27.6466
27.8051
27.9554
28.0817
28.1769
28.2332
28.254
28.1943
28.0507
27.8338
27.5786
27.3195
27.1261
26.9991
26.9806
27.0425
27.1786
27.3428
27.515
27.6611
27.7616
27.8057
27.7671
27.6785
27.687
27.7198
27.9003
27.1902
27.2955
27.4162
27.5737
27.7313
27.8839
28.0129
28.1111
28.169
28.1893
28.1284
27.9878
27.7764
27.5335
27.2885
27.1069
26.9888
26.9766
27.0432
27.1804
27.3455
27.5189
27.667
27.7697
27.8165
27.7937
27.6997
27.6932
27.7105
27.8527
27.1472
27.2473
27.3624
27.5162
27.6736
27.8303
27.9604
28.059
28.1163
28.1341
28.0711
27.9329
27.7268
27.495
27.2625
27.0898
26.9794
26.972
27.0436
27.182
27.3483
27.5233
27.6744
27.7799
27.8303
27.8205
27.7265
27.7032
27.713
27.8203
27.121
27.2156
27.3254
27.4754
27.6311
27.7898
27.924
28.0233
28.0772
28.0902
28.024
27.8877
27.6864
27.4641
27.241
27.0748
26.9707
26.9659
27.0424
27.183
27.3509
27.5278
27.6826
27.7918
27.8467
27.8478
27.7576
27.7188
27.7211
27.8021
27.1083
27.1986
27.3048
27.4507
27.6051
27.7647
27.9015
28.0039
28.0545
28.06
27.9904
27.8542
27.6567
27.4411
27.2236
27.0621
26.9614
26.9575
27.0372
27.1823
27.3529
27.5322
27.691
27.8052
27.866
27.8755
27.792
27.7418
27.7346
27.7988
27.1065
27.1945
27.2989
27.4418
27.5953
27.7559
27.8948
27.9991
28.0496
28.0463
27.9738
27.8381
27.6401
27.4254
27.2107
27.0507
26.9501
26.9454
27.0257
27.1769
27.3535
27.5358
27.6992
27.8196
27.8868
27.9038
27.8291
27.7721
27.7551
27.8055
27.1256
27.2128
27.3168
27.4584
27.6118
27.7763
27.9205
28.0241
28.0638
28.052
27.9789
27.8415
27.6409
27.4203
27.2017
27.0395
26.9357
26.9284
27.0067
27.1643
27.3501
27.538
27.7067
27.834
27.9084
27.9322
27.8681
27.8084
27.7859
27.8215
27.1637
27.258
27.3677
27.5144
27.6708
27.8368
27.9763
28.0696
28.0952
28.0735
27.995
27.8541
27.6487
27.4229
27.1957
27.0272
26.9171
26.9051
26.9805
27.1411
27.3387
27.5377
27.7126
27.8475
27.9299
27.9596
27.9077
27.8496
27.8266
27.8533
27.2168
27.3213
27.4403
27.5948
27.7539
27.92
28.054
28.1333
28.1449
28.1129
28.0259
27.8761
27.6634
27.4292
27.1908
27.0122
26.893
26.874
26.9452
27.1057
27.3156
27.5294
27.7158
27.8593
27.9495
27.9844
27.9465
27.8948
27.8765
27.8992
27.2836
27.4016
27.5315
27.6954
27.8592
28.0261
28.1511
28.2152
28.2132
28.1701
28.0722
27.9095
27.6844
27.4388
27.186
26.9939
26.8627
26.8342
26.8993
27.059
27.2763
27.5097
27.7152
27.8684
27.9673
28.0059
27.9828
27.9425
27.9338
27.9576
27.3628
27.4987
27.6425
27.8168
27.9863
28.1534
28.268
28.3156
28.3011
28.2452
28.1331
27.9544
27.713
27.4515
27.1814
26.9724
26.8261
26.7853
26.8416
26.9989
27.221
27.4726
27.7021
27.8732
27.9824
28.0226
28.0144
27.991
27.9953
28.0259
27.4555
27.6132
27.7746
27.9606
28.1359
28.3008
28.4042
28.435
28.408
28.3378
28.2084
28.0109
27.75
27.4684
27.1795
26.9495
26.7848
26.7286
26.7727
26.9255
27.1509
27.4132
27.6718
27.8725
27.9938
28.0344
28.0392
28.0383
28.0585
28.1025
27.5587
27.743
27.9268
28.1275
28.3082
28.4685
28.5599
28.574
28.5337
28.4472
28.2975
28.0786
27.7959
27.4916
27.1812
26.9267
26.7402
26.6646
26.6925
26.8371
27.0617
27.3329
27.611
27.8491
27.9968
28.0392
28.0542
28.0763
28.1165
28.1814
27.6895
27.9015
28.1082
28.3237
28.509
28.6628
28.7423
28.7407
28.6851
28.5792
28.4052
28.1614
27.8545
27.5264
27.193
26.916
26.7074
26.6107
26.6183
26.7496
26.9679
27.2422
27.533
27.8033
27.9839
28.0432
28.0686
28.1211
28.1881
28.2811
27.7778
28.0358
28.283
28.5269
28.7222
28.8665
28.9315
28.9146
28.8396
28.7088
28.5071
28.2355
27.901
27.5453
27.1831
26.8779
26.6414
26.5174
26.5038
26.6147
26.8207
27.0957
27.3963
27.6993
27.905
27.9901
28.032
28.1144
28.203
28.3184
28.1501
28.4138
28.6595
28.8903
29.0595
29.1779
29.228
29.1971
29.1007
28.9416
28.7097
28.4088
28.0469
27.6681
27.2922
26.9747
26.7255
26.5894
26.5589
26.6516
26.8461
27.1164
27.4118
27.717
27.9328
28.0764
28.1913
28.3346
28.4762
28.6303
27.4381
27.8374
28.2201
28.5646
28.8218
28.9703
29.0022
28.9479
28.8257
28.6359
28.3751
28.0485
27.6555
27.2425
26.8299
26.4741
26.1834
25.9994
25.9366
25.9978
26.1572
26.3974
26.6759
26.9583
27.1808
27.3515
27.467
27.5856
27.7056
27.8489
27.9413
27.9269
28.0283
28.0402
28.0786
28.1366
28.2018
28.2668
28.3129
28.3375
28.3133
28.2154
28.0105
27.6507
27.2446
26.972
26.8537
26.8984
26.9639
27.0322
27.1147
27.3521
27.4814
27.3154
27.1841
27.2163
27.3521
27.4889
27.731
27.9034
27.9146
27.9024
28.0143
28.044
28.1036
28.1697
28.2378
28.3012
28.3434
28.3634
28.3336
28.2316
28.0262
27.6663
27.2631
26.9926
26.8694
26.9089
26.9727
27.0396
27.1203
27.3567
27.49
27.331
27.2009
27.2296
27.3685
27.5039
27.7505
27.9192
27.8694
27.8518
27.9697
28.0104
28.082
28.1538
28.2262
28.2929
28.3376
28.3592
28.33
28.2255
28.0144
27.6514
27.2551
26.9921
26.8718
26.9105
26.9758
27.0427
27.1222
27.346
27.4945
27.3587
27.2236
27.2466
27.382
27.5122
27.7569
27.9222
27.8014
27.7783
27.8974
27.9514
28.0395
28.1229
28.2039
28.2756
28.323
28.347
28.3175
28.211
27.9959
27.6333
27.2467
26.991
26.8713
26.9078
26.973
27.0405
27.122
27.3267
27.489
27.3911
27.2529
27.2641
27.3901
27.5154
27.7529
27.9222
27.7066
27.6915
27.8085
27.8751
27.9775
28.0727
28.1636
28.2416
28.2932
28.3208
28.2926
28.1818
27.9619
27.6041
27.2311
26.9859
26.8683
26.9019
26.9649
27.0341
27.1201
27.3076
27.476
27.426
27.2877
27.2816
27.3947
27.5144
27.7345
27.9149
27.593
27.5967
27.7101
27.7891
27.9037
28.0101
28.1106
28.1956
28.2521
28.2839
28.2577
28.1434
27.9194
27.5687
27.2113
26.9778
26.8638
26.8954
26.9559
27.0265
27.1193
27.2922
27.4623
27.4599
27.3252
27.2974
27.3969
27.508
27.7056
27.9003
27.4729
27.4978
27.6076
27.6989
27.8235
27.9402
28.0495
28.1414
28.2031
28.2392
28.215
28.0981
27.8709
27.5296
27.1892
26.9683
26.8593
26.8898
26.947
27.019
27.1201
27.2831
27.453
27.4871
27.3626
27.312
27.3967
27.4982
27.6694
27.879
27.3512
27.3998
27.5059
27.6091
27.7415
27.867
27.9839
28.0825
28.1489
28.1889
28.1663
28.0475
27.8185
27.4888
27.1663
26.9587
26.856
26.8856
26.9381
27.0152
27.1237
27.2838
27.4496
27.5073
27.4001
27.3291
27.3935
27.4869
27.6296
27.852
27.2347
27.3069
27.4092
27.5234
27.6614
27.7942
27.9173
28.0214
28.0921
28.1355
28.1137
27.9935
27.7642
27.4483
27.1441
26.9501
26.8545
26.883
26.9306
27.0156
27.1299
27.2893
27.4521
27.5231
27.4387
27.35
27.3919
27.4759
27.5897
27.8197
27.1288
27.2223
27.3207
27.4448
27.5863
27.7249
27.8525
27.961
28.0351
28.0808
28.0593
27.9383
27.7102
27.4098
27.1239
26.9435
26.8545
26.882
26.926
27.0172
27.1371
27.2987
27.4573
27.5377
27.4786
27.3744
27.3946
27.467
27.5528
27.7818
27.0372
27.1488
27.2431
27.3759
27.519
27.6618
27.7924
27.9038
27.9801
28.0271
28.0047
27.8839
27.6586
27.3749
27.1067
26.9399
26.8578
26.8825
26.9252
27.0213
27.1468
27.3108
27.4663
27.5539
27.5207
27.4057
27.4002
27.4613
27.5213
27.741
26.9632
27.0887
27.1784
27.3163
27.4605
27.6072
27.7393
27.8525
27.9296
27.9764
27.9522
27.8324
27.6114
27.3449
27.0936
26.9391
26.8632
26.8837
26.9268
27.0285
27.1601
27.3261
27.4803
27.5718
27.5633
27.4479
27.4096
27.4614
27.4972
27.7017
26.9066
27.0398
27.1254
27.2654
27.4101
27.5603
27.6957
27.8093
27.8858
27.9309
27.9038
27.7856
27.5705
27.3209
27.0852
26.9427
26.87
26.8858
26.9307
27.0381
27.1758
27.3446
27.4985
27.5926
27.6019
27.4955
27.4307
27.4662
27.4829
27.6662
26.8682
27.0014
27.0839
27.2244
27.3688
27.5214
27.6598
27.7759
27.8504
27.8924
27.8616
27.7454
27.5372
27.3037
27.0831
26.9502
26.878
26.8894
26.9374
27.0503
27.1937
27.3656
27.5203
27.6175
27.6374
27.5432
27.4593
27.4767
27.481
27.6371
26.844
26.973
27.0549
27.1942
27.3376
27.4918
27.6324
27.7515
27.8253
27.8627
27.8275
27.7135
27.5128
27.2972
27.0862
26.9621
26.8869
26.8955
26.9466
27.065
27.2134
27.3886
27.5446
27.6452
27.6734
27.5929
27.4943
27.4977
27.4875
27.6172
26.8311
26.9551
27.0374
27.1751
27.3173
27.4725
27.6147
27.7361
27.8115
27.8433
27.8036
27.6915
27.5029
27.2999
27.0958
26.9768
26.8968
26.904
26.9582
27.0816
27.2347
27.4132
27.5703
27.6749
27.7102
27.6454
27.5369
27.5271
27.5014
27.6085
26.8293
26.9478
27.0312
27.1675
27.3085
27.4644
27.608
27.7311
27.8069
27.8358
27.7938
27.6896
27.5059
27.3083
27.1111
26.9916
26.9075
26.9147
26.972
27.0995
27.2575
27.4391
27.5974
27.7066
27.7478
27.6995
27.5871
27.5632
27.5221
27.6114
26.8546
26.9579
27.0421
27.177
27.3172
27.4754
27.6228
27.7492
27.8218
27.8419
27.799
27.6968
27.5158
27.3237
27.1295
27.0074
26.9198
26.9274
26.9873
27.1182
27.2814
27.4653
27.6257
27.7393
27.7861
27.7544
27.6436
27.6081
27.5546
27.6232
26.8984
26.9976
27.0817
27.2163
27.3604
27.522
27.6706
27.7902
27.852
27.8616
27.8142
27.7127
27.5334
27.3461
27.1503
27.0247
26.9336
26.9411
27.0031
27.1372
27.3052
27.4915
27.6549
27.7726
27.8247
27.8095
27.7053
27.6628
27.6009
27.6501
26.9602
27.0607
27.1451
27.2827
27.43
27.5923
27.7369
27.8474
27.8964
27.8956
27.843
27.7393
27.5601
27.3731
27.1738
27.0434
26.9488
26.9551
27.0184
27.1556
27.3281
27.5177
27.6847
27.8063
27.8634
27.8633
27.7709
27.7272
27.6619
27.6973
27.0391
27.1434
27.229
27.3698
27.5187
27.681
27.8194
27.9181
27.9537
27.9431
27.8837
27.7759
27.594
27.4046
27.2001
27.0647
26.9652
26.9687
27.0319
27.1725
27.3497
27.5435
27.7152
27.8407
27.9027
27.9155
27.8398
27.8007
27.7378
27.7646
27.1356
27.2464
27.3354
27.481
27.6301
27.7894
27.9187
28.004
28.026
28.0056
27.938
27.8237
27.6372
27.4431
27.2322
27.0894
26.9826
26.9812
27.0436
27.1872
27.3695
27.5686
27.746
27.876
27.9428
27.9661
27.913
27.8826
27.829
27.8506
27.2489
27.3698
27.4651
27.6174
27.7667
27.9211
28.0399
28.1102
28.1186
28.0878
28.0107
27.8869
27.6934
27.4918
27.2716
27.1185
27.0016
26.992
27.0528
27.1989
27.3866
27.5922
27.777
27.9127
27.9844
28.0182
27.9907
27.973
27.933
27.9539
27.3798
27.5122
27.6196
27.7795
27.9289
28.0772
28.1835
28.2371
28.2323
28.1903
28.1029
27.9688
27.7646
27.5523
27.3197
27.1533
27.0231
27.0018
27.0591
27.2071
27.401
27.6135
27.8071
27.9513
28.0284
28.0737
28.0706
28.0702
28.0479
28.0738
27.5298
27.6741
27.7999
27.9682
28.1164
28.2573
28.3504
28.3862
28.369
28.3147
28.215
28.0698
27.8538
27.6264
27.3785
27.1956
27.0483
27.0126
27.0642
27.2112
27.4106
27.6329
27.8384
27.9928
28.0789
28.1351
28.1543
28.1724
28.1737
28.2112
27.6993
27.8596
28.0072
28.1853
28.3327
28.465
28.545
28.5639
28.5345
28.4665
28.3516
28.1902
27.961
27.7157
27.4481
27.2452
27.0802
27.0288
27.0716
27.2159
27.4176
27.6483
27.8702
28.0389
28.1396
28.2066
28.2476
28.286
28.3098
28.3657
27.9055
28.0857
28.2543
28.4396
28.5849
28.7066
28.773
28.7751
28.7316
28.6462
28.5116
28.3289
28.0815
27.8203
27.535
27.3172
27.1356
27.0667
27.0967
27.2329
27.4352
27.6714
27.9079
28.0952
28.2163
28.301
28.3625
28.4228
28.4738
28.5497
28.1272
28.3314
28.5217
28.7148
28.8583
28.9688
29.019
29.0046
28.9438
28.8392
28.6864
28.4891
28.2282
27.9539
27.6548
27.4175
27.2153
27.1267
27.1473
27.2703
27.4669
27.7061
27.9536
28.1616
28.3025
28.3997
28.4804
28.5635
28.6415
28.7359
28.4923
28.7054
28.9077
29.1007
29.2361
29.3306
29.3655
29.3381
29.2637
29.1447
28.979
28.7694
28.5036
28.2267
27.9231
27.6831
27.4732
27.3795
27.3955
27.5107
27.6962
27.9281
28.1727
28.3932
28.546
28.643
28.7322
28.8344
28.9425
29.0606
29.1995
29.3879
29.5752
29.7488
29.868
29.937
29.9477
29.9038
29.8132
29.6769
29.4936
29.274
29.0106
28.7493
28.4724
28.263
28.0724
27.989
28.0043
28.1123
28.2829
28.4977
28.7252
28.9432
29.1077
29.2299
29.3487
29.476
29.613
29.7636
28.0947
27.7815
27.7854
27.6843
27.6584
27.6809
27.738
27.8157
27.8851
27.9464
27.9581
27.9087
27.7328
27.3726
27.0036
26.8249
26.7568
26.768
26.7906
26.9191
27.0675
27.278
27.3416
27.2513
27.2309
27.2727
27.3694
27.4722
27.713
27.7871
28.0363
27.6958
27.7432
27.6758
27.6756
27.7157
27.7807
27.8593
27.926
27.9832
27.9899
27.9338
27.7545
27.3945
27.0277
26.849
26.7776
26.7833
26.805
26.9337
27.0838
27.2979
27.3753
27.2942
27.2671
27.2994
27.3968
27.499
27.7453
27.8232
27.9673
27.6207
27.6906
27.6467
27.6685
27.7143
27.7856
27.8684
27.9364
27.9923
27.9965
27.9379
27.7554
27.3954
27.0328
26.8617
26.7905
26.7938
26.8145
26.9442
27.093
27.3045
27.3892
27.3287
27.298
27.3186
27.4136
27.5117
27.7564
27.8342
27.8572
27.5339
27.618
27.5999
27.6447
27.7023
27.7792
27.8654
27.935
27.9931
27.9998
27.9405
27.7548
27.3958
27.0362
26.8691
26.7946
26.7961
26.8171
26.9465
27.09
27.2863
27.3809
27.3464
27.3161
27.3288
27.4209
27.5167
27.7548
27.8397
27.718
27.4468
27.537
27.5416
27.6055
27.6774
27.761
27.8516
27.9235
27.9832
27.9904
27.9267
27.7327
27.3803
27.0333
26.8711
26.7934
26.7935
26.8159
26.9433
27.0767
27.2538
27.3597
27.3456
27.3233
27.3317
27.417
27.5095
27.7263
27.8364
27.5628
27.3594
27.4507
27.475
27.5555
27.6408
27.7337
27.8293
27.9031
27.9635
27.9708
27.9023
27.7004
27.3568
27.0249
26.8697
26.7901
26.7891
26.8138
26.9394
27.0622
27.2201
27.3308
27.3382
27.3229
27.3248
27.3994
27.4897
27.6786
27.8218
27.4006
27.2732
27.3622
27.4049
27.499
27.5963
27.698
27.7988
27.8744
27.936
27.9429
27.8704
27.6615
27.3297
27.014
26.8672
26.7863
26.7864
26.8149
26.9392
27.0509
27.1917
27.2995
27.3269
27.3175
27.3122
27.3746
27.4631
27.6184
27.8016
27.2385
27.1899
27.2743
27.3345
27.4395
27.5471
27.6564
27.762
27.8396
27.9025
27.9084
27.8323
27.6178
27.3007
27.0021
26.8649
26.7837
26.7867
26.8184
26.9417
27.0467
27.1703
27.2725
27.3148
27.3099
27.3003
27.3479
27.4351
27.5529
27.7766
27.0878
27.1105
27.1895
27.2669
27.3801
27.4964
27.6118
27.7215
27.801
27.8647
27.869
27.79
27.5712
27.2717
26.9906
26.8638
26.7825
26.7888
26.8249
26.9478
27.0497
27.159
27.2513
27.3026
27.3033
27.291
27.323
27.4083
27.4878
27.7442
26.9552
27.0363
27.1102
27.2049
27.3238
27.4472
27.5668
27.6798
27.7605
27.8245
27.8262
27.7452
27.5239
27.2442
26.9807
26.8654
26.7833
26.794
26.8343
26.9565
27.0559
27.16
27.2396
27.2918
27.2996
27.2861
27.302
27.3835
27.429
27.702
26.8459
26.973
27.0404
27.1509
27.2729
27.4018
27.5243
27.6391
27.7203
27.7839
27.7821
27.6995
27.4785
27.2198
26.9735
26.8702
26.7868
26.8026
26.8456
26.9675
27.065
27.1659
27.24
27.2882
27.299
27.2859
27.2876
27.362
27.38
27.6537
26.7623
26.9212
26.982
27.103
27.2264
27.3603
27.4858
27.6022
27.6826
27.7447
27.7385
27.655
27.437
27.2
26.9705
26.8784
26.7933
26.8145
26.8597
26.9819
27.0784
27.1762
27.2457
27.2916
27.3032
27.2918
27.2825
27.3455
27.3437
27.6068
26.7009
26.8786
26.9355
27.0623
27.1864
27.3239
27.4517
27.5703
27.6492
27.7087
27.6974
27.6137
27.4011
27.1858
26.9724
26.8898
26.8036
26.8307
26.8778
26.9999
27.0961
27.1915
27.2569
27.2996
27.3129
27.3042
27.2852
27.3354
27.3218
27.5639
26.6606
26.845
26.8988
27.0293
27.1536
27.2937
27.4231
27.5439
27.622
27.6778
27.6608
27.5779
27.3724
27.182
26.9789
26.9039
26.8182
26.8515
26.8998
27.0218
27.1184
27.2116
27.2737
27.3148
27.3287
27.3231
27.294
27.3364
27.3115
27.5267
26.6391
26.8202
26.8724
27.0048
27.1288
27.2706
27.401
27.5234
27.6021
27.6538
27.6308
27.5494
27.352
27.1852
26.99
26.9212
26.8377
26.8766
26.9258
27.0477
27.1456
27.2382
27.298
27.3376
27.3509
27.3483
27.3123
27.3445
27.313
27.4977
26.6284
26.8041
26.8563
26.9894
27.1128
27.2556
27.3867
27.5102
27.5897
27.638
27.6092
27.5298
27.3461
27.1937
27.0047
26.9435
26.8621
26.9056
26.9554
27.0771
27.1767
27.2705
27.3292
27.3674
27.3799
27.3795
27.3386
27.3621
27.3218
27.478
26.6279
26.7968
26.8502
26.9831
27.106
27.2493
27.381
27.5056
27.5851
27.6315
27.5982
27.5279
27.3503
27.2086
27.0235
26.9711
26.891
26.9379
26.9881
27.1098
27.2113
27.3073
27.3661
27.4035
27.4155
27.4164
27.3723
27.3884
27.3385
27.4726
26.6482
26.8024
26.8588
26.9915
27.1146
27.2587
27.3921
27.5193
27.5959
27.6365
27.6013
27.5344
27.3608
27.2289
27.0476
27.0044
26.9243
26.9733
27.023
27.145
27.249
27.3478
27.4079
27.4449
27.4565
27.4581
27.4133
27.4237
27.3652
27.4787
26.686
26.8333
26.8941
27.026
27.1505
27.2968
27.4326
27.5549
27.6219
27.6527
27.6132
27.5483
27.3772
27.256
27.0787
27.0435
26.9617
27.0111
27.0597
27.182
27.289
27.3916
27.4536
27.4905
27.5016
27.5042
27.4618
27.4685
27.4067
27.4976
26.7427
26.8897
26.9504
27.0854
27.2106
27.3566
27.4891
27.6033
27.659
27.6796
27.636
27.5713
27.4037
27.2927
27.1178
27.0886
27.0033
27.0512
27.0978
27.2199
27.3302
27.4372
27.502
27.5389
27.5503
27.5546
27.518
27.523
27.4639
27.5342
26.8167
26.9608
27.0239
27.1623
27.2878
27.4325
27.5602
27.6647
27.7089
27.7197
27.6718
27.6073
27.443
27.3401
27.1656
27.1406
27.0494
27.0937
27.137
27.2579
27.3719
27.484
27.5526
27.5901
27.6024
27.6102
27.582
27.5867
27.5337
27.5907
26.905
27.0479
27.1155
27.2579
27.3835
27.5267
27.6479
27.7414
27.7744
27.7756
27.7236
27.658
27.4962
27.3991
27.2236
27.2002
27.1005
27.139
27.1774
27.2958
27.4131
27.5316
27.6055
27.645
27.6592
27.6711
27.652
27.6584
27.6158
27.6649
27.0077
27.1505
27.2262
27.3723
27.499
27.6394
27.7531
27.8347
27.8566
27.8497
27.7935
27.7255
27.5654
27.4714
27.2931
27.2684
27.1577
27.1883
27.2196
27.3325
27.4515
27.5773
27.6604
27.7008
27.7189
27.7344
27.727
27.738
27.7105
27.7562
27.1245
27.2684
27.3567
27.5069
27.6352
27.7717
27.8771
27.9462
27.9579
27.9436
27.883
27.8118
27.6521
27.5576
27.3743
27.3454
27.2229
27.2414
27.2617
27.3673
27.4863
27.6195
27.7139
27.7584
27.7802
27.8011
27.8076
27.8266
27.8169
27.8643
27.257
27.4041
27.509
27.6641
27.7941
27.9257
28.0229
28.0797
28.0819
28.0601
27.9937
27.9167
27.7558
27.6566
27.4657
27.434
27.2929
27.2957
27.3024
27.4
27.518
27.6589
27.7656
27.8204
27.847
27.8759
27.8962
27.9267
27.936
27.9898
27.4093
27.5633
27.6875
27.8473
27.9793
28.1045
28.1921
28.2356
28.2287
28.1974
28.123
28.037
27.8714
27.7662
27.5673
27.5262
27.3662
27.3537
27.3475
27.4361
27.5509
27.6987
27.8181
27.885
27.9226
27.9614
27.9976
28.0426
28.0707
28.1355
27.5923
27.7556
27.897
28.0583
28.1896
28.3057
28.3803
28.408
28.3902
28.3472
28.2623
28.1666
27.9955
27.8841
27.6745
27.627
27.4559
27.4339
27.4149
27.4932
27.5998
27.7495
27.8789
27.9577
28.0079
28.0605
28.1149
28.1776
28.2278
28.3061
27.7983
27.9692
28.1219
28.2812
28.4085
28.5121
28.5718
28.5829
28.5537
28.4986
28.4039
28.3018
28.1255
28.0099
27.7977
27.7655
27.5907
27.5621
27.5277
27.594
27.687
27.8278
27.9577
28.0412
28.099
28.1646
28.2371
28.3246
28.3989
28.4911
28.0202
28.1918
28.3486
28.5008
28.6191
28.7092
28.7545
28.7515
28.7121
28.6468
28.5457
28.4388
28.2621
28.1538
27.9473
27.9322
27.7532
27.7205
27.6707
27.7242
27.8038
27.9317
28.0578
28.1488
28.2223
28.2933
28.3758
28.4725
28.5682
28.6828
28.2881
28.4435
28.5905
28.7279
28.8331
28.9102
28.9416
28.9287
28.882
28.8106
28.6991
28.5771
28.4013
28.3072
28.1159
28.1308
27.958
27.9287
27.8685
27.9098
27.9754
28.0866
28.2031
28.3007
28.3857
28.4704
28.5672
28.6824
28.8053
28.9368
28.1621
27.5553
27.4834
27.2544
27.1346
27.1206
27.1707
27.2674
27.3682
27.4784
27.5442
27.5579
27.426
27.0627
26.6962
26.5487
26.4494
26.4765
26.5159
26.6129
26.6983
26.8479
26.9472
26.9204
26.9292
26.9819
27.1131
27.225
27.534
27.5665
28.04
27.3858
27.3918
27.2028
27.1327
27.1415
27.2082
27.3112
27.4132
27.522
27.5826
27.5895
27.4509
27.0824
26.7188
26.5726
26.469
26.4881
26.5233
26.6215
26.7095
26.8609
26.9654
26.9501
26.9599
27.0096
27.1441
27.2554
27.5726
27.6067
27.8977
27.2778
27.3055
27.1489
27.1176
27.1443
27.2245
27.3336
27.4366
27.5415
27.5961
27.597
27.4535
27.0853
26.7266
26.5838
26.479
26.494
26.526
26.6235
26.7118
26.8623
26.9673
26.9571
26.9687
27.02
27.1562
27.2637
27.5795
27.6048
27.7145
27.1552
27.2027
27.0859
27.0922
27.1377
27.2271
27.3461
27.4517
27.5575
27.6068
27.6042
27.4559
27.0861
26.7283
26.5827
26.4771
26.4908
26.5167
26.6087
26.695
26.8368
26.9445
26.9453
26.9623
27.0204
27.1572
27.2637
27.5626
27.5956
27.5125
27.0355
27.1002
27.0233
27.059
27.1225
27.2203
27.3434
27.45
27.5562
27.6055
27.6045
27.443
27.0734
26.722
26.5761
26.4707
26.4845
26.5047
26.5907
26.6713
26.8029
26.9103
26.9227
26.9401
26.9977
27.1314
27.2396
27.5063
27.5752
27.2951
26.9259
26.9993
26.9605
27.0206
27.1008
27.2073
27.3351
27.4429
27.5494
27.5975
27.5916
27.4163
27.0518
26.7117
26.5671
26.4632
26.4793
26.4946
26.5739
26.6481
26.7678
26.8722
26.8952
26.9131
26.9648
27.0905
27.1994
27.4258
27.5513
27.0737
26.8292
26.9028
26.8998
26.9797
27.0744
27.1898
27.3224
27.4313
27.5383
27.5831
27.5718
27.3837
27.0273
26.6996
26.5579
26.4565
26.4769
26.4905
26.565
26.6305
26.7365
26.834
26.8662
26.8851
26.9294
27.0416
27.1547
27.3305
27.5222
26.8616
26.7432
26.8136
26.8414
26.9383
27.0454
27.169
27.3064
27.4163
27.5236
27.5637
27.5467
27.3472
27.0019
26.6877
26.5504
26.4542
26.4782
26.4916
26.5664
26.6244
26.7136
26.8012
26.8391
26.8594
26.8969
26.9924
27.1119
27.2334
27.4897
26.666
26.6688
26.732
26.7882
26.8971
27.0156
27.1464
27.2882
27.399
27.5057
27.5403
27.5175
27.3076
26.9775
26.6774
26.5473
26.4556
26.4817
26.4946
26.5695
26.6255
26.7036
26.7775
26.8181
26.838
26.8695
26.9467
27.0715
27.1438
27.4573
26.5072
26.6011
26.6579
26.7424
26.8576
26.9866
27.1233
27.2689
27.3804
27.4854
27.5142
27.4858
27.2666
26.9554
26.67
26.5499
26.4581
26.4875
26.5013
26.5759
26.6303
26.7044
26.7623
26.8041
26.8239
26.8498
26.9083
27.0329
27.0647
27.4107
26.3875
26.5472
26.5952
26.7022
26.8222
26.96
27.1011
27.2496
27.3616
27.4644
27.4872
27.4533
27.2278
26.9371
26.6671
26.5571
26.4628
26.4971
26.5126
26.5874
26.6397
26.7108
26.7627
26.8014
26.8208
26.843
26.8803
26.9993
26.9997
27.3572
26.2931
26.5027
26.5448
26.6684
26.7917
26.9367
27.0809
27.2317
27.3438
27.4442
27.4607
27.4214
27.1939
26.9271
26.6692
26.5678
26.4715
26.5106
26.5286
26.6053
26.655
26.7229
26.7694
26.806
26.8245
26.8464
26.867
26.9731
26.9542
27.3066
26.2278
26.4678
26.5065
26.6412
26.7667
26.9173
27.0636
27.2161
27.3281
27.4261
27.4362
27.3919
27.165
26.9275
26.6761
26.583
26.4845
26.5281
26.5489
26.6286
26.6778
26.7424
26.7833
26.8174
26.8347
26.8552
26.8692
26.9582
26.9269
27.261
26.1904
26.4414
26.4781
26.6207
26.7477
26.9025
27.0502
27.2039
27.3157
27.4118
27.4151
27.3669
27.1424
26.9328
26.6877
26.6034
26.5018
26.5498
26.5732
26.6577
26.7074
26.7705
26.8069
26.8384
26.8534
26.8721
26.8791
26.9592
26.9157
27.2205
26.1749
26.4234
26.4597
26.6073
26.7352
26.8928
27.0412
27.1954
27.3069
27.4025
27.399
27.3481
27.1328
26.9433
26.7033
26.6292
26.5233
26.5755
26.6009
26.6918
26.7436
26.8063
26.8396
26.8684
26.8808
26.8975
26.896
26.9661
26.9194
27.187
26.1729
26.4134
26.4509
26.6012
26.7295
26.8887
27.0374
27.1917
27.3029
27.3979
27.3895
27.3428
27.1347
26.9601
26.7244
26.6604
26.5489
26.6053
26.6319
26.7297
26.7853
26.8489
26.8801
26.9066
26.9166
26.9318
26.9228
26.982
26.9317
27.1623
26.1901
26.4119
26.4513
26.6037
26.7326
26.8943
27.0435
27.1986
27.3087
27.401
27.3904
27.3466
27.1422
26.984
26.7515
26.6969
26.5783
26.6387
26.6665
26.77
26.8307
26.8973
26.9273
26.9519
26.96
26.9736
26.9593
27.0087
26.9532
27.1526
26.2227
26.4286
26.4739
26.6255
26.7566
26.9195
27.0692
27.2248
27.332
27.4159
27.3977
27.3565
27.1553
27.0158
26.7849
26.7387
26.6118
26.6755
26.704
26.8126
26.8785
26.9493
26.98
27.0032
27.0097
27.0225
27.0049
27.0456
26.9846
27.1577
26.2729
26.4689
26.5203
26.6695
26.8035
26.9649
27.1147
27.2666
27.3644
27.4389
27.4139
27.373
27.1771
27.0571
26.8252
26.7859
26.6495
26.7161
26.7435
26.8574
26.9284
27.004
27.0372
27.0587
27.0653
27.0775
27.0591
27.0923
27.0313
27.1741
26.3408
26.5326
26.5841
26.7356
26.8696
27.0282
27.1744
27.3193
27.4074
27.4723
27.4416
27.4015
27.2107
27.1083
26.8732
26.8398
26.6922
26.76
26.7848
26.903
26.9795
27.0609
27.0969
27.1173
27.1251
27.1372
27.1211
27.1493
27.0938
27.2077
26.4254
26.6094
26.6636
26.8157
26.9494
27.1055
27.2478
27.3855
27.4629
27.518
27.4827
27.4434
27.2573
27.1706
26.9303
26.902
26.742
26.8067
26.8271
26.9479
27.0305
27.1186
27.1576
27.1787
27.1875
27.201
27.1905
27.216
27.1708
27.26
26.5252
26.6989
26.759
26.9113
27.0442
27.1976
27.3353
27.4646
27.5318
27.5776
27.5386
27.5002
27.3181
27.2451
26.9978
26.9742
26.7974
26.8569
26.8697
26.9911
27.079
27.1761
27.2186
27.2426
27.2523
27.2688
27.2667
27.2913
27.2589
27.332
26.6375
26.8019
26.8709
27.0226
27.1554
27.3055
27.4374
27.5578
27.6156
27.653
27.6112
27.5739
27.3949
27.333
27.0768
27.058
26.8575
26.9102
26.9125
27.0324
27.1243
27.2311
27.2799
27.3071
27.3204
27.3414
27.3484
27.3749
27.3581
27.4216
26.7626
26.919
26.9998
27.1511
27.2844
27.43
27.5556
27.667
27.7165
27.7459
27.7021
27.6655
27.4884
27.4339
27.1675
27.149
26.9238
26.9682
26.9563
27.0723
27.1668
27.2828
27.3407
27.372
27.3927
27.419
27.4367
27.4681
27.4687
27.5282
26.9014
27.0523
27.1476
27.2988
27.4328
27.5729
27.6916
27.7938
27.8353
27.8568
27.8111
27.7742
27.5975
27.5469
27.2677
27.2473
26.9983
27.0342
27.0043
27.1141
27.2085
27.3326
27.4011
27.4389
27.47
27.5034
27.5344
27.5749
27.591
27.6519
27.058
27.2065
27.3174
27.4677
27.6012
27.7344
27.845
27.9374
27.9703
27.9833
27.9348
27.8957
27.7188
27.6704
27.3727
27.36
27.0843
27.112
27.0619
27.163
27.2539
27.3828
27.4632
27.5095
27.5509
27.5981
27.6416
27.6955
27.7287
27.7951
27.2369
27.3853
27.5085
27.6556
27.7859
27.9103
28.0111
28.0922
28.1153
28.1187
28.0659
28.0238
27.8474
27.7956
27.4868
27.4869
27.1854
27.2067
27.1355
27.2252
27.309
27.4376
27.5276
27.5849
27.6385
27.697
27.7588
27.8281
27.8814
27.9571
27.432
27.5793
27.709
27.8507
27.9748
28.0889
28.1787
28.2475
28.2598
28.2543
28.1962
28.1525
27.9749
27.9236
27.6066
27.6314
27.3085
27.325
27.2323
27.3085
27.3813
27.5037
27.5974
27.6659
27.7316
27.8011
27.8762
27.9628
28.0412
28.1308
27.6246
27.7704
27.9026
28.0371
28.1515
28.2539
28.3334
28.3899
28.3921
28.379
28.3164
28.274
28.0923
28.0505
27.7341
27.7904
27.4498
27.4682
27.3563
27.4195
27.4797
27.5909
27.6814
27.7581
27.8323
27.9122
28.0007
28.1005
28.1932
28.2918
27.8221
27.9506
28.0772
28.2013
28.3053
28.395
28.464
28.5088
28.504
28.485
28.4179
28.37
28.1866
28.1653
27.861
27.9624
27.6148
27.6396
27.5138
27.5655
27.6116
27.7103
27.7955
27.8758
27.9552
28.0423
28.1382
28.2466
28.359
28.4752
28.4361
27.5815
27.4499
27.1002
26.8869
26.8125
26.8286
26.9226
27.0349
27.184
27.29
27.3874
27.326
26.9715
26.5886
26.4876
26.4018
26.4625
26.4871
26.5635
26.555
26.586
26.596
26.6135
26.668
26.7514
26.9222
27.06
27.4647
27.4918
28.2548
27.3364
27.3153
27.0146
26.8647
26.82
26.8617
26.9676
27.0851
27.2353
27.3374
27.4301
27.3576
26.9926
26.615
26.5107
26.4115
26.4547
26.4723
26.5494
26.5497
26.5917
26.6115
26.6351
26.6925
26.7798
26.956
27.0943
27.5108
27.5391
28.0537
27.1828
27.1965
26.9381
26.835
26.8233
26.8854
26.9998
27.1184
27.2647
27.3594
27.4443
27.3618
27.0014
26.6273
26.5248
26.4155
26.4435
26.4512
26.529
26.5337
26.5806
26.6063
26.6384
26.7004
26.7897
26.9685
27.1033
27.5171
27.5196
27.8011
27.0244
27.0602
26.8484
26.798
26.8169
26.8956
27.0231
27.1445
27.2909
27.3783
27.4572
27.3639
27.0049
26.6282
26.5248
26.4088
26.43
26.4281
26.5023
26.5077
26.5554
26.5833
26.6179
26.6861
26.782
26.9624