/*--------------------------------*- C++ -*----------------------------------*\
  =========                 |
  \\      /  F ield         | OpenFOAM: The Open Source CFD Toolbox
   \\    /   O peration     | Website:  https://openfoam.org
    \\  /    A nd           | Version:  12
     \\/     M anipulation  |
\*---------------------------------------------------------------------------*/
FoamFile
{
    format      ascii;
    class       volScalarField;
    location    "1550/air";
    object      alphat;
}
// * * * * * * * * * * * * * * * * * * * * * * * * * * * * * * * * * * * * * //

dimensions      [1 -1 -1 0 0 0 0];

internalField   nonuniform List<scalar> 
243000
(
0.000147904
0.000150681
0.000150004
0.000147636
0.000143977
0.000139421
0.000134335
0.000129007
0.000123653
0.000118441
0.000113471
0.00010887
0.000104731
0.000101109
9.79693e-05
9.52841e-05
9.30169e-05
9.12363e-05
9.00658e-05
8.96297e-05
8.98943e-05
9.05811e-05
9.11904e-05
9.10795e-05
8.97147e-05
8.64026e-05
8.35741e-05
0.000365497
0.000330149
0.000290545
0.00055052
0.000556772
0.00054601
0.000527167
0.000504942
0.000481444
0.00045788
0.000435026
0.000413361
0.000393193
0.000374708
0.000358128
0.000343508
0.000330921
0.000320348
0.000311783
0.000305224
0.000301108
0.000299888
0.000302052
0.000307439
0.000315011
0.000322967
0.000329067
0.000331248
0.000327835
0.000316082
0.000302342
0.000282257
0.000253166
0.000679655
0.000728387
0.000746038
0.000749588
0.000744696
0.000734478
0.000720759
0.000704799
0.00068742
0.000669262
0.000650782
0.000632494
0.000614626
0.000597566
0.000581582
0.00056697
0.000554053
0.000543897
0.000537263
0.000534734
0.000535713
0.000538371
0.000539983
0.000537497
0.000528192
0.00051
0.000482735
0.000445493
0.000402575
0.000348205
0.000667571
0.000728791
0.000757815
0.000768508
0.000767973
0.000760665
0.000748887
0.000734244
0.000717734
0.000700139
0.00068202
0.000663929
0.000646175
0.000629235
0.000613473
0.000599292
0.000587135
0.000578142
0.000572904
0.000571722
0.000573724
0.000577133
0.000579473
0.000578058
0.000570178
0.000553702
0.000528319
0.00049237
0.000449832
0.000396117
0.000635685
0.000705268
0.00074501
0.000764502
0.0007709
0.000768653
0.000760658
0.000749077
0.000734873
0.000719063
0.000702348
0.000685336
0.000668456
0.000652294
0.000637306
0.000624024
0.000613
0.000605366
0.000601521
0.000601456
0.000604069
0.000607692
0.000610141
0.00060914
0.000602178
0.000587224
0.000563707
0.0005302
0.000489608
0.000438849
0.000597955
0.000663978
0.000713044
0.000742592
0.000757648
0.000762408
0.000760116
0.000752536
0.000741597
0.000728541
0.000714076
0.00069885
0.000683437
0.000668557
0.00065473
0.000642679
0.000633017
0.000626822
0.000624312
0.000625175
0.000628192
0.000631786
0.000634064
0.000633129
0.000626754
0.000613092
0.000591413
0.000560595
0.000522609
0.00047545
0.00058054
0.000623329
0.000670143
0.000707304
0.00073146
0.000744189
0.000748512
0.000746481
0.000740067
0.000730479
0.000718761
0.000705903
0.000692445
0.00067924
0.000666895
0.000656317
0.000648149
0.0006434
0.000642137
0.000643793
0.000647099
0.00065057
0.000652568
0.000651524
0.000645531
0.000632943
0.000613002
0.000584819
0.000549703
0.000506233
0.000587413
0.000601978
0.000635678
0.000671314
0.000699184
0.000717587
0.000728492
0.000732425
0.000731127
0.000725843
0.000717686
0.000707594
0.000696424
0.000685238
0.000674643
0.00066571
0.000659114
0.000655781
0.000655665
0.000658015
0.000661554
0.000664888
0.000666594
0.000665375
0.000659633
0.000647949
0.000629603
0.000603893
0.000571755
0.000531794
0.000610033
0.000599958
0.000613848
0.000640775
0.000668321
0.000689979
0.000704735
0.000712889
0.000716479
0.000715739
0.000711501
0.000704698
0.000696294
0.000687295
0.000678632
0.000671455
0.000666465
0.000664501
0.000665427
0.000668405
0.000672157
0.000675382
0.000676842
0.000675454
0.000669899
0.000658985
0.000642097
0.000618727
0.000589424
0.000552768
0.000642444
0.000618045
0.000609776
0.00062062
0.000641608
0.000663155
0.000680477
0.000692132
0.000698908
0.0007017
0.000701254
0.000697917
0.000692463
0.000685942
0.000679378
0.000674032
0.000670648
0.000669986
0.000671866
0.000675421
0.000679388
0.000682561
0.000683854
0.000682348
0.00067697
0.000666753
0.000651253
0.000629905
0.000603187
0.000569687
0.000676633
0.000647926
0.000624941
0.000616747
0.000624193
0.000640098
0.000657028
0.000670832
0.000680463
0.000686071
0.000688258
0.000688078
0.000685608
0.000681695
0.000677321
0.000673846
0.000672045
0.000672616
0.000675376
0.000679461
0.000683653
0.000686843
0.000688063
0.000686515
0.000681365
0.000671816
0.000657435
0.00063789
0.00061355
0.000583189
0.000710811
0.000683528
0.000654151
0.000631441
0.000621953
0.000625929
0.000637479
0.000650555
0.000661742
0.000669733
0.000674381
0.000676265
0.000676416
0.00067504
0.000672875
0.000671262
0.000670977
0.000672716
0.000676275
0.000680865
0.000685307
0.000688593
0.000689828
0.000688331
0.000683423
0.000674428
0.000661082
0.000643153
0.000620964
0.000593471
0.000744425
0.000719192
0.000689281
0.000659992
0.000637203
0.00062613
0.00062674
0.000634484
0.00064445
0.000653456
0.000660035
0.000663948
0.000665769
0.000666547
0.000666471
0.000666633
0.000667786
0.000670575
0.000674864
0.000679919
0.000684655
0.000688105
0.00068944
0.000688012
0.000683305
0.000674859
0.000662516
0.000646076
0.000625813
0.000600917
0.000777094
0.000753294
0.000725377
0.000695304
0.000666029
0.000642739
0.000629779
0.000627277
0.000631754
0.000639039
0.000646107
0.000651459
0.000654848
0.000656961
0.000658591
0.000660344
0.000662809
0.000666542
0.00067146
0.000676932
0.000681945
0.000685607
0.000687147
0.000685942
0.000681569
0.000673644
0.000662121
0.000646977
0.000628473
0.000605934
0.000808683
0.000786254
0.000761359
0.000732648
0.000702031
0.000672316
0.000648113
0.00063318
0.000627889
0.000629521
0.000634419
0.000639745
0.000644065
0.000647217
0.000649861
0.000652846
0.000656411
0.000660949
0.000666391
0.000672204
0.000677469
0.000681366
0.000683178
0.000682294
0.000678364
0.000671043
0.000660342
0.00064631
0.000629319
0.000608897
0.000839098
0.000817944
0.000794995
0.000768738
0.000739637
0.000708552
0.000678295
0.000653076
0.000636319
0.00062862
0.00062778
0.000630563
0.000634375
0.000637926
0.000641078
0.000644693
0.000649017
0.000654156
0.00065999
0.000666048
0.000671517
0.000675644
0.000677766
0.000677274
0.000673862
0.000667268
0.000657445
0.000644574
0.000629074
0.000610701
0.00086819
0.000848252
0.000826912
0.000803029
0.000776235
0.000746407
0.000714612
0.000683638
0.00065739
0.000639064
0.000629357
0.000626425
0.000627412
0.00063
0.00063303
0.000636585
0.000641147
0.000646582
0.000652621
0.000658803
0.000664399
0.000668726
0.000671178
0.000671138
0.00066833
0.000662733
0.00065418
0.000642668
0.000628598
0.000611989
0.00089577
0.000876956
0.000857038
0.000835273
0.00081081
0.000783156
0.000752376
0.00071972
0.000687962
0.000660816
0.000641255
0.000629975
0.000625373
0.000624913
0.000626571
0.000629475
0.000633536
0.000638767
0.000644726
0.000650866
0.000656494
0.000661011
0.000663953
0.000664632
0.00066271
0.000658088
0.000650708
0.000640498
0.000627797
0.000612765
0.000921611
0.000903801
0.000885191
0.000865331
0.00084303
0.000817701
0.000788965
0.000757083
0.000723492
0.00069102
0.00066322
0.000642829
0.000630432
0.000624565
0.000623023
0.000624153
0.00062712
0.000631561
0.000637018
0.000642927
0.000648598
0.000653375
0.000656735
0.000658057
0.000656945
0.00065326
0.000646985
0.000637994
0.000626596
0.00061299
0.000945503
0.00092867
0.000911501
0.000893305
0.000872929
0.000849768
0.000823292
0.000793279
0.000760208
0.000725735
0.000692756
0.000664658
0.000643865
0.000630758
0.000624004
0.000621789
0.00062265
0.000625689
0.000630222
0.000635583
0.000641044
0.0006459
0.000649556
0.000651418
0.000651028
0.000648217
0.000642953
0.000635121
0.000624959
0.000612667
0.000967369
0.000951628
0.000936113
0.000919294
0.000900572
0.000879337
0.000855024
0.000827204
0.000795832
0.000761635
0.000726496
0.000693358
0.000665384
0.000644537
0.000631048
0.000623805
0.000621202
0.00062189
0.000624844
0.000629187
0.000634088
0.000638759
0.000642528
0.00064478
0.000645006
0.000642982
0.000638641
0.000631899
0.000622893
0.000611835
0.000987354
0.000973238
0.000958669
0.000943046
0.000925792
0.000906307
0.000884028
0.00085845
0.00082927
0.000796642
0.000761574
0.000726154
0.000693313
0.000665742
0.000645116
0.000631584
0.000624097
0.000621223
0.000621668
0.000624316
0.000628152
0.000632265
0.000635872
0.000638303
0.000638999
0.000637644
0.000634126
0.000628392
0.000620461
0.000610557
0.00100519
0.000992023
0.000978523
0.000964148
0.000948359
0.000930592
0.000910304
0.000886986
0.000860217
0.000829839
0.000796254
0.000760749
0.000725546
0.000693274
0.00066638
0.000646218
0.000632778
0.000625077
0.000621869
0.000621886
0.000623935
0.000626947
0.000629993
0.000632299
0.000633236
0.000632381
0.000629564
0.000624716
0.000617783
0.000608955
0.00102039
0.00100831
0.000995945
0.000982842
0.000968525
0.000952488
0.000934226
0.000913234
0.000889045
0.000861335
0.000830121
0.000796087
0.000760698
0.00072606
0.000694683
0.000668615
0.000648872
0.000635335
0.000627238
0.000623438
0.000622695
0.000623774
0.000625635
0.000627341
0.000628159
0.000627548
0.000625243
0.000621123
0.000615084
0.000607256
0.00103367
0.00102278
0.00101165
0.000999902
0.000987158
0.000972987
0.000956914
0.000938461
0.000917142
0.000892532
0.000864414
0.000833017
0.000799234
0.00076447
0.000730829
0.000700445
0.000674934
0.000655074
0.00064096
0.000631941
0.000626986
0.000624895
0.000624511
0.000624766
0.000624807
0.000623975
0.000621843
0.000618175
0.000612841
0.000605888
0.0010458
0.00103647
0.00102691
0.00101691
0.00100616
0.000994313
0.000980958
0.000965641
0.000947866
0.000927127
0.000903035
0.000875481
0.000844871
0.000812131
0.000778656
0.00074617
0.000716292
0.000690417
0.00066957
0.000653861
0.000642826
0.000635598
0.000631125
0.000628332
0.000626264
0.000624104
0.000621293
0.000617416
0.000612265
0.000605842
0.00106017
0.00105333
0.00104629
0.00103896
0.00103117
0.00102268
0.00101316
0.0010022
0.000989279
0.000973792
0.000955177
0.000933054
0.000907444
0.0008789
0.000848327
0.000816527
0.000784526
0.000754095
0.000726784
0.000703486
0.000684492
0.00066959
0.000658181
0.000649473
0.000642619
0.00063678
0.00063127
0.000625554
0.000619273
0.000612426
0.00108914
0.00108642
0.0010834
0.00108031
0.00107728
0.00107424
0.00107089
0.00106676
0.00106115
0.00105326
0.00104239
0.00102799
0.00100988
0.000988269
0.000963804
0.000936197
0.000905432
0.000873587
0.00084219
0.000812594
0.000785619
0.000761678
0.000740794
0.000722815
0.000707358
0.000693744
0.000681434
0.000670009
0.000659121
0.000649279
0.0011825
0.00118491
0.001187
0.00119047
0.0011958
0.00120221
0.00120882
0.00121468
0.00121895
0.00122057
0.00121896
0.00121392
0.00120524
0.00119332
0.00117815
0.00115889
0.00113427
0.00110689
0.00107818
0.00104934
0.00102112
0.000993955
0.000968188
0.000944187
0.000921995
0.000900172
0.000878982
0.000858803
0.000840051
0.000824318
0.00152724
0.00152566
0.00152824
0.0015373
0.00154899
0.00155844
0.00156594
0.00157158
0.0015756
0.00157625
0.00157483
0.00157202
0.00156794
0.00156329
0.00155718
0.00154934
0.00153664
0.00152421
0.00151231
0.00150181
0.00149239
0.00148413
0.00147688
0.00147095
0.001466
0.00145585
0.00144439
0.00143273
0.00142293
0.00141486
0.000186441
0.000190843
0.000188771
0.000184059
0.000177745
0.000170491
0.000162789
0.000155036
0.000147501
0.000140382
0.000133826
0.000127989
0.000122903
0.000118646
0.000115199
0.000112602
0.000110872
0.00011024
0.00011106
0.000113488
0.000116949
0.00012037
0.000122707
0.000123125
0.000121041
0.000115836
0.000107182
9.39716e-05
8.12704e-05
0.00036549
0.000785939
0.000882252
0.000858345
0.00079215
0.00071598
0.000643519
0.000579462
0.000524221
0.000476821
0.000436523
0.000402838
0.000374475
0.00035034
0.000330318
0.000313515
0.000299874
0.000288811
0.000281955
0.000279512
0.000282191
0.000290319
0.000303238
0.00031821
0.000330938
0.000335592
0.000329619
0.000313594
0.000286749
0.000271475
0.000311439
0.00121917
0.00139845
0.00141167
0.00134763
0.00125398
0.00115305
0.00105601
0.000967769
0.000889218
0.000820824
0.000762568
0.000713025
0.000670663
0.000635564
0.000606465
0.000582673
0.000563065
0.000549492
0.000539376
0.000533322
0.000534335
0.000544513
0.000561118
0.000577344
0.000584277
0.000573927
0.000546181
0.00049811
0.000456759
0.000444792
0.00148958
0.00171478
0.00175877
0.00171752
0.00163472
0.00153342
0.00142816
0.00132773
0.0012349
0.00115159
0.00107906
0.0010168
0.000963597
0.000920029
0.000885039
0.000857445
0.00083599
0.000821076
0.000806772
0.000792853
0.000783918
0.00078531
0.000796109
0.000810595
0.000815294
0.000800765
0.000764671
0.000702593
0.000638528
0.00059835
0.00163571
0.0018513
0.00193789
0.00193548
0.00187437
0.00178629
0.00168727
0.0015903
0.00149614
0.00140831
0.00133084
0.00126342
0.00120592
0.0011597
0.00112402
0.00109783
0.00108
0.0010679
0.00105149
0.00103195
0.00101501
0.00100725
0.00101058
0.00102046
0.00102244
0.00100511
0.000964531
0.000895244
0.000816961
0.000758785
0.00170867
0.00191236
0.00201148
0.00203513
0.00200358
0.00194161
0.00186225
0.00177048
0.00167919
0.00159382
0.00152029
0.00145387
0.00139748
0.00135321
0.00132098
0.00130008
0.0012894
0.00128179
0.00126736
0.00124471
0.00122084
0.00120525
0.00120137
0.00120755
0.0012061
0.00118708
0.00114455
0.0010728
0.000987681
0.000918371
0.00174156
0.00189406
0.00199254
0.00203495
0.0020332
0.0019998
0.00194418
0.00187409
0.00180044
0.0017263
0.00165518
0.00159305
0.00154246
0.00150398
0.00147842
0.00146617
0.00146444
0.00146312
0.00145113
0.00142718
0.00139983
0.00137884
0.00136842
0.00136982
0.00136748
0.00134774
0.00130524
0.00123459
0.00114709
0.00107008
0.0017275
0.00181597
0.00189101
0.00194524
0.00197508
0.00197872
0.00195292
0.00190989
0.00185665
0.00179904
0.00174154
0.00169012
0.00164661
0.00161628
0.00159984
0.00159863
0.0016069
0.00161343
0.00160505
0.00158186
0.00155369
0.001529
0.00151298
0.00150972
0.00150564
0.00148791
0.0014474
0.00138047
0.00129455
0.00121264
0.00171669
0.00174272
0.0017828
0.0018255
0.00186377
0.00188945
0.00189571
0.00188651
0.00185945
0.00182329
0.00178345
0.00174592
0.00171438
0.00169454
0.00168894
0.00169982
0.00171905
0.00173379
0.00173142
0.00171179
0.00168396
0.00165657
0.00163651
0.00162893
0.00162212
0.00160664
0.00157224
0.00151129
0.00143017
0.00134447
0.00175446
0.00171151
0.00169768
0.00171184
0.00174005
0.00177219
0.00179765
0.00181275
0.00181447
0.00180457
0.00178607
0.00176611
0.00174947
0.00174282
0.00174935
0.00177259
0.00180286
0.00182538
0.00183067
0.00181662
0.00179087
0.00176317
0.00174067
0.00172931
0.00172023
0.00170732
0.00167812
0.00162548
0.00155
0.00146412
0.00181175
0.00172901
0.00165954
0.00162952
0.00163091
0.00165299
0.00168293
0.00171215
0.00173447
0.00174892
0.00175453
0.00175492
0.00175565
0.00176435
0.00178377
0.00181965
0.00186089
0.00189469
0.00190745
0.00189873
0.00187643
0.00185067
0.00182739
0.00181235
0.00180121
0.00178818
0.0017629
0.00171932
0.00165299
0.00157238
0.00190269
0.00178601
0.0016785
0.0015996
0.00155854
0.00155715
0.00157581
0.001606
0.00163871
0.0016692
0.00169514
0.0017173
0.00173703
0.00176181
0.00179518
0.0018437
0.00189568
0.00193844
0.00196014
0.00196045
0.00194466
0.0019217
0.00189833
0.00187979
0.00186376
0.00184772
0.00182743
0.00179291
0.00173838
0.00166661
0.00202064
0.00188253
0.00174497
0.00163039
0.00155218
0.00151031
0.00150032
0.00151734
0.00154709
0.00158331
0.00162128
0.00165952
0.00169796
0.00173923
0.0017868
0.00184765
0.00190987
0.00196152
0.00199208
0.00200111
0.00199295
0.00197488
0.00195372
0.00193383
0.00191632
0.00189738
0.00187616
0.0018486
0.00180524
0.00174545
0.00217018
0.00202152
0.00186653
0.0017246
0.00160888
0.00152704
0.00148223
0.00146904
0.00148126
0.00151024
0.00154928
0.0015951
0.00164561
0.00170156
0.00176269
0.00183487
0.00190649
0.00196662
0.00200606
0.00202433
0.00202409
0.00201196
0.00199441
0.00197527
0.00195764
0.00193874
0.00191702
0.00189143
0.00185935
0.00181351
0.00234678
0.00219709
0.00203638
0.00187851
0.00173504
0.0016163
0.00153074
0.00148009
0.00146147
0.0014694
0.00149674
0.0015396
0.00159314
0.0016561
0.00172802
0.00180953
0.00188908
0.00195672
0.00200475
0.00203177
0.00203969
0.00203425
0.00202149
0.00200503
0.00198877
0.00197146
0.00195186
0.00193031
0.00190507
0.00187053
0.00254571
0.00240414
0.00224735
0.00208368
0.0019229
0.00177575
0.00165327
0.00156231
0.00150522
0.00148058
0.00148367
0.00150977
0.00155499
0.00161595
0.00168988
0.00177703
0.00186197
0.00193545
0.00199086
0.00202589
0.0020418
0.00204349
0.0020366
0.00202467
0.00201143
0.00199792
0.00198264
0.00196329
0.00194064
0.00191443
0.00276158
0.00263599
0.00248962
0.00232722
0.00215854
0.00199361
0.00184303
0.00171609
0.00161917
0.00155524
0.00152375
0.00152204
0.00154671
0.00159387
0.00166039
0.00174459
0.00183073
0.00190734
0.00196796
0.00200996
0.00203346
0.00204244
0.00204262
0.00203715
0.00202846
0.00201772
0.00200453
0.00198743
0.00196692
0.00194368
0.00298794
0.00288101
0.00274853
0.00259387
0.00242615
0.00225363
0.00208538
0.00193104
0.00179918
0.00169604
0.00162509
0.00158708
0.00158072
0.00160281
0.00165014
0.00172165
0.00180218
0.00187772
0.00194095
0.00198868
0.00201944
0.00203573
0.00204141
0.00204056
0.0020355
0.00202781
0.00201737
0.00200395
0.00198537
0.00196456
0.00321652
0.00312677
0.00301132
0.00287015
0.00271015
0.00253835
0.00236202
0.00219003
0.00203148
0.00189436
0.00178487
0.00170717
0.00166247
0.00164989
0.00166861
0.00171688
0.00178208
0.00185145
0.00191435
0.00196433
0.00199905
0.00202007
0.00203071
0.00203445
0.00203362
0.00202922
0.00202201
0.00201171
0.00199643
0.00197872
0.00343689
0.00336474
0.0032674
0.00314261
0.00299487
0.00282978
0.00265318
0.00247245
0.00229605
0.00213247
0.00198925
0.00187294
0.00178749
0.0017352
0.00171682
0.00173262
0.00177475
0.00182975
0.00188612
0.00193492
0.00197213
0.00199711
0.00201245
0.00202043
0.00202378
0.00202342
0.00201972
0.00201292
0.00200229
0.00198778
0.00364239
0.00358564
0.00350518
0.00339712
0.00326381
0.00310911
0.00293765
0.00275503
0.00256832
0.00238544
0.00221445
0.00206341
0.00193871
0.00184635
0.00178608
0.00176401
0.0017736
0.00180765
0.00185318
0.00189693
0.00193581
0.00196542
0.00198641
0.00199858
0.00200655
0.00201087
0.00201127
0.0020086
0.00200257
0.00199277
0.00382372
0.00377801
0.00371078
0.00361736
0.00349812
0.00335501
0.00319116
0.00301039
0.002818
0.00262087
0.00242719
0.00224628
0.00208647
0.0019566
0.00185632
0.00179363
0.00176692
0.0017722
0.00180064
0.00184052
0.00188079
0.00191566
0.00194282
0.00196322
0.00197909
0.00198929
0.00199517
0.00199771
0.00199757
0.00199449
0.00396492
0.00392389
0.00386453
0.0037816
0.00367364
0.00354051
0.00338338
0.00320433
0.00300716
0.00279823
0.00258625
0.00238168
0.00219417
0.00203321
0.00190147
0.00180184
0.00173734
0.00170899
0.0017132
0.00174154
0.00178298
0.00182832
0.00186824
0.00190148
0.00192795
0.00194861
0.0019653
0.00197796
0.00198675
0.00199209
0.00403825
0.00399505
0.00393715
0.0038591
0.00375763
0.00363036
0.00347631
0.00329628
0.00309399
0.00287683
0.00265475
0.00243894
0.00223832
0.00206077
0.00191206
0.00178795
0.00168967
0.00162565
0.00159596
0.00159871
0.00162811
0.00167535
0.00172836
0.00177984
0.00182644
0.00186689
0.00190143
0.00193054
0.00195412
0.00197447
0.00400063
0.00394858
0.00388661
0.00380912
0.00371077
0.00358689
0.00343506
0.00325668
0.00305777
0.00284763
0.00263649
0.00243457
0.0022464
0.0020773
0.00193253
0.00180414
0.00168714
0.00159191
0.00152229
0.00148167
0.00147164
0.00149052
0.00153066
0.00158471
0.00164573
0.00170788
0.00176716
0.00182157
0.00186968
0.00191392
0.00379119
0.0037361
0.00367638
0.00360552
0.00351739
0.00340711
0.00327349
0.0031202
0.00295474
0.00278432
0.0026169
0.00245759
0.00230774
0.00217118
0.00205133
0.00193863
0.00182378
0.00171497
0.00161608
0.00153227
0.0014681
0.00142762
0.00141204
0.00142092
0.00145167
0.00149981
0.00155975
0.00162608
0.00169404
0.00176365
0.00340928
0.003377
0.00334744
0.00331279
0.00326573
0.00320123
0.00311909
0.00302381
0.002921
0.00281483
0.0027083
0.00260204
0.00249612
0.00239661
0.00230743
0.00221959
0.00212146
0.00201949
0.00191633
0.00181598
0.00172147
0.00163671
0.00156523
0.00151052
0.0014748
0.00145894
0.00146251
0.00148367
0.00151985
0.00157629
0.00308706
0.00311433
0.00314564
0.00316676
0.00317214
0.00315929
0.00312957
0.0030877
0.00303521
0.00297548
0.00291028
0.00284004
0.00276556
0.00269202
0.00262524
0.00255848
0.00248342
0.00240461
0.00232209
0.00223872
0.00215584
0.00207493
0.00199655
0.00192358
0.00185755
0.00180008
0.00175325
0.00171823
0.00169658
0.00170821
0.00305631
0.00309602
0.00314331
0.00318668
0.00321363
0.0032236
0.00321689
0.00319505
0.00316148
0.00311971
0.00307222
0.00301839
0.00296017
0.00290475
0.00285267
0.00280002
0.00274716
0.00269517
0.00264435
0.00259664
0.00255299
0.00251365
0.00247655
0.0024438
0.00241217
0.00238055
0.00235078
0.00232428
0.00230286
0.00230864
0.00314043
0.00317187
0.00320373
0.00323246
0.00324373
0.00324318
0.00323245
0.00321294
0.0031863
0.00315431
0.00311746
0.00307693
0.00303338
0.00299317
0.00295353
0.00291854
0.00288883
0.00286316
0.00284359
0.00283161
0.00282787
0.00283216
0.00284374
0.00285721
0.00287258
0.00288568
0.00289887
0.00291366
0.00292606
0.00293152
0.000220921
0.00022457
0.000219219
0.000211871
0.000203504
0.000194369
0.000184871
0.000175427
0.000166331
0.000157831
0.000150081
0.000143223
0.000137278
0.000132374
0.000128509
0.000125821
0.000124427
0.000124989
0.000128503
0.000134966
0.000142435
0.000148712
0.000152542
0.000153352
0.000150886
0.000144663
0.000134373
0.000118648
9.96984e-05
8.52973e-05
0.00101757
0.00114128
0.00113331
0.00106983
0.000978719
0.000886654
0.0008033
0.000730682
0.00066804
0.000614694
0.000569194
0.000530539
0.000496949
0.000468803
0.000443982
0.000422562
0.000403375
0.000392174
0.000391016
0.000402524
0.000425455
0.000454885
0.000483462
0.000503595
0.00050773
0.00049034
0.000455599
0.000406224
0.000362837
0.000318042
0.00161633
0.0018598
0.00190701
0.00184619
0.0017378
0.0016126
0.00148819
0.00137269
0.00126895
0.00117839
0.00109977
0.00103224
0.000973598
0.000924877
0.000883364
0.000847814
0.000816113
0.0007935
0.000777782
0.00077616
0.000793663
0.000827018
0.000865411
0.000895699
0.000899049
0.000872306
0.000814452
0.000726701
0.000637795
0.000564827
0.00204603
0.00233082
0.00241461
0.00237778
0.00228017
0.00215319
0.00201754
0.00188403
0.00175976
0.00164852
0.00155008
0.00146485
0.0013914
0.00133155
0.00128297
0.0012437
0.00121086
0.00118378
0.00115666
0.00114103
0.00114414
0.00116895
0.00120574
0.00123916
0.00124454
0.0012122
0.00114048
0.00102938
0.000907484
0.000806405
0.0023429
0.00263661
0.00273726
0.00272427
0.00264483
0.00253001
0.00239979
0.00226298
0.00213266
0.00201381
0.00190619
0.00181241
0.00173254
0.0016688
0.00162026
0.00158441
0.00155669
0.00152737
0.00148881
0.00146093
0.00145282
0.00146582
0.00149581
0.00152879
0.00153765
0.00150534
0.00142943
0.00130739
0.00116621
0.00104195
0.00255599
0.00280564
0.00292571
0.00294382
0.00289113
0.00278795
0.00266287
0.00252721
0.00240259
0.00228763
0.0021785
0.00208371
0.00200405
0.00194265
0.00189956
0.00187219
0.00185252
0.0018226
0.00177617
0.00173467
0.00171471
0.00171724
0.00173903
0.00176975
0.00178201
0.00175678
0.00168294
0.00156017
0.00141021
0.0012693
0.00270168
0.0029136
0.00302082
0.0030456
0.00301088
0.00293266
0.00283092
0.00272305
0.00260328
0.0024865
0.00237731
0.00228875
0.00221487
0.00216107
0.00212765
0.00211289
0.00210208
0.00207154
0.00201934
0.00196643
0.00193498
0.00192773
0.00194135
0.00196831
0.00198301
0.00196608
0.00190503
0.00178861
0.00163914
0.00148637
0.00282492
0.00296082
0.00303457
0.00305799
0.00303941
0.00298582
0.00290928
0.00282045
0.00272029
0.0026187
0.00252652
0.00244152
0.00237425
0.00233081
0.00231062
0.00231105
0.00230754
0.0022785
0.00222112
0.00215912
0.00211989
0.00210327
0.00210918
0.00213089
0.00214589
0.00213843
0.00209382
0.00199443
0.00185165
0.00169065
0.00290221
0.0029501
0.00298144
0.00299814
0.00299307
0.0029638
0.00291593
0.00285189
0.00277438
0.00269281
0.00261496
0.00254448
0.00248909
0.00245897
0.00245388
0.00247018
0.00247565
0.00244417
0.00238338
0.00231842
0.00227436
0.00224977
0.0022484
0.00226328
0.00227859
0.00227924
0.00224675
0.00216749
0.00203684
0.00187832
0.00294595
0.0029264
0.00291814
0.00291571
0.00291148
0.00289666
0.0028694
0.00282869
0.00277604
0.00271809
0.00265927
0.00260628
0.00256661
0.00255176
0.0025626
0.00259415
0.00260757
0.00257671
0.00251565
0.0024518
0.00240221
0.00237191
0.00236396
0.00237055
0.00237856
0.0023813
0.00236219
0.00230365
0.00219678
0.00205172
0.00300096
0.00293175
0.002874
0.00284063
0.00282237
0.00280884
0.00279407
0.0027719
0.00274101
0.00270441
0.0026674
0.0026338
0.00261219
0.00261467
0.00264139
0.00268699
0.00270726
0.00268029
0.00262294
0.00255966
0.00250764
0.00247498
0.00246025
0.00245858
0.0024596
0.00245838
0.00244569
0.00240775
0.00232625
0.00220507
0.00309523
0.00300062
0.00289279
0.00280128
0.00275494
0.00272698
0.00271199
0.00269995
0.00268496
0.00266693
0.00264842
0.002635
0.00263267
0.00265193
0.00269478
0.00275271
0.0027808
0.00276147
0.0027106
0.00265192
0.00259973
0.00256229
0.00254121
0.00253346
0.00253018
0.00252517
0.00251426
0.00248889
0.00243464
0.00233895
0.00319319
0.00307662
0.00294439
0.00282941
0.00273606
0.00267629
0.00264899
0.0026341
0.00262593
0.00262015
0.00261669
0.0026193
0.00263482
0.00266949
0.00272745
0.00279559
0.00282944
0.00281713
0.00277487
0.0027225
0.00267369
0.00263472
0.0026095
0.00259691
0.00259043
0.00258368
0.00257433
0.00255709
0.00252488
0.00245438
0.00332731
0.0031942
0.00303926
0.00289292
0.00277111
0.00268496
0.00263078
0.00259734
0.00258436
0.0025811
0.00258599
0.00260027
0.00262667
0.00267419
0.00274459
0.00282047
0.00286015
0.0028561
0.00282301
0.00277879
0.00273379
0.00269473
0.00266704
0.00265121
0.00264268
0.00263682
0.00263093
0.00261943
0.00259822
0.00254648
0.00349404
0.00334768
0.00318605
0.0030225
0.00287333
0.00275328
0.00266492
0.00260868
0.00258064
0.00256727
0.00257125
0.00258951
0.00262108
0.00267337
0.00275184
0.00283242
0.00287716
0.00288153
0.00285836
0.00282227
0.00278199
0.00274441
0.00271571
0.00269855
0.00268972
0.00268619
0.00268271
0.00267438
0.00265599
0.0026196
0.00369161
0.00355603
0.00339357
0.00321814
0.00304725
0.002896
0.0027735
0.00268436
0.00262764
0.00259693
0.0025868
0.00259836
0.00262678
0.0026769
0.00275457
0.002836
0.00288442
0.0028966
0.00288304
0.00285497
0.00282008
0.00278574
0.00275752
0.00274134
0.00273357
0.00273078
0.00272916
0.00272235
0.00270716
0.00267901
0.00393501
0.0038048
0.00364665
0.00346787
0.0032835
0.00310787
0.00295317
0.00282801
0.00273588
0.00267505
0.00264183
0.00263454
0.00264905
0.00268962
0.00275597
0.0028333
0.00288357
0.00290274
0.00289814
0.00287818
0.00284931
0.0028198
0.00279363
0.00277813
0.00277084
0.0027691
0.00276923
0.00276511
0.00275237
0.00272766
0.00419595
0.00407778
0.00392931
0.00375394
0.00356404
0.00337238
0.0031917
0.00303288
0.00290307
0.00280496
0.00273798
0.00270092
0.00269108
0.00270923
0.00275738
0.00282089
0.00287094
0.00289686
0.00290113
0.00288982
0.00286759
0.00284286
0.00282056
0.00280673
0.00280099
0.0028008
0.00280265
0.00280202
0.00279174
0.00277079
0.00446417
0.00435978
0.00422328
0.0040553
0.00386577
0.00366554
0.00346644
0.00327975
0.00311451
0.00297647
0.00286842
0.00279148
0.00274523
0.0027312
0.0027493
0.00279193
0.00283569
0.00286665
0.00287992
0.00288118
0.00286815
0.0028512
0.00283508
0.00282487
0.00282197
0.00282434
0.00282876
0.00283206
0.00282452
0.00280792
0.00472691
0.00463379
0.00450832
0.00434891
0.00416309
0.0039596
0.00374856
0.00354031
0.00334413
0.00316719
0.00301486
0.00289117
0.00279888
0.00274151
0.00272087
0.00273283
0.00276197
0.00279409
0.00282004
0.00283285
0.00283684
0.00283434
0.0028282
0.00282543
0.00282812
0.00283558
0.00284414
0.00285129
0.00284845
0.00283766
0.00496495
0.00487908
0.00476169
0.00460982
0.00442869
0.0042247
0.00400585
0.00378079
0.00355795
0.00334493
0.00314909
0.00297714
0.00283516
0.00272875
0.00266295
0.00263385
0.00263653
0.0026605
0.00269385
0.00272469
0.00274928
0.00276708
0.00277998
0.00279167
0.00280567
0.00282459
0.00284086
0.00285349
0.00285936
0.00285716
0.00515507
0.00507085
0.00495716
0.00481018
0.00463271
0.00442865
0.0042036
0.00396442
0.00371844
0.00347384
0.00324011
0.00302648
0.00284163
0.0026919
0.00258401
0.00251275
0.00247834
0.00247698
0.00250074
0.00253828
0.00258076
0.00262255
0.00266139
0.00269774
0.00273283
0.00276562
0.00279743
0.00282955
0.00285162
0.00286244
0.0052657
0.00517729
0.00506286
0.00491761
0.00474187
0.00453701
0.00430655
0.00405631
0.00379304
0.00352677
0.00326975
0.00303325
0.00282654
0.00265439
0.00252199
0.00242242
0.00235275
0.00231347
0.002303
0.00231737
0.0023515
0.00239949
0.002456
0.00251712
0.00257956
0.00264015
0.00269731
0.00274961
0.00278954
0.00282357
0.00525423
0.00515907
0.00504176
0.00489705
0.00472322
0.0045197
0.0042891
0.00403818
0.00377287
0.00350699
0.00325486
0.00302743
0.00283125
0.00266755
0.00253687
0.00243417
0.00234521
0.00227198
0.00221631
0.00218091
0.00216929
0.00218216
0.00221842
0.00227521
0.00234739
0.00242839
0.00251194
0.00259306
0.00266481
0.00272612
0.00507838
0.00497988
0.00486371
0.00472594
0.0045636
0.00437481
0.00416182
0.00393196
0.00369594
0.00346676
0.00325656
0.0030718
0.00291539
0.00278487
0.00267653
0.00258886
0.00249822
0.00240727
0.00231775
0.00223499
0.00216596
0.00211649
0.00209182
0.0020958
0.00212911
0.00218849
0.00226722
0.00235747
0.00245001
0.00253865
0.00472948
0.00463653
0.00453901
0.0044318
0.00430782
0.0041639
0.00400211
0.00382983
0.0036574
0.00349443
0.00334755
0.00321844
0.00310857
0.00301469
0.00293331
0.00286146
0.00277688
0.00268347
0.00258211
0.00247718
0.00237412
0.00227757
0.00219364
0.00212928
0.00209083
0.00208214
0.00210244
0.00214795
0.00221275
0.00229603
0.00429024
0.00423739
0.00419914
0.00416024
0.00410539
0.0040317
0.00394074
0.00383884
0.00373422
0.00363341
0.00353949
0.00345232
0.00337405
0.00330172
0.00323451
0.00316789
0.00308739
0.00299966
0.00290568