/*--------------------------------*- C++ -*----------------------------------*\
  =========                 |
  \\      /  F ield         | OpenFOAM: The Open Source CFD Toolbox
   \\    /   O peration     | Website:  https://openfoam.org
    \\  /    A nd           | Version:  12
     \\/     M anipulation  |
\*---------------------------------------------------------------------------*/
FoamFile
{
    format      ascii;
    class       volScalarField;
    location    "1550/air";
    object      epsilon;
}
// * * * * * * * * * * * * * * * * * * * * * * * * * * * * * * * * * * * * * //

dimensions      [0 2 -3 0 0 0 0];

internalField   nonuniform List<scalar> 
243000
(
2.41744
2.97428
3.40248
3.74434
3.98569
4.12514
4.17131
4.13707
4.0363
3.88288
3.68876
3.47087
3.24268
3.01406
2.7871
2.56388
2.34606
2.14304
1.96468
1.81818
1.6987
1.58845
1.46337
1.30232
1.1011
0.210004
0.180533
0.157165
0.1224
0.0926553
1.53146
1.84224
2.01401
2.09172
2.10917
2.08328
2.02548
1.94483
1.84806
1.74085
1.62761
1.51355
1.40143
1.29427
1.19341
1.10013
1.01536
0.943736
0.888784
0.853076
0.833264
0.819464
0.797656
0.753746
0.680202
0.578409
0.460608
0.342195
0.239875
0.148941
1.48521
1.825
1.95936
1.98644
1.94709
1.86749
1.76433
1.64929
1.52991
1.41152
1.29751
1.19091
1.09259
1.00394
0.925383
0.857316
0.800095
0.757106
0.730131
0.720455
0.725093
0.736576
0.743696
0.733794
0.696483
0.626936
0.53232
0.417881
0.308346
0.199592
1.40942
1.82951
2.05445
2.14108
2.13556
2.0744
1.97893
1.8646
1.74119
1.61586
1.49328
1.37727
1.26945
1.172
1.08597
1.01234
0.952071
0.909277
0.885301
0.880573
0.89068
0.907432
0.919113
0.912806
0.87619
0.802502
0.697199
0.564268
0.430291
0.293846
1.21891
1.66001
1.95341
2.1086
2.16051
2.14062
2.07373
1.97982
1.86879
1.75029
1.63064
1.51465
1.40516
1.30545
1.21736
1.14279
1.08343
1.04382
1.0247
1.02522
1.0396
1.05932
1.07288
1.0681
1.03216
0.957293
0.846857
0.704614
0.554852
0.399569
1.0159
1.38736
1.71445
1.93374
2.05178
2.08929
2.06949
2.0074
1.92051
1.82028
1.71353
1.60584
1.50158
1.40537
1.3198
1.24824
1.19296
1.15872
1.1456
1.15131
1.16912
1.19031
1.20402
1.19928
1.16375
1.08945
0.977959
0.832892
0.674782
0.508097
0.930166
1.14921
1.42498
1.67254
1.84742
1.94377
1.97654
1.95952
1.90865
1.8348
1.74738
1.6548
1.56157
1.47363
1.39456
1.32925
1.28045
1.25302
1.24648
1.25719
1.2778
1.29956
1.31244
1.3068
1.27146
1.19872
1.089
0.945595
0.785256
0.613299
0.96346
1.03568
1.21751
1.43141
1.61473
1.74363
1.82276
1.85124
1.84046
1.8001
1.73945
1.66658
1.58849
1.51284
1.44356
1.38697
1.3464
1.32665
1.32682
1.34225
1.36522
1.38712
1.39876
1.39183
1.35655
1.28597
1.17988
1.04116
0.883592
0.710947
1.07947
1.0258
1.0972
1.24604
1.41145
1.55105
1.65094
1.70753
1.73234
1.72609
1.69487
1.64611
1.58743
1.52633
1.46913
1.42301
1.39179
1.38013
1.38683
1.40669
1.43176
1.45367
1.46411
1.4559
1.42078
1.35275
1.25149
1.11977
0.968058
0.798411
1.26131
1.12188
1.07627
1.13314
1.25008
1.37822
1.48716
1.56332
1.60842
1.62674
1.62278
1.59903
1.56128
1.51719
1.47381
1.43928
1.41798
1.41442
1.4273
1.45126
1.47827
1.50031
1.50989
1.50077
1.46613
1.40107
1.30575
1.18154
1.03745
0.873979
1.47474
1.29364
1.15947
1.11304
1.15216
1.24059
1.33971
1.4242
1.48499
1.52083
1.53443
1.53242
1.51534
1.48907
1.46031
1.43791
1.42667
1.43092
1.44958
1.47724
1.50605
1.5285
1.53773
1.52825
1.49472
1.43313
1.34323
1.22701
1.09183
0.937592
1.7107
1.52
1.33106
1.19573
1.14103
1.16129
1.22484
1.29992
1.36652
1.41528
1.44383
1.45506
1.45527
1.44584
1.43163
1.42127
1.41969
1.43136
1.45514
1.48617
1.51675
1.53995
1.54936
1.54018
1.50812
1.44979
1.36563
1.25758
1.13186
0.988048
1.96616
1.77208
1.55887
1.36705
1.22862
1.16382
1.16534
1.20715
1.26314
1.31529
1.35413
1.37731
1.38779
1.392
1.39108
1.39193
1.39933
1.4175
1.44577
1.47969
1.51212
1.53638
1.5465
1.53784
1.50717
1.45241
1.37441
1.27474
1.15855
1.02569
2.23776
2.03766
1.81844
1.6003
1.405
1.26084
1.1841
1.16799
1.1912
1.23111
1.2709
1.30151
1.32092
1.33294
1.34233
1.35282
1.36811
1.39183
1.42372
1.45994
1.49389
1.51937
1.53082
1.52374
1.49552
1.44443
1.37185
1.27999
1.17333
1.05156
2.52326
2.31842
2.1043
1.87411
1.64752
1.44532
1.29274
1.20322
1.17111
1.17822
1.20415
1.23324
1.2572
1.2748
1.28977
1.30724
1.32874
1.35686
1.39141
1.42921
1.46429
1.49097
1.5041
1.49926
1.47426
1.42758
1.36069
1.27594
1.17799
1.06701
2.82027
2.61171
2.39734
2.16672
1.92877
1.6942
1.4844
1.32266
1.22103
1.17491
1.16809
1.18189
1.20198
1.22113
1.23845
1.25895
1.28428
1.31526
1.3514
1.38993
1.42562
1.45331
1.46825
1.46607
1.44482
1.40338
1.34268
1.26552
1.17649
1.07642
3.1255
2.9145
2.69941
2.47146
2.23133
1.98266
1.73832
1.51984
1.34897
1.23669
1.17873
1.16015
1.16383
1.17685
1.19282
1.21229
1.23815
1.26997
1.30637
1.34469
1.38033
1.40867
1.42539
1.42619
1.40916
1.37463
1.3225
1.25413
1.17368
1.08315
3.43462
3.22212
3.00689
2.78287
2.54464
2.29206
2.03097
1.77602
1.54883
1.36999
1.24916
1.18183
1.15391
1.14955
1.15735
1.17253
1.19478
1.22445
1.25933
1.29633
1.33122
1.36
1.37936
1.38465
1.3735
1.34559
1.30128
1.24126
1.16904
1.08716
3.74223
3.52881
3.31461
3.0958
2.86179
2.61062
2.34383
2.06952
1.80408
1.56939
1.38468
1.25799
1.184
1.14904
1.13877
1.14367
1.15921
1.18362
1.21463
1.24924
1.2834
1.31297
1.33438
1.34349
1.33755
1.31582
1.27876
1.22653
1.16218
1.08823
4.04255
3.82979
3.62055
3.40732
3.17867
2.93146
2.66491
2.38269
2.09525
1.8207
1.58088
1.39326
1.26363
1.18538
1.14552
1.13168
1.1352
1.15122
1.17624
1.20678
1.23879
1.26802
1.29065
1.30277
1.30129
1.28521
1.25468
1.20978
1.15291
1.08638
4.33116
4.12243
3.92339
3.71495
3.49175
3.24967
2.98653
2.70327
2.40577
2.10686
1.82602
1.58449
1.39727
1.26706
1.18655
1.14404
1.12821
1.13093
1.14663
1.17072
1.1987
1.2261
1.24879
1.26289
1.26509
1.25393
1.22926
1.1912
1.1413
1.0818
4.60663
4.41119
4.21533
4.01179
3.79474
3.55924
3.30218
3.02269
2.72354
2.41291
2.10592
1.82287
1.58353
1.3989
1.26992
1.18913
1.14534
1.12816
1.12973
1.14392
1.16529
1.18884
1.21003
1.22478
1.22964
1.22255
1.20302
1.17117
1.12775
1.07486
4.86214
4.67281
4.48385
4.2883
4.08015
3.85416
3.60658
3.33542
3.04129
2.7289
2.40895
2.09848
1.81758
1.58254
1.40227
1.27591
1.19552
1.15053
1.13164
1.13105
1.14211
1.15899
1.1765
1.19018
1.19626
1.19213
1.17688
1.15041
1.11294
1.06622
5.08693
4.90769
4.7285
4.54345
4.34686
4.13354
3.89932
3.64133
3.3585
3.05287
2.73127
2.40684
2.09734
1.82067
1.59147
1.41581
1.29125
1.2098
1.16242
1.14031
1.13571
1.14157
1.15213
1.16212
1.16735
1.16461
1.15243
1.13033
1.09814
1.0571
5.28855
5.12249
4.95621
4.78471
4.60319
4.40682
4.19104
3.95223
3.68793
3.3978
3.08529
2.75937
2.43478
2.12788
1.85598
1.63072
1.45584
1.32834
1.24212
1.18883
1.1601
1.1481
1.14601
1.14771
1.14848
1.14447
1.13334
1.11394
1.08585
1.04972
5.47683
5.33089
5.18407
5.03318
4.87438
4.70328
4.51532
4.30612
4.07166
3.80913
3.51858
3.20462
2.87804
2.55365
2.24764
1.97453
1.74332
1.55799
1.41837
1.31873
1.25157
1.20891
1.18319
1.16755
1.15636
1.1449
1.13003
1.10953
1.08249
1.04922
5.7049
5.59459
5.48243
5.36716
5.24638
5.11688
4.97429
4.8136
4.62871
4.41359
4.16405
3.87983
3.56707
3.23841
2.909
2.59043
2.2939
2.0335
1.81711
1.64507
1.51318
1.41494
1.34289
1.28986
1.24942
1.21592
1.18503
1.15361
1.1197
1.08345
6.18214
6.13521
6.08326
6.03029
5.97864
5.9269
5.87032
5.80133
5.70876
5.58099
5.40832
5.18552
4.91394
4.60239
4.26554
3.90534
3.52839
3.16443
2.83095
2.5389
2.29104
2.08533
1.91662
1.77926
1.66693
1.57237
1.49029
1.41693
1.34943
1.2904
7.89367
7.94036
7.98093
8.04972
8.15646
8.28633
8.4214
8.54176
8.6295
8.66103
8.6239
8.51436
8.32971
8.08092
7.77207
7.39177
6.92483
6.4291
5.93538
5.46564
5.03104
4.63547
4.28062
3.96744
3.69239
3.43517
3.19768
2.98237
2.7915
2.63803
16.8346
16.7809
16.8681
17.1712
17.5651
17.8856
18.1417
18.3349
18.4724
18.4908
18.4371
18.3348
18.1881
18.0223
17.8067
17.5338
17.1005
16.6823
16.2877
15.9438
15.6393
15.3752
15.1464
14.9609
14.8073
14.4988
14.1572
13.8163
13.5344
13.3051
4.83732
6.03786
6.77664
7.2519
7.49632
7.54096
7.42147
7.17944
6.85072
6.46544
6.05206
5.64039
5.24166
4.87161
4.53303
4.23334
3.97542
3.7835
3.68743
3.69492
3.74369
3.72942
3.5657
3.21624
2.70257
2.07722
1.43583
0.838228
0.134059
0.113539
3.1388
3.54021
3.76743
3.8965
3.9287
3.87279
3.74406
3.5641
3.35319
3.1271
2.89717
2.67731
2.47516
2.29662
2.14649
2.02907
1.95052
1.9261
1.97812
2.11005
2.27494
2.39406
2.40133
2.27257
2.02217
1.67539
1.28236
0.873445
0.531243
0.287405
2.84208
3.10688
3.22339
3.26479
3.24157
3.16365
3.04011
2.88318
2.70608
2.52
2.33426
2.158
1.99711
1.85702
1.74228
1.65967
1.61624
1.62654
1.70966
1.86753
2.05823
2.2119
2.26785
2.20272
2.01888
1.74204
1.41013
1.0454
0.725823
0.453194
2.67964
2.86474
2.93525
2.94753
2.91078
2.83454
2.72508
2.59029
2.43928
2.28083
2.12295
1.97275
1.83529
1.71607
1.62002
1.55542
1.53012
1.55849
1.65454
1.81786
2.01195
2.17542
2.25314
2.2182
2.07407
1.83689
1.54112
1.20164
0.890286
0.606236
2.52644
2.63295
2.67415
2.67787
2.6451
2.58207
2.4925
2.38168
2.25612
2.12302
1.98945
1.86163
1.74421
1.64269
1.56271
1.51335
1.50329
1.54613
1.65362
1.81886
2.00817
2.17007
2.25487
2.23814
2.11996
1.91307
1.64636
1.33083
1.03149
0.7475
2.34465
2.37904
2.39716
2.40075
2.3815
2.33936
2.27442
2.18958
2.09005
1.98183
1.87184
1.76554
1.66743
1.58313
1.51865
1.48407
1.48853
1.54539
1.65989
1.82453
2.00772
2.16278
2.24747
2.23871
2.14092
1.96029
1.72045
1.43111
1.14763
0.872472
2.12167
2.09108
2.09617
2.10577
2.10576
2.08935
2.05224
1.99521
1.92274
1.83929
1.75291
1.66787
1.58887
1.52178
1.47266
1.45262
1.47112
1.54028
1.66176
1.8248
1.99865
2.14365
2.22515
2.22224
2.13654
1.97878
1.76454
1.50265
1.23926
0.979294
1.9104
1.80073
1.7833
1.8021
1.82399
1.83469
1.82558
1.79652
1.75048
1.69269
1.62906
1.56457
1.50417
1.45396
1.42008
1.41415
1.44581
1.52512
1.65188
1.81192
1.9754
2.11
2.18723
2.18802
2.1134
1.97293
1.78248
1.54814
1.30673
1.0651
1.75627
1.59513
1.54138
1.54888
1.57504
1.59947
1.60844
1.60118
1.5789
1.5436
1.50107
1.45599
1.4133
1.37916
1.36003
1.36732
1.41071
1.49862
1.62769
1.78275
1.93689
2.06247
2.13494
2.13854
2.07489
1.9501
1.77879
1.57118
1.3525
1.13036
1.71291
1.49295
1.38851
1.36178
1.37561
1.40194
1.42206
1.42842
1.41949
1.39943
1.37344
1.3451
1.31831
1.29887
1.2933
1.31244
1.36574
1.46011
1.59
1.73949
1.88493
2.00175
2.0699
2.07615
2.02225
1.91266
1.76037
1.57487
1.37905
1.17664
1.73937
1.49922
1.33547
1.25356
1.23511
1.24667
1.26634
1.28014
1.28208
1.27192
1.25367
1.23676
1.22259
1.21565
1.22153
1.2507
1.31173
1.41014
1.53907
1.68287
1.81995
1.9291
1.99383
2.00304
1.95841
1.86407
1.72964
1.56488
1.38944
1.2063
1.81918
1.56963
1.3739
1.24018
1.16884
1.14605
1.1489
1.15922
1.1656
1.163
1.15182
1.1377
1.13076
1.13276
1.14722
1.18402
1.25025
1.35007
1.47629
1.61401
1.74325
1.84596
1.90835
1.92113
1.88556
1.80558
1.68847
1.54388
1.38649
1.22182
1.95275
1.69206
1.47233
1.30519
1.18712
1.11652
1.08461
1.07585
1.07559
1.07404
1.06708
1.0561
1.04869
1.05437
1.0737
1.11494
1.18342
1.28194
1.40366
1.5345
1.65646
1.75387
1.81505
1.83214
1.80566
1.73941
1.63934
1.5138
1.37417
1.22604
2.12861
1.8638
1.6359
1.446
1.28955
1.17065
1.09258
1.04798
1.02418
1.01241
1.00278
0.992051
0.983665
0.985915
1.00514
1.04677
1.11406
1.20847
1.32369
1.44679
1.5617
1.65469
1.71559
1.73765
1.72039
1.66756
1.58414
1.47661
1.3554
1.22385
2.34425
2.08117
1.85315
1.65125
1.46853
1.30831
1.18075
1.08911
1.02923
0.991689
0.967642
0.950108
0.937607
0.933812
0.946725
0.983764
1.04583
1.13311
1.23965
1.35392
1.46164
1.55065
1.6119
1.63942
1.63154
1.592
1.52509
1.43593
1.33213
1.21647
2.5951
2.34046
2.11879
1.91194
1.71164
1.52035
1.34972
1.20898
1.10211
1.0264
0.974215
0.939394
0.915956
0.90273
0.904746
0.931296
0.983475
1.06015
1.15565
1.25968
1.35965
1.44465
1.50659
1.53984
1.54171
1.51612
1.46548
1.39308
1.30488
1.20413
2.87532
2.64118
2.4296
2.21835
2.00418
1.79091
1.58736
1.40383
1.24909
1.12708
1.03611
0.97124
0.927181
0.898523
0.885979
0.896049
0.933149
0.995183
1.07687
1.16897
1.2603
1.34092
1.40425
1.44378
1.45594
1.44241
1.40574
1.34795
1.27424
1.18742
3.17803
2.96531
2.76132
2.5487
2.32841
2.10236
1.87656
1.66043
1.46432
1.29647
1.16103
1.05714
0.982103
0.929318
0.89586
0.886699
0.903229
0.945914
1.01055
1.08918
1.17147
1.24774
1.31081
1.35445
1.37494
1.37163
1.34693
1.30205
1.24148
1.16737
3.4817
3.28359
3.0925
2.88808
2.67015
2.43998
2.20177
1.9637
1.73624
1.52936
1.35105
1.205
1.09137
1.00536
0.944891
0.911054
0.903742
0.923496
0.967463
1.02917
1.0992
1.16814
1.22844
1.27391
1.30028
1.30539
1.29057
1.25686
1.20802
1.14528
3.76482
3.5902
3.41877
3.2296
3.0212
2.79445
2.55291
2.30348
2.05587
1.82036
1.6065
1.42067
1.26641
1.14181
1.0464
0.98189
0.945023
0.937607
0.956255
0.995938
1.04897
1.10698
1.16159
1.20569
1.23489
1.24605
1.23881
1.21427
1.17516
1.12263
4.03669
3.8898
3.74258
3.57405
3.38157
3.16565
2.92986
2.68043
2.42574
2.17479
1.93684
1.71906
1.52723
1.36366
1.22591
1.12278
1.0483
1.00505
0.99115
1.00243
1.03222
1.07361
1.11725
1.1559
1.18391
1.19769
1.1952
1.17732
1.14575
1.10168
4.30842
4.19406
4.07554
3.93343
3.7644
3.56888
3.35104
3.11682
2.87287
2.62514
2.38023
2.14395
1.92263
1.72082
1.53982
1.38587
1.26102
1.16734
1.106
1.0757
1.07229
1.08787
1.11248
1.13721
1.15727
1.1683
1.16648
1.15174
1.12458
1.08622
4.60552
4.52984
4.44764
4.34172
4.20909
4.051
3.87268
3.68008
3.47713
3.26443
3.0424
2.81195
2.57791
2.34523
2.12114
1.90366
1.70358
1.52911
1.38889
1.28785
1.22514
1.19371
1.18152
1.17867
1.17863
1.17607
1.16629
1.1475
1.11876
1.08195
4.98854
4.96372
4.93322
4.88379
4.81451
4.72946
4.6358
4.53934
4.43908
4.32617
4.1895
4.01821
3.81179
3.57236
3.31049
3.01765
2.69373
2.37365
2.08167
1.83824
1.65135
1.5174
1.42269
1.355
1.30514
1.26547
1.22945
1.19284
1.15241
1.10999
5.59537
5.65278
5.71286
5.76923
5.82743
5.89802
5.99186
6.1149
6.25668
6.38957
6.48217
6.49692
6.42318
6.25284
5.99455
5.62302
5.10277
4.50177
3.89162
3.32833
2.84398
2.45038
2.13744
1.89584
1.71079
1.56826
1.45578
1.36349
1.28332
1.21742
6.79579
7.01114
7.26106
7.55127
7.89923
8.32483
8.84558
9.46623
10.1543
10.8444
11.4744
11.9537
12.2484
12.3319
12.2043
11.7961
11.0126
9.94285
8.71788
7.46541
6.27407
5.20958
4.30605
3.57045
2.98865
2.53795
2.19222
1.92699
1.72018
1.57357
9.72021
10.3012
10.9919
11.8208
12.819
14.0176
15.4387
17.0757
18.8311
20.5812
22.1852
23.5052
24.4856
25.0963
25.2945
24.9467
23.8775
22.1866
20.0662
17.7057
15.2518
12.8591
10.6555
8.72495
7.10416
5.78947
4.75217
3.94778
3.32838
2.90753
17.8763
19.2236
20.7185
22.5151
24.6234
27.087
29.9075
33.0156
36.1323
39.0917
41.7143
43.8695
45.4878
46.5574
47.0066
46.6314
45.3558
43.2641
40.4859
37.1745
33.481
29.6016
25.7119
22.0084
18.6476
15.7071
13.2133
11.1367
9.43661
8.25525
35.9351
37.2827
39.287
41.827
44.8018
48.2625
52.0102
55.6235
58.8803
61.6871
63.9734
65.6755
66.6746
67.0298
66.667
65.3607
63.65
61.5796
59.05
56.1221
52.8864
49.4695
45.9571
42.4309
39.0076
35.6916
32.5203
29.5186
26.7454
24.7378
47.8687
47.2123
48.2106
50.3062
52.8111
55.2877
57.4739
59.2674
60.6467
61.5599
62.0934
62.3504
62.2262
61.7275
60.4384
58.132
56.0268
53.8569
51.8607
49.9711
48.2793
46.8643
45.8235
45.2056
44.8844
44.632
44.405
44.1245
43.662
42.9293
8.04377
9.83443
10.6105
11.0593
11.2496
11.1734
10.8697
10.4016
9.82436
9.18945
8.5373
7.90505
7.30572
6.767
6.29418
5.90746
5.62068
5.51646
5.71464
6.21716
6.76414
7.03101
6.84672
6.21013
5.23139
4.04417
2.82392
1.6845
0.864177
0.507371
4.75411
5.257
5.45141
5.54254
5.5433
5.43668
5.2314
4.95378
4.63165
4.28959
3.94857
3.62442
3.32848
3.06843
2.85662
2.70224
2.62816
2.68562
2.95474
3.43259
3.94513
4.27407
4.30603
4.05402
3.58967
2.99379
2.32216
1.61079
1.01482
0.591854
4.35134
4.60773
4.68871
4.69386
4.62544
4.492
4.29834
4.05736
3.78623
3.50226
3.2213
2.95493
2.71215
2.50049
2.33031
2.21502
2.17477
2.25526
2.52201
2.97043
3.4586
3.80365
3.90177
3.75675
3.43215
2.96446
2.41536
1.80923
1.2641
0.797902
4.21078
4.33017
4.35
4.3162
4.22908
4.09617
3.91973
3.70688
3.46939
3.22092
2.97448
2.73979
2.52509
2.3384
2.19088
2.09745
2.07827
2.17481
2.43484
2.84697
3.30142
3.63852
3.76146
3.66767
3.40607
3.01412
2.53709
1.99371
1.4812
1.00539
4.10352
4.10049
4.06489
4.00857
3.92093
3.80121
3.64794
3.46429
3.2586
3.04198
2.8255
2.61797
2.42739
2.26311
2.13653
2.06445
2.06771
2.1841
2.44572
2.82632
3.23455
3.54752
3.67444
3.60758
3.38463
3.04573
2.62484
2.13562
1.65752
1.19376
3.96416
3.84241
3.76077
3.69151
3.61291
3.51351
3.38764
3.23538
3.06273
2.87819
2.69143
2.51094
2.34491
2.20335
2.09876
2.04986
2.07738
2.21358
2.47472
2.83076
3.19667
3.47504
3.59294
3.53936
3.34385
3.04114
2.66961
2.23149
1.79255
1.35286
3.78749
3.55995
3.43064
3.34975
3.28328
3.20832
3.11353
2.99556
2.85715
2.70521
2.54875
2.39619
2.25601
2.13824
2.05712
2.0332
2.08609
2.24245
2.50263
2.83466
3.16107
3.40264
3.50421
3.45596
3.28103
3.00963
2.67362
2.28538
1.88743
1.47918
3.58072
3.25856
3.07911
2.98584
2.93194
2.88276
2.82107
2.73886
2.63565
2.51721
2.39193
2.26791
2.15424
2.0616
2.00493
2.00702
2.08726
2.26091
2.5205
2.82954
3.11602
3.32237
3.40458
3.35699
3.19955
2.95443
2.65117
2.30418
1.94697
1.57356
3.36069
2.93925
2.70941
2.60631
2.56545
2.54243
2.51584
2.46968
2.40091
2.3159
2.22176
2.12639
2.03937
1.97218
1.94062
1.96862
2.07422
2.26705
2.52516
2.80831
3.05705
3.23038
3.29335
3.24422
3.10048
2.87914
2.60704
2.29531
1.97647
1.63885
3.14333
2.66865
2.40437
2.27812
2.23418
2.22389
2.21801
2.19872
2.16032
2.10745
2.04291
1.97506
1.91386
1.87156
1.86455
1.91737
2.0462
2.25359
2.50751
2.76441
2.98243
3.12568
3.17104
3.12002
2.98787
2.78926
2.54559
2.26764
1.98072
1.67886
2.99212
2.49437
2.18858
2.02526
1.95959
1.94527
1.94817
1.94692
1.93161
1.90176
1.86277
1.81941
1.78185
1.7629
1.77809
1.85363
2.0021
2.21775
2.4638
2.69958
2.89019
3.00782
3.03847
2.98657
2.86548
2.68833
2.47061
2.225
1.96918
1.70111
2.91917
2.42649
2.07845
1.86767
1.76473
1.72689
1.72229
1.72597
1.72447
1.71209
1.69085
1.66655
1.6488
1.64993
1.68393
1.77866
1.9419
2.16118
2.39714
2.61339
2.77983
2.87691
2.89661
2.84587
2.73643
2.57942
2.38664
2.17174
1.94902
1.71045
2.92787
2.45107
2.08954
1.83114
1.66948
1.59033
1.55884
1.5516
1.551
1.54708
1.53777
1.52543
1.52161
1.53734
1.58577
1.69462
1.86657
2.08394
2.30755
2.50576
2.65204
2.73372
2.74672
2.69973
2.60309
2.4658
2.29852
2.1146
1.92087
1.70777
2.99678
2.5409
2.17481
1.88967
1.68688
1.5534
1.47678
1.44161
1.42643
1.41862
1.41236
1.40623
1.40819
1.43165
1.48865
1.60507
1.77845
1.9882
2.19774
2.37863
2.50877
2.57991
2.59049
2.55001
2.4676
2.35051
2.21108
2.05401
1.88473
1.69476
3.13284
2.69797
2.33109
2.02727
1.78913
1.61164
1.49045
1.41338
1.36756
1.34118
1.32643
1.31782
1.31952
1.34089
1.39941
1.51552
1.68247
1.87883
2.07215
2.23636
2.35362
2.41839
2.43056
2.39955
2.33379
2.24033
2.12466
1.98961
1.84196
1.67352
3.33621
2.91948
2.56142
2.24861
1.98362
1.76643
1.59758
1.47332
1.38693
1.32974
1.29391
1.27182
1.26496
1.27787
1.32745
1.43427
1.58666
1.76374
1.93793
2.08568
2.19241
2.25446
2.27217
2.25541
2.20823
2.13413
2.03848
1.92399
1.79538
1.64633
3.59992
3.20902
2.86254
2.54516
2.2602
2.00982
1.79777
1.62581
1.49303
1.39526
1.32707
1.28158
1.25703
1.25453
1.28579
1.37347
1.50309
1.65492
1.80611
1.93705
2.03494
2.09956
2.12637
2.12093
2.08858
2.03179
1.95423
1.85798
1.74687
1.61523
3.92515
3.55768
3.22353
2.90501
2.60603
2.32972
2.08154
1.86652
1.68799
1.54611
1.43889
1.36137
1.31083
1.28601
1.29395
1.35095
1.44991
1.57071
1.69411
1.80888
1.8994
1.96182
1.99411
1.99817
1.97825
1.93617
1.87425
1.79393
1.69835
1.58228
4.29295
3.94978
3.63016
3.31483
3.00811
2.71384
2.43847
2.18894
1.9713
1.7887
1.64226
1.52931
1.44769
1.39515
1.37519
1.39812
1.45842
1.54205
1.63447
1.72395
1.79909
1.85334
1.88545
1.89477
1.88321
1.852
1.8023
1.73513
1.65248
1.54978
4.68672
4.37156
4.07083
3.76476
3.4581
3.15548
2.8643
2.5927
2.34832
2.1359
1.95829
1.81433
1.70297
1.62146
1.57194
1.55839
1.57638
1.61459
1.66448
1.71653
1.76157
1.79633
1.81865
1.82468
1.81428
1.78758
1.74486
1.68687
1.6132
1.52088
5.10302
4.82046
4.54442
4.25595
3.96011
3.66243
3.37134
3.09601
2.84492
2.62307
2.43334
2.27428
2.1454
2.043
1.96846
1.91913
1.88817
1.86628
1.85375
1.84585
1.8403
1.83548
1.82855
1.8153
1.79272
1.75896
1.71428
1.65808
1.58647
1.5001
5.55727
5.31351
5.07067
4.81234
4.54386
4.27184
4.00598
3.75651
3.53237
3.33763
3.17307
3.03452
2.92026
2.82398
2.74482
2.67005
2.58273
2.4761
2.35984
2.24644
2.14514
2.05865
1.98523
1.92033
1.85909
1.79759
1.73223
1.65942
1.57986
1.49298
6.10023
5.90478
5.71021
5.50351
5.29081
5.08038
4.88375
4.71253
4.57666
4.47797
4.41188
4.36786
4.34079
4.3181
4.29204
4.22787
4.08068
3.84281
3.54456
3.22938
2.93224
2.66915
2.44609
2.25932
2.10227
1.96792
1.8491
1.7393
1.63299
1.53075
6.85223
6.72489
6.60851
6.49466
6.39124
6.31017
6.26637
6.27282
6.34412
6.47636
6.65399
6.85301
7.06151
7.25521
7.41468
7.44602
7.25208
6.81844
6.20351
5.49906
4.79686
4.14915
3.58724
3.11707
2.73346
2.42477
2.17607
1.97285
1.80071
1.65956
8.08744
8.07365
8.1011
8.16555
8.27958
8.4631
8.73801
9.12263
9.62718
10.2372
10.9162
11.6131
12.3054
12.952
13.5165
13.7769
13.5732
12.8748
11.7618
10.4012
8.95815
7.54943
6.27222
5.17517
4.27433
3.56037
3.00655
2.58052
2.24971
2.01305
10.4654
10.6887
11.0117
11.4306
11.9761
12.6796
13.57
14.6655
15.9614
17.4137
18.9388
20.4419
21.8923
23.2358
24.4046
24.9728
24.7544
23.7249
21.9843
19.7544
17.2511
14.6371
12.133
9.86916
7.93538
6.36562
5.13971
4.20402
3.4968
3.0255
15.6641
16.4394
17.3059
18.3345
19.6288
21.207
23.0866
25.2624
27.6826
30.2437
32.7955
35.2024
37.4338
39.4342
41.048
41.6555
41.1901
39.7353
37.4155
34.4381
30.9587
27.0973
23.2133
19.4458
15.996
13.0267
10.6067
8.67975
7.17505
6.17608
27.087
28.4776
30.119
32.0542
34.2717
36.8504
39.7734
42.9543
46.2512
49.5066
52.5443
55.2369
57.4974
58.9799
59.7278
58.9961
57.4763
55.3394
52.8205
49.9492
46.755
43.3049
39.2806
35.0346
30.7863
26.7406
23.1694
20.0587
17.4192
15.558
45.5583
46.3071
47.9919
50.4375
53.3743
56.5729
59.8087
62.8618
65.5996
67.955
69.8787
71.302
72.076
72.0193
71.025
68.3477
65.5065
62.5485
59.7877
57.1614
54.6868
52.3807
50.3025
48.4558
46.78
44.9648
42.7091
40.3001
37.8411
35.7489
53.3801
53.2398
54.5115
56.795
59.5296
62.2599
64.6873
66.6548
68.098
69.0022
69.4089
69.3557
68.6635
67.1477
64.4692
60.4163
56.7542
53.338
50.5442
48.304
46.6736
45.6132
45.1957
45.4202
46.1543
47.1189
48.1621
49.0383
49.5192
49.4474
11.724
14.1442
14.931
15.2001
15.2558
15.0186
14.5051
13.7888
12.943
12.0381
11.1172
10.2283
9.3873
8.63934
7.99225
7.48888
7.17835
7.31862
8.28984
9.96879
11.5112
12.1912
11.8548
10.6952
9.01758
7.06922
5.0899
3.23753
1.87461
1.00599
6.5624
7.16322
7.33295
7.34054
7.28097
7.11161
6.82657
6.44703
6.00915
5.54536
5.08243
4.63722
4.22876
3.86685
3.5756
3.36542
3.29528
3.51361
4.24016
5.38987
6.44857
6.985
6.92515
6.42276
5.65706
4.75334
3.78633
2.75836
1.84797
1.16497
5.98531
6.22253
6.25634
6.20035
6.07802
5.88811
5.62796
5.30672
4.94456
4.56383
4.18367
3.81712
3.47902
3.17996
2.93985
2.77859
2.74172
2.95354
3.58899
4.56705
5.49112
6.01382
6.05473
5.72993
5.18219
4.51016
3.74085
2.89107
2.10252
1.42577
5.84908
5.87884
5.83292
5.74071
5.60325
5.41805
5.18139
4.89758
4.57976
4.2446
3.90777
3.58044
3.27654
3.0086
2.79682
2.66389
2.6555
2.88422
3.47469
4.32535
5.14935
5.64079
5.71867
5.47455
5.02805
4.45252
3.7923
3.04823
2.32878
1.67217
5.76848
5.62483
5.5093
5.39225
5.25628
5.08866
4.88121
4.63415
4.35599
4.05967
3.75897
3.46353
3.18929
2.94888
2.76421
2.66167
2.68851
2.94859
3.52251
4.28406
4.99146
5.43093
5.51089
5.30657
4.91528
4.40395
3.81778
3.15831
2.50003
1.87177
5.6474
5.35694
5.1733
5.03527
4.90841
4.76622
4.59397
4.38684
4.1496
3.89243
3.62809
3.36562
3.12175
2.91065
2.75626
2.6895
2.75926
3.05812
3.61492
4.30419
4.90765
5.27871
5.33922
5.15224
4.79607
4.33285
3.80061
3.21354
2.61471
2.02339
5.47309
5.05732
4.80589
4.64574
4.5296
4.41695
4.28371
4.1187
3.92399
3.70778
3.48211
3.25562
3.0446
2.86586
2.74634
2.72136
2.84082
3.18159
3.72433
4.33863
4.85121
5.14719
5.17547
4.9926
4.66178
4.23578
3.75
3.21577
2.67771
2.12984
5.26298
4.73349
4.41325
4.22766
4.11977
4.03606
3.94237
3.82077
3.67061
3.49722
3.31182
3.12344
2.94877
2.80543
2.7252
2.74741
2.92159
3.30294
3.82976
4.37004
4.7967
5.01793
5.00907
4.82304
4.5117
4.11565
3.6713
3.18672
2.69859
2.19732
5.03168
4.39392
4.0112
3.79654
3.69247
3.6342
3.57678
3.49686
3.39128
3.26114
3.11713
2.96856
2.83224
2.72759
2.69011
2.7635
2.99465
3.411
3.91621
4.38573
4.72829
4.88049
4.83599
4.64393
4.3473
3.97835
3.57185
3.13435
2.69142
2.23691
4.78752
4.05193
3.62184
3.38349
3.27605
3.23193
3.2026
3.15855
3.09464
3.00614
2.90291
2.7942
2.69713
2.63344
2.64104
2.76765
3.05434
3.4961
3.97249
4.38254
4.64327
4.7305
4.65448
4.45778
4.17474
3.83187
3.46018
3.06791
2.67279
2.2581
4.53484
3.7781
3.30438
3.03272
2.9076
2.86312
2.84891
2.83078
2.7968
2.74283
2.67729
2.6063
2.54834
2.52646
2.57858
2.75854
3.09443
3.54823
3.9958
4.3381
4.53188
4.56443
4.46396
4.26633
3.99828
3.68241
3.34481
2.99855
2.64281
2.25792
4.34683
3.59131
3.07218
2.7661
2.61066
2.54911
2.53403
2.52883
2.51623
2.489
2.45197
2.4138
2.39277
2.40985
2.50531
2.73511
3.11102
3.56741
3.976
4.25549
4.39019
4.38095
4.26463
4.07121
3.8214
3.53416
3.23579
2.92674
2.60119
2.2446
4.2348
3.49847
2.96034
2.60293
2.4077
2.3118
2.27831
2.27044
2.26721
2.25742
2.2427
2.22811
2.23839
2.2893
2.42429
2.69678
3.1007
3.5413
3.90195
4.13121
4.21815
4.1812
4.0584
3.87542
3.64844
3.3966
3.13297
2.85131
2.5525
2.22173
4.21409
3.51211
2.97298
2.57913
2.31727
2.17005
2.10217
2.07468
2.06637
2.06247
2.06152
2.06496
2.09448
2.17293
2.34046
2.64458
3.05478
3.46656
3.78327
3.9677
4.02014
3.96905
3.85018
3.68461
3.49
3.2715
3.03303
2.77525
2.49979
2.19223
4.26504
3.59701
3.06272
2.6483
2.3483
2.14666
2.02339
1.95977
1.93123
1.91987
1.92198
1.93487
1.97652
2.07149
2.2618
2.58345
2.98171
3.35485
3.62866
3.77542
3.80634
3.75442
3.6513
3.51525
3.34829
3.15309
2.93708
2.70027
2.44507
2.15846
4.39469
3.76017
3.23355
2.80073
2.46385
2.21669
2.04828
1.94023
1.87828
1.84566
1.8391
1.8516
1.89788
1.9981
2.20051
2.52441
2.8946
3.22215
3.45489
3.57325
3.59598
3.56023
3.48086
3.36473
3.2175
3.04272
2.84653
2.62776
2.38988
2.12215
4.60839
4.0031
3.4859
3.0448
2.68045
2.39137
2.17394
2.01904
1.91689
1.85525
1.82936
1.83141
1.87616
1.97553
2.17588
2.48825
2.81892
3.09765
3.29277
3.39427
3.42903
3.40303
3.3349
3.2334
3.10193
2.94387
2.76354
2.55949
2.33591
2.08498
4.90264
4.32663
3.82435
3.37819
2.99152
2.66622
2.40402
2.2027
2.05786
1.9617
1.91072
1.897
1.93412
2.03131
2.21946
2.51069
2.79676
3.0297
3.19835
3.2945
3.32298
3.29476
3.22775
3.13299
3.01032
2.86292
2.69186
2.49807
2.28535
2.04899
5.27027
4.72777
4.23957
3.7915
3.38885
3.03558
2.73693
2.49568
2.31241
2.18352
2.10804
2.07908
2.10969
2.20574
2.39176
2.65251
2.89912
3.10246
3.24578
3.31431
3.31672
3.26398
3.18955
3.08515
2.95895
2.80757
2.63686
2.44741
2.24128
2.01679
5.71277
5.19673
4.72325
4.2784
3.86874
3.49934
3.1778
2.91034
2.7017
2.55193
2.46292
2.42916
2.46584
2.574
2.77754
3.03375
3.25873
3.43072
3.52629
3.53179
3.46883
3.37461
3.26516
3.12285
2.95677
2.78498
2.60552
2.41307
2.20797
1.99186
6.22424
5.73317
5.27791
4.84549
4.44252
4.07482
3.75157
3.48162
3.27306
3.12902
3.05414
3.04449
3.12072
3.27689
3.53704
3.83134
4.06112
4.19297
4.19597
4.09044
3.92235
3.74722
3.53986
3.31144
3.07771
2.84595
2.61877
2.40377
2.19127
1.9786
6.82146
6.36029
5.93297
5.5287
5.15432
4.81634
4.52527
4.29256
4.12929
4.04184
4.03669
4.11643
4.30204
4.58037
4.97686
5.37978
5.65124
5.72093
5.57845
5.29367
4.95894
4.58837
4.1724
3.76347
3.38668
3.04842
2.74355
2.46712
2.2155
1.99041
7.57183
7.15152
6.77078
6.42201
6.11298
5.85145
5.64912
5.5218
5.48291
5.5454
5.72196
6.00982
6.43613
6.97195
7.65156
8.25964
8.62948
8.6366
8.28617
7.73904
7.06789
6.27059
5.45559
4.69847
4.04314
3.49614
3.04302
2.66506
2.34552
2.08492
8.63295
8.27621
7.97781
7.73466
7.55602
7.45281
7.43606
7.5332
7.76491
8.14389
8.6839
9.37536
10.2503
11.2482
12.4291
13.3374
13.8631
13.867
13.3101
12.2762
10.9275
9.41318
7.90509
6.52971
5.36328
4.42486
3.68803
3.11316
2.66152
2.32723
10.345
10.1053
9.95906
9.91315
9.98086
10.1805
10.5281
11.0499
11.7755
12.7135
13.8701
15.214
16.7823
18.4651
20.3405
21.5587
22.2424
22.1431
21.1732
19.5166
17.3212
14.8371
12.32
9.97599
7.96511
6.34068
5.08293
4.12973
3.41477
2.93406
13.4398
13.4422
13.5781
13.9022
14.4156
15.1365
16.0861
17.2898
18.7736
20.5232
22.5145
24.6865
27.0826
29.518
32.0116
32.8775
33.0351
32.2835
30.8417
28.8022
26.2376
23.1101
19.5816
16.0743
12.9384
10.2893
8.1738
6.54226
5.3202
4.54161
19.3879
19.8554
20.5422
21.4149
22.5631
24.008
25.747
27.7897
30.1335
32.7146
35.479
38.3295
41.2962
43.7828
45.8229
45.2145
44.0963
42.3378
40.3312
38.0176
35.3989
32.4513
29.1901
25.5673
21.6531
18.0111
14.8739
12.2729
10.2341
8.92345
30.332
31.1843
32.4239
34.0304
35.8942
38.0043
40.3807
42.9977
45.7989
48.694
51.4896
54.0402
56.4583
57.8306
58.3791
55.4521
52.5551
49.5998
47.0844
44.7554
42.5471
40.3971
38.176
35.877
33.4437
30.5497
27.3238
24.1909
21.482
19.5691
44.7877
45.3121
46.681
48.6796
51.0557
53.603
56.1596
58.6091
60.8744
62.9062
64.6363
65.9768
66.7184
66.2418
64.4666
58.9455
54.4344
50.4886
47.5379
45.3094
43.6982
42.6311
42.0508
41.8606
41.9002
41.8908
41.5204
40.6512
39.1469
37.619
48.9596
49.5679
51.1293
53.4154
56.0368
58.6216
60.9555
62.8979
64.39
65.4132
65.9486
65.9741
65.1555
62.892
58.9554
51.9063
46.675
42.3957
39.3641
37.2142
36.0073
35.6316
36.0765
37.2808
39.0533
41.1089
43.1849
44.9924
46.2927
46.8645
16.007
19.114
19.8303
19.9324
19.7242
19.2604
18.4909
17.4844
16.3281
15.1034
13.8535
12.639
11.4742
10.428
9.51684
8.83098
8.5035
9.21443
11.9204
15.9186
18.9985
19.9991
19.136
17.0476
14.3541
11.4246
8.51879
5.77294
3.65387
2.13766
8.59825
9.30609
9.42913
9.35746
9.1775
8.92118
8.54503
8.05639
7.49822
6.90415
6.30587
5.71948
5.17299
4.67193
4.26336
3.96311
3.89179
4.39636
6.02675
8.31776
10.0731
10.6852
10.332
9.41007
8.24167
6.98981
5.71844
4.38895
3.1802
2.18476
7.80199
8.021
7.98002
7.84579
7.6382
7.37416
7.03888
6.63452
6.1822
5.70257
5.21707
4.73918
4.29094
3.88329
3.55187
3.32225
3.2884
3.75329
5.10466
6.9659
8.42299
9.00472
8.81994
8.17661
7.32231
6.40109
5.43553
4.35981
3.35763
2.48659
7.65512
7.58915
7.44956
7.28127
7.07184
6.81978
6.5157
6.15974
5.76353
5.34076
4.90882
4.48004
4.07585
3.71127
3.42146
3.23591