/*--------------------------------*- C++ -*----------------------------------*\
  =========                 |
  \\      /  F ield         | OpenFOAM: The Open Source CFD Toolbox
   \\    /   O peration     | Website:  https://openfoam.org
    \\  /    A nd           | Version:  12
     \\/     M anipulation  |
\*---------------------------------------------------------------------------*/
FoamFile
{
    format      ascii;
    class       volScalarField;
    location    "1550/air";
    object      k;
}
// * * * * * * * * * * * * * * * * * * * * * * * * * * * * * * * * * * * * * //

dimensions      [0 2 -2 0 0 0 0];

internalField   nonuniform List<scalar> 
243000
(
0.058558
0.065559
0.0699615
0.0728099
0.0741824
0.0742649
0.073304
0.0715398
0.0691806
0.0664073
0.0633531
0.0601944
0.0570647
0.0540561
0.051167
0.0483972
0.0457407
0.0432951
0.0411856
0.0395216
0.0382542
0.0371297
0.0357541
0.0337056
0.0307584
0.0285186
0.0257857
0.0235657
0.0196978
0.0160581
0.0899281
0.0991871
0.102699
0.102837
0.101063
0.0980744
0.0943069
0.0900733
0.0855886
0.0810163
0.0764728
0.072094
0.0679409
0.0640837
0.0605441
0.0573465
0.054509
0.0521938
0.050546
0.049695
0.0495462
0.049731
0.049676
0.0487392
0.0464494
0.0426962
0.0376398
0.0315025
0.0254663
0.0190018
0.0984146
0.112925
0.118411
0.119506
0.117926
0.114693
0.110432
0.105581
0.100425
0.0951776
0.089983
0.0849868
0.080244
0.0758437
0.0718346
0.0682668
0.0651918
0.0628299
0.0613194
0.0607635
0.0610092
0.0616371
0.0620216
0.0614605
0.0593526
0.0553404
0.0496255
0.0422207
0.0344718
0.0257933
0.0950352
0.113109
0.122212
0.125631
0.125421
0.123018
0.119218
0.114583
0.109473
0.104157
0.0988235
0.0936387
0.0886875
0.08409
0.0799234
0.0762678
0.0732064
0.0709892
0.0697248
0.0694612
0.0699747
0.0708328
0.0714257
0.0710879
0.0691667
0.0652297
0.0593881
0.0515737
0.0430449
0.0333795
0.0862677
0.106006
0.118169
0.124357
0.126397
0.125625
0.122998
0.119259
0.114761
0.10986
0.104797
0.0997692
0.0949035
0.0903606
0.0862489
0.0826883
0.0797951
0.0778302
0.0768637
0.076873
0.0775715
0.0785315
0.0791854
0.078938
0.0771492
0.0733669
0.0676066
0.0598043
0.0509955
0.0409697
0.0764108
0.0940534
0.108321
0.117381
0.122119
0.123609
0.122832
0.120367
0.116871
0.112773
0.108323
0.103738
0.0991998
0.094917
0.0910243
0.0877015
0.0850877
0.0834424
0.0827969
0.083054
0.0838884
0.0848798
0.0855144
0.0852766
0.083575
0.0799728
0.0744153
0.0668586
0.0581022
0.0480879
0.0720694
0.0829669
0.0957583
0.106556
0.113868
0.117801
0.119127
0.118447
0.116392
0.113374
0.109747
0.105839
0.101827
0.0979694
0.0944329
0.0914583
0.0892004
0.0879115
0.0875897
0.0880716
0.0890108
0.0899986
0.0905753
0.0903018
0.0886564
0.0852351
0.0799473
0.072762
0.0642828
0.0545159
0.0738032
0.0774295
0.086232
0.0960547
0.104094
0.109568
0.112865
0.114043
0.113605
0.111943
0.109418
0.106344
0.102997
0.0997026
0.0966349
0.09409
0.0922395
0.0913239
0.0913155
0.0920023
0.0930279
0.0939992
0.0945067
0.0941793
0.0925705
0.0893235
0.0843362
0.0775859
0.0695439
0.0601596
0.0796245
0.0769542
0.0804697
0.0875808
0.0951677
0.101346
0.105657
0.108063
0.109113
0.108855
0.107543
0.105474
0.102955
0.100298
0.0977761
0.0957158
0.0943038
0.0937644
0.0940506
0.094926
0.0960288
0.0969846
0.0974301
0.0970504
0.0954718
0.0923911
0.0877161
0.0814443
0.0739089
0.0649984
0.088337
0.0817008
0.0794601
0.0822215
0.0877767
0.0936752
0.0985511
0.101892
0.103846
0.104638
0.104474
0.103456
0.101825
0.0999004
0.0979869
0.0964472
0.0954861
0.0953137
0.0958745
0.0969238
0.0981003
0.0990515
0.0994538
0.099037
0.0974948
0.0945802
0.0902348
0.0844137
0.0774008
0.0690384
0.0980313
0.08984
0.0835155
0.0812616
0.0831432
0.0873377
0.0919286
0.0957561
0.0984652
0.100047
0.100648
0.100565
0.0998201
0.0986655
0.0973912
0.0963896
0.0958795
0.0960574
0.0968732
0.0980805
0.0993292
0.100292
0.100676
0.100245
0.0987611
0.0960198
0.091955
0.0865669
0.0800833
0.0723498
0.10822
0.10003
0.0915642
0.0852471
0.0826196
0.0835857
0.0866028
0.0901055
0.093159
0.0953651
0.0966476
0.0971525
0.0971663
0.0967494
0.0961151
0.0956482
0.0955702
0.0960808
0.0971245
0.0984792
0.0998032
0.100796
0.101187
0.10077
0.0993537
0.0967649
0.0929762
0.0880007
0.0820303
0.0749237
0.118734
0.110792
0.101725
0.0932042
0.0868008
0.0837169
0.0837834
0.0857718
0.0884034
0.0908217
0.092604
0.0936618
0.0941409
0.0943345
0.0942943
0.0943311
0.0946586
0.0954639
0.0967122
0.0981977
0.0996049
0.100645
0.101066
0.100671
0.0993149
0.0968846
0.0933771
0.0888009
0.0833161
0.0768157
0.129423
0.121592
0.112713
0.103515
0.0949165
0.088309
0.0846854
0.0839123
0.0850184
0.0869071
0.0887721
0.0901948
0.0910932
0.091649
0.0920811
0.0925589
0.0932492
0.0943129
0.0957313
0.0973278
0.0988084
0.0999065
0.100387
0.10006
0.098806
0.0965323
0.0932634
0.089047
0.0840248
0.0781036
0.1402
0.132508
0.124223
0.114996
0.105535
0.0967184
0.0897876
0.0855932
0.0840626
0.0844024
0.0856376
0.0870144
0.088141
0.0889654
0.0896634
0.0904708
0.0914558
0.0927314
0.0942834
0.0959633
0.0975053
0.0986641
0.0992212
0.0989903
0.0978721
0.0957838
0.0927597
0.0888613
0.0842495
0.0788684
0.150986
0.143449
0.13549
0.12666
0.117213
0.107512
0.0984471
0.091163
0.0864336
0.0842445
0.08392
0.0845824
0.085542
0.0864514
0.0872702
0.0882316
0.0894074
0.0908311
0.0924732
0.0942037
0.0957882
0.0970024
0.0976448
0.0975295
0.0965698
0.0947027
0.091943
0.0883804
0.0841809
0.079334
0.161681
0.154321
0.146633
0.13826
0.129157
0.119379
0.109363
0.100001
0.0923629
0.0871683
0.0844266
0.083541
0.0837215
0.084349
0.0851138
0.0860388
0.0872568
0.0887383
0.0904135
0.0921556
0.0937566
0.0950136
0.0957431
0.0957597
0.0949805
0.0934106
0.0910247
0.0878533
0.0840498
0.0796666
0.172161
0.164985
0.157554
0.149631
0.140968
0.131482
0.121302
0.110931
0.101263
0.0933152
0.0877506
0.0845745
0.0832425
0.0830382
0.0834172
0.0841476
0.0852084
0.0866087
0.0882352
0.0899399
0.0915272
0.0928209
0.0936791
0.0938991
0.0933785
0.0920964
0.0900534
0.0872554
0.0838318
0.0798662
0.182279
0.175281
0.168116
0.160634
0.152436
0.143385
0.133445
0.122824
0.112089
0.102151
0.0939769
0.0881615
0.0846772
0.0830089
0.0825198
0.0827606
0.0835095
0.0846746
0.0861393
0.0877543
0.0893293
0.0906767
0.09164
0.0920372
0.0917492
0.0907399
0.0890171
0.0865683
0.0835072
0.0799213
0.19189
0.185097
0.178294
0.171224
0.163478
0.154891
0.145357
0.134908
0.123833
0.11277
0.102644
0.0943612
0.0884227
0.084743
0.0828403
0.0821778
0.0823514
0.0831238
0.0843176
0.0857598
0.0872542
0.0886032
0.0896351
0.0901764
0.0900916
0.0893337
0.0879022
0.0857834
0.0830662
0.0798338
0.200903
0.194395
0.188087
0.181367
0.17403
0.165893
0.156816
0.14674
0.135771
0.124283
0.112985
0.102796
0.0945394
0.0885814
0.0847985
0.0827694
0.0820096
0.0821435
0.0828988
0.0840469
0.0853676
0.086647
0.0876949
0.0883353
0.0884208
0.0878859
0.0867177
0.084908
0.0825125
0.0796133
0.209316
0.203353
0.19729
0.190889
0.183942
0.176254
0.167666
0.158071
0.147466
0.136033
0.124241
0.11285
0.102751
0.0946107
0.0887136
0.0849211
0.0828317
0.0820061
0.0820821
0.0827624
0.0837794
0.0848897
0.0858789
0.0865582
0.0867699
0.0864214
0.085486
0.0839599
0.0818627
0.0792762
0.216967
0.211298
0.205564
0.199546
0.193039
0.185848
0.177805
0.168782
0.158712
0.147653
0.135878
0.123943
0.112627
0.102705
0.094761
0.0889914
0.085224
0.0830801
0.0821717
0.0821412
0.0826681
0.0834687
0.0842928
0.0849284
0.085201
0.0849898
0.0842503
0.0829712
0.0811504
0.0788555
0.223584
0.218302
0.212958
0.207369
0.201347
0.19471
0.187288
0.178938
0.169553
0.159108
0.147732
0.135794
0.123893
0.112751
0.103088
0.0953681
0.0897017
0.0858995
0.0836485
0.0825864
0.0823602
0.0826347
0.083131
0.0835962
0.0838315
0.0836853
0.0830877
0.0820101
0.0804352
0.0784101
0.229432
0.224607
0.219724
0.21463
0.209172
0.203186
0.196504
0.188972
0.180455
0.170867
0.160227
0.148738
0.136837
0.125088
0.1142
0.104773
0.0971542
0.0914081
0.0874189
0.0849062
0.0835334
0.0829515
0.082841
0.0829112
0.0829335
0.0827264
0.0821761
0.0812236
0.0798411
0.0780504
0.234824
0.230638
0.226389
0.221981
0.217294
0.212186
0.206501
0.200079
0.192755
0.184383
0.174887
0.164327
0.152967
0.14125
0.129734
0.119009
0.109538
0.101643
0.0954883
0.0909716
0.0878613
0.085853
0.0846252
0.083869
0.0833203
0.0827557
0.0820243
0.0810167
0.0796834
0.0780319
0.241274
0.238161
0.234975
0.231679
0.228199
0.224438
0.220258
0.215497
0.20995
0.203399
0.195663
0.18666
0.176492
0.165481
0.154064
0.142607
0.131514
0.121374
0.112616
0.105402
0.0996995
0.0953406
0.0920756
0.0896301
0.0877383
0.0861514
0.084674
0.0831579
0.0815082
0.0797281
0.25453
0.253252
0.251834
0.250383
0.248964
0.247538
0.245972
0.244052
0.241458
0.23785
0.232925
0.226488
0.218514
0.209181
0.198849
0.187495
0.175234
0.162975
0.151325
0.140742
0.131437
0.123454
0.116707
0.111061
0.106332
0.102264
0.0986629
0.0953861
0.0923197
0.0895949
0.299602
0.300802
0.301843
0.303591
0.306284
0.309541
0.312909
0.315896
0.318066
0.31885
0.317946
0.315253
0.310684
0.30447
0.296665
0.286909
0.274699
0.261433
0.24788
0.234632
0.222033
0.210244
0.199379
0.189534
0.180668
0.172174
0.164137
0.156674
0.149904
0.144346
0.496625
0.495577
0.497291
0.503232
0.510903
0.517111
0.522043
0.525749
0.528376
0.528737
0.527717
0.525767
0.522962
0.519782
0.515628
0.510346
0.501903
0.493689
0.485875
0.479016
0.472902
0.467564
0.462916
0.459127
0.455976
0.449624
0.442531
0.435391
0.42944
0.424569
0.093007
0.105124
0.110761
0.113138
0.113037
0.111034
0.107633
0.10331
0.0984331
0.093288
0.0881229
0.0831957
0.0785905
0.0744409
0.0707553
0.0675998
0.0650006
0.0632283
0.062648
0.0633881
0.0647645
0.0655738
0.0647326
0.0615788
0.0559641
0.0479954
0.0384004
0.027467
0.0223855
0.0201168
0.153841
0.173097
0.176125
0.172068
0.164258
0.154609
0.144251
0.133862
0.12383
0.114416
0.105793
0.0980529
0.0911886
0.0852896
0.0803285
0.0763798
0.0734882
0.0721483
0.0727902
0.0755272
0.0795329
0.0833735
0.085528
0.0848444
0.0805895
0.0726946
0.0620315
0.0489535
0.0379854
0.0297643
0.18234
0.204171
0.208936
0.205443
0.197465
0.187058
0.17548
0.163593
0.151918
0.140849
0.130658
0.121476
0.113334
0.106386
0.100658
0.0962919
0.0934044
0.0925564
0.0940029
0.0976807
0.102629
0.107385
0.110368
0.110324
0.106245
0.0978092
0.0858422
0.0705819
0.0563726
0.0439888
0.195727
0.217118
0.222558
0.220384
0.213655
0.204196
0.193217
0.18163
0.169979
0.158722
0.148227
0.138701
0.130232
0.123048
0.117255
0.113082
0.110738
0.110748
0.113097
0.117505
0.122902
0.127894
0.131036
0.131182
0.127207
0.118635
0.106183
0.0898721
0.0737488
0.0589149
0.199178
0.216296
0.223008
0.223008
0.218104
0.210357
0.200862
0.190616
0.179942
0.169349
0.159359
0.150196
0.142032
0.135166
0.129785
0.126215
0.124758
0.125799
0.12908
0.134095
0.13972
0.144667
0.147693
0.147849
0.144022
0.135641
0.12326
0.106762
0.0897856
0.0736596
0.19613
0.20899
0.215136
0.216544
0.213983
0.208768
0.201588
0.19285
0.183489
0.174072
0.16522
0.156911
0.149498
0.14334
0.138702
0.136016
0.135647
0.13779
0.141981
0.147501
0.153218
0.157985
0.160771
0.160855
0.157196
0.149219
0.137259
0.121194
0.104131
0.0875474
0.188385
0.195026
0.200257
0.202824
0.202719
0.20025
0.195672
0.189416
0.182248
0.174533
0.166835
0.159648
0.153323
0.148162
0.1445
0.142907
0.143715
0.146972
0.152013
0.157956
0.163697
0.168234
0.170734
0.170693
0.167213
0.159745
0.148445
0.133223
0.116615
0.100121
0.178071
0.17725
0.179979
0.18348
0.18598
0.18668
0.184984
0.181461
0.176599
0.170936
0.164985
0.159277
0.154142
0.150138
0.147613
0.147236
0.149244
0.153577
0.159397
0.16571
0.171455
0.175765
0.177993
0.177816
0.174506
0.1676
0.157114
0.142991
0.127212
0.111154
0.170231
0.163461
0.162506
0.164817
0.167913
0.170351
0.171094
0.170278
0.167862
0.164344
0.160276
0.156175
0.152465
0.14973
0.148432
0.149294
0.152483
0.157815
0.164339
0.17099
0.176753
0.180881
0.182894
0.182606
0.179476
0.17315
0.163582
0.150724
0.136033
0.120573
0.16998
0.156745
0.150544
0.149689
0.151657
0.154486
0.156683
0.157675
0.157242
0.15569
0.153436
0.150986
0.148761
0.147369
0.147316
0.14937
0.15365
0.15984
0.167019
0.174002
0.17982
0.183847
0.185734
0.185386
0.182468
0.176775
0.168125
0.156499
0.143001
0.128376
0.174078
0.157895
0.146
0.140153
0.139157
0.140725
0.143087
0.145088
0.146125
0.146137
0.145308
0.14433
0.143522
0.143457
0.14458
0.147744
0.152991
0.160039
0.167736
0.174974
0.180867
0.184907
0.186777
0.186417
0.183746
0.178603
0.170811
0.160444
0.148232
0.134705
0.182452
0.164216
0.148948
0.138144
0.132364
0.130986
0.131909
0.133742
0.135449
0.136535
0.136917
0.136951
0.137304
0.13839
0.14057
0.144706
0.150759
0.158397
0.166538
0.174123
0.180208
0.184321
0.186246
0.185935
0.183403
0.178685
0.171831
0.162741
0.151853
0.139573
0.194814
0.175056
0.157226
0.143092
0.133145
0.127354
0.125084
0.125261
0.126447
0.127808
0.128897
0.129723
0.130744
0.132668
0.135683
0.14058
0.14723
0.155272
0.163714
0.171538
0.177838
0.182138
0.184272
0.184174
0.181992
0.177724
0.171558
0.163634
0.154059
0.143085
0.210798
0.190391
0.17141
0.154911
0.141295
0.131144
0.124806
0.121667
0.120755
0.121209
0.122164
0.123278
0.124671
0.126904
0.130401
0.135752
0.142733
0.15096
0.159546
0.167534
0.174026
0.178572
0.181013
0.181278
0.179552
0.175905
0.170475
0.163477
0.155283
0.14572
0.230053
0.209746
0.190557
0.172771
0.156587
0.142645
0.131865
0.124514
0.12026
0.118346
0.117969
0.11854
0.119774
0.121856
0.125315
0.130701
0.137669
0.145818
0.154357
0.162373
0.169013
0.173829
0.176651
0.177406
0.176244
0.173321
0.168785
0.16286
0.155828
0.147549
0.252107
0.232675
0.21405
0.195794
0.177966
0.161179
0.146525
0.134793
0.126307
0.12087
0.117862
0.116734
0.116968
0.118361
0.121157
0.126031
0.132551
0.140286
0.148527
0.156402
0.163103
0.16817
0.171427
0.172779
0.172302
0.170277
0.166756
0.161779
0.155661
0.148512
0.276401
0.258818
0.241248
0.222879
0.204027
0.18535
0.167773
0.152234
0.13947
0.129823
0.12319
0.119188
0.117378
0.117284
0.118852
0.122501
0.128038
0.13494
0.142559
0.150082
0.156719
0.161987
0.165754
0.167826
0.168153
0.166911
0.164224
0.160115
0.154863
0.148602
0.302268
0.286705
0.270232
0.252209
0.23314
0.213509
0.194036
0.175626
0.159184
0.145409
0.134678
0.126983
0.122133
0.119618
0.119152
0.121066
0.124994
0.130543
0.137159
0.144111
0.150583
0.156011
0.160106
0.162695
0.163698
0.163176
0.16127
0.158021
0.153577
0.148134
0.328266
0.314308
0.299337
0.28241
0.263865
0.244105
0.223678
0.203393
0.184185
0.166912
0.152261
0.140614
0.132041
0.126235
0.123059
0.122555
0.12434
0.128093
0.133292
0.139237
0.145138
0.150381
0.154596
0.157555
0.159126
0.159248
0.158046
0.15556
0.151917
0.147255
0.352857
0.340935
0.327842
0.312493
0.295045
0.275819
0.255263
0.234057
0.213073
0.193207
0.175285
0.159926
0.147493
0.13797
0.131364
0.12782
0.126895
0.12832
0.131549
0.135953
0.140837
0.145569
0.149665
0.15276
0.154706
0.155371
0.154762
0.152952
0.15006
0.146128
0.376143
0.36634
0.355278
0.341785
0.325858
0.307711
0.287741
0.266518
0.244785
0.223358
0.203072
0.184657
0.16869
0.15554
0.145033
0.137923
0.133616
0.132061
0.132764
0.135062
0.138428
0.142228
0.14584
0.148773
0.150843
0.151862
0.151703
0.15045
0.148186
0.144942
0.398148
0.390465
0.38146
0.369994
0.355932
0.339392
0.32073
0.300417
0.279039
0.257223
0.23569
0.21517
0.19636
0.179876
0.165718
0.154523
0.14628
0.140933
0.138256
0.137827
0.139082
0.141359
0.143934
0.146267
0.148124
0.149191
0.149275
0.148409
0.146632
0.143988
0.419169
0.413547
0.406658
0.397444
0.385691
0.371448
0.35502
0.336785
0.317122
0.296388
0.275063
0.253748
0.233177
0.214072
0.196862
0.181526
0.168602
0.158408
0.151136
0.14671
0.144762
0.144673
0.145471
0.14656
0.147551
0.148159
0.148154
0.147411
0.145861
0.143623
0.440249
0.436791
0.432274
0.425811
0.417176
0.406402
0.393718
0.379366
0.363446
0.345958
0.327027
0.306958
0.286386
0.265998
0.246627
0.227672
0.209089
0.192499
0.178596
0.16795
0.160616
0.156156
0.153552
0.152045
0.151139
0.150442
0.149631
0.148492
0.146826
0.144833
0.464052
0.463378
0.462159
0.459775
0.456076
0.451097
0.444933
0.43764
0.428938
0.418292
0.405372
0.389959
0.372426
0.353324
0.333645
0.31219
0.287564
0.262338
0.238494
0.217572
0.200411
0.187188
0.177138
0.169719
0.164272
0.160198
0.15698
0.154224
0.151566
0.149344
0.497793
0.50193
0.506695
0.511713
0.516929
0.522279
0.527693
0.532945
0.537124
0.538812
0.537296
0.53142
0.521242
0.507268
0.49047
0.468722
0.439225
0.404665
0.367794
0.331371
0.297319
0.267132
0.241504
0.220568
0.20394
0.190996
0.180995
0.173239
0.167043
0.162997
0.564455
0.578323
0.594779
0.613598
0.634426
0.656839
0.680424
0.704566
0.72719
0.746266
0.75997
0.766721
0.766419
0.760249
0.748856
0.729336
0.697523
0.655952
0.607616
0.555557
0.501975
0.449382
0.399994
0.355527
0.316954
0.284546
0.258076
0.236883
0.220112
0.209483
0.72821
0.758496
0.7914
0.827781
0.866421
0.906897
0.948451
0.989816
1.02662
1.05725
1.08006
1.09412
1.09937
1.09727
1.08872
1.0704
1.03998
0.999384
0.949945
0.893694
0.83221
0.767616
0.701704
0.637172
0.576301
0.52062
0.471208
0.428214
0.391642
0.367521
1.02696
1.05281
1.08897
1.13137
1.17587
1.22234
1.26758
1.30639
1.33697
1.35935
1.37368
1.37953
1.37646
1.36707
1.351
1.32521
1.29525
1.26181
1.22382
1.18219
1.13784
1.09188
1.04454
0.996949
0.949627
0.902348
0.855878
0.810771
0.768141
0.739635
1.20054
1.19824
1.21693
1.24869
1.28165
1.31126
1.33472
1.35127
1.36121
1.36449
1.36233
1.35621
1.3452
1.33084
1.30806
1.27518
1.24543
1.21557
1.18869
1.16431
1.14361
1.12753
1.11717
1.11219
1.11117
1.11054
1.11021
1.10949
1.10598
1.09766
0.130551
0.145534
0.149353
0.149898
0.148165
0.144307
0.138809
0.132272
0.125171
0.117923
0.110835
0.104185
0.0980552
0.0926681
0.0880561
0.0844086
0.0818737
0.0812894
0.0838845
0.0896596
0.0960647
0.100068
0.100005
0.0954893
0.0869304
0.0748362
0.0602671
0.0437359
0.0287317
0.0203879
0.215416
0.239891
0.243426
0.238475
0.228107
0.215012
0.200752
0.186311
0.172253
0.159012
0.146804
0.135787
0.125938
0.117442
0.110272
0.104628
0.100807
0.100467
0.105209
0.115037
0.126772
0.136424
0.141158
0.13978
0.132064
0.118518
0.100611
0.0791199
0.0593536
0.0424116
0.259748
0.28671
0.292858
0.288302
0.27766
0.26358
0.247686
0.231112
0.214652
0.198939
0.184316
0.171023
0.159122
0.148911
0.140487
0.134177
0.130432
0.130956
0.137086
0.148597
0.162117
0.173527
0.179769
0.179446
0.171831
0.157295
0.137188
0.112149
0.0878199
0.0656273
0.287493
0.311164
0.317423
0.313758
0.304129
0.290853
0.275407
0.258807
0.241977
0.225658
0.210276
0.196179
0.18355
0.172788
0.164164
0.158139
0.155307
0.15707
0.164259
0.176387
0.190175
0.201778
0.208344
0.208547
0.201398
0.18697
0.166379
0.140116
0.113391
0.0880506
0.303712
0.322065
0.326716
0.323664
0.315402
0.303728
0.289777
0.274214
0.258174
0.242391
0.227274
0.213315
0.200822
0.1903
0.182184
0.17708
0.175645
0.178793
0.186772
0.198864
0.21212
0.223112
0.229357
0.229737
0.223156
0.209443
0.189461
0.163431
0.135978
0.10907
0.311803
0.321617
0.324913
0.322899
0.316558
0.306545
0.294166
0.280054
0.265677
0.251306
0.23714
0.224008
0.21229
0.202597
0.195514
0.19181
0.192057
0.196623
0.205209
0.216867
0.229098
0.239012
0.244547
0.244833
0.238783
0.22609
0.207322
0.182496
0.1555
0.128157
0.313364
0.315493
0.315353
0.312884
0.307983
0.300458
0.290802
0.279745
0.26712
0.254016
0.241079
0.229354
0.218914
0.210508
0.20486
0.202939
0.205013
0.210985
0.220037
0.231061
0.242012
0.25059
0.255175
0.255146
0.249515
0.237938
0.220744
0.197746
0.172028
0.145014
0.311583
0.304307
0.29947
0.29603
0.292444
0.287404
0.280636
0.272253
0.262279
0.251477
0.240782
0.230467
0.221492
0.214673
0.210767
0.210874
0.214861
0.222183
0.231592
0.241902
0.251505
0.25865
0.262173
0.261649
0.256319
0.245863
0.230451
0.209672
0.185701
0.159518
0.305988
0.288526
0.278486
0.273894
0.271498
0.268942
0.265351
0.25999
0.252826
0.244621
0.236101
0.227832
0.220669
0.215671
0.213698
0.215923
0.221856
0.230432
0.240126
0.249727
0.258034
0.263782
0.266233
0.26509
0.260007
0.250575
0.236724
0.218159
0.196238
0.171593
0.298183
0.273855
0.25958
0.252564
0.249925
0.2487
0.247186
0.244342
0.239922
0.234469
0.228328
0.222243
0.217088
0.214035
0.214066
0.218382
0.226153
0.2359
0.245841
0.254801
0.261936
0.266427
0.267877
0.266059
0.260784
0.252096
0.239852
0.223548
0.204016
0.181516
0.29366
0.265037
0.245814
0.235088
0.230492
0.229084
0.228635
0.227637
0.225458
0.222196
0.218383
0.214449
0.211335
0.210288
0.212244
0.218537
0.227945
0.23868
0.248837
0.257279
0.263458
0.266979
0.267509
0.265101
0.259705
0.25147
0.240435
0.226385
0.209331
0.189422
0.294606
0.264485
0.240361
0.22422
0.216138
0.212709
0.211825
0.211562
0.210866
0.209385
0.207343
0.205309
0.204104
0.204898
0.208637
0.216684
0.227529
0.239164
0.249521
0.257666
0.263085
0.265675
0.265458
0.262697
0.257409
0.249651
0.239607
0.227399
0.213056
0.195625
0.299706
0.269191
0.243165
0.223154
0.209531
0.202251
0.1992
0.19816
0.197797
0.197311
0.196569
0.195859
0.196173
0.198454
0.203701
0.213157
0.225026
0.237217
0.247707
0.255648
0.260604
0.262621
0.261955
0.259053
0.254036
0.246906
0.237938
0.227444
0.215397
0.200238
0.309542
0.279289
0.252061
0.229242
0.211988
0.200236
0.193243
0.189696
0.188205
0.187552
0.187296
0.187386
0.188446
0.191695
0.197999
0.208383
0.220851
0.233312
0.243841
0.25165
0.256309
0.258023
0.257193
0.254393
0.249824
0.243536
0.235923
0.22688
0.21644
0.203184
0.324349
0.294645
0.267201
0.242713
0.222321
0.206549
0.195411
0.18826
0.184168
0.181891
0.18101
0.181042
0.182239
0.185507
0.192242
0.20293
0.215461
0.227825
0.238262
0.245921
0.250447
0.252117
0.251399
0.248974
0.245115
0.239981
0.233535
0.225628
0.216338
0.204786
0.344067
0.315912
0.28908
0.26377
0.24108
0.221783
0.206402
0.194991
0.187164
0.182174
0.179334
0.178173
0.178641
0.18123
0.187342
0.197555
0.209516
0.221329
0.231423
0.238877
0.243378
0.245259
0.244943
0.243296
0.240373
0.236165
0.230726
0.22386
0.215635
0.205408
0.369025
0.342611
0.3168
0.291315
0.26713
0.245072
0.225938
0.21025
0.19816
0.189405
0.183551
0.180109
0.178846
0.180007
0.184441
0.193246
0.20391
0.214636
0.224013
0.231157
0.235701
0.23814
0.23851
0.237517
0.235366
0.23205
0.227566
0.221711
0.214474
0.2053
0.397928
0.373477
0.348979
0.323815
0.298844
0.274855
0.252744
0.233296
0.217047
0.204171
0.194583
0.187965
0.184087
0.182927
0.185086
0.191251
0.199847
0.208908
0.217085
0.223846
0.228461
0.231149
0.232096
0.231735
0.230316
0.227824
0.224207
0.21931
0.212985
0.204798
0.429272
0.406917
0.383952
0.359527
0.33439
0.309276
0.285087
0.262725
0.242949
0.226224
0.212779
0.202542
0.195405
0.191314
0.190542
0.193575
0.199215
0.205928
0.212464
0.218218
0.222384
0.225012
0.226279
0.2264
0.225567
0.22376
0.22089
0.216845
0.211323
0.20404
0.46156
0.441358
0.420099
0.396788
0.372068
0.346615
0.321307
0.297073
0.27477
0.255008
0.238216
0.224523
0.214005
0.206649
0.202675
0.202211
0.204421
0.208048
0.212184
0.215929
0.218864
0.220884
0.221981
0.222209
0.221653
0.220282
0.217941
0.214541
0.209684
0.2032
0.493619
0.475589
0.456179
0.434361
0.410672
0.385726
0.360357
0.335478
0.311953
0.290424
0.271396
0.255095
0.241762
0.231431
0.224387
0.220312
0.218604
0.21828
0.218871
0.219616
0.220239
0.220629
0.220696
0.220325
0.21947
0.218101
0.21591
0.212792
0.208344
0.202504
0.524904
0.50905
0.49167
0.471822
0.449926
0.426525
0.402398
0.378407
0.355364
0.333861
0.314367
0.297101
0.282391
0.270257
0.26102
0.253833
0.247896
0.242619
0.23795
0.233861
0.230396
0.227491
0.225014
0.222781
0.220591
0.218182
0.215381
0.211991
0.207635
0.202215
0.555822
0.542232
0.527293
0.510175
0.491191
0.470801
0.449712
0.428718
0.408536
0.389648
0.372382
0.356844
0.343375
0.331853
0.32246
0.313622
0.303613
0.29212
0.279879
0.267938
0.257147
0.247795
0.239957
0.233434
0.22792
0.223062
0.218524
0.213958
0.208796
0.203369
0.588433
0.577635
0.566063
0.553047
0.538791
0.52369
0.508368
0.49351
0.479707
0.467268
0.456264
0.446535
0.43831
0.431208
0.425069
0.417212
0.404106
0.385628
0.363248
0.339216
0.315929
0.294654
0.276203
0.260703
0.247941
0.237484
0.228784
0.221302
0.214309
0.208074
0.628447
0.621791
0.615535
0.609155
0.602756
0.596648
0.591303
0.587236
0.584847
0.584066
0.58452
0.585498
0.587109
0.588654
0.589482
0.585253
0.570602
0.545468
0.511521
0.47231
0.431449
0.391475
0.354692
0.322443
0.295313
0.273214
0.255506
0.241345
0.229699
0.221155
0.689811
0.690244
0.693186
0.697851
0.70424
0.71241
0.722525
0.734756
0.749049
0.764721
0.780525
0.795068
0.808575
0.820286
0.829179
0.828375
0.8124
0.781777
0.738143
0.685284
0.626872
0.565505
0.505233
0.448876
0.398799
0.356386
0.321743
0.294074
0.272178
0.257863
0.803609
0.818175
0.835666
0.856154
0.880001
0.906444
0.935022
0.965341
0.996628
1.02751
1.05601
1.08047
1.10142
1.11821
1.12911
1.12557
1.10487
1.06958
1.02143
0.963207
0.896799
0.823241
0.747068
0.670556
0.597355
0.531137
0.474181
0.42634
0.387205
0.362262
1.02256
1.04991
1.08281
1.11984
1.15852
1.19852
1.23881
1.27818
1.31519
1.34855
1.37654
1.39787
1.41271
1.41716
1.41248
1.38881
1.3543
1.31261
1.26682
1.21735
1.16446
1.10843
1.04364
0.974545
0.903374
0.832812
0.767214
0.70731
0.65453
0.619774
1.319
1.33647
1.36856
1.40994
1.45396
1.49614
1.53337
1.56368
1.58662
1.60274
1.6119
1.61325
1.60666
1.59108
1.56353
1.51566
1.46656
1.41746
1.37266
1.3318
1.29526
1.2626
1.23509
1.21271
1.19315
1.17137
1.14236
1.11045
1.07696
1.05135
1.41149
1.41905
1.44452
1.48087
1.51889
1.55263
1.57872
1.59588
1.60418
1.60474
1.59749
1.58318
1.56087
1.52854
1.48193
1.41842
1.36046
1.3074
1.26411
1.23053
1.20788
1.19551
1.19412
1.20435
1.22272
1.2449
1.26854
1.29018
1.3052
1.3117
0.16783
0.185436
0.187551
0.1853
0.181526
0.175757
0.168247
0.159616
0.150422
0.141176
0.132162
0.123704
0.115887
0.109052
0.10325
0.0988643
0.096369
0.0981371
0.10748
0.122816
0.136926
0.14443
0.144207
0.137208
0.124986
0.108606
0.0892709
0.0676209
0.0481453
0.0326043
0.278439
0.306958
0.30768
0.300231
0.287166
0.270963
0.25323
0.235245
0.217671
0.201025
0.185484
0.171295
0.15836
0.147014
0.13725
0.129512
0.125005
0.128458
0.143815
0.168576
0.193136
0.209685
0.215385
0.210703
0.197346
0.176883
0.151029
0.120559
0.0918981
0.0678832
0.338945
0.368444
0.37162
0.365133
0.35184
0.334469
0.314767
0.294176
0.273633
0.253839
0.235133
0.217861
0.202074
0.188258
0.176652
0.167981
0.163742
0.16868
0.186611
0.2144
0.242024
0.261324
0.269144
0.265699
0.252289
0.230364
0.201608
0.166425
0.131429
0.100355
0.37898
0.40287
0.406557
0.400914
0.388607
0.37194
0.352532
0.331747
0.310587
0.289813
0.269937
0.251395
0.234437
0.219683
0.207682
0.19933
0.19635
0.202803
0.221668
0.249527
0.276999
0.29646
0.304905
0.302444
0.289913
0.268516
0.239518
0.203054
0.165078
0.129853
0.405898
0.421464
0.423842
0.418466
0.407437
0.392221
0.3742
0.354555
0.334132
0.313668
0.293877
0.275235
0.258222
0.243586
0.232176
0.225036
0.223856
0.231845
0.250699
0.27696
0.302553
0.320699
0.328779
0.326885
0.315495
0.295497
0.267777
0.232144
0.193531
0.155917
0.422833
0.428949
0.428412
0.422695
0.412896
0.399383
0.383479
0.365968
0.347239
0.327978
0.309215
0.291359
0.275159
0.261478
0.251442
0.246247
0.247233
0.256648
0.274972
0.29876
0.321409
0.337308
0.344311
0.342528
0.332208
0.313969
0.288358
0.254848
0.217314
0.17861
0.431697
0.428413
0.423407
0.416676
0.408139
0.397762
0.384637
0.369054
0.351772
0.334296
0.317394
0.301008
0.286338
0.274319
0.266321
0.263681
0.267065
0.27779
0.295238
0.316119
0.335264
0.348355
0.353765
0.351676
0.342227
0.325885
0.302824
0.272264
0.236682
0.197994
0.434497
0.421695
0.411059
0.402459
0.39483
0.386608
0.376448
0.363992
0.350127
0.335167
0.31983
0.305126
0.292584
0.282804
0.277409
0.277783
0.283711
0.295584
0.311921
0.329708
0.345186
0.355213
0.358702
0.355968
0.34719
0.332377
0.311568
0.28403
0.251178
0.214293
0.434949
0.410671
0.393683
0.382473
0.375284
0.369177
0.361931
0.352677
0.341878
0.329777
0.317119
0.305243
0.294735
0.287564
0.285198
0.288854
0.297379
0.310177
0.325249
0.339877
0.351861
0.358827
0.360253
0.356192
0.347211
0.333581
0.315254
0.291025
0.261622
0.227519
0.431043
0.395985
0.373514
0.359805
0.352397
0.347673
0.342936
0.336694
0.329103
0.320031
0.310333
0.301109
0.293381
0.289164
0.290132
0.297129
0.308172
0.321641
0.335353
0.347135
0.35578
0.359892
0.359349
0.354396
0.345273
0.332273
0.315477
0.294578
0.269265
0.238187
0.42349
0.383343
0.355733
0.338739
0.329899
0.325438
0.322296
0.318438
0.31341
0.307142
0.300415
0.29401
0.289305
0.288214
0.292593
0.302841
0.316093
0.32998
0.342324
0.351594
0.35728
0.358912
0.356669
0.351024
0.341952
0.329692
0.314435
0.296545
0.274483
0.24617
0.418218
0.375138
0.342602
0.322143
0.310637
0.305021
0.302216
0.299782
0.296764
0.292851
0.288586
0.284899
0.283245
0.285246
0.292953
0.306193
0.321202
0.335183
0.346248
0.353401
0.3567
0.356181
0.35263
0.346499
0.337723
0.326423
0.31302
0.29717
0.277381
0.251677
0.41783
0.374196
0.33866
0.312602
0.297324
0.289056
0.285109
0.282808
0.280882
0.278663
0.27645
0.27491
0.275995
0.280861
0.291628
0.307412
0.32361
0.337368
0.347347
0.352879
0.354157
0.352058
0.347608
0.341273
0.333003
0.323127
0.311305
0.296666
0.278694
0.255274
0.421315
0.378331
0.341973
0.313398
0.292778
0.279945
0.273437
0.269729
0.267687
0.26623
0.265397
0.265572
0.268454
0.275817
0.289128
0.306834
0.323849
0.33727
0.345977
0.350099
0.349922
0.346858
0.342005
0.335838
0.328606
0.319982
0.309129
0.295552
0.278846
0.257427
0.429624
0.387976
0.351383
0.320712
0.29696
0.280427
0.269388
0.262621
0.259164
0.257309
0.256917
0.258018
0.262035
0.271022
0.286114
0.304968
0.321965
0.334655
0.342545
0.34552
0.34449
0.341079
0.336443
0.331106
0.324674
0.316712
0.306657
0.294006
0.278376
0.258565
0.443379
0.403448
0.367031
0.334972
0.308561
0.288186
0.273328
0.263402
0.25713
0.253617
0.252483
0.253549
0.258004
0.267402
0.283445
0.302608
0.318971
0.330664
0.337749
0.339975
0.338694
0.335768
0.331779
0.326825
0.320803
0.313417
0.304021
0.292156
0.277457
0.258948
0.462705
0.424758
0.38948
0.35701
0.32852
0.304754
0.285974
0.272066
0.262419
0.256341
0.253495
0.253403
0.257513
0.266573
0.282282
0.300928
0.316082
0.326542
0.332847
0.334823
0.334137
0.331427
0.327574
0.322877
0.31718
0.310232
0.301339
0.290118
0.276208
0.258813
0.487524
0.452127
0.418201
0.385711
0.35576
0.329248
0.306897
0.289056
0.275671
0.266386
0.261041
0.259176
0.261988
0.2701
0.28427
0.30164
0.315121
0.324285
0.330066
0.332144
0.331247
0.328273
0.324271
0.319683
0.314104
0.307335
0.298754
0.288016
0.27476
0.258422
0.517489
0.484222
0.451662