/*--------------------------------*- C++ -*----------------------------------*\
  =========                 |
  \\      /  F ield         | OpenFOAM: The Open Source CFD Toolbox
   \\    /   O peration     | Website:  https://openfoam.org
    \\  /    A nd           | Version:  12
     \\/     M anipulation  |
\*---------------------------------------------------------------------------*/
FoamFile
{
    format      ascii;
    class       volScalarField;
    location    "1550/air";
    object      nut;
}
// * * * * * * * * * * * * * * * * * * * * * * * * * * * * * * * * * * * * * //

dimensions      [0 2 -1 0 0 0 0];

internalField   nonuniform List<scalar> 
243000
(
0.000127661
0.000130055
0.000129469
0.000127423
0.000124263
0.000120329
0.000115938
0.000111338
0.000106716
0.000102216
9.7926e-05
9.39542e-05
9.03802e-05
8.7253e-05
8.45413e-05
8.22215e-05
8.02617e-05
7.87206e-05
7.77036e-05
7.73173e-05
7.75328e-05
7.81107e-05
7.86214e-05
7.8511e-05
7.73291e-05
0.000348554
0.000331468
0.000318015
0.000285296
0.000250471
0.000475257
0.000480624
0.000471313
0.000455029
0.000435829
0.000415534
0.000395186
0.000375452
0.000356746
0.000339334
0.000323375
0.000309061
0.000296438
0.00028557
0.000276438
0.000269038
0.000263365
0.000259794
0.000258714
0.000260544
0.000265143
0.000271623
0.000278433
0.000283644
0.000285472
0.000283652
0.000276825
0.000261011
0.000243326
0.000218181
0.000586914
0.000628874
0.000644041
0.000647058
0.000642799
0.000633952
0.000622089
0.000608295
0.00059328
0.000577596
0.000561634
0.00054584
0.000530409
0.000515674
0.000501866
0.000489238
0.000478065
0.000469265
0.000463487
0.000461235
0.000461997
0.000464204
0.000465514
0.000463298
0.00045521
0.000439646
0.00041637
0.000383919
0.000346842
0.000299995
0.000576727
0.000629363
0.000654293
0.000663447
0.000662931
0.000656584
0.000646388
0.000633725
0.000619456
0.000604254
0.000588602
0.000572974
0.000557639
0.000543006
0.000529387
0.000517128
0.000506608
0.000498805
0.000494226
0.00049313
0.00049477
0.00049762
0.000499554
0.00049826
0.000491403
0.000477185
0.000455286
0.000424242
0.000387546
0.000341258
0.000549499
0.00060925
0.000643366
0.000660071
0.000665514
0.000663519
0.000656577
0.00064655
0.000634265
0.0006206
0.000606156
0.000591458
0.000576875
0.000562911
0.000549957
0.000538471
0.000528924
0.000522289
0.000518907
0.00051877
0.000520934
0.000523967
0.000525994
0.000525054
0.000518988
0.000506056
0.000485748
0.000456831
0.000421822
0.000378073
0.000517251
0.000573855
0.000615942
0.000641273
0.000654153
0.000658183
0.000656149
0.000649565
0.000640091
0.000628799
0.000616293
0.000603134
0.000589814
0.000576953
0.000565
0.000554573
0.000546197
0.000540799
0.000538564
0.000539226
0.000541736
0.000544743
0.00054662
0.000545736
0.000540176
0.000528348
0.00050962
0.000483024
0.000450261
0.000409606
0.000502555
0.000539078
0.000579142
0.000610968
0.000631653
0.00064253
0.000646185
0.000644378
0.000638801
0.000630494
0.000620356
0.000609237
0.000597602
0.000586184
0.000575507
0.000566348
0.000559258
0.000555104
0.000553941
0.000555284
0.000558042
0.000560942
0.000562578
0.000561599
0.000556365
0.00054546
0.000528227
0.000503902
0.00047361
0.000436131
0.000508814
0.000520989
0.000549676
0.000580117
0.000603943
0.000619668
0.000628975
0.000632296
0.000631123
0.000626523
0.000619453
0.000610716
0.000601052
0.000591375
0.000582205
0.000574463
0.000568726
0.00056579
0.000565614
0.000567554
0.000570512
0.000573293
0.000574676
0.000573546
0.000568527
0.000558399
0.00054254
0.000520344
0.000492616
0.000458158
0.0005286
0.00051957
0.000531158
0.000554024
0.000577504
0.000595982
0.000608567
0.000615502
0.000618529
0.000617839
0.000614143
0.000608241
0.000600961
0.000593168
0.000585663
0.000579433
0.000575079
0.000573321
0.000574041
0.000576521
0.000579662
0.000582349
0.00058352
0.000582243
0.000577385
0.000567919
0.000553315
0.000533134
0.000507849
0.000476235
0.000556808
0.000535489
0.000527983
0.000536946
0.000554705
0.000573023
0.000587768
0.000597682
0.000603429
0.000605769
0.000605335
0.000602417
0.000597679
0.000592022
0.000586324
0.000581672
0.000578701
0.000578064
0.000579606
0.000582582
0.000585908
0.000588549
0.000589576
0.000588197
0.00058349
0.000574624
0.000561215
0.000542776
0.000519716
0.000490821
0.000586487
0.000561524
0.000541398
0.000533951
0.000539989
0.000553375
0.000567718
0.000579433
0.000587604
0.000592345
0.000594164
0.00059396
0.000591791
0.000588379
0.00058457
0.00058153
0.000579923
0.000580348
0.000582647
0.000586079
0.000589598
0.000592254
0.000593218
0.000591801
0.000587291
0.000579
0.000566554
0.000549666
0.000528655
0.000502462
0.00061615
0.000592464
0.000566889
0.000546975
0.000538407
0.000541458
0.000551094
0.000562118
0.000571579
0.000578336
0.00058225
0.000583808
0.000583891
0.000582664
0.000580757
0.000579322
0.000579022
0.000580452
0.00058344
0.000587306
0.00059104
0.000593777
0.000594754
0.000593383
0.00058908
0.000581265
0.00056971
0.000554214
0.000535054
0.000511331
0.000645321
0.000623414
0.000597429
0.00057191
0.000551915
0.000541978
0.000542131
0.000548491
0.000556836
0.000564417
0.000569958
0.00057324
0.000574745
0.000575368
0.000575258
0.000575352
0.00057629
0.000578626
0.000582243
0.000586511
0.000590497
0.000593376
0.000594436
0.000593122
0.000588993
0.000581652
0.00057096
0.000556746
0.000539245
0.000517759
0.000673674
0.000653008
0.000628769
0.000602626
0.000577099
0.000556661
0.000545095
0.000542568
0.000546114
0.000552149
0.000558062
0.000562547
0.000565378
0.000567137
0.000568491
0.000569953
0.000572021
0.000575172
0.000579331
0.000583958
0.000588183
0.000591244
0.000592478
0.000591357
0.000587513
0.00058062
0.000570635
0.000557538
0.000541551
0.000522094
0.000701091
0.000681611
0.000659996
0.000635056
0.000608424
0.000582499
0.000561261
0.000547994
0.000543064
0.00054416
0.000548141
0.000552555
0.000556154
0.000558783
0.000560997
0.000563515
0.000566531
0.000570374
0.000574986
0.000579907
0.000584349
0.000587612
0.000589079
0.000588234
0.00058477
0.000578396
0.000569118
0.000556978
0.000542295
0.000524661
0.000727487
0.00070911
0.000689177
0.000666374
0.000641086
0.000614032
0.000587623
0.000565499
0.000550655
0.000543653
0.000542623
0.000544787
0.000547901
0.00055084
0.000553471
0.00055652
0.000560185
0.000564546
0.000569495
0.000574628
0.000579246
0.000582707
0.000584441
0.00058393
0.000580913
0.000575163
0.00056664
0.000555502
0.000542103
0.000526233
0.000752733
0.000735405
0.000716865
0.000696121
0.000672846
0.000646915
0.00061923
0.000592184
0.000569163
0.000552966
0.000544237
0.000541413
0.000542036
0.000544103
0.000546596
0.000549574
0.000553434
0.000558047
0.000563173
0.000568413
0.000573141
0.000576774
0.000578791
0.000578668
0.000576172
0.000571281
0.000563851
0.00055388
0.000541711
0.000527361
0.00077666
0.000760304
0.000742995
0.000724086
0.000702836
0.000678807
0.000652039
0.00062359
0.00059585
0.000572046
0.000554785
0.000544709
0.000540457
0.000539846
0.000541116
0.000543505
0.000546916
0.000551347
0.000556401
0.000561605
0.000566361
0.000570158
0.000572598
0.000573093
0.000571357
0.000567304
0.000560882
0.000552031
0.000541041
0.000528048
0.000799069
0.000783582
0.000767406
0.000750149
0.000730773
0.000708768
0.000683793
0.000656055
0.000626778
0.000598406
0.000574032
0.000556061
0.000545035
0.000539707
0.000538174
0.000538998
0.000541443
0.000545178
0.000549794
0.000554797
0.00055959
0.000563611
0.000566412
0.000567459
0.00056642
0.000563172
0.000557701
0.000549898
0.000540028
0.000528261
0.000819773
0.000805134
0.000790209
0.000774392
0.000756686
0.000736565
0.000713561
0.000687469
0.000658686
0.000628627
0.000599804
0.000575173
0.000556866
0.000545244
0.000539168
0.000537068
0.000537666
0.000540174
0.000543981
0.000548507
0.000553118
0.000557206
0.000560262
0.000561773
0.000561354
0.000558856
0.000554255
0.000547447
0.000538639
0.000528003
0.000838704
0.000825015
0.000811523
0.000796902
0.000780631
0.000762183
0.000741061
0.000716888
0.000689608
0.000659831
0.000629179
0.00060021
0.00057569
0.000557353
0.000545421
0.000538941
0.000536518
0.000536973
0.000539404
0.000543043
0.000547166
0.000551094
0.000554245
0.000556092
0.0005562
0.000554379
0.00055057
0.000544697
0.000536884
0.000527308
0.000855981
0.000843702
0.000831035
0.000817455
0.000802462
0.000785535
0.000766183
0.000743964
0.000718605
0.000690223
0.000659674
0.000628764
0.000600048
0.000575886
0.000557759
0.000545812
0.000539139
0.000536492
0.00053674
0.000538905
0.000542103
0.000545545
0.000548554
0.000550554
0.000551064
0.000549816
0.000546713
0.000541707
0.000534815
0.000526231
0.000871366
0.000859914
0.000848179
0.000835688
0.000821971
0.000806541
0.000788924
0.000768675
0.000745421
0.000719015
0.000689788
0.000658843
0.00062811
0.000599889
0.000576327
0.000558622
0.000546776
0.000539932
0.000537005
0.000536884
0.000538531
0.000541018
0.000543539
0.000545428
0.000546142
0.000545322
0.000542819
0.000538574
0.000532538
0.000524878
0.000884436
0.000873939
0.000863193
0.000851813
0.000839381
0.00082546
0.000809608
0.000791386
0.000770383
0.000746309
0.000719166
0.000689532
0.000658672
0.000628422
0.000600982
0.000578153
0.000560832
0.00054892
0.000541747
0.000538314
0.00053754
0.000538351
0.000539844
0.000541211
0.000541819
0.000541204
0.000539139
0.000535516
0.000530248
0.000523445
0.00089581
0.000886355
0.00087669
0.000866499
0.000855443
0.00084315
0.000829207
0.000813196
0.000794693
0.000773323
0.000748886
0.00072157
0.000692135
0.000661804
0.000632415
0.000605845
0.000583516
0.000566114
0.000553719
0.00054576
0.000541334
0.000539399
0.000538948
0.000539059
0.00053899
0.000538181
0.00053626
0.000533022
0.000528355
0.000522301
0.000906143
0.000898055
0.000889777
0.00088111
0.000871801
0.000861536
0.000849961
0.000836681
0.000821262
0.000803261
0.000782333
0.000758371
0.000731717
0.000703168
0.000673944
0.000645556
0.000619435
0.000596808
0.000578568
0.000564806
0.000555113
0.000548729
0.00054474
0.000542213
0.00054032
0.000538358
0.000535843
0.000532419
0.000527904
0.000522301
0.000918366
0.000912462
0.000906386
0.000900058
0.000893329
0.000885991
0.000877756
0.000868266
0.000857063
0.000843625
0.000827458
0.000808222
0.000785925
0.00076104
0.000734351
0.000706566
0.0006786
0.000652008
0.000628149
0.000607799
0.000591205
0.000578177
0.000568186
0.000560543
0.000554513
0.000549369
0.000544519
0.0005395
0.000534004
0.000528027
0.000943154
0.00094085
0.000938283
0.00093565
0.00093307
0.000930465
0.000927584
0.000924016
0.000919146
0.000912299
0.000902841
0.000890309
0.000874522
0.000855665
0.000834287
0.000810148
0.000783254
0.000755423
0.000728002
0.000702172
0.000678647
0.000657779
0.000639584
0.000623921
0.000610453
0.000598591
0.000587866
0.000577914
0.000568434
0.000559865
0.00102342
0.00102556
0.00102742
0.00103048
0.00103511
0.00104068
0.0010464
0.00105144
0.0010551
0.00105644
0.00105498
0.00105053
0.00104292
0.00103246
0.00101915
0.00100227
0.000980728
0.000956786
0.000931699
0.000906515
0.000881897
0.000858217
0.000835783
0.000814901
0.000795607
0.000776654
0.000758263
0.000740757
0.000724492
0.00071084
0.00131855
0.00131719
0.00131947
0.00132733
0.00133743
0.00134557
0.001352
0.00135681
0.00136021
0.00136071
0.00135941
0.00135691
0.0013533
0.00134919
0.00134379
0.00133689
0.00132579
0.0013149
0.00130447
0.00129524
0.00128696
0.00127969
0.00127332
0.00126809
0.00126372
0.0012549
0.00124495
0.00123484
0.00122633
0.00121933
0.000160942
0.000164726
0.00016293
0.000158858
0.000153403
0.000147139
0.000140488
0.000133794
0.000127288
0.000121142
0.000115483
0.000110442
0.000106051
0.000102375
9.93965e-05
9.71515e-05
9.5652e-05
9.50981e-05
9.5793e-05
9.78709e-05
0.000100836
0.000103768
0.000105765
0.00010611
0.0001043
9.98069e-05
9.24296e-05
8.10031e-05
0.000336416
0.000320786
0.000678616
0.000761719
0.000741038
0.000683862
0.000618081
0.000555506
0.00050019
0.00045249
0.000411564
0.000376769
0.000347683
0.000323195
0.000302357
0.000285067
0.000270554
0.000258763
0.000249188
0.00024323
0.000241065
0.000243308
0.000250245
0.000261314
0.000274162
0.000285083
0.000289056
0.000283877
0.000270057
0.00024693
0.000244446
0.000277421
0.00105285
0.00120756
0.00121887
0.00116351
0.0010826
0.000995422
0.000911612
0.000835411
0.000767578
0.000708515
0.000658206
0.000615424
0.000578842
0.000548524
0.000523381
0.000502805
0.000485817
0.000474013
0.000465174
0.000459824
0.000460561
0.000469207
0.000483412
0.000497305
0.000503214
0.000494247
0.000470311
0.000428891
0.000394047
0.000384275
0.00128667
0.00148098
0.00151874
0.00148301
0.00141144
0.0013239
0.00123297
0.00114622
0.00106604
0.000994085
0.000931441
0.000877662
0.000831707
0.000794063
0.000763811
0.000739923
0.000721294
0.000708284
0.000695775
0.000683587
0.000675689
0.000676706
0.000685858
0.000698216
0.000702168
0.000689583
0.000658443
0.000604949
0.000549823
0.000515289
0.00141324
0.00159918
0.00167377
0.00167146
0.00161856
0.00154237
0.00145681
0.00137302
0.00129165
0.00121578
0.00114885
0.0010906
0.00104092
0.00100096
0.000970091
0.000947377
0.000931826
0.000921195
0.00090683
0.000889746
0.000874898
0.000867977
0.000870651
0.000879003
0.000880582
0.000865555
0.000830539
0.000770822
0.000703382
0.000653266
0.00147657
0.00165231
0.00173769
0.00175788
0.00173042
0.00167676
0.00160806
0.00152871
0.00144979
0.00137606
0.0013125
0.00125508
0.00120634
0.00116805
0.00114012
0.00112194
0.00111251
0.0011057
0.001093
0.00107321
0.00105234
0.00103864
0.00103506
0.00104019
0.00103878
0.00102228
0.000985562
0.000923705
0.00085036
0.000790638
0.00150541
0.00163703
0.00172184
0.0017582
0.00175639
0.00172733
0.00167908
0.0016184
0.00155471
0.00149056
0.00142908
0.00137533
0.00133158
0.00129826
0.00127606
0.0012653
0.00126356
0.00126215
0.00125151
0.00123055
0.00120666
0.00118827
0.00117903
0.00118
0.0011778
0.00116065
0.00112394
0.00106302
0.000987612
0.000921255
0.00149385
0.00157024
0.0016348
0.00168129
0.00170668
0.00170953
0.00168698
0.0016496
0.00160348
0.00155358
0.00150381
0.00145932
0.00142163
0.00139531
0.00138095
0.00137967
0.00138652
0.00139184
0.00138429
0.00136396
0.00133934
0.00131773
0.00130363
0.00130057
0.00129683
0.00128139
0.00124638
0.00118865
0.00111459
0.001044
0.00148502
0.00150756
0.00154195
0.00157845
0.00161108
0.00163289
0.00163797
0.00162976
0.00160618
0.00157477
0.00154021
0.00150767
0.00148029
0.001463
0.00145797
0.00146709
0.00148336
0.00149572
0.00149331
0.00147603
0.00145168
0.00142772
0.00141012
0.00140331
0.0013972
0.00138367
0.00135391
0.00130131
0.00123138
0.00115752
0.00151811
0.0014811
0.00146898
0.00148085
0.00150478
0.00153211
0.00155372
0.00156643
0.00156765
0.00155889
0.00154272
0.00152532
0.00151078
0.00150484
0.00151024
0.00153
0.00155576
0.00157482
0.00157899
0.00156649
0.00154391
0.00151966
0.00149994
0.00148984
0.00148177
0.00147044
0.00144512
0.00139966
0.00133457
0.00126056
0.00156797
0.00149664
0.00143652
0.00141028
0.00141105
0.00142966
0.0014551
0.00147996
0.00149892
0.00151114
0.00151577
0.00151591
0.00151634
0.00152362
0.00154013
0.00157075
0.00160595
0.00163468
0.00164527
0.00163734
0.00161771
0.00159513
0.00157472
0.00156144
0.00155158
0.00154013
0.00151817
0.0014805
0.00142328
0.00135379
0.00164689
0.00154624
0.00145331
0.0013849
0.00134904
0.00134738
0.00136305
0.00138871
0.0014166
0.00144263
0.00146478
0.00148369
0.0015005
0.00152165
0.00155017
0.00159168
0.00163611
0.00167255
0.00169081
0.00169064
0.00167661
0.00165642
0.00163591
0.00161961
0.00160551
0.00159148
0.0015738
0.00154391
0.00149684
0.00143497
0.00174918
0.00162996
0.00151107
0.00141188
0.00134399
0.00130739
0.0012983
0.00131256
0.00133786
0.0013688
0.0014013
0.00143407
0.00146703
0.0015024
0.00154315
0.00159528
0.00164853
0.00169262
0.0017185
0.00172583
0.00171835
0.00170235
0.00168372
0.00166625
0.00165087
0.00163431
0.00161583
0.00159193
0.00155445
0.00150289
0.0018788
0.0017504
0.00161643
0.00149362
0.00139335
0.00132226
0.00128309
0.00127126
0.00128139
0.00130603
0.00133944
0.00137873
0.00142209
0.00147012
0.00152257
0.00158447
0.00164581
0.00169719
0.00173072
0.00174599
0.00174531
0.00173442
0.00171889
0.00170204
0.00168654
0.00167
0.00165108
0.00162887
0.00160111
0.00156154
0.00203186
0.00190249
0.00176353
0.00162693
0.0015027
0.00139974
0.00132539
0.00128118
0.00126464
0.00127109
0.00129437
0.00133106
0.00137703
0.00143112
0.00149288
0.00156283
0.001631
0.00168885
0.00172979
0.00175258
0.00175891
0.00175377
0.00174235
0.00172777
0.00171345
0.00169826
0.00168117
0.00166242
0.00164053
0.00161068
0.00220424
0.00208182
0.00194619
0.00180455
0.00166535
0.00153786
0.00143161
0.00135257
0.00130278
0.00128105
0.00128331
0.00130554
0.00134431
0.00139668
0.00146019
0.00153502
0.00160785
0.00167073
0.00171802
0.0017477
0.00176091
0.00176189
0.00175552
0.00174482
0.00173309
0.00172116
0.00170775
0.00169087
0.0016712
0.00164851
0.00239131
0.00228262
0.00215593
0.00201535
0.00186931
0.00172645
0.00159592
0.00148577
0.00140155
0.00134584
0.00131821
0.00131638
0.00133737
0.00137781
0.00143494
0.00150726
0.00158114
0.00164672
0.0016985
0.00173418
0.00175392
0.00176117
0.00176087
0.00175573
0.00174787
0.0017383
0.00172667
0.00171173
0.00169388
0.00167374
0.00258743
0.00249485
0.00238013
0.00224619
0.00210094
0.0019515
0.00180569
0.00167186
0.00155742
0.0014678
0.00140602
0.00137278
0.00136694
0.00138571
0.00142628
0.00148767
0.00155675
0.00162142
0.00167545
0.00171608
0.00174207
0.0017556
0.00176002
0.00175884
0.00175406
0.0017471
0.00173782
0.00172602
0.00170983
0.00169177
0.00278549
0.00270773
0.00260769
0.00248539
0.00234677
0.00219791
0.00204511
0.00189601
0.00175849
0.00163948
0.00154436
0.00147677
0.00143776
0.00142654
0.0014424
0.00148375
0.00153964
0.00159903
0.00165279
0.00169536
0.00172475
0.00174234
0.001751
0.00175376
0.00175261
0.00174844
0.00174192
0.0017328
0.00171942
0.00170401
0.00297643
0.00291385
0.00282945
0.00272128
0.00259323
0.00245016
0.00229711
0.00214044
0.00198749
0.00184558
0.00172129
0.00162028
0.001546
0.00150043
0.00148422
0.00149753
0.00153353
0.00158056
0.0016287
0.00167027
0.00170181
0.00172281
0.00173551
0.0017419
0.00174434
0.0017436
0.00174008
0.00173394
0.00172455
0.00171188
0.00315444
0.00310516
0.00303534
0.00294163
0.00282605
0.00269195
0.00254332
0.00238502
0.00222315
0.00206456
0.00191623
0.00178518
0.00167692
0.00159669
0.00154425
0.00152483
0.00153275
0.00156172
0.00160054
0.00163778
0.00167077
0.00169577
0.00171335
0.00172333
0.00172972
0.00173299
0.00173295
0.00173034
0.0017249
0.00171624
0.00331142
0.00327169
0.00321332
0.00313228
0.00302887
0.00290479
0.00276274
0.00260604
0.00243926
0.00226835
0.00210043
0.00194353
0.0018049
0.00169221
0.00160514
0.00155062
0.00152718
0.00153134
0.00155544
0.00158936
0.00162358
0.00165314
0.00167603
0.00169314
0.00170631
0.00171464
0.00171926
0.00172111
0.00172071
0.00171782
0.00343354
0.00339788
0.00334635
0.00327441
0.00318078
0.00306533
0.00292911
0.0027739
0.002603
0.0024219
0.00223816
0.00206082
0.00189823
0.00175864
0.00164435
0.00155787
0.00150178
0.00147693
0.00148016
0.00150417
0.00153944
0.00157804
0.00161197
0.00164012
0.00166246
0.00167983
0.0016938
0.00170432
0.00171154
0.00171586
0.00349676
0.00345926
0.00340902
0.00334133
0.00325334
0.003143
0.00300946
0.00285343
0.00267812
0.00248993
0.00229746
0.00211041
0.00193651
0.00178257
0.0016536
0.00154595
0.00146066
0.00140502
0.00137903
0.00138103
0.00140599
0.0014463
0.00149157
0.00153549
0.00157521
0.00160964
0.00163899
0.00166367
0.00168361
0.00170083
0.00346376
0.00341863
0.00336491
0.00329773
0.00321248
0.0031051
0.00297352
0.00281895
0.00264659
0.00246451
0.00228155
0.00210655
0.00194345
0.00179685
0.00167131
0.00155995
0.00145849
0.00137589
0.00131543
0.00128003
0.00127104
0.00128697
0.00132121
0.00136742
0.00141962
0.00147278
0.00152348
0.00156998
0.00161106
0.00164884
0.00328171
0.003234
0.00318227
0.00312087
0.00304452
0.00294898
0.00283321
0.00270042
0.00255707
0.00240941
0.00226433
0.00212626
0.00199638
0.00187797
0.001774
0.00167623
0.00157662
0.00148226
0.0013965
0.00132379
0.00126806
0.0012328
0.00121902
0.00122633
0.00125249
0.00129362
0.0013449
0.0014017
0.0014599
0.00151954
0.00295002
0.00292211
0.00289654
0.00286657
0.00282586
0.00277004
0.00269893
0.00261641
0.00252734
0.00243533
0.002343
0.00225089
0.00215906
0.00207274
0.00199532
0.00191904
0.00183388
0.0017454
0.00165591
0.00156887
0.00148692
0.0014134
0.00135137
0.00130384
0.00127269
0.00125866
0.00126138
0.00127926
0.00131007
0.00135837
0.0026698
0.00269348
0.00272067
0.00273905
0.0027438
0.00273273
0.00270702
0.00267074
0.00262523
0.00257341
0.00251685
0.00245592
0.0023913
0.00232745
0.00226941
0.00221136
0.00214614
0.00207768
0.00200602
0.00193364
0.0018617
0.0017915
0.00172352
0.00166022
0.00160295
0.00155307
0.00151237
0.00148186
0.00146286
0.00147257
0.00264137
0.00267568
0.00271661
0.00275421
0.00277759
0.00278623
0.00278039
0.0027614
0.00273223
0.00269593
0.0026547
0.00260798
0.00255745
0.00250931
0.00246401
0.0024182
0.00237221
0.00232697
0.00228275
0.00224122
0.00220322
0.00216896
0.00213669
0.00210817
0.00208065
0.00205317
0.00202727
0.00200421
0.00198552
0.00199029
0.00270984
0.002737
0.0027646
0.00278952
0.00279935
0.00279891
0.00278964
0.00277276
0.00274969
0.00272199
0.00269005
0.00265495
0.00261722
0.00258235
0.00254792
0.0025175
0.00249163
0.00246923
0.0024521
0.00244151
0.00243803
0.0024415
0.00245126
0.00246269
0.00247577
0.00248692
0.00249816
0.00251078
0.00252135
0.00252595
0.000190697
0.000193831
0.000189205
0.000182855
0.000175628
0.000167739
0.000159538
0.000151384
0.000143531
0.000136192
0.000129501
0.00012358
0.000118446
0.000114211
0.000110872
0.000108546
0.000107335
0.000107808
0.00011082
0.000116371
0.000122788
0.000128178
0.000131462
0.000132145
0.000130007
0.000124634
0.000115758
0.000102199
8.59729e-05
7.37327e-05
0.000878477
0.000985221
0.000978291
0.000923464
0.000844795
0.000765303
0.000693336
0.000630638
0.000576556
0.0005305
0.000491221
0.00045785
0.000428851
0.000404547
0.00038311
0.000364598
0.000347994
0.000338255
0.000337158
0.00034697
0.000366631
0.000391906
0.000416462
0.000433755
0.000437275
0.000422267
0.000392318
0.000349764
0.000312425
0.000273525
0.00139548
0.00160561
0.00164628
0.0015937
0.00150008
0.00139196
0.00128454
0.0011848
0.00109523
0.00101703
0.000949151
0.000890847
0.000840207
0.000798125
0.000762253
0.000731505
0.000704035
0.000684375
0.000670631
0.000669023
0.00068391
0.000712487
0.00074544
0.000771431
0.000774241
0.000751154
0.000701278
0.000625665
0.000549092
0.000485805
0.00176658
0.0020124
0.00208463
0.00205272
0.00196839
0.00185871
0.00174155
0.00162624
0.00151893
0.00142287
0.00133785
0.00126425
0.0012008
0.00114909
0.00110708
0.00107307
0.00104454
0.00102096
0.000997308
0.000983538
0.000985932
0.00100708
0.0010386
0.00106724
0.00107176
0.00104382
0.000981986
0.000886254
0.000781248
0.000694022
0.00202307
0.00227664
0.00236338
0.00235202
0.0022834
0.00218419
0.00207168
0.00195348
0.00184092
0.00173828
0.00164531
0.0015643
0.00149529
0.00144017
0.00139815
0.00136702
0.00134284
0.00131726
0.00128369
0.00125931
0.00125197
0.00126288
0.00128848
0.0013167
0.00132418
0.00129624
0.00123077
0.00112561
0.00100398
0.000896887
0.00220726
0.00242279
0.00252638
0.00254198
0.00249627
0.00240708
0.00229895
0.00218174
0.00207415
0.00197482
0.00188049
0.00179859
0.00172972
0.00167658
0.00163921
0.00161532
0.00159803
0.00157187
0.00153147
0.0014953
0.0014777
0.00147953
0.00149802
0.00152426
0.00153463
0.00151275
0.00144905
0.00134324
0.00121404
0.00109263
0.0023334
0.00251639
0.00260893
0.00263025
0.00260009
0.0025324
0.00244447
0.00235119
0.00224761
0.00214667
0.00205227
0.00197576
0.00191183
0.0018652
0.00183611
0.00182303
0.00181332
0.00178658
0.00174115
0.0016951
0.00166757
0.00166094
0.00167236
0.00169531
0.00170775
0.00169299
0.00164028
0.00153993
0.00141114
0.00127951
0.00244016
0.00255765
0.00262134
0.00264149
0.00262526
0.00257881
0.00251255
0.00243567
0.00234899
0.0022611
0.00218142
0.00210782
0.00204958
0.00201185
0.00199411
0.00199406
0.00199058
0.00196508
0.00191516
0.00186125
0.00182699
0.00181225
0.001817
0.00183539
0.00184805
0.00184143
0.00180286
0.00171715
0.0015941
0.00145539
0.0025074
0.00254904
0.00257617
0.00259049
0.00258591
0.00256041
0.00251884
0.00246329
0.00239613
0.00232548
0.00225809
0.002197
0.00214895
0.00212266
0.00211788
0.00213146
0.00213566
0.00210798
0.00205509
0.00199862
0.00196018
0.00193856
0.001937
0.00194948
0.00196238
0.0019627
0.00193454
0.00186615
0.00175355
0.00161698
0.00254576
0.00252924
0.00252223
0.00252005
0.00251619
0.00250312
0.00247928
0.00244382
0.00239808
0.00234776
0.00229673
0.00225071
0.00221617
0.00220298
0.0022119
0.00223856
0.00224957
0.00222242
0.00216924
0.00211369
0.00207045
0.00204388
0.00203663
0.00204193
0.00204852
0.00205062
0.00203395
0.00198339
0.00189125
0.00176628
0.00259389
0.0025345
0.00248481
0.00245596
0.00243999
0.00242802
0.00241491
0.00239541
0.0023684
0.00233647
0.0023042
0.00227488
0.00225587
0.00225758
0.00228012
0.00231884
0.00233571
0.00231187
0.00226186
0.00220676
0.00216142
0.00213277
0.00211965
0.00211783
0.00211839
0.00211705
0.00210589
0.00207304
0.00200274
0.00189833
0.00267588
0.00259458
0.00250167
0.00242266
0.00238247
0.00235804
0.00234472
0.00233392
0.0023206
0.00230465
0.00228831
0.00227636
0.00227394
0.0022901
0.00232648
0.00237577
0.00239933
0.00238202
0.00233755
0.0022864
0.00224087
0.0022081
0.0021895
0.00218242
0.00217924
0.00217463
0.00216498
0.00214294
0.0020961
0.00201362
0.00276109
0.00266078
0.00254679
0.00244753
0.00236679
0.00231491
0.00229096
0.0022777
0.00227023
0.00226481
0.00226142
0.00226327
0.00227623
0.00230563
0.002355
0.00241305
0.00244153
0.00243024
0.00239315
0.0023474
0.00230476
0.00227063
0.00224845
0.00223718
0.00223123
0.00222509
0.00221677
0.00220172
0.00217383
0.00211303
0.00287757
0.00276289
0.00262926
0.00250291
0.00239762
0.00232296
0.00227581
0.00224653
0.00223489
0.00223161
0.0022354
0.0022473
0.00226962
0.00231009
0.00237015
0.00243485
0.00246832
0.0024641
0.00243489
0.00239612
0.00235673
0.00232249
0.00229816
0.00228408
0.00227633
0.00227095
0.00226558
0.00225544
0.00223701
0.00219236
0.00302225
0.00289604
0.00275652
0.00261528
0.00248634
0.00238244
0.0023058
0.00225683
0.00223216
0.00222012
0.00222313
0.00223845
0.00226521
0.00230979
0.0023768
0.00244553
0.00248333
0.00248633
0.00246564
0.00243383
0.00239848
0.00236548
0.00234025
0.002325
0.00231697
0.00231357
0.00231025
0.00230282
0.00228679
0.00225535
0.00319357
0.00307658
0.00293629
0.00278471
0.00263698
0.00250611
0.00239999
0.00232261
0.00227318
0.00224621
0.00223699
0.00224647
0.00227053
0.00231321
0.00237954
0.002449
0.00248996
0.00249968
0.00248724
0.00246231
0.00243156
0.00240132
0.00237646
0.00236203
0.00235488
0.00235208
0.00235033
0.00234419
0.0023309
0.00230653
0.00340456
0.00329211
0.00315545
0.00300091
0.00284147
0.00268951
0.00255555
0.00244705
0.00236703
0.00231404
0.00228486
0.00227808
0.00229011
0.00232456
0.00238114
0.00244707
0.00248962
0.00250535
0.00250061
0.00248265
0.00245705
0.00243096
0.00240779
0.0023939
0.00238714
0.00238521
0.00238495
0.0023811
0.0023699
0.00234847
0.00363074
0.00352861
0.00340024
0.00324856
0.00308428
0.00291841
0.00276197
0.00262436
0.00251177
0.00242656
0.00236822
0.00233572
0.00232672
0.00234182
0.00238272
0.00243674
0.00247912
0.00250068
0.00250357
0.00249305
0.00247314
0.00245113
0.00243125
0.00241877
0.0024133
0.00241267
0.00241386
0.00241299
0.00240388
0.00238567
0.00386325
0.00377296
0.00365485
0.00350949
0.00334545
0.00317213
0.00299972
0.00283799
0.00269477
0.00257503
0.00248119
0.00241423
0.00237377
0.0023611
0.00237608
0.00241212
0.00244908
0.00247499
0.00248563
0.002486
0.00247398
0.00245866
0.00244409
0.00243465
0.0024316
0.00243315
0.00243651
0.00243898
0.0024322
0.00241771
0.00409099
0.0040104
0.00390178
0.00376377
0.00360288
0.00342667
0.00324389
0.0030635
0.0028935
0.00274012
0.002608
0.00250063
0.00242039
0.00237028
0.00235183
0.00236143
0.0023858
0.00241271
0.00243437
0.00244462
0.00244732
0.00244448
0.00243851
0.00243544
0.00243717
0.00244306
0.00244997
0.00245573
0.00245294
0.00244341
0.00429734
0.00422297
0.0041213
0.00398977
0.00383289
0.0036562
0.00346663
0.00327166
0.00307858
0.00289399
0.00272424
0.00257514
0.00245196
0.00235948
0.00230204
0.00227623
0.00227781
0.00229771
0.00232577
0.00235165
0.00237215
0.00238682
0.00239731
0.0024067
0.00241813
0.00243389
0.00244741
0.00245781
0.00246249
0.00246031
0.00446212
0.00438916
0.00429067
0.00416334
0.0040096
0.00383281
0.00363785
0.00343065
0.00321754
0.00300562
0.00280309
0.00261794
0.00245767
0.00232775
0.00223397
0.00217179
0.00214142
0.00213956
0.00215939
0.0021911
0.00222709
0.00226249
0.00229537
0.00232607
0.0023557
0.00238337
0.00241021
0.00243738
0.00245599
0.00246499
0.00455793
0.00448135
0.00438221
0.00425638
0.00410412
0.00392664
0.00372698
0.0035102
0.00328212
0.00305145
0.00282876
0.0026238
0.00244462
0.00229531
0.00218037
0.0020938
0.00203306
0.00199856
0.00198893
0.00200074
0.00202958
0.0020704
0.00211855
0.00217067
0.00222391
0.00227555
0.00232424
0.00236878
0.00240273
0.00243168
0.00454784
0.00446544
0.00436384
0.00423847
0.00408787
0.00391155
0.00371178
0.0034944
0.00326455
0.0030342
0.00281574
0.00261862
0.00244855
0.00230657
0.00219315
0.00210393
0.00202661
0.00196288
0.00191431
0.00188325
0.00187269
0.00188325
0.00191399
0.00196241
0.00202408
0.00209335
0.00216481
0.00223418
0.00229552
0.00234793
0.0043951
0.00430984
0.00420924
0.0040899
0.00394928
0.00378573
0.00360123
0.00340211
0.00319763
0.00299905
0.00281688
0.00265672
0.00252107
0.00240782
0.00231377
0.00223759
0.00215887
0.00207988
0.00200214
0.00193024
0.00187017
0.00182699
0.0018052
0.0018081
0.00183628
0.00188693
0.00195423
0.00203148
0.00211073
0.00218667
0.00409209
0.00401166
0.00392725
0.00383443
0.00372708
0.00360244
0.00346232
0.00331308
0.00316369
0.00302244
0.0028951
0.00278311
0.00268777
0.00260624
0.00253552
0.00247303
0.00239956
0.00231848
0.00223054
0.00213954
0.00205013
0.00196635
0.00189346
0.00183745
0.00180377
0.00179574
0.00181268
0.00185136
0.00190668
0.00197798
0.00371046
0.00366478
0.00363173
0.00359813
0.0035507
0.00348695
0.00340821
0.00331994
0.00322925
0.00314182
0.00306032
0.00298464
0.00291664
0.00285375
0.00279526
0.00273724