/*--------------------------------*- C++ -*----------------------------------*\
  =========                 |
  \\      /  F ield         | OpenFOAM: The Open Source CFD Toolbox
   \\    /   O peration     | Website:  https://openfoam.org
    \\  /    A nd           | Version:  12
     \\/     M anipulation  |
\*---------------------------------------------------------------------------*/
FoamFile
{
    format      ascii;
    class       volScalarField;
    location    "1550/air";
    object      p_rgh;
}
// * * * * * * * * * * * * * * * * * * * * * * * * * * * * * * * * * * * * * //

dimensions      [1 -1 -2 0 0 0 0];

internalField   nonuniform List<scalar> 
243000
(
30.0335
29.9996
29.934
29.7962
29.6569
29.5325
29.4267
29.3432
29.2812
29.241
29.2205
29.2164
29.2238
29.245
29.2735
29.3207
29.3798
29.456
29.5396
29.6318
29.7259
29.8174
29.9011
29.9736
30.0369
30.0852
30.1299
30.1555
30.2037
30.1913
30.0259
29.9733
29.9172
29.7893
29.6588
29.5379
29.4345
29.3522
29.2905
29.252
29.2329
29.2297
29.2368
29.2572
29.2848
29.331
29.3889
29.4637
29.5472
29.6395
29.7338
29.8255
29.9093
29.9816
30.0444
30.0919
30.1383
30.1628
30.2085
30.1854
30.004
29.9154
29.8539
29.7266
29.6048
29.4937
29.4001
29.3264
29.2718
29.2389
29.224
29.2241
29.2329
29.2539
29.2815
29.3275
29.3844
29.4591
29.543
29.6357
29.7304
29.8231
29.9081
29.9816
30.0449
30.0927
30.139
30.158
30.2088
30.1776
29.973
29.842
29.774
29.6471
29.5341
29.4335
29.3504
29.2861
29.2393
29.2128
29.2027
29.2061
29.217
29.2389
29.2663
29.3118
29.3675
29.4407
29.5223
29.6127
29.7058
29.7978
29.8833
29.9585
30.0258
30.0781
30.1304
30.1485
30.2045
30.1696
29.9378
29.7686
29.6961
29.5695
29.4634
29.3711
29.2969
29.2404
29.2002
29.1791
29.1735
29.1799
29.1926
29.2153
29.2423
29.2869
29.3411
29.4123
29.4912
29.5792
29.6701
29.7612
29.8476
29.925
29.996
30.0522
30.1103
30.1288
30.1934
30.1581
29.8983
29.708
29.6276
29.5018
29.4016
29.3154
29.2475
29.1966
29.1611
29.1442
29.1417
29.1506
29.1647
29.1877
29.2137
29.257
29.3091
29.3778
29.4535
29.5382
29.6267
29.7169
29.8041
29.8839
29.9587
30.019
30.083
30.1039
30.176
30.1419
29.8551
29.6653
29.5709
29.4474
29.3517
29.2699
29.2061
29.1581
29.1245
29.1094
29.1083
29.1184
29.1332
29.1561
29.1807
29.2219
29.2714
29.337
29.4086
29.4897
29.5755
29.6648
29.7529
29.8352
29.9139
29.9788
30.0488
30.0736
30.1518
30.119
29.8059
29.6285
29.527
29.4107
29.3143
29.2359
29.1739
29.1268
29.0934
29.0777
29.0754
29.0849
29.0992
29.1214
29.144
29.1825
29.2287
29.2904
29.3574
29.4343
29.5174
29.6058
29.695
29.7799
29.8628
29.9322
30.0082
30.0383
30.1217
30.0918
29.7494
29.5885
29.4908
29.3838
29.2919
29.2131
29.1505
29.1032
29.0682
29.0504
29.0453
29.052
29.064
29.0845
29.1046
29.1397
29.1819
29.2389
29.3008
29.3734
29.4536
29.5412
29.6317
29.7194
29.8063
29.8805
29.9622
29.9983
30.0864
30.0607
29.686
29.536
29.4526
29.3606
29.2747
29.1979
29.1339
29.0859
29.0483
29.0273
29.0184
29.0215
29.0291
29.0463
29.0632
29.0944
29.1319
29.1834
29.2398
29.308
29.3854
29.4723
29.5641
29.6547
29.7459
29.8248
29.9119
29.9546
30.0469
30.0265
29.6165
29.4699
29.4037
29.3328
29.2561
29.185
29.1217
29.0714
29.0322
29.008
28.9948
28.9933
28.9958
29.008
29.0207
29.0472
29.0794
29.125
29.1757
29.2394
29.3139
29.4003
29.4936
29.5872
29.6825
29.7663
29.8582
29.9079
30.004
29.9901
29.5414
29.3982
29.3477
29.2938
29.2312
29.1691
29.1104
29.0585
29.018
28.991
28.9738
28.9674
28.9641
28.9705
28.9776
28.999
29.0252
29.0645
29.1094
29.1685
29.2405
29.3263
29.4212
29.5179
29.6173
29.7058
29.8021
29.8592
29.9587
29.9523
29.4621
29.3226
29.2858
29.2468
29.1977
29.1458
29.0941
29.0452
29.0044
28.9751
28.954
28.9432
28.9338
28.9343
28.9346
28.9503
28.9702
29.0028
29.0418
29.0965
29.1659
29.2514
29.3479
29.4478
29.5512
29.6443
29.7446
29.8094
29.9117
29.9141
29.3789
29.2452
29.2198
29.1938
29.1563
29.1155
29.0721
29.0287
28.9898
28.959
28.9346
28.9193
28.9047
28.899
28.8922
28.9015
28.9148
28.9408
28.9739
29.0242
29.0913
29.1765
29.2746
29.3776
29.4848
29.5824
29.6869
29.7589
29.8626
29.8759
29.2914
29.1657
29.1487
29.1348
29.1079
29.0774
29.0432
29.0063
28.9717
28.9415
28.9146
28.8953
28.8754
28.8639
28.8503
28.8528
28.8595
28.8789
28.9062
28.9523
29.0171
29.1022
29.202
29.308
29.4188
29.5212
29.6294
29.708
29.8124
29.8378
29.1994
29.0847
29.0739
29.0687
29.052
29.0313
29.0061
28.9768
28.9473
28.9201
28.8925
28.8702
28.8455
28.8283
28.8085
28.8044
28.8047
28.8176
28.8393
28.8812
28.944
29.0289
29.1304
29.2394
29.3537
29.4609
29.5722
29.6573
29.7616
29.7997
29.102
29.001
28.9966
28.9975
28.9887
28.977
28.9605
28.9392
28.9153
28.8922
28.8666
28.8427
28.8139
28.7913
28.7659
28.756
28.7505
28.7571
28.7733
28.8113
28.8721
28.957
29.0601
29.1721
29.2899
29.4012
29.5154
29.6068
29.7108
29.7613
28.9987
28.914
28.9151
28.9214
28.9192
28.9146
28.906
28.8926
28.8752
28.8564
28.8343
28.8112
28.7796
28.7523
28.7216
28.7067
28.6963
28.6971
28.7081
28.7425
28.8015
28.8864
28.9911
29.1059
29.2268
29.3425
29.4588
29.5562
29.6602
29.722
28.8893
28.823
28.8281
28.8399
28.844
28.8452
28.8433
28.8367
28.826
28.8123
28.7939
28.7732
28.7408
28.7102
28.6749
28.6553
28.6409
28.6372
28.6435
28.6743
28.7316
28.8162
28.9225
29.0402
29.1642
29.2837
29.4025
29.5048
29.6097
29.6813
28.7727
28.7255
28.7343
28.7516
28.762
28.7687
28.7726
28.7723
28.7675
28.759
28.7447
28.7271
28.6957
28.6634
28.6247
28.6011
28.5831
28.5758
28.578
28.6054
28.6608
28.7454
28.8534
28.9741
29.1007
29.2239
29.3454
29.4525
29.5591
29.6387
28.6476
28.6199
28.6325
28.6549
28.671
28.6834
28.693
28.6986
28.6996
28.696
28.6862
28.672
28.6423
28.6099
28.5692
28.5428
28.5218
28.5114
28.51
28.5346
28.5886
28.6736
28.7836
28.9065
29.0357
29.1625
29.2869
29.3988
29.5074
29.594
28.5114
28.5038
28.5211
28.5479
28.5697
28.5879
28.6032
28.6146
28.621
28.6228
28.6178
28.6072
28.5801
28.5484
28.5068
28.4788
28.4557
28.4428
28.4391
28.4613
28.5144
28.5998
28.7115
28.8364
28.9681
29.0984
29.2259
29.3423
29.4534
29.5463
28.3669
28.3743
28.397
28.4292
28.4575
28.4825
28.5039
28.521
28.5328
28.5394
28.5392
28.5326
28.5086
28.4784
28.4365
28.4076
28.3834
28.3691
28.364
28.3847
28.4371
28.5229
28.6358
28.7625
28.8966
29.0302
29.1608
29.2817
29.3957
29.4943
28.2065
28.2238
28.2542
28.294
28.3308
28.3644
28.3934
28.4173
28.435
28.4467
28.4508
28.4482
28.4279
28.3999
28.3584
28.3292
28.3042
28.2895
28.2838
28.3035
28.3555
28.4414
28.5548
28.683
28.8192
28.9558
29.0892
29.2141
29.3312
29.4348
28.0306
28.0577
28.0982
28.1473
28.1943
28.2378
28.2753
28.3064
28.3305
28.3473
28.3556
28.3567
28.34
28.3147
28.2744
28.2453
28.2199
28.205
28.199
28.2183
28.2699
28.3555
28.4687
28.5978
28.7359
28.875
29.0109
29.1393
29.2592
29.3679
27.807
27.8453
27.9014
27.9674
28.0325
28.0924
28.1436
28.1862
28.2196
28.2438
28.257
28.262
28.2496
28.2269
28.1877
28.1587
28.1324
28.1168
28.1102
28.1283
28.1783
28.2622
28.3731
28.5016
28.6398
28.7795
28.916
29.0462
29.1675
29.279
27.6013
27.6569
27.731
27.8144
27.8971
27.9709
28.0331
28.085
28.1262
28.156
28.1728
28.1803
28.1707
28.1509
28.1134
28.0845
28.0569
28.0408
28.0337
28.0503
28.0978
28.1783
28.2866
28.4139
28.552
28.6922
28.8297
28.9627
29.0874
29.2043
27.1845
27.2845
27.4103
27.5455
27.6765
27.7879
27.8782
27.9523
28.0107
28.0543
28.0809
28.0945
28.0893
28.0725
28.0362
28.0055
27.974
27.9554
27.9451
27.9574
27.9969
28.0662
28.162
28.2788
28.4081
28.5393
28.6672
28.7921
28.9072
29.0189
27.206
27.3376
27.489
27.6411
27.7784
27.8863
27.9686
28.0312
28.0774
28.1118
28.1321
28.1404
28.1308
28.1107
28.071
28.0401
28.0111
27.9975
27.9934
28.0126
28.0582
28.1322
28.2317
28.3527
28.4881
28.6272
28.7639
28.8995
29.0263
29.1547
25.9246
26.1538
26.4416
26.7356
26.994
27.1913
27.3411
27.4559
27.5431
27.6047
27.6436
27.6651
27.6627
27.6464
27.6078
27.5697
27.5257
27.4947
27.4681
27.4596
27.4723
27.5079
27.5682
27.6466
27.7327
27.8136
27.891
27.9695
28.0421
28.1395
29.8255
29.6786
29.5832
29.424
29.2886
29.1821
29.1034
29.0486
29.0133
28.9975
28.9955
29.0085
29.0269
29.0557
29.085
29.1303
29.1823
29.2526
29.331
29.4224
29.5195
29.62
29.7192
29.8138
29.9058
29.9877
30.0683
30.1176
30.179
30.1716
29.8066
29.6408
29.5537
29.4041
29.2832
29.1842
29.1078
29.0541
29.0193
29.0057
29.0052
29.0184
29.0364
29.0645
29.0928
29.1371
29.1878
29.2576
29.3364
29.4284
29.5263
29.6275
29.7272
29.8221
29.9142
29.9956
30.0756
30.1223
30.1857
30.1633
29.7815
29.601
29.5171
29.3725
29.2594
29.1655
29.0932
29.0427
29.0116
29.0009
29.0024
29.0159
29.0335
29.061
29.088
29.131
29.1797
29.2473
29.3231
29.4122
29.5087
29.6108
29.7127
29.8099
29.9045
29.9872
30.07
30.1136
30.1855
30.1541
29.7493
29.5581
29.4699
29.3298
29.2248
29.1383
29.0733
29.0288
29.0019
28.994
28.9972
29.0111
29.0282
29.0547
29.08
29.1211
29.167
29.2317
29.3038
29.3892
29.4826
29.5828
29.6841
29.7835
29.8815
29.9666
30.0547
30.0959
30.1772
30.1414
29.715
29.5183
29.4239
29.2884
29.1893
29.1102
29.052
29.0125
28.989
28.9833
28.9876
29.0016
29.0179
29.043
29.0659
29.1044
29.1465
29.2074
29.2751
29.3564
29.4463
29.5446
29.6456
29.7455
29.8452
29.9333
30.0255
30.069
30.161
30.1239
29.6752
29.4812
29.3817
29.2529
29.1588
29.0851
29.0326
28.9969
28.9756
28.9712
28.9758
28.9893
29.0044
29.0274
29.0473
29.0824
29.1199
29.1762
29.2386
29.3152
29.4016
29.4983
29.5994
29.7003
29.8022
29.8925
29.9895
30.0353
30.1378
30.1013
29.6309
29.4475
29.3454
29.2238
29.1353
29.0663
29.0167
28.9838
28.9638
28.9593
28.963
28.9753
28.9885
29.009
29.0252
29.0563
29.0884
29.1393
29.1955
29.2671
29.3501
29.4455
29.547
29.6493
29.7538
29.8467
29.9485
29.9971
30.1086
30.0739
29.5841
29.4176
29.32
29.2059
29.1203
29.0537
29.0057
28.9739
28.9542
28.9484
28.9504
28.9608
28.9712
28.9887
29.0007
29.0269
29.0529
29.0973
29.1471
29.2135
29.2932
29.3875
29.4898
29.594
29.7013
29.7972
29.9036
29.9557
30.0742
30.0427
29.5336
29.3842
29.3017
29.1995
29.1172
29.0512
29.002
28.9672
28.9467
28.9391
28.9389
28.9465
28.9534
28.9671
28.9743
28.995
29.0142
29.0516
29.0945
29.1557
29.2324
29.3259
29.4292
29.5355
29.6458
29.745
29.8558
29.9125
30.0357
30.0091
29.4785
29.3348
29.2778
29.1953
29.1191
29.0543
29.0041
28.9672
28.9419
28.9317
28.9286
28.9331
28.9357
28.9449
28.9466
28.9613
28.9732
29.003
29.039
29.095
29.1689
29.2619
29.3665
29.4751
29.5886
29.6911
29.8059
29.8682
29.9942
29.9737
29.4207
29.276
29.2415
29.1839
29.1204
29.0589
29.009
28.9704
28.9423
28.9268
28.9196
28.9205
28.9184
28.9228
28.9181
28.9264
28.9307
28.9526
28.9817
29.0327
29.1039
29.1966
29.3026
29.4138
29.5304
29.6364
29.7547
29.8236
29.9506
29.9372
29.3613
29.2172
29.199
29.1586
29.1149
29.062
29.0142
28.9753
28.9448
28.9249
28.9127
28.9086
28.9015
28.9009
28.8892
28.8906
28.8874
28.9015
28.9235
28.9696
29.0385
29.1311
29.2387
29.3526
29.4722
29.5815
29.7029
29.7789
29.9056
29.9003
29.2999
29.1586
29.1532
29.1265
29.0968
29.0601
29.0172
28.9798
28.9484
28.9258
28.9082
28.8981
28.885
28.8789
28.8603
28.8545
28.8439
28.8505
28.8655
28.9069
28.9736
29.0663
29.1755
29.2921
29.4147
29.5272
29.6511
29.7344
29.8596
29.864
29.2376
29.1001
29.1046
29.0889
29.0705
29.0454
29.0146
28.9817
28.9511
28.9272
28.9049
28.8894
28.8694
28.8569
28.8315
28.8183
28.8005
28.8
28.8086
28.8453
28.91
29.0029
29.1139
29.2332
29.3586
29.4743
29.5994
29.69
29.813
29.8295
29.1746
29.0416
29.0525
29.0468
29.0375
29.0226
29.0019
28.9769
28.951
28.9274
28.9013
28.8813
28.855
28.8354
28.8028
28.7824
28.7574
28.7506
28.7535
28.7857
28.8486
28.9418
29.0544
29.1763
29.3044
29.423
29.5482
29.646
29.7662
29.7968
29.1081
28.9809
28.9983
29.0007
28.9987
28.9923
28.9806
28.9641
28.9432
28.9216
28.8956
28.8726
28.8407
28.8146
28.7745
28.747
28.7148
28.7025
28.7003
28.7285
28.7898
28.8833
28.9978
29.1224
29.2523
29.3738
29.4992
29.6016
29.7193
29.7659
29.0371
28.9179
28.9408
28.9499
28.9541
28.9549
28.9512
28.9426
28.9287
28.9112
28.8862
28.862
28.8256
28.7937
28.7465
28.7118
28.673
28.6557
28.6494
28.6741
28.7342
28.8281
28.9439
29.0703
29.2018
29.3264
29.4524
29.5584
29.6725
29.7357
28.9607
28.853
28.8796
28.895
28.9049
28.9116
28.9144
28.9131
28.906
28.8943
28.8722
28.848
28.8084
28.7717
28.7182
28.677
28.6318
28.6103
28.6005
28.6221
28.6812
28.7758
28.8922
29.0201
29.1526
29.281
29.4082
29.518
29.6302
29.7048
28.8784
28.7851
28.815
28.8359
28.8514
28.8633
28.8716
28.8761
28.8755
28.8696
28.852
28.8293
28.7878
28.7476
28.689
28.6422
28.591
28.5659
28.5533
28.5725
28.6313
28.7258
28.8426
28.972
29.1062
29.2379
29.3665
29.4797
29.5907
29.674
28.789
28.7133
28.7468
28.7726
28.7931
28.8101
28.8234
28.8332
28.8378
28.8374
28.8249
28.8049
28.7626
28.7204
28.658
28.6068
28.5511
28.5229
28.5081
28.5258
28.5843
28.6775
28.7943
28.9257
29.0622
29.1967
29.3267
29.443
29.5532
29.6432
28.6913
28.6369
28.6739
28.7047
28.73
28.7521
28.7703
28.785
28.7945
28.7986
28.7911
28.7744
28.7322
28.6891
28.6246
28.5713
28.5114
28.4808
28.4642
28.4802
28.5376
28.6301
28.7476
28.8807
29.0197
29.1568
29.2883
29.4073
29.5172
29.6119
28.5843
28.5545
28.5955
28.6316
28.6622
28.6897
28.713
28.7325
28.7464
28.7544
28.7514
28.7381
28.697
28.6538
28.5888
28.5338
28.4706
28.4376
28.4194
28.4345
28.4917
28.5841
28.7024
28.8368
28.9782
29.1178
29.2509
29.3724
29.4823
29.5808
28.4691
28.4649
28.511
28.5529
28.5895
28.6231
28.6523
28.6772
28.6954
28.707
28.7076
28.6972
28.6577
28.6152
28.5493
28.4936
28.4283
28.3932
28.3742
28.3896
28.4471
28.5396
28.6583
28.7936
28.9372
29.0791
29.2139
29.3376
29.4479
29.5495
28.3471
28.3646
28.4177
28.4669
28.5113
28.5526
28.589
28.6205
28.6437
28.6586
28.662
28.6539
28.6164
28.5752
28.5074
28.451
28.3839
28.348
28.3293
28.3461
28.4036
28.4959
28.6154
28.7521
28.897
29.0405
29.1765
29.3019
29.4125
29.5167
28.2177
28.2576
28.3192
28.3766
28.4303
28.4809
28.5265
28.5656
28.5942
28.613
28.6179
28.6115
28.5762
28.5363
28.4677
28.4091
28.3398
28.3029
28.285
28.3043
28.3622
28.4545
28.574
28.7121
28.8595
29.0052
29.1423
29.2686
29.3788
29.4844
28.0723
28.137
28.209
28.2779
28.3446
28.4087
28.4664
28.5154
28.5504
28.5739
28.5801
28.5743
28.5407
28.5021
28.4331
28.3739
28.3021
28.2629
28.2458
28.2678
28.3258
28.4177
28.5358
28.6732
28.8218
28.969
29.1069
29.2338
29.3426
29.4502
27.9412
28.0339
28.1155
28.1954
28.2759
28.3545
28.4257
28.4848
28.5245
28.5505
28.5563
28.55
28.5188
28.4818
28.4123
28.3517
28.277
28.2354
28.2186
28.2428
28.3007
28.3925
28.5129
28.6534
28.8036
28.952
29.0908
29.2181
29.3256
29.4339
27.7918
27.9105
28.007
28.1091
28.2165
28.3196
28.4087
28.4811
28.5351
28.5658
28.5731
28.5686
28.5412
28.5076
28.44
28.3785
28.2992
28.2524
28.2314
28.2525
28.306
28.3931
28.5096
28.6463
28.7919
28.9346
29.0647
29.1848
29.2873
29.3941
27.8597
27.9867
28.0952
28.2207
28.3535
28.4765
28.5781
28.6579
28.7169
28.7529
28.7642
28.7627
28.7381
28.7066
28.6427
28.5811
28.4943
28.4414
28.4117
28.426
28.4708
28.5484
28.6529
28.778
28.9141
29.0513
29.18
29.298
29.3962
29.4994
28.5318
28.6465
28.7292
28.842
28.9643
29.075
29.1619
29.2232
29.2604
29.2766
29.2706
29.2544
29.2179
29.1802
29.1142
29.056
28.9721
28.9231
28.8983
28.9192
28.9716
29.0574
29.169
29.3018
29.4469
29.5925
29.7271
29.8509
29.9547
30.0703
29.8466
29.6388
29.554
29.3706
29.2203
29.1061
29.0285
28.9799
28.9522
28.9434
28.9461
28.966
28.9859
29.0173
29.0375
29.0712
29.0943
29.1321
29.1688
29.2233
29.2916
29.3808
29.4852
29.6004
29.7245
29.8447
29.9675
30.0533
30.146
30.1427
29.8295
29.5867
29.515
29.3428
29.2107
29.1075
29.0329
28.9856
28.9596
28.9528
28.9565
28.9767
28.9964
29.0276
29.0472
29.0811
29.1044
29.1429
29.1801
29.2344
29.3032
29.3929
29.4975
29.6126
29.7364
29.8557
29.9778
30.0602
30.1542
30.1441
29.802
29.5442
29.4809
29.318
29.1967
29.1
29.0307
28.986
28.9606
28.9549
28.9599
28.9799
28.9988
29.0294
29.0479
29.0814
29.1031
29.1401
29.1739
29.2246
29.2915
29.3825
29.4895
29.6066
29.7315
29.8501
29.9738
30.0527
30.1558
30.1372
29.7569
29.4981
29.4362
29.2814
29.1713
29.0833
29.0213
28.9813
28.9584
28.955
28.9604
28.9801
28.9984
29.029
29.0461
29.0789
29.098
29.1324
29.162
29.2081
29.2701
29.3575
29.4656
29.5856
29.7125
29.831
29.9567
30.0339
30.1467
30.1217
29.6985
29.4496
29.3863
29.2423
29.1428
29.063
29.0076
28.9722
28.9529
28.952
28.9582
28.9777
28.9949
29.0244
29.0392
29.0703
29.0854
29.1159
29.1397
29.1804
29.2376
29.3216
29.4274
29.5466
29.6773
29.7972
29.9273
30.0035
30.1258
30.0985
29.6314
29.4001
29.3354
29.2036
29.1141
29.0424
28.9934
28.9629
28.9467
28.9475
28.9541
28.9731
28.9886
29.0167
29.0284
29.057
29.0669
29.092
29.1091
29.1437
29.1963
29.2777
29.382
29.5005
29.6314
29.7544
29.8877
29.9655
30.0965
30.0694
29.561
29.3515
29.2862
29.1677
29.0876
29.0238
28.9808
28.9546
28.9406
28.9424
28.9488
28.9669
28.9803
29.0065
29.0145
29.0399
29.0434
29.0619
29.0719
29.1001
29.1482
29.2274
29.3311
29.4496
29.581
29.7055
29.8419
29.9232
30.0611
30.0362
29.4895
29.3022
29.2398
29.1357
29.0644
29.008
28.9702
28.9477
28.9353
28.9375
28.943
28.9599
28.9707
28.9946
28.9979
29.0194
29.0158
29.0268
29.0293
29.0511
29.0949
29.1725
29.2762
29.3954
29.5277
29.6532
29.7923
29.8784
30.0211
30.0003
29.4187
29.2521
29.1972
29.1085
29.0458
28.9961
28.9623
28.942
28.9309
28.9332
28.9374
28.9526
28.9603
28.9814
28.9793
28.9961
28.9847
28.9875
28.9827
28.9982
29.0379
29.1145
29.2189
29.3394
29.4729
29.5991
29.7405
29.8323
29.9775
29.9627
29.3508
29.1999
29.1583
29.0857
29.0319
28.988
28.9572
28.938
28.9276
28.9294
28.9321
28.9455
28.9494
28.9675
28.9589
28.9706
28.9506
28.9454
28.9335
28.9429
28.9786
29.0547
29.1602
29.2826
29.4176
29.5447
29.6879
29.7858
29.9315
29.9243
29.2864
29.1467
29.1201
29.0614
29.0188
28.9813
28.9539
28.936
28.9252
28.9263
28.9271
28.9385
28.9381
28.953
28.9375
28.9435
28.9142
28.9013
28.8825
28.8863
28.9181
28.9942
29.1015
29.2262
29.3628
29.4916
29.6355
29.7392
29.8845
29.8867
29.2254
29.0945
29.0812
29.0361
29.0036
28.9739
28.9505
28.9344
28.9233
28.9237
28.9224
28.9317
28.9266
28.9381
28.9154
28.9153
28.8763
28.8559
28.8305
28.8292
28.8576
28.9341
29.0435
29.171
29.3092
29.4411
29.5839
29.6936
29.8366
29.8509
29.1679
29.0432
29.0416
29.0094
28.9869
28.9645
28.9455
28.9317
28.9213
28.9212
28.918
28.925
28.9148
28.9229
28.8927
28.8865
28.8376
28.8099
28.7783
28.7726
28.7979
28.8752
28.9872
29.118
29.2572
29.3928
29.535
29.6493
29.7881
29.8165
29.1123
28.9928
29.0004
28.9802
28.9675
28.9525
28.9385
28.9275
28.9183
28.9182
28.9133
28.9184
28.9031
28.9074
28.8697
28.8575
28.7986
28.764
28.7266
28.7171
28.7398
28.8182
28.9333
29.067
29.2084
29.3478
29.4891
29.605
29.7391
29.7841
29.0564
28.9411
28.9575
28.9488
28.9446
28.9368
28.9283
28.9211
28.9139
28.9139
28.9078
28.9112
28.8913
28.8917
28.8464
28.8285
28.7601
28.7188
28.6761
28.6632
28.6837
28.7635
28.8817
29.018
29.163
29.3049
29.4448
29.5626
29.6921
29.7543
29
28.889
28.9133
28.9145
28.9175
28.9168
28.914
28.9111
28.9068
28.9076
28.9008
28.9031
28.879
28.8757
28.8227
28.7999
28.7223
28.6745
28.6271
28.6112
28.6301
28.7116
28.8325
28.9707
29.1193
29.2629
29.4031
29.5235
29.6494
29.7253
28.9421
28.8358
28.867
28.8763
28.8861
28.8919
28.895
28.8967
28.8959
28.8984
28.8916
28.8933
28.8655
28.8589
28.7989
28.7715
28.6855
28.6315
28.5797
28.5614
28.5789
28.6618
28.7848
28.9251
29.0765
29.2229
29.3644
29.4876
29.6108
29.6968
28.879
28.7793
28.8172
28.8341
28.8503
28.8624
28.8712
28.8778
28.8807
28.8853
28.8797
28.8812
28.8503
28.8411
28.7749
28.7439
28.65
28.5902
28.5339
28.5133
28.5298
28.6136
28.7379
28.8813
29.0358
29.1854
29.3282
29.4541
29.5752
29.6692
28.8079
28.7201
28.7638
28.7879
28.8102
28.8285
28.8428
28.8545
28.8613
28.8683
28.8646
28.8664
28.8331
28.822
28.7503
28.7172
28.616
28.551
28.4895
28.4671
28.4825
28.5668
28.6925
28.8394
28.9968
29.1497
29.2941
29.4225
29.542
29.6419
28.7277
28.6575
28.7066
28.7378
28.7662
28.7905
28.8104
28.8272
28.8382
28.848
28.8463
28.8489
28.8137
28.8016
28.7251
28.6911
28.5835
28.5137
28.4469
28.4225
28.4367
28.5203
28.6483
28.7985
28.9591
29.1152
29.2615
29.3924
29.5107
29.6151
28.6377
28.591
28.6454
28.6838
28.7186
28.7492
28.7749
28.797
28.8122
28.8252
28.8257
28.8292
28.7928
28.7804
28.7
28.6661
28.5523
28.4786
28.4056
28.3782
28.3904
28.4748
28.6045
28.758
28.9218
29.0813
29.2298
29.3632
29.4808
29.5889
28.5384
28.52
28.5802
28.6264
28.6681
28.7055
28.7375
28.7652
28.7851
28.8016
28.8041
28.8086
28.7718
28.7595
28.6758
28.6435
28.5235
28.445
28.365
28.334
28.346
28.4315
28.5615
28.7173
28.8841
29.0473
29.1984
29.3343
29.4518
29.563
28.4325
28.4431
28.511
28.566
28.6159
28.661
28.7001
28.7339
28.7589
28.7793
28.7837
28.7891
28.7519
28.7401
28.6536
28.6234
28.4977
28.413
28.3252
28.2936
28.3073
28.3912
28.52
28.6772
28.8461
29.0122
29.1665
29.3053
29.4231
29.5376
28.3204
28.3597
28.4384
28.504
28.5638
28.6178
28.6647
28.7055
28.7362
28.7606
28.7664
28.772
28.7344
28.7235
28.6342
28.6063
28.4755
28.3865
28.292
28.2598
28.2737
28.3543
28.4807
28.6389
28.8091
28.9772
29.1333
29.2752
29.3944
29.5116
28.2018
28.2737
28.3664
28.4441
28.5148
28.5788
28.6345
28.6832
28.7196
28.7477
28.7533
28.7585
28.7205
28.7111
28.6188
28.5938
28.4572
28.3654
28.2656
28.2297
28.2432
28.3207
28.4448
28.6036
28.7752
28.9451
29.1028
29.2463
29.3662
29.4874
28.0791
28.1923
28.2978
28.3878
28.4708
28.547
28.6126
28.669
28.7107
28.7418
28.7471
28.752
28.7141
28.708
28.6137
28.594
28.4523
28.3582
28.2514
28.2092
28.2182
28.2892
28.4098
28.5703
28.7439
28.917
29.0771
29.2223
29.3425
29.4651
27.97
28.124
28.2413
28.3454
28.4416
28.5284
28.6019
28.6651
28.7142
28.7508
28.7565
28.7629
28.7271
28.7262
28.6325
28.6208
28.4735
28.3769
28.2613
28.2137
28.2209
28.291
28.4047
28.5577
28.7309
28.9048
29.0658
29.2117
29.3311
29.4525
27.8886
28.0687
28.1947
28.3127
28.4226
28.5227
28.612
28.6878
28.7433
28.7834
28.7893
28.7986
28.7675
28.774
28.6825
28.6839
28.5326
28.4352
28.3108
28.2556
28.2577
28.3153
28.4202
28.5685
28.7384
28.9131
29.0746
29.22
29.3368
29.4554
27.8803
28.0757
28.2151
28.3451
28.4638
28.5718
28.6663
28.7454
28.8044
28.8471
28.8561
28.8701
28.845
28.8646
28.7809
28.8065
28.6599
28.5696
28.4373
28.3731
28.3624
28.4085
28.499
28.6328
28.7899
28.9522
29.1059
29.2483
29.3665
29.4892
27.9756
28.1532
28.2903
28.4252
28.5483
28.6589
28.7527
28.8297
28.8862
28.9285
28.9411
28.961
28.9427
28.9784
28.9079
28.9661
28.8317
28.7568
28.6275
28.5621
28.5432
28.5808
28.6591
28.7788
28.9265
29.0874
29.2469
29.3977
29.5248
29.6501
29.7909
29.538
29.4714
29.2535
29.0839
28.9618
28.8869
28.8524
28.8401
28.8486
28.869
28.9044
28.9287
28.9608
28.9589
28.9645
28.9321
28.9142
28.8855
28.8896
28.93
29.0232
29.1523
29.3031
29.4687
29.6342
29.8067
29.9385
30.0759
30.0879
29.7635
29.4482
29.4049
29.2036
29.0593
28.9546
28.8884
28.8563
28.8473
28.858
28.8792
28.9144
28.9379
28.9694
28.9669
28.9731
28.9425
28.9282
28.9023
28.9053
28.9424
29.0358
29.1648
29.3153
29.4803
29.645
29.8177
29.9476
30.0863
30.0947
29.7214
29.3823
29.3483
29.1665
29.0397
28.9458
28.8873
28.8579
28.8515
28.8644
28.8863
28.9208
28.9426
28.9728
28.9678
28.9728
28.9399
28.9242
28.8959
28.8944
28.9274
29.0246
29.1576
29.3099
29.4757
29.6395
29.8129
29.9407
30.0875
30.089
29.6555
29.3184
29.2876
29.1207
29.0116
28.9296
28.8804
28.858
28.8546
28.87
28.8923
28.9264
28.9462
28.9748
28.9666
28.9693
28.9316
28.9121
28.8802
28.8738
28.9015
28.9947
29.1317
29.2875
29.4539
29.6169
29.791
29.9192
30.075
30.0714
29.5724
29.256
29.2259
29.0748
28.9816
28.9118
28.8715
28.8556
28.8564
28.874
28.8963
28.93
28.9465
28.9737
28.9609
28.9596
28.9143
28.8885
28.851
28.8397
28.8634
28.9536
29.0882
29.2478
29.4162
29.5795
29.7547
29.8845
30.0487
30.0453
29.4788
29.1937
29.1639
29.0292
28.9508
28.8935
28.8627
28.8532
28.8571
28.8765
28.8985
28.9319
28.9454
28.9705
28.9519
28.9448
28.8895
28.8556
28.8112
28.7954
28.816
28.9048
29.0384
29.1979
29.3683
29.5327
29.7095
29.8407
30.0109
30.0116
29.3825
29.1319
29.1039
28.9863
28.9232
28.8775
28.8553
28.8513
28.8573
28.8782
28.8997
28.9325
28.9435
28.9657
28.94
28.9258
28.8582
28.8145
28.7627
28.7432
28.7614
28.8504
28.9843
29.1431
29.3151
29.4805
29.6582
29.7916
29.9642
29.9733
29.2876
29.0716
29.0476
28.9478
28.8994
28.8642
28.8496
28.8501
28.8577
28.8798
28.9004
28.9324
28.9406
28.9595
28.9257
28.9032
28.8215
28.7667
28.7076
28.6845
28.7017
28.7923
28.9278
29.0865
29.2594
29.426
29.6033
29.7395
29.9122
29.9327
29.1954
29.0137
28.9967
28.9152
28.8797
28.8537
28.8457
28.8495
28.8587
28.8817
28.9012
28.9322
28.9371
28.9524
28.9095
28.8776
28.7803
28.7137
28.6473
28.6209
28.6388
28.7322
28.8704
29.0298
29.2035
29.3712
29.547
29.6865
29.8572
29.8918
29.1097
28.9603
28.9513
28.8877
28.8637
28.846
28.8435
28.8494
28.8605
28.8843
28.9025
28.9322
28.9331
28.9446
28.8918
28.8496
28.7355
28.6568
28.5834
28.5549
28.5744
28.6717
28.8137
28.9749
29.1501
29.3185
29.4921
29.6357
29.802
29.8516
29.0335
28.9116
28.9109
28.8645
28.8511
28.841
28.8429
28.8509
28.8635
28.8878
28.9042
28.9328
28.9288
28.9363
28.8728
28.8198
28.6879
28.5973
28.5175
28.488
28.5098
28.6123
28.7589
28.9231
29.1006
29.2703
29.4427
29.5873
29.7472
29.8131
28.9672
28.8655
28.8731
28.8436
28.8401
28.8372
28.8427
28.8542
28.8681
28.8922
28.9063
28.9333
28.9242
28.9276
28.8528
28.7884
28.6382
28.5364
28.4507
28.4209
28.4464
28.555
28.7061
28.8752
29.0555
29.2279
29.3983
29.541
29.6948
29.7776
28.9072
28.8212
28.8376
28.8243
28.8294
28.8333
28.8425
28.858
28.8733
28.8972
28.9091
28.9338
28.9192
28.9185
28.8319
28.756
28.5874
28.4755
28.3843
28.355
28.3851
28.5007
28.6555
28.8312
29.016
29.1907
29.3567
29.4989
29.6482
29.7443
28.8525
28.7799
28.8041
28.8051
28.8178
28.8283
28.8415
28.8611
28.8785
28.9023
28.9125
28.9346
28.9139
28.9089
28.8103
28.7227
28.5363
28.4154
28.3193
28.2913
28.3266
28.4494
28.6085
28.7928
28.9814
29.1556
29.319
29.4624
29.6075
29.7124
28.8022
28.7398
28.7722
28.7845
28.8046
28.8214
28.8392
28.8621
28.8824
28.9071
28.9157
28.9355
28.9085
28.8987
28.788
28.6892
28.4857
28.3572
28.2565
28.2305
28.2718
28.4011
28.5676
28.7579
28.948
29.123
29.2865
29.4308
29.5719
29.6828
28.7537
28.6989
28.7404
28.7621
28.7892
28.8125
28.8351
28.8611
28.8841
28.911
28.9184
28.9362
28.903
28.888
28.7652
28.6557
28.4364
28.3016
28.197
28.1733
28.2212
28.3557
28.5284
28.7229
28.9166
29.0948
29.2586
29.4036
29.5409
29.6556
28.7041
28.6573
28.7076
28.7376
28.7712
28.801
28.8287
28.8584
28.8835
28.9128
28.9195
28.9365
28.8973
28.8772
28.7417
28.6228
28.3891
28.2491
28.1416
28.1204
28.1732
28.311
28.4898
28.6899
28.8884
29.0702
29.2348
29.3803
29.5143
29.6311
28.6528
28.6149
28.673
28.7106
28.7507
28.7868
28.8201
28.8538
28.8814
28.9124
28.9191
28.9365
28.8912
28.8665
28.7182
28.5911
28.3443
28.2011
28.0902
28.07
28.1253
28.2674
28.4537
28.6593
28.8625
29.0485
29.2145
29.3605
29.4915
29.6096
28.5959
28.57
28.6358
28.681
28.7276
28.7704
28.8095
28.8475
28.8778
28.9108
28.9179
28.9354
28.8848
28.8564
28.6956
28.5622
28.3039
28.1577
28.0408
28.0203
28.0798
28.2274
28.4176
28.6297
28.8382
29.0288
29.1969
29.3437
29.4721
29.591
28.5317
28.5216
28.5956
28.6486
28.7024
28.7521
28.797
28.8396
28.8731
28.9083
28.9161
28.9339
28.8786
28.8474
28.6746
28.5372
28.2674
28.1175
27.9937
27.9752
28.0395
28.1874
28.3811
28.6004
28.8147
29.0102
29.1812
29.3293
29.4557
29.5751
28.4603
28.4689
28.5516
28.6137
28.6755
28.7323
28.7831
28.8305
28.8676
28.9054
28.9143
28.933
28.8734
28.8402
28.6562
28.5156
28.2336
28.0847
27.9548
27.9369
27.9996
28.143
28.3443
28.5703
28.7906
28.9912
29.1662
29.3167
29.4417
29.5617
28.3816
28.4107
28.5042
28.5769
28.6476
28.7119
28.7685
28.8209
28.862
28.9028
28.9132
28.9335
28.8707
28.8369
28.6416
28.4984
28.2074
28.0612
27.9245
27.9035
27.9578
28.0986
28.3076
28.5392
28.7652
28.9709
29.1501
29.3047
29.4296
29.5505
28.2935
28.3485
28.4548
28.5395
28.6195
28.6912
28.7538
28.8116
28.8569
28.901
28.9132
28.9355
28.8714
28.8379
28.63
28.4889
28.1906
28.0423
27.8962
27.87
27.9203
28.0629
28.2711
28.5074
28.7387
28.9495
29.1324
29.2908
29.418
29.5406
28.197
28.2857
28.405
28.5027
28.592
28.6711
28.7402
28.8036
28.8532
28.9005
28.916
28.9393
28.8739
28.8417
28.6218
28.4886
28.1809
28.029
27.8731
27.8449
27.8936
28.0345
28.2387
28.4749
28.7118
28.9279
29.115
29.2767
29.406
29.5324
28.0959
28.2253
28.357
28.4678
28.5662
28.653
28.7286
28.7975
28.8513
28.9032
28.9214
28.9462
28.8789
28.8504
28.6228
28.5005
28.1742
28.0226
27.8614
27.833
27.8812
28.0199
28.2161
28.4474
28.6863
28.9085
29.1001
29.2659
29.3975
29.5259
27.9969
28.1685
28.313
28.4355
28.5431
28.6375
28.7195
28.7937
28.8521
28.9117
28.9308
28.9586
28.891
28.8681
28.6357
28.5215
28.1732
28.0317
27.8593
27.8334
27.8814
28.0156
28.2065
28.4346
28.6683
28.894
29.0917
29.2618
29.3962
29.5245
27.9097
28.1191
28.2742
28.4081
28.5247
28.6263
28.7143
28.794
28.8624
28.9274
28.9494
28.9821
28.9127
28.8995
28.6631
28.5685
28.21
28.077
27.8923
27.8599
27.8963
28.0268
28.2133
28.4363
28.6682
28.8921
29.0924
29.2651
29.401
29.5289
27.8502
28.0802
28.2432
28.388
28.5126
28.6211
28.7175
28.8099
28.8842
28.9526
28.9777
29.017
28.9482
28.9491
28.7095
28.65
28.2846
28.1611
27.9666
27.9303
27.957
28.0709
28.2421
28.4561
28.6804
28.8987
29.0978
29.2736
29.4136
29.5438
27.817
28.0548
28.2239
28.3769
28.5104
28.6303
28.7372
28.834
28.9105
28.9799
29.0073
29.0527
28.9876
29.0077
28.7698
28.7597
28.3925
28.2825
28.0808
28.0391
28.0534
28.1483
28.2997
28.4986
28.7148
28.9294
29.1236
29.295
29.4334
29.5668
27.8396
28.052
28.22
28.3764
28.5161
28.6429
28.7545
28.8535
28.9311
29.0021
29.0322
29.0824
29.0247
29.066
28.8392
28.8906
28.5316
28.4416
28.2384
28.1928
28.1946
28.2721
28.4003
28.5766
28.7735
28.9756
29.166
29.3412
29.4894
29.6287
29.8417
29.5368
29.4765
29.2306
29.035
28.8967
28.8152
28.7872
28.7824
28.8094
28.847
28.9084
28.953
29.0208
29.0305
29.0511
28.9741
28.8841
28.7469
28.6724
28.6707
28.7563
28.8985
29.0651
29.2452
29.4277
29.6271
29.7948
29.9852
30.0216
29.7988
29.4167
29.3898
29.1624
28.9988
28.8824
28.8152
28.7906
28.7908
28.8208
28.8595
28.9207
28.9646
29.0322
29.0407
29.0638
28.9905
28.9081
28.7738
28.6944
28.6815
28.7634
28.9045
29.071
29.252
29.4361
29.6377
29.8055
29.9986
30.0325
29.7422
29.3215
29.3148
29.1102
28.9709
28.8698
28.8132
28.7927
28.7982
28.8307
28.8699
28.9311
28.9732
29.041
29.0472
29.0722
28.9967
28.909
28.7698
28.6894
28.6703
28.75
28.8943
29.0631
29.2464
29.4311
29.6335
29.7977
29.9962
30.0279
29.6545
29.2345
29.2359
29.0484
28.9322
28.8488
28.8045
28.7931
28.8044
28.8395
28.8791
28.9407
28.9807
29.0494
29.0519
29.0786
28.9957
28.9027
28.7568
28.6723
28.6452
28.7164
28.8623
29.0351
29.2201