/*--------------------------------*- C++ -*----------------------------------*\
  =========                 |
  \\      /  F ield         | OpenFOAM: The Open Source CFD Toolbox
   \\    /   O peration     | Website:  https://openfoam.org
    \\  /    A nd           | Version:  12
     \\/     M anipulation  |
\*---------------------------------------------------------------------------*/
FoamFile
{
    format      ascii;
    class       volScalarField;
    location    "1550/air";
    object      T;
}
// * * * * * * * * * * * * * * * * * * * * * * * * * * * * * * * * * * * * * //

dimensions      [0 0 0 1 0 0 0];

internalField   nonuniform List<scalar> 
243000
(
300.77
300.744
300.726
300.712
300.7
300.688
300.678
300.668
300.658
300.649
300.64
300.63
300.621
300.612
300.603
300.593
300.583
300.571
300.559
300.544
300.526
300.504
300.48
300.455
300.431
300.409
300.39
300.373
300.36
300.342
300.817
300.771
300.742
300.721
300.705
300.691
300.678
300.667
300.656
300.646
300.636
300.626
300.617
300.607
300.598
300.588
300.577
300.566
300.553
300.538
300.521
300.5
300.478
300.454
300.43
300.409
300.389
300.372
300.358
300.346
300.906
300.815
300.767
300.736
300.714
300.696
300.681
300.668
300.656
300.645
300.634
300.624
300.614
300.604
300.594
300.583
300.573
300.561
300.548
300.534
300.517
300.497
300.476
300.453
300.43
300.409
300.389
300.372
300.357
300.346
301.038
300.885
300.807
300.761
300.729
300.706
300.687
300.672
300.658
300.646
300.634
300.623
300.612
300.602
300.591
300.58
300.569
300.558
300.545
300.53
300.514
300.495
300.475
300.453
300.431
300.41
300.391
300.373
300.357
300.345
301.209
300.99
300.87
300.799
300.753
300.722
300.698
300.679
300.663
300.648
300.636
300.624
300.612
300.601
300.59
300.578
300.567
300.555
300.542
300.527
300.511
300.494
300.474
300.453
300.432
300.412
300.392
300.374
300.358
300.345
301.404
301.138
300.964
300.858
300.791
300.746
300.714
300.69
300.67
300.653
300.639
300.626
300.613
300.601
300.589
300.577
300.565
300.553
300.539
300.525
300.509
300.492
300.474
300.454
300.434
300.414
300.395
300.377
300.36
300.347
301.579
301.315
301.096
300.945
300.847
300.782
300.738
300.706
300.681
300.661
300.644
300.629
300.615
300.602
300.59
300.577
300.564
300.551
300.538
300.523
300.508
300.491
300.473
300.455
300.435
300.416
300.397
300.379
300.363
300.349
301.711
301.491
301.253
301.062
300.927
300.835
300.773
300.729
300.697
300.672
300.652
300.635
300.619
300.605
300.591
300.578
300.564
300.551
300.537
300.522
300.507
300.491
300.474
300.455
300.437
300.418
300.4
300.382
300.366
300.351
301.801
301.645
301.424
301.208
301.035
300.91
300.824
300.763
300.72
300.688
300.663
300.643
300.625
300.609
300.594
300.58
300.565
300.551
300.537
300.522
300.507
300.491
300.474
300.457
300.439
300.421
300.403
300.386
300.369
300.354
301.86
301.762
301.589
301.376
301.175
301.014
300.896
300.813
300.753
300.711
300.679
300.653
300.633
300.615
300.598
300.583
300.567
300.552
300.537
300.522
300.507
300.491
300.475
300.458
300.441
300.423
300.406
300.389
300.373
300.357
301.897
301.84
301.726
301.548
301.341
301.15
300.997
300.884
300.802
300.743
300.7
300.668
300.643
300.622
300.604
300.587
300.57
300.554
300.539
300.523
300.507
300.492
300.476
300.459
300.443
300.426
300.409
300.393
300.376
300.361
301.926
301.892
301.823
301.697
301.516
301.315
301.131
300.983
300.872
300.791
300.732
300.69
300.658
300.633
300.611
300.592
300.575
300.558
300.541
300.525
300.509
300.493
300.477
300.461
300.445
300.429
300.413
300.396
300.38
300.365
301.952
301.927
301.885
301.807
301.672
301.49
301.293
301.114
300.969
300.859
300.779
300.721
300.679
300.647
300.622
300.6
300.58
300.562
300.544
300.527
300.511
300.495
300.479
300.463
300.448
300.432
300.416
300.4
300.385
300.37
301.976
301.955
301.927
301.879
301.791
301.65
301.467
301.273
301.098
300.955
300.846
300.766
300.709
300.667
300.635
300.61
300.588
300.568
300.549
300.531
300.514
300.497
300.482
300.466
300.45
300.435
300.42
300.404
300.389
300.374
301.999
301.98
301.958
301.926
301.871
301.774
301.627
301.444
301.252
301.079
300.938
300.831
300.753
300.696
300.655
300.623
300.598
300.575
300.555
300.536
300.518
300.501
300.485
300.469
300.454
300.439
300.423
300.409
300.394
300.379
302.021
302.002
301.983
301.959
301.922
301.859
301.754
301.602
301.417
301.227
301.057
300.919
300.814
300.738
300.683
300.642
300.611
300.585
300.562
300.541
300.522
300.505
300.488
300.473
300.457
300.442
300.427
300.413
300.398
300.384
302.041
302.022
302.004
301.983
301.956
301.914
301.843
301.73
301.572
301.385
301.197
301.031
300.897
300.796
300.722
300.669
300.629
300.598
300.571
300.549
300.528
300.51
300.493
300.477
300.461
300.446
300.432
300.417
300.403
300.389
302.057
302.039
302.021
302.002
301.979
301.948
301.9
301.821
301.698
301.535
301.348
301.163
301.002
300.873
300.777
300.706
300.654
300.615
300.584
300.558
300.536
300.516
300.498
300.481
300.466
300.451
300.436
300.422
300.408
300.394
302.069
302.051
302.034
302.016
301.995
301.97
301.935
301.88
301.791
301.66
301.491
301.305
301.125
300.971
300.848
300.757
300.689
300.639
300.601
300.571
300.545
300.524
300.504
300.487
300.471
300.455
300.441
300.427
300.412
300.399
302.076
302.059
302.042
302.025
302.006
301.984
301.956
301.917
301.853
301.754
301.613
301.441
301.258
301.085
300.938
300.823
300.737
300.673
300.624
300.587
300.558
300.533
300.512
300.494
300.477
300.461
300.446
300.432
300.418
300.404
302.078
302.062
302.046
302.029
302.011
301.991
301.968
301.938
301.891
301.818
301.709
301.561
301.387
301.208
301.044
300.906
300.799
300.717
300.657
300.611
300.575
300.546
300.522
300.502
300.484
300.467
300.452
300.437
300.423
300.41
302.072
302.057
302.042
302.027
302.011
301.993
301.973
301.948
301.914
301.86
301.777
301.657
301.504
301.331
301.159
301.004
300.876
300.776
300.7
300.642
300.598
300.563
300.536
300.513
300.493
300.475
300.459
300.444
300.429
300.416
302.057
302.044
302.03
302.017
302.003
301.988
301.971
301.951
301.924
301.884
301.822
301.729
301.601
301.444
301.275
301.111
300.967
300.849
300.755
300.684
300.629
300.587
300.554
300.527
300.504
300.485
300.467
300.451
300.436
300.422
302.034
302.022
302.012
302.001
301.989
301.977
301.963
301.947
301.927
301.896
301.85
301.779
301.676
301.542
301.385
301.222
301.068
300.935
300.825
300.738
300.67
300.618
300.578
300.545
300.519
300.497
300.478
300.46
300.445
300.43
302
301.992
301.984
301.977
301.969
301.96
301.95
301.938
301.922
301.899
301.865
301.811
301.731
301.62
301.482
301.329
301.174
301.031
300.907
300.805
300.723
300.66
300.61
300.571
300.539
300.513
300.491
300.472
300.455
300.439
301.954
301.951
301.948
301.945
301.941
301.936
301.93
301.922
301.91
301.894
301.868
301.828
301.766
301.678
301.562
301.425
301.277
301.132
300.999
300.885
300.79
300.713
300.652
300.604
300.566
300.534
300.508
300.486
300.467
300.45
301.894
301.896
301.899
301.901
301.903
301.902
301.9
301.895
301.887
301.875
301.856
301.825
301.778
301.709
301.616
301.499
301.366
301.228
301.094
300.972
300.866
300.778
300.706
300.647
300.6
300.562
300.531
300.504
300.482
300.462
301.807
301.816
301.824
301.831
301.836
301.839
301.838
301.834
301.826
301.814
301.797
301.772
301.735
301.681
301.607
301.513
301.402
301.282
301.158
301.04
300.933
300.839
300.759
300.692
300.637
300.592
300.555
300.524
300.498
300.475
301.618
301.626
301.634
301.64
301.642
301.638
301.63
301.616
301.599
301.579
301.555
301.528
301.495
301.452
301.396
301.328
301.25
301.161
301.068
300.975
300.887
300.806
300.735
300.674
300.622
300.579
300.542
300.512
300.486
300.464
300.809
300.807
300.819
300.828
300.828
300.822
300.81
300.797
300.781
300.764
300.746
300.728
300.709
300.686
300.658
300.626
300.593
300.556
300.516
300.476
300.438
300.403
300.373
300.347
300.325
300.307
300.291
300.279
300.267
300.258
300.754
300.727
300.709
300.695
300.683
300.671
300.661
300.651
300.641
300.631
300.622
300.612
300.602
300.592
300.582
300.571
300.559
300.545
300.528
300.506
300.479
300.449
300.418
300.389
300.364
300.344
300.327
300.313
300.301
300.288
300.784
300.744
300.719
300.7
300.684
300.671
300.658
300.647
300.636
300.626
300.616
300.606
300.596
300.586
300.575
300.564
300.551
300.538
300.521
300.5
300.475
300.448
300.419
300.392
300.368
300.347
300.329
300.314
300.302
300.29
300.814
300.767
300.735
300.711
300.692
300.676
300.661
300.648
300.636
300.625
300.614
300.603
300.592
300.581
300.57
300.558
300.545
300.531
300.514
300.495
300.472
300.446
300.42
300.394
300.371
300.35
300.332
300.317
300.303
300.291
300.848
300.796
300.759
300.73
300.706
300.686
300.669
300.654
300.64
300.627
300.614
300.602
300.59
300.578
300.566
300.553
300.54
300.525
300.509
300.49
300.469
300.445
300.421
300.397
300.374
300.354
300.336
300.32
300.306
300.293
300.888
300.836
300.793
300.758
300.729
300.704
300.683
300.664
300.648
300.632
300.618
300.604
300.591
300.578
300.565
300.551
300.537
300.521
300.505
300.486
300.466
300.444
300.421
300.398
300.377
300.357
300.339
300.323
300.308
300.295
300.94
300.89
300.842
300.799
300.763
300.732
300.705
300.681
300.661
300.642
300.625
300.61
300.595
300.58
300.565
300.55
300.535
300.518
300.501
300.483
300.464
300.443
300.422
300.4
300.38
300.36
300.342
300.326
300.311
300.298
301.015
300.967
300.911
300.858
300.811
300.771
300.736
300.706
300.681
300.658
300.637
300.619
300.601
300.584
300.568
300.551
300.534
300.517
300.5
300.481
300.463
300.443
300.422
300.402
300.382
300.364
300.346
300.33
300.315
300.301
301.1
301.067
301.006
300.939
300.877
300.824
300.779
300.741
300.708
300.679
300.654
300.632
300.611
300.592
300.573
300.555
300.536
300.517
300.499
300.48
300.462
300.443
300.423
300.404
300.385
300.367
300.35
300.334
300.318
300.304
301.182
301.167
301.11
301.035
300.96
300.892
300.835
300.786
300.744
300.708
300.677
300.65
300.625
300.603
300.581
300.56
300.54
300.519
300.499
300.48
300.462
300.443
300.424
300.406
300.388
300.371
300.354
300.338
300.323
300.308
301.249
301.254
301.214
301.141
301.056
300.975
300.903
300.842
300.79
300.746
300.707
300.674
300.644
300.617
300.593
300.569
300.546
300.523
300.502
300.482
300.463
300.444
300.426
300.408
300.391
300.374
300.358
300.342
300.327
300.313
301.306
301.327
301.307
301.248
301.164
301.072
300.987
300.911
300.847
300.792
300.745
300.704
300.669
300.637
300.608
300.581
300.555
300.53
300.507
300.485
300.465
300.447
300.429
300.411
300.394
300.378
300.362
300.347
300.332
300.318
301.357
301.386
301.384
301.346
301.274
301.181
301.085
300.995
300.917
300.849
300.792
300.743
300.7
300.662
300.628
300.596
300.567
300.539
300.514
300.491
300.469
300.45
300.432
300.415
300.398
300.382
300.367
300.352
300.337
300.323
301.408
301.436
301.446
301.428
301.375
301.293
301.195
301.095
301.002
300.92
300.85
300.79
300.739
300.693
300.653
300.616
300.582
300.551
300.523
300.498
300.475
300.455
300.436
300.419
300.403
300.387
300.372
300.357
300.342
300.328
301.46
301.483
301.498
301.493
301.461
301.397
301.308
301.205
301.102
301.006
300.921
300.849
300.786
300.733
300.685
300.642
300.603
300.567
300.536
300.508
300.483
300.462
300.442
300.424
300.408
300.392
300.377
300.362
300.348
300.334
301.514
301.531
301.543
301.545
301.528
301.484
301.412
301.317
301.211
301.105
301.007
300.92
300.845
300.781
300.724
300.673
300.628
300.588
300.552
300.521
300.494
300.47
300.449
300.431
300.414
300.398
300.382
300.368
300.353
300.339
301.568
301.578
301.587
301.589
301.58
301.552
301.499
301.42
301.321
301.212
301.104
301.004
300.916
300.839
300.772
300.713
300.66
300.613
300.573
300.537
300.507
300.481
300.458
300.439
300.421
300.404
300.389
300.374
300.359
300.346
301.623
301.626
301.629
301.629
301.623
301.604
301.567
301.506
301.421
301.318
301.208
301.099
300.998
300.909
300.83
300.761
300.699
300.645
300.598
300.558
300.524
300.495
300.47
300.448
300.429
300.412
300.396
300.381
300.366
300.352
301.676
301.673
301.67
301.666
301.658
301.644
301.616
301.571
301.503
301.413
301.309
301.198
301.09
300.989
300.899
300.818
300.747
300.685
300.63
300.584
300.545
300.512
300.484
300.46
300.439
300.421
300.404
300.388
300.373
300.359
301.724
301.716
301.708
301.7
301.689
301.675
301.652
301.617
301.565
301.491
301.399
301.293
301.183
301.076
300.976
300.885
300.804
300.732
300.67
300.616
300.571
300.533
300.502
300.475
300.452
300.432
300.414
300.397
300.382
300.368
301.765
301.753
301.741
301.729
301.715
301.699
301.678
301.65
301.608
301.549
301.471
301.377
301.273
301.165
301.059
300.96
300.869
300.788
300.717
300.655
300.603
300.56
300.524
300.493
300.468
300.445
300.426
300.408
300.392
300.377
301.797
301.782
301.767
301.751
301.735
301.717
301.696
301.671
301.636
301.589
301.525
301.445
301.351
301.248
301.142
301.039
300.941
300.852
300.772
300.702
300.643
300.593
300.551
300.516
300.487
300.462
300.44
300.421
300.403
300.387
301.816
301.8
301.783
301.765
301.747
301.727
301.706
301.682
301.652
301.614
301.562
301.496
301.415
301.322
301.222
301.119
301.018
300.923
300.836
300.758
300.69
300.633
300.585
300.545
300.511
300.482
300.458
300.436
300.416
300.399
301.822
301.805
301.788
301.769
301.75
301.731
301.709
301.686
301.659
301.626
301.584
301.53
301.463
301.382
301.292
301.195
301.096
300.998
300.906
300.821
300.746
300.681
300.626
300.58
300.541
300.508
300.479
300.455
300.433
300.414
301.811
301.795
301.778
301.76
301.742
301.723
301.702
301.681
301.657
301.629
301.593
301.55
301.495
301.427
301.349
301.262
301.169
301.074
300.98
300.891
300.81
300.738
300.676
300.622
300.577
300.539
300.506
300.477
300.453
300.431
301.78
301.766
301.752
301.736
301.72
301.703
301.684
301.664
301.643
301.618
301.589
301.553
301.509
301.454
301.388
301.313
301.229
301.141
301.051
300.962
300.878
300.801
300.732
300.672
300.62
300.576
300.538
300.505
300.476
300.452
301.727
301.717
301.705
301.692
301.679
301.664
301.648
301.631
301.611
301.59
301.565
301.535
301.498
301.453
301.399
301.334
301.262
301.183
301.101
301.018
300.936
300.858
300.787
300.722
300.666
300.616
300.573
300.536
300.503
300.475
301.643
301.635
301.626
301.616
301.606
301.594
301.581
301.566
301.547
301.527
301.504
301.477
301.446
301.407
301.36
301.304
301.241
301.172
301.099
301.025
300.951
300.879
300.812
300.75
300.694
300.644
300.599
300.56
300.526
300.496
301.502
301.492
301.484
301.478
301.471
301.463
301.452
301.436
301.417
301.395
301.372
301.346
301.317
301.281
301.236
301.185
301.131
301.072
301.009
300.945
300.881
300.82
300.762
300.71
300.662
300.62
300.582
300.548
300.518
300.491
301.227
301.206
301.198
301.198
301.199
301.194
301.183
301.166
301.145
301.121
301.097
301.071
301.043
301.011
300.971
300.926
300.879
300.829
300.778
300.727
300.678
300.632
300.592
300.556
300.525
300.498
300.475
300.454
300.435
300.418
300.682
300.679
300.687
300.697
300.705
300.708
300.705
300.699
300.689
300.676
300.662
300.647
300.629
300.607
300.579
300.548
300.516
300.482
300.447
300.413
300.38
300.35
300.324
300.302
300.283
300.266
300.253
300.242
300.232
300.223
300.731
300.711
300.696
300.684
300.672
300.661
300.65
300.64
300.63
300.62
300.61
300.6
300.59
300.58
300.568
300.556
300.543
300.526
300.503
300.473
300.438
300.403
300.371
300.345
300.324
300.308
300.295
300.285
300.275
300.257
300.733
300.71
300.692
300.677
300.664
300.652
300.641
300.631
300.621
300.611
300.601
300.591
300.58
300.569
300.558
300.545
300.532
300.515
300.493
300.466
300.435
300.403
300.374
300.349
300.328
300.311
300.298
300.286
300.276
300.261
300.738
300.715
300.696
300.679
300.665
300.652
300.64
300.629
300.617
300.606
300.596
300.585
300.574
300.562
300.55
300.537
300.522
300.506
300.485
300.46
300.432
300.403
300.376
300.352
300.332
300.315
300.3
300.288
300.277
300.264
300.747
300.724
300.704
300.687
300.671
300.657
300.644
300.631
300.619
300.607
300.595
300.583
300.571
300.558
300.545
300.531
300.515
300.498
300.478
300.455
300.429
300.403
300.378
300.355
300.335
300.318
300.304
300.291
300.279
300.266
300.761
300.739
300.719
300.701
300.683
300.667
300.652
300.638
300.624
300.611
300.597
300.584
300.571
300.557
300.543
300.527
300.511
300.493
300.473
300.451
300.427
300.403
300.379
300.358
300.339
300.322
300.307
300.293
300.281
300.268
300.78
300.76
300.741
300.721
300.703
300.684
300.667
300.65
300.634
300.619
300.604
300.589
300.574
300.559
300.543
300.526
300.508
300.489
300.469
300.448
300.426
300.403
300.381
300.361
300.342
300.326
300.31
300.296
300.284
300.271
300.806
300.79
300.771
300.751
300.73
300.709
300.689
300.669
300.651
300.632
300.615
300.598
300.581
300.563
300.545
300.526
300.507
300.487
300.467
300.446
300.425
300.404
300.383
300.364
300.346
300.33
300.314
300.3
300.287
300.274
300.84
300.829
300.813
300.792
300.769
300.744
300.72
300.696
300.673
300.652
300.631
300.611
300.591
300.572
300.551
300.53
300.508
300.486
300.466
300.445
300.425
300.405
300.385
300.367
300.35
300.334
300.318
300.304
300.29
300.277
300.882
300.881
300.87
300.849
300.822
300.792
300.761
300.732
300.704
300.678
300.653
300.629
300.606
300.584
300.561
300.536
300.512
300.489
300.466
300.445
300.425
300.406
300.388
300.37
300.354
300.338
300.323
300.308
300.294
300.281
300.935
300.943
300.937
300.917
300.886
300.851
300.814
300.778
300.744
300.712
300.682
300.654
300.627
300.6
300.574
300.546
300.519
300.494
300.47
300.448
300.428
300.409
300.391
300.374
300.358
300.343
300.328
300.313
300.299
300.285
300.991
301.007
301.007
300.991
300.96
300.921
300.877
300.834
300.793
300.754
300.718
300.685
300.653
300.622
300.591
300.56
300.53
300.501
300.476
300.453
300.432
300.413
300.395
300.379
300.363
300.348
300.333
300.318
300.304
300.29
301.051
301.071
301.078
301.068
301.04
300.999
300.951
300.901
300.852
300.806
300.763
300.723
300.685
300.649
300.614
300.579
300.544
300.513
300.485
300.46
300.438
300.418
300.4
300.384
300.368
300.353
300.338
300.324
300.309
300.295
301.114
301.134
301.146
301.142
301.12
301.082
301.032
300.977
300.921
300.867
300.816
300.769
300.725
300.683
300.642
300.602
300.563
300.528
300.497
300.47
300.446
300.426
300.407
300.39
300.374
300.359
300.344
300.33
300.315
300.301
301.179
301.198
301.211
301.212
301.197
301.164
301.117
301.06
300.998
300.937
300.878
300.823
300.772
300.724
300.677
300.631
300.587
300.548
300.513
300.483
300.457
300.435
300.415
300.398
300.381
300.366
300.351
300.336
300.321
300.307
301.247
301.262
301.274
301.277
301.267
301.242
301.2
301.145
301.081
301.014
300.948
300.885
300.826
300.772
300.718
300.666
300.617
300.573
300.534
300.5
300.472
300.447
300.426
300.407
300.39
300.374
300.358
300.343
300.328
300.314
301.316
301.327
301.336
301.338
301.331
301.312
301.276
301.226
301.164
301.096
301.025
300.955
300.888
300.826
300.766
300.708
300.653
300.604
300.56
300.522
300.49
300.462
300.439
300.418
300.4
300.383
300.367
300.351
300.336
300.321
301.386
301.392
301.396
301.396
301.389
301.373
301.344
301.3
301.244
301.176
301.103
301.029
300.956
300.887
300.821
300.756
300.696
300.641
300.592
300.549
300.512
300.481
300.455
300.432
300.412
300.394
300.377
300.36
300.345
300.33
301.454
301.455
301.454
301.45
301.442
301.426
301.401
301.364
301.314
301.251
301.18
301.104
301.028
300.953
300.881
300.811
300.745
300.684
300.629
300.581
300.54
300.505
300.475
300.449
300.427
300.407
300.388
300.371
300.354
300.339
301.518
301.514
301.508
301.5
301.489
301.473
301.45
301.417
301.373
301.317
301.25
301.176
301.099
301.021
300.945
300.87
300.799
300.733
300.673
300.62
300.573
300.533
300.499
300.47
300.445
300.422
300.402
300.383
300.366
300.35
301.575
301.567
301.557
301.545
301.53
301.513
301.49
301.46
301.421
301.371
301.311
301.242
301.167
301.089
301.011
300.933
300.859
300.788
300.723
300.664
300.612
300.567
300.529
300.495
300.467
300.441
300.419
300.398
300.379
300.362
301.621
301.61
301.597
301.582
301.564
301.545
301.522
301.493
301.458
301.414
301.361
301.298
301.229
301.154
301.076
300.999
300.922
300.849
300.779
300.715
300.657
300.607
300.564
300.526
300.493
300.464
300.439
300.416
300.395
300.376
301.653
301.64
301.625
301.608
301.589
301.568
301.545
301.517
301.485
301.446
301.399
301.344
301.281
301.212
301.139
301.064
300.988
300.913
300.84
300.772
300.71
300.654
300.605
300.562
300.525
300.492
300.462
300.436
300.413
300.392
301.669
301.655
301.639
301.622
301.603
301.581
301.558
301.532
301.502
301.467
301.426
301.378
301.322
301.261
301.194
301.124
301.052
300.979
300.906
300.835
300.768
300.708
300.653
300.605
300.562
300.524
300.491
300.461
300.434
300.41
301.667
301.654
301.64
301.623
301.604
301.584
301.561
301.536
301.508
301.476
301.439
301.396
301.349
301.295
301.236
301.172
301.106
301.038
300.968
300.898
300.83
300.765
300.706
300.652
300.604
300.561
300.523
300.489
300.458
300.432
301.64
301.63
301.617
301.602
301.586
301.567
301.545
301.522
301.496
301.466
301.433
301.396
301.353
301.305
301.253
301.196
301.137
301.075
301.012
300.946
300.881
300.818
300.757
300.7
300.648
300.6
300.558
300.52
300.485
300.456
301.585
301.577
301.566
301.554
301.539
301.523
301.504
301.482
301.457
301.429
301.398
301.364
301.324
301.28
301.232
301.179
301.124
301.069
301.013
300.956
300.899
300.842
300.786
300.731
300.68
300.633
300.588
300.548
300.511
300.478
301.489
301.48
301.47
301.46
301.449
301.436
301.42
301.4
301.376
301.348
301.318
301.284
301.247
301.203
301.155
301.101
301.049
300.998
300.949
300.901
300.854
300.808
300.762
300.717
300.673
300.631
300.592
300.555
300.521
300.49
301.325
301.311
301.301
301.293
301.288
301.281
301.269
301.251
301.228
301.2
301.169
301.135
301.098
301.056
301.008
300.956
300.906
300.858
300.812
300.768
300.727
300.688
300.655
300.625
300.597
300.57
300.542
300.515
300.489
300.465
301.047
301.034
301.028
301.028
301.03
301.028
301.021
301.007
300.988
300.965
300.938
300.909
300.877
300.839
300.795
300.746
300.701
300.657
300.616
300.578
300.544
300.512
300.485
300.462
300.443
300.426
300.413
300.4
300.387
300.373
300.619
300.622
300.632
300.645
300.658
300.667
300.671
300.669
300.661
300.649
300.634
300.615
300.592
300.564
300.529
300.49
300.454
300.419
300.387
300.357
300.331
300.308
300.288
300.271
300.257
300.246
300.236
300.227
300.218
300.21
300.729
300.707
300.692
300.679
300.667
300.655
300.644
300.634
300.623
300.613
300.602
300.592
300.581
300.57
300.558
300.545
300.529
300.508
300.478
300.439
300.399
300.364
300.336
300.315
300.3
300.289
300.28
300.272
300.264
300.255
300.72
300.696
300.678
300.664
300.652
300.641
300.63
300.62
300.61
300.599
300.589
300.579
300.568
300.557
300.545
300.531
300.515
300.495
300.467
300.433
300.398
300.366
300.34
300.319
300.304
300.292
300.282
300.273
300.264
300.254
300.716
300.693
300.675
300.66
300.647
300.635
300.624
300.613
300.603
300.592
300.581
300.571
300.559
300.547
300.534
300.52
300.504
300.484
300.458
300.428
300.396
300.367
300.343
300.323
300.307
300.295
300.284
300.274
300.265
300.254
300.718
300.697
300.679
300.663
300.649
300.637
300.624
300.613
300.601
300.589
300.578
300.566
300.554
300.541
300.527
300.512
300.495
300.475
300.451
300.423
300.395
300.368
300.345
300.327
300.311
300.298
300.286
300.275
300.265
300.255
300.724
300.705
300.687
300.671
300.656
300.642
300.629
300.616
300.604
300.591
300.578
300.566
300.552
300.538
300.523
300.506
300.488
300.467
300.444
300.419
300.394
300.37
300.348
300.331
300.315
300.302
300.289
300.278
300.267
300.256
300.735
300.718
300.701
300.685
300.669
300.654
300.639
300.625
300.61
300.596
300.582
300.568
300.553
300.538
300.521
300.502
300.483
300.462
300.44
300.416
300.393
300.371
300.352
300.335
300.319
300.306
300.292
300.28
300.268
300.257
300.752
300.737
300.721
300.704
300.688
300.671
300.655
300.638
300.622
300.606
300.591
300.575
300.558
300.54
300.521
300.501
300.48
300.458
300.437
300.415
300.393
300.373
300.355
300.339
300.324
300.31
300.296
300.283
300.271
300.259
300.776
300.763
300.748
300.731
300.714
300.695
300.676
300.658
300.64
300.622
300.603
300.585
300.566
300.547
300.525
300.502
300.479
300.456
300.435
300.414
300.394
300.376
300.359
300.343
300.329
300.315
300.301
300.287
300.274
300.261
300.806
300.796
300.782
300.766
300.748
300.727
300.706
300.685
300.663
300.642
300.622
300.601
300.579
300.557
300.532
300.506
300.481
300.457
300.435
300.415
300.396
300.379
300.363
300.348
300.334
300.32
300.305
300.291
300.277
300.264
300.843
300.837
300.826
300.811
300.791
300.768
300.744
300.719
300.694
300.67
300.646
300.621
300.596
300.571
300.543
300.514
300.486
300.46
300.437
300.417
300.399
300.383
300.368
300.353
300.339
300.325
300.311
300.296
300.281
300.268
300.888
300.886
300.877
300.864
300.843
300.818
300.791
300.762
300.733
300.704
300.676
300.648
300.619
300.59
300.558
300.525
300.494
300.466
300.443
300.422
300.404
300.388
300.373
300.359
300.345
300.331
300.316
300.301
300.286
300.272
300.94
300.94
300.935
300.923
300.903
300.877
300.846
300.813
300.779
300.746
300.713
300.681
300.648
300.614
300.577
300.541
300.506
300.476
300.451
300.43
300.411
300.395
300.38
300.366
300.352
300.337
300.322
300.307
300.291
300.276
300.996
300.999
300.996
300.986
300.967
300.941
300.908
300.872
300.834
300.795
300.758
300.72
300.682
300.643
300.602
300.561
300.523
300.49
300.463
300.44
300.421
300.404
300.388
300.373
300.359
300.344
300.329
300.313
300.297
300.282
301.057
301.061
301.059
301.051
301.035
301.009
300.976
300.937
300.895
300.852
300.809
300.766
300.723
300.679
300.633
300.587
300.545
300.509
300.48
300.455
300.433
300.415
300.398
300.382
300.367
300.352
300.337
300.32
300.304
300.289
301.123
301.126
301.124
301.117
301.102
301.078
301.046
301.006
300.961
300.914
300.866
300.818
300.769
300.72
300.669
300.618
300.573
300.534
300.501
300.473
300.449
300.428
300.41
300.393
300.377
300.361
300.345
300.329
300.312
300.296
301.192
301.193
301.191
301.183
301.169
301.146
301.115
301.076
301.03
300.98
300.927
300.874
300.821
300.767
300.711
300.656
300.606
300.564
300.527
300.496
300.469
300.446
300.425
300.407
300.389
300.372
300.355
300.338
300.32
300.304
301.261
301.261
301.256
301.247
301.233
301.211
301.181
301.143
301.098
301.047
300.992
300.935
300.877
300.818
300.758
300.699
300.646
300.6
300.559
300.524
300.494
300.467
300.444
300.424
300.404
300.386
300.367
300.349
300.33
300.313
301.329
301.326
301.32
301.309
301.293
301.272
301.243
301.207
301.163
301.112
301.056
300.996
300.935
300.873
300.81
300.748
300.692
300.642
300.597
300.558
300.524
300.494
300.468
300.444
300.422
300.401
300.381
300.361
300.342
300.324
301.394
301.388
301.379
301.366
301.349
301.327
301.299
301.264
301.222
301.172
301.117
301.057
300.995
300.931
300.866
300.802
300.744
300.69
300.642
300.598
300.56
300.526
300.496
300.469
300.444
300.42
300.398
300.376
300.355
300.335
301.451
301.443
301.432
301.417
301.398
301.375
301.348
301.314
301.274
301.227
301.174
301.115
301.053
300.989
300.923
300.86
300.8
300.744
300.692
300.645
300.602
300.564
300.53
300.498
300.469
300.442
300.417
300.393
300.37
300.349
301.498
301.488
301.476
301.459
301.44
301.416
301.389
301.356
301.318
301.274
301.224
301.168
301.109
301.046
300.982
300.919
300.859
300.802
300.748
300.697
300.65
300.608
300.569
300.532
300.499
300.468
300.44
300.413
300.387
300.364
301.53
301.521
301.508
301.491
301.471
301.447
301.42
301.389
301.354
301.313
301.266
301.215
301.159
301.1
301.039
300.978
300.919
300.862
300.807
300.754
300.704
300.657
300.613
300.572
300.534
300.498
300.466
300.435
300.407
300.382
301.546
301.537
301.525
301.509
301.49
301.467
301.441
301.412
301.379
301.341
301.298
301.251
301.199
301.144
301.087
301.03
300.973
300.918
300.863
300.81
300.758
300.708
300.66
300.614
300.572
300.532
300.495
300.461
300.429
300.401
301.544
301.537
301.527
301.513
301.495
301.474
301.449
301.421
301.389
301.354
301.315
301.271
301.224
301.173
301.12
301.064
301.009
300.956
300.905
300.854
300.804
300.754
300.705
300.657
300.61
300.566
300.526
300.488
300.454
300.423
301.517
301.513
301.505
301.494
301.478
301.459
301.436
301.41
301.38
301.347
301.31
301.269
301.225
301.175
301.123
301.067
301.012
300.96
300.913
300.867
300.823
300.778
300.733
300.688
300.642
300.597
300.554
300.515
300.478
300.445
301.46
301.457
301.452
301.443
301.43
301.413
301.393
301.369
301.341
301.309
301.273
301.233
301.189
301.139
301.086
301.025
300.968
300.916
300.871
300.831
300.794
300.758
300.723
300.687
300.649
300.61
300.571
300.533
300.497
300.464
301.359
301.356
301.351
301.345
301.336
301.323
301.307
301.285
301.259
301.228
301.192
301.152
301.107
301.055
301
300.935
300.876
300.825
300.782
300.746
300.714
300.685
300.659
300.635
300.612
300.586
300.556
300.526
300.495
300.466
301.191
301.186
301.182
301.178
301.176
301.171
301.16
301.144
301.12
301.09
301.055
301.016
300.974
300.923
300.867
300.8
300.742
300.693
300.652
300.618
300.59
300.566
300.546
300.53
300.516
300.503
300.49
300.473
300.452
300.432
300.927
300.927
300.93
300.935
300.941
300.944
300.941
300.932
300.915
300.891
300.863
300.83
300.792
300.746
300.692
300.628
300.575
300.529
300.492
300.462
300.437
300.417
300.402
300.39
300.38
300.373
300.365
300.358
300.349
300.339
300.574
300.586
300.602
300.62
300.637
300.651
300.659
300.661
300.656
300.644
300.627
300.604
300.575
300.537
300.491
300.437
300.393
300.355
300.324
300.299
300.278
300.262
300.25
300.24
300.233
300.227
300.221
300.216
300.209
300.203
300.732
300.707
300.69
300.676
300.663
300.651
300.64
300.629
300.618
300.607
300.596
300.585
300.574
300.562
300.55
300.535
300.517
300.491
300.451
300.405
300.364
300.333
300.311
300.296
300.285
300.277
300.271
300.265
300.259
300.251
300.714
300.688
300.67
300.656
300.643
300.632
300.621
300.611
300.6
300.59
300.58
300.569
300.558
300.546
300.534
300.519
300.501
300.476
300.44
300.4
300.364
300.336
300.315
300.3
300.289
300.28
300.273
300.265
300.258
300.25
300.702
300.678
300.66
300.646
300.633
300.622
300.611
300.601
300.59
300.58
300.569
300.558
300.547
300.535
300.521
300.506
300.487
300.463
300.431
300.396
300.364
300.338
300.319
300.305
300.293
300.284
300.275
300.266
300.258
300.249
300.698
300.677
300.66
300.645
300.632
300.62
300.608
300.597
300.586
300.574
300.563
300.552
300.539
300.526
300.512
300.495
300.476
300.452
300.423
300.392
300.364
300.341
300.323
300.309