/*--------------------------------*- C++ -*----------------------------------*\
  =========                 |
  \\      /  F ield         | OpenFOAM: The Open Source CFD Toolbox
   \\    /   O peration     | Website:  https://openfoam.org
    \\  /    A nd           | Version:  12
     \\/     M anipulation  |
\*---------------------------------------------------------------------------*/
FoamFile
{
    format      ascii;
    class       volScalarField;
    location    "300/porous";
    object      rho;
}
// * * * * * * * * * * * * * * * * * * * * * * * * * * * * * * * * * * * * * //

dimensions      [1 -3 0 0 0 0 0];

internalField   nonuniform List<scalar> 
140000
(
933.891
933.891
933.891
933.891
933.891
933.891
933.891
933.891
933.892
933.899
934.195
934.422
934.621
934.807
934.985
935.157
935.326
935.491
935.654
935.815
935.975
936.134
936.294
936.457
936.625
936.802
936.995
937.208
937.451
937.731
938.058
938.438
938.879
939.384
939.957
940.599
941.312
942.095
942.948
943.867
944.848
945.887
946.979
948.117
949.293
950.5
951.73
952.976
954.228
955.479
956.723
957.95
959.155
960.332
961.473
962.576
963.635
964.646
965.606
966.505
967.137
967.796
968.435
969.04
969.606
970.13
970.611
971.049
971.444
971.78
933.891
933.891
933.891
933.891
933.891
933.891
933.891
933.891
933.891
933.896
934.123
934.303
934.463
934.612
934.756
934.896
935.033
935.168
935.302
935.434
935.565
935.695
935.825
935.956
936.088
936.224
936.365
936.514
936.674
936.851
937.047
937.268
937.519
937.803
938.126
938.492
938.904
939.367
939.883
940.456
941.086
941.775
942.523
943.329
944.193
945.111
946.081
947.097
948.155
949.248
950.37
951.514
952.675
953.845
955.018
956.188
957.349
958.496
959.624
960.722
961.621
962.545
963.458
964.348
965.205
966.025
966.803
967.538
968.226
968.842
933.891
933.891
933.891
933.891
933.891
933.891
933.891
933.891
933.891
933.895
934.104
934.267
934.408
934.54
934.665
934.785
934.903
935.018
935.131
935.242
935.352
935.461
935.569
935.677
935.784
935.891
936
936.111
936.226
936.345
936.471
936.605
936.751
936.91
937.087
937.285
937.508
937.762
938.051
938.379
938.751
939.17
939.64
940.166
940.748
941.39
942.092
942.853
943.672
944.547
945.475
946.452
947.474
948.537
949.634
950.762
951.914
953.084
954.266
955.45
956.468
957.535
958.615
959.691
960.754
961.794
962.804
963.779
964.713
965.572
933.891
933.891
933.891
933.891
933.891
933.891
933.891
933.891
933.891
933.895
934.101
934.258
934.395
934.52
934.638
934.751
934.86
934.967
935.071
935.174
935.274
935.373
935.471
935.567
935.663
935.758
935.853
935.948
936.044
936.142
936.241
936.344
936.451
936.565
936.687
936.822
936.972
937.143
937.339
937.564
937.824
938.123
938.466
938.858
939.303
939.804
940.364
940.986
941.669
942.414
943.22
944.086
945.008
945.986
947.013
948.087
949.202
950.352
951.531
952.729
953.775
954.886
956.025
957.173
958.32
959.455
960.57
961.657
962.708
963.683
933.891
933.891
933.891
933.891
933.891
933.891
933.891
933.891
933.891
933.895
934.1
934.257
934.392
934.515
934.631
934.742
934.849
934.952
935.053
935.152
935.249
935.344
935.438
935.53
935.621
935.711
935.8
935.89
935.979
936.069
936.16
936.253
936.348
936.447
936.552
936.666
936.792
936.936
937.1
937.29
937.51
937.766
938.062
938.403
938.795
939.241
939.745
940.31
940.938
941.629
942.384
943.202
944.083
945.023
946.02
947.069
948.166
949.305
950.479
951.679
952.732
953.857
955.015
956.189
957.365
958.534
959.686
960.813
961.908
962.926
933.891
933.891
933.891
933.891
933.891
933.891
933.891
933.891
933.891
933.895
934.101
934.258
934.393
934.516
934.632
934.742
934.848
934.95
935.05
935.148
935.244
935.338
935.43
935.52
935.609
935.698
935.785
935.873
935.96
936.048
936.136
936.225
936.316
936.411
936.511
936.618
936.738
936.872
937.026
937.205
937.412
937.652
937.932
938.256
938.63
939.056
939.541
940.086
940.694
941.367
942.105
942.909
943.776
944.705
945.693
946.736
947.829
948.966
950.141
951.344
952.401
953.532
954.698
955.88
957.067
958.247
959.412
960.552
961.66
962.691
933.891
933.891
933.891
933.891
933.891
933.891
933.891
933.891
933.891
933.895
934.101
934.259
934.394
934.517
934.633
934.743
934.849
934.951
935.051
935.149
935.244
935.337
935.429
935.519
935.608
935.696
935.783
935.87
935.957
936.044
936.131
936.219
936.309
936.403
936.501
936.607
936.724
936.856
937.007
937.182
937.384
937.62
937.894
938.212
938.579
938.999
939.476
940.015
940.617
941.284
942.017
942.816
943.68
944.607
945.594
946.637
947.73
948.869
950.046
951.25
952.311
953.444
954.613
955.799
956.99
958.174
959.342
960.486
961.598
962.633
933.891
933.891
933.891
933.891
933.891
933.891
933.891
933.891
933.891
933.895
934.102
934.26
934.396
934.519
934.635
934.745
934.851
934.954
935.054
935.151
935.246
935.34
935.431
935.522
935.61
935.698
935.785
935.872
935.959
936.046
936.133
936.221
936.311
936.405
936.503
936.609
936.725
936.857
937.007
937.181
937.382
937.616
937.888
938.204
938.568
938.986
939.46
939.996
940.596
941.261
941.993
942.791
943.655
944.582
945.569
946.613
947.707
948.847
950.025
951.231
952.293
953.428
954.599
955.786
956.978
958.163
959.332
960.477
961.59
962.625
933.891
933.891
933.891
933.891
933.891
933.891
933.891
933.891
933.891
933.895
934.103
934.261
934.397
934.521
934.637
934.747
934.853
934.956
935.056
935.153
935.249
935.342
935.434
935.524
935.613
935.701
935.789
935.876
935.963
936.05
936.137
936.226
936.316
936.41
936.508
936.614
936.731
936.863
937.013
937.186
937.387
937.62
937.892
938.207
938.57
938.986
939.46
939.994
940.593
941.257
941.988
942.786
943.649
944.576
945.564
946.608
947.703
948.844
950.023
951.23
952.293
953.428
954.599
955.787
956.979
958.165
959.334
960.479
961.592
962.627
933.891
933.891
933.891
933.891
933.891
933.891
933.891
933.891
933.891
933.895
934.103
934.262
934.398
934.522
934.638
934.749
934.855
934.958
935.058
935.155
935.251
935.345
935.437
935.527
935.616
935.705
935.792
935.88
935.967
936.054
936.142
936.231
936.321
936.415
936.515
936.621
936.739
936.87
937.021
937.194
937.395
937.628
937.899
938.214
938.576
938.992
939.465
939.999
940.596
941.26
941.99
942.787
943.651
944.578
945.566
946.61
947.706
948.846
950.026
951.233
952.296
953.433
954.604
955.792
956.984
958.169
959.339
960.484
961.596
962.631
933.891
933.891
933.891
933.891
933.891
933.891
933.891
933.891
933.891
933.895
934.104
934.263
934.399
934.523
934.639
934.75
934.856
934.959
935.059
935.157
935.253
935.347
935.439
935.53
935.619
935.708
935.796
935.883
935.971
936.058
936.146
936.235
936.326
936.421
936.521
936.628
936.746
936.878
937.029
937.202
937.403
937.636
937.907
938.221
938.584
938.999
939.471
940.004
940.6
941.263
941.993
942.789
943.652
944.579
945.567
946.611
947.707
948.848
950.027
951.235
952.298
953.435
954.607
955.795
956.987
958.172
959.342
960.486
961.599
962.634
933.891
933.891
933.891
933.891
933.891
933.891
933.891
933.891
933.891
933.895
934.104
934.263
934.4
934.524
934.64
934.751
934.857
934.96
935.06
935.158
935.254
935.348
935.441
935.532
935.622
935.71
935.798
935.886
935.974
936.062
936.15
936.24
936.331
936.426
936.527
936.635
936.753
936.886
937.037
937.21
937.411
937.644
937.915
938.229
938.591
939.005
939.477
940.009
940.605
941.266
941.996
942.792
943.654
944.581
945.568
946.612
947.708
948.849
950.028
951.236
952.3
953.436
954.608
955.797
956.989
958.174
959.343
960.488
961.6
962.635
933.891
933.891
933.891
933.891
933.891
933.891
933.891
933.891
933.891
933.895
934.105
934.264
934.401
934.525
934.641
934.751
934.857
934.96
935.061
935.159
935.255
935.349
935.442
935.533
935.623
935.712
935.801
935.889
935.977
936.065
936.153
936.243
936.335
936.431
936.532
936.64
936.759
936.893
937.044
937.218
937.419
937.652
937.922
938.236
938.597
939.011
939.482
940.013
940.608
941.269
941.997
942.793
943.654
944.58
945.568
946.611
947.707
948.848
950.027
951.234
952.299
953.435
954.607
955.796
956.988
958.174
959.343
960.488
961.6
962.634
933.891
933.891
933.891
933.891
933.891
933.891
933.891
933.891
933.891
933.895
934.105
934.264
934.401
934.525
934.641
934.752
934.858
934.96
935.061
935.159
935.255
935.349
935.443
935.534
935.625
935.714
935.802
935.891
935.979
936.067
936.156
936.246
936.339
936.435
936.536
936.646
936.765
936.899
937.051
937.224
937.425
937.658
937.929
938.242
938.603
939.016
939.486
940.016
940.61
941.27
941.998
942.793
943.654
944.579
945.566
946.61
947.705
948.845
950.025
951.232
952.296
953.433
954.605
955.794
956.986
958.172
959.341
960.486
961.598
962.633
933.891
933.891
933.891
933.891
933.891
933.891
933.891
933.891
933.891
933.895
934.105
934.264
934.401
934.526
934.641
934.752
934.857
934.96
935.06
935.158
935.255
935.349
935.443
935.535
935.625
935.715
935.803
935.892
935.98
936.069
936.158
936.249
936.342
936.438
936.54
936.65
936.77
936.904
937.056
937.23
937.431
937.664
937.934
938.247
938.607
939.019
939.488
940.018
940.611
941.271
941.997
942.791
943.652
944.577
945.563
946.606
947.7
948.841
950.02
951.228
952.292
953.429
954.601
955.79
956.982
958.168
959.338
960.483
961.595
962.63
933.891
933.891
933.891
933.891
933.891
933.891
933.891
933.891
933.891
933.895
934.105
934.265
934.402
934.526
934.642
934.751
934.857
934.96
935.06
935.158
935.254
935.349
935.442
935.534
935.625
935.715
935.804
935.893
935.981
936.07
936.16
936.251
936.345
936.441
936.544
936.654
936.774
936.909
937.061
937.235
937.436
937.669
937.938
938.251
938.61
939.022
939.49
940.019
940.612
941.27
941.996
942.789
943.649
944.573
945.559
946.601
947.695
948.836
950.015
951.222
952.287
953.424
954.596
955.785
956.978
958.163
959.333
960.478
961.591
962.626
933.891
933.891
933.891
933.891
933.891
933.891
933.891
933.891
933.891
933.895
934.105
934.265
934.402
934.526
934.641
934.751
934.857
934.959
935.059
935.157
935.253
935.348
935.442
935.534
935.625
935.715
935.804
935.893
935.982
936.071
936.162
936.253
936.347
936.444
936.547
936.657
936.778
936.913
937.065
937.239
937.44
937.672
937.942
938.253
938.612
939.023
939.491
940.019
940.611
941.268
941.993
942.786
943.645
944.568
945.553
946.595
947.689
948.828
950.008
951.215
952.28
953.417
954.589
955.778
956.971
958.157
959.327
960.472
961.585
962.62
933.891
933.891
933.891
933.891
933.891
933.891
933.891
933.891
933.891
933.895
934.105
934.265
934.402
934.526
934.641
934.751
934.856
934.958
935.058
935.156
935.252
935.347
935.441
935.533
935.624
935.714
935.803
935.893
935.982
936.072
936.163
936.254
936.349
936.446
936.549
936.659
936.781
936.916
937.068
937.243
937.443
937.675
937.944
938.255
938.614
939.024
939.491
940.018
940.609
941.266
941.99
942.781
943.639
944.562
945.546
946.588
947.681
948.821
950
951.208
952.272
953.409
954.581
955.77
956.964
958.15
959.32
960.466
961.579
962.614
933.891
933.891
933.891
933.891
933.891
933.891
933.891
933.891
933.891
933.895
934.105
934.265
934.402
934.525
934.641
934.75
934.856
934.958
935.058
935.156
935.252
935.346
935.44
935.532
935.623
935.713
935.803
935.892
935.982
936.072
936.163
936.256
936.35
936.448
936.55
936.661
936.782
936.918
937.071
937.245
937.445
937.677
937.946
938.256
938.614
939.023
939.489
940.016
940.606
941.261
941.985
942.775
943.633
944.555
945.538
946.579
947.672
948.811
949.99
951.198
952.262
953.399
954.572
955.761
956.955
958.141
959.312
960.458
961.571
962.607
933.891
933.891
933.891
933.891
933.891
933.891
933.891
933.891
933.891
933.895
934.105
934.265
934.402
934.525
934.64
934.75
934.855
934.957
935.057
935.155
935.251
935.346
935.439
935.531
935.622
935.712
935.802
935.892
935.982
936.073
936.164
936.257
936.351
936.448
936.551
936.662
936.783
936.918
937.072
937.246
937.446
937.678
937.946
938.256
938.613
939.021
939.486
940.012
940.601
941.256
941.978
942.768
943.625
944.546
945.529
946.569
947.661
948.8
949.979
951.187
952.252
953.389
954.561
955.751
956.944
958.131
959.302
960.449
961.562
962.599
933.891
933.891
933.891
933.891
933.891
933.891
933.891
933.891
933.891
933.895
934.105
934.264
934.401
934.525
934.64
934.749
934.855
934.957
935.057
935.155
935.251
935.346
935.439
935.531
935.622
935.712
935.802
935.892
935.982
936.073
936.164
936.257
936.351
936.449
936.551
936.662
936.783
936.918
937.071
937.246
937.446
937.677
937.945
938.254
938.61
939.018
939.482
940.007
940.595
941.249
941.971
942.76
943.615
944.536
945.518
946.557
947.649
948.788
949.967
951.176
952.24
953.377
954.55
955.739
956.933
958.121
959.292
960.439
961.553
962.59
933.891
933.891
933.891
933.891
933.891
933.891
933.891
933.891
933.891
933.895
934.105
934.264
934.401
934.524
934.639
934.749
934.854
934.957
935.057
935.155
935.251
935.346
935.439
935.531
935.622
935.712
935.802
935.892
935.983
936.073
936.165
936.257
936.351
936.449
936.552
936.662
936.783
936.918
937.071
937.245
937.445
937.676
937.943
938.252
938.607
939.014
939.478
940.001
940.588
941.242
941.962
942.75
943.605
944.525
945.506
946.545
947.636
948.775
949.954
951.162
952.226
953.364
954.537
955.727
956.921
958.109
959.281
960.428
961.543
962.58
933.891
933.891
933.891
933.891
933.891
933.891
933.891
933.891
933.891
933.895
934.105
934.264
934.4
934.524
934.639
934.748
934.854
934.957
935.057
935.156
935.252
935.347
935.44
935.532
935.623
935.713
935.803
935.893
935.984
936.074
936.166
936.258
936.352
936.449
936.552
936.662
936.783
936.918
937.07
937.244
937.444
937.675
937.941
938.249
938.603
939.01
939.472
939.995
940.581
941.233
941.953
942.74
943.594
944.513
945.494
946.532
947.623
948.761
949.941
951.149
952.213
953.351
954.524
955.714
956.909
958.097
959.269
960.417
961.532
962.57
933.891
933.891
933.891
933.891
933.891
933.891
933.891
933.891
933.891
933.895
934.105
934.263
934.4
934.523
934.638
934.748
934.854
934.957
935.058
935.157
935.253
935.348
935.441
935.533
935.624
935.714
935.805
935.895
935.985
936.076
936.167
936.259
936.353
936.45
936.552
936.663
936.783
936.918
937.07
937.244
937.443
937.673
937.939
938.246
938.6
939.005
939.467
939.989
940.574
941.225
941.944
942.731
943.584
944.502
945.482
946.519
947.61
948.749
949.928
951.137
952.201
953.339
954.512
955.703
956.898
958.086
959.259
960.407
961.523
962.562
933.891
933.891
933.891
933.891
933.891
933.891
933.891
933.891
933.891
933.895
934.105
934.263
934.399
934.523
934.638
934.748
934.854
934.958
935.059
935.157
935.254
935.349
935.443
935.535
935.626
935.716
935.807
935.897
935.987
936.078
936.169
936.26
936.354
936.451
936.553
936.663
936.784
936.918
937.07
937.244
937.443
937.672
937.938
938.244
938.597
939.002
939.463
939.984
940.569
941.219
941.938
942.724
943.576
944.494
945.473
946.511
947.602
948.74
949.92
951.129
952.193
953.331
954.504
955.695
956.89
958.079
959.252
960.401
961.517
962.556
933.891
933.891
933.891
933.891
933.891
933.891
933.891
933.891
933.891
933.895
934.104
934.262
934.398
934.522
934.637
934.748
934.855
934.959
935.06
935.159
935.256
935.351
935.445
935.537
935.628
935.719
935.809
935.899
935.989
936.08
936.17
936.262
936.355
936.452
936.555
936.665
936.785
936.919
937.071
937.244
937.443
937.673
937.938
938.244
938.597
939.001
939.462
939.983
940.567
941.218
941.936
942.722
943.574
944.492
945.471
946.509
947.6
948.739
949.92
951.129
952.193
953.331
954.504
955.695
956.89
958.079
959.252
960.401
961.517
962.556
933.891
933.891
933.891
933.891
933.891
933.891
933.891
933.891
933.891
933.895
934.104
934.262
934.398
934.521
934.637
934.748
934.855
934.959
935.06
935.16
935.257
935.352
935.446
935.539
935.63
935.721
935.811
935.901
935.991
936.082
936.172
936.264
936.357
936.454
936.556
936.666
936.786
936.921
937.072
937.246
937.445
937.675
937.94
938.246
938.599
939.003
939.464
939.985
940.57
941.221
941.94
942.726
943.579
944.497
945.477
946.515
947.607
948.746
949.927
951.137
952.2
953.338
954.512
955.703
956.898
958.087
959.259
960.408
961.524
962.562
933.891
933.891
933.891
933.891
933.891
933.891
933.891
933.891
933.891
933.895
934.104
934.262
934.397
934.521
934.637
934.748
934.855
934.96
935.061
935.161
935.258
935.354
935.448
935.54
935.632
935.723
935.813
935.903
935.993
936.083
936.174
936.265
936.358
936.455
936.557
936.667
936.787
936.922
937.074
937.248
937.447
937.677
937.942
938.248
938.601
939.006
939.468
939.99
940.576
941.227
941.946
942.733
943.587
944.505
945.486
946.525
947.618
948.758
949.939
951.149
952.212
953.35
954.524
955.714
956.909
958.098
959.27
960.418
961.534
962.572
933.891
933.891
933.891
933.891
933.891
933.891
933.891
933.891
933.891
933.895
934.103
934.261
934.397
934.52
934.636
934.748
934.855
934.96
935.062
935.161
935.259
935.354
935.449
935.541
935.633
935.724
935.815
935.904
935.994
936.084
936.174
936.266
936.359
936.456
936.558
936.668
936.788
936.923
937.075
937.249
937.448
937.678
937.944
938.251
938.605
939.01
939.472
939.995
940.582
941.234
941.954
942.741
943.596
944.515
945.497
946.536
947.63
948.77
949.952
951.162
952.226
953.364
954.537
955.727
956.922
958.11
959.282
960.43
961.545
962.582
933.891
933.891
933.891
933.891
933.891
933.891
933.891
933.891
933.891
933.895
934.103
934.261
934.396
934.52
934.637
934.748
934.856
934.96
935.062
935.162
935.259
935.355
935.449
935.542
935.634
935.725
935.815
935.905
935.995
936.084
936.175
936.266
936.36
936.456
936.558
936.668
936.789
936.924
937.076
937.25
937.449
937.68
937.946
938.253
938.607
939.014
939.477
940
940.588
941.241
941.962
942.75
943.605
944.525
945.507
946.548
947.642
948.783
949.965
951.176
952.239
953.377
954.55
955.74
956.935
958.122
959.294
960.441
961.555
962.592
933.891
933.891
933.891
933.891
933.891
933.891
933.891
933.891
933.891
933.895
934.103
934.26
934.396
934.52
934.636
934.748
934.856
934.961
935.062
935.162
935.259
935.355
935.449
935.542
935.634
935.725
935.816
935.905
935.994
936.084
936.174
936.266
936.359
936.456
936.558
936.668
936.789
936.923
937.076
937.25
937.449
937.68
937.946
938.254
938.609
939.017
939.481
940.005
940.593
941.248
941.969
942.758
943.614
944.535
945.518
946.559
947.654
948.796
949.978
951.189
952.253
953.39
954.563
955.753
956.947
958.134
959.305
960.452
961.566
962.602
933.891
933.891
933.891
933.891
933.891
933.891
933.891
933.891
933.891
933.895
934.102
934.26
934.395
934.519
934.636
934.748
934.856
934.96
935.062
935.162
935.259
935.355
935.449
935.542
935.634
935.725
935.815
935.905
935.994
936.083
936.173
936.264
936.358
936.454
936.557
936.667
936.787
936.922
937.075
937.249
937.448
937.679
937.946
938.255
938.611
939.019
939.484
940.009
940.598
941.253
941.976
942.766
943.622
944.544
945.528
946.57
947.665
948.808
949.99
951.201
952.265
953.402
954.575
955.765
956.958
958.145
959.316
960.462
961.575
962.611
933.891
933.891
933.891
933.891
933.891
933.891
933.891
933.891
933.891
933.895
934.102
934.259
934.395
934.519
934.636
934.748
934.856
934.96
935.062
935.161
935.259
935.354
935.448
935.541
935.633
935.724
935.814
935.904
935.992
936.081
936.171
936.262
936.355
936.452
936.554
936.664
936.785
936.92
937.072
937.246
937.446
937.677
937.945
938.254
938.611
939.02
939.486
940.012
940.602
941.258
941.982
942.773
943.63
944.553
945.537
946.58
947.676
948.819
950.001
951.212
952.276
953.413
954.586
955.775
956.968
958.155
959.325
960.471
961.584
962.62
933.891
933.891
933.891
933.891
933.891
933.891
933.891
933.891
933.891
933.895
934.101
934.258
934.394
934.518
934.635
934.747
934.855
934.96
935.061
935.16
935.258
935.353
935.447
935.54
935.632
935.723
935.813
935.902
935.991
936.079
936.168
936.259
936.352
936.449
936.551
936.661
936.782
936.916
937.068
937.242
937.443
937.674
937.942
938.252
938.61
939.02
939.487
940.014
940.605
941.262
941.987
942.778
943.637
944.56
945.546
946.589
947.685
948.828
950.011
951.222
952.286
953.423
954.595
955.784
956.977
958.163
959.333
960.479
961.591
962.627
933.891
933.891
933.891
933.891
933.891
933.891
933.891
933.891
933.891
933.895
934.101
934.258
934.394
934.518
934.635
934.747
934.855
934.959
935.061
935.16
935.257
935.352
935.446
935.539
935.631
935.721
935.811
935.9
935.988
936.077
936.165
936.256
936.348
936.445
936.547
936.657
936.777
936.912
937.064
937.238
937.438
937.67
937.939
938.25
938.608
939.019
939.487
940.016
940.608
941.266
941.991
942.784
943.643
944.567
945.553
946.597
947.693
948.837
950.019
951.231
952.294
953.431
954.603
955.792
956.985
958.171
959.341
960.486
961.598
962.633
933.891
933.891
933.891
933.891
933.891
933.891
933.891
933.891
933.891
933.895
934.101
934.257
934.393
934.518
934.635
934.746
934.854
934.958
935.06
935.158
935.255
935.351
935.444
935.537
935.629
935.719
935.809
935.897
935.985
936.073
936.162
936.252
936.344
936.44
936.542
936.652
936.772
936.907
937.059
937.233
937.434
937.666
937.935
938.246
938.606
939.017
939.486
940.016
940.609
941.268
941.994
942.788
943.648
944.573
945.559
946.603
947.7
948.843
950.026
951.238
952.301
953.438
954.61
955.798
956.991
958.177
959.346
960.491
961.603
962.638
933.891
933.891
933.891
933.891
933.891
933.891
933.891
933.891
933.891
933.895
934.1
934.257
934.392
934.517
934.634
934.746
934.853
934.957
935.058
935.157
935.254
935.349
935.442
935.535
935.626
935.717
935.806
935.894
935.982
936.07
936.158
936.247
936.339
936.435
936.537
936.646
936.766
936.901
937.053
937.227
937.428
937.661
937.93
938.242
938.602
939.015
939.485
940.015
940.609
941.269
941.996
942.791
943.652
944.578
945.565
946.609
947.706
948.849
950.032
951.243
952.306
953.443
954.615
955.803
956.996
958.181
959.351
960.495
961.607
962.642
933.891
933.891
933.891
933.891
933.891
933.891
933.891
933.891
933.891
933.895
934.1
934.256
934.392
934.516
934.633
934.745
934.852
934.956
935.057
935.156
935.252
935.347
935.44
935.532
935.624
935.714
935.803
935.891
935.978
936.066
936.154
936.243
936.334
936.429
936.53
936.64
936.76
936.894
937.046
937.221
937.422
937.655
937.925
938.237
938.598
939.011
939.482
940.013
940.608
941.269
941.997
942.792
943.654
944.58
945.568
946.613
947.71
948.853
950.036
951.247
952.31
953.446
954.618
955.806
956.999
958.184
959.353
960.498
961.61
962.644
933.891
933.891
933.891
933.891
933.891
933.891
933.891
933.891
933.891
933.895
934.099
934.256
934.391
934.516
934.632
934.744
934.851
934.955
935.056
935.154
935.25
935.345
935.438
935.53
935.621
935.711
935.799
935.887
935.975
936.062
936.149
936.237
936.328
936.423
936.524
936.633
936.753
936.887
937.039
937.213
937.415
937.648
937.918
938.231
938.593
939.007
939.478
940.01
940.606
941.268
941.997
942.793
943.656
944.582
945.57
946.615
947.712
948.856
950.038
951.249
952.312
953.448
954.619
955.808
957
958.185
959.354
960.499
961.611
962.645
933.891
933.891
933.891
933.891
933.891
933.891
933.891
933.891
933.891
933.895
934.099
934.255
934.391
934.515
934.631
934.743
934.85
934.953
935.054
935.152
935.248
935.343
935.435
935.527
935.618
935.707
935.796
935.883
935.97
936.057
936.144
936.232
936.322
936.416
936.517
936.625
936.745
936.879
937.031
937.205
937.407
937.64
937.911
938.224
938.586
939.001
939.473
940.006
940.603
941.265
941.995
942.792
943.655
944.582
945.57
946.615
947.712
948.855
950.038
951.249
952.311
953.447
954.618
955.807
956.999
958.184
959.353
960.498
961.61
962.644
933.891
933.891
933.891
933.891
933.891
933.891
933.891
933.891
933.891
933.895
934.099
934.255
934.39
934.514
934.63
934.741
934.848
934.952
935.052
935.15
935.246
935.341
935.433
935.524
935.614
935.704
935.792
935.879
935.966
936.052
936.139
936.226
936.316
936.41
936.509
936.618
936.737
936.871
937.023
937.197
937.398
937.632
937.903
938.217
938.58
938.995
939.468
940.002
940.599
941.263
941.994
942.791
943.654
944.582
945.57
946.615
947.712
948.854
950.037
951.247
952.309
953.445
954.616
955.804
956.996
958.181
959.351
960.495
961.608
962.642
933.891
933.891
933.891
933.891
933.891
933.891
933.891
933.891
933.891
933.895
934.098
934.254
934.389
934.513
934.629
934.74
934.847
934.95
935.05
935.148
935.244
935.338
935.43
935.521
935.611
935.7
935.788
935.875
935.961
936.047
936.134
936.221
936.31
936.403
936.502
936.61
936.729
936.863
937.014
937.189
937.39
937.624
937.896
938.21
938.573
938.989
939.463
939.998
940.596
941.261
941.992
942.79
943.653
944.581
945.569
946.613
947.71
948.852
950.034
951.243
952.305
953.441
954.612
955.799
956.991
958.177
959.346
960.491
961.603
962.639
933.891
933.891
933.891
933.891
933.891
933.891
933.891
933.891
933.891
933.895
934.098
934.253
934.388
934.512
934.628
934.739
934.845
934.948
935.049
935.146
935.242
935.336
935.428
935.519
935.608
935.697
935.784
935.871
935.958
936.044
936.13
936.217
936.306
936.398
936.497
936.604
936.723
936.857
937.008
937.183
937.385
937.619
937.892
938.207
938.571
938.989
939.464
940
940.6
941.265
941.997
942.795
943.659
944.586
945.574
946.618
947.713
948.855
950.036
951.245
952.305
953.44
954.611
955.798
956.99
958.175
959.344
960.489
961.601
962.636
933.891
933.891
933.891
933.891
933.891
933.891
933.891
933.891
933.891
933.895
934.097
934.253
934.387
934.511
934.627
934.737
934.844
934.947
935.047
935.145
935.24
935.334
935.426
935.517
935.606
935.695
935.782
935.869
935.955
936.041
936.128
936.215
936.304
936.396
936.495
936.603
936.722
936.856
937.008
937.184
937.387
937.623
937.898
938.216
938.582
939.002
939.48
940.018
940.62
941.288
942.021
942.82
943.684
944.611
945.598
946.641
947.736
948.876
950.055
951.263
952.322
953.456
954.625
955.811
957.001
958.185
959.353
960.498
961.609
962.644
933.891
933.891
933.891
933.891
933.891
933.891
933.891
933.891
933.891
933.895
934.097
934.252
934.387
934.51
934.626
934.737
934.843
934.946
935.047
935.145
935.241
935.335
935.427
935.519
935.609
935.697
935.785
935.873
935.96
936.046
936.133
936.221
936.311
936.404
936.505
936.614
936.735
936.872
937.027
937.206
937.414
937.655
937.935
938.259
938.632
939.059
939.544
940.089
940.698
941.371
942.109
942.912
943.78
944.709
945.697
946.74
947.834
948.973
950.15
951.355
952.412
953.542
954.708
955.891
957.077
958.258
959.422
960.562
961.67
962.701
933.891
933.891
933.891
933.891
933.891
933.891
933.891
933.891
933.891
933.895
934.097
934.252
934.387
934.51
934.627
934.738
934.845
934.949
935.051
935.15
935.247
935.342
935.436
935.529
935.621
935.711
935.801
935.89
935.979
936.068
936.158
936.249
936.342
936.441
936.546
936.661
936.79
936.935
937.101
937.291
937.512
937.768
938.064
938.405
938.797
939.243
939.747
940.312
940.94
941.632
942.387
943.205
944.085
945.025
946.022
947.071
948.169
949.309
950.486
951.688
952.741
953.865
955.023
956.197
957.373
958.542
959.694
960.821
961.915
962.933
933.891
933.891
933.891
933.891
933.891
933.891
933.891
933.891
933.891
933.895
934.097
934.254
934.39
934.516
934.634
934.748
934.858
934.965
935.069
935.172
935.273
935.372
935.47
935.567
935.663
935.759
935.854
935.949
936.044
936.141
936.239
936.34
936.446
936.559
936.682
936.818
936.97
937.143
937.34
937.566
937.826
938.125
938.468
938.859
939.304
939.805
940.366
940.987
941.67
942.415
943.221
944.087
945.009
945.986
947.014
948.087
949.203
950.354
951.534
952.734
953.779
954.89
956.029
957.177
958.324
959.459
960.574
961.66
962.711
963.686
933.891
933.891
933.891
933.891
933.891
933.891
933.891
933.891
933.891
933.895
934.102
934.263
934.405
934.536
934.662
934.783
934.901
935.016
935.129
935.241
935.351
935.461
935.569
935.677
935.785
935.893
936.002
936.112
936.226
936.344
936.469
936.602
936.746
936.904
937.081
937.28
937.506
937.761
938.051
938.38
938.752
939.171
939.641
940.166
940.748
941.39
942.091
942.852
943.671
944.546
945.473
946.45
947.471
948.533
949.63
950.757
951.909
953.08
954.263
955.449
956.465
957.532
958.611
959.688
960.75
961.79
962.801
963.776
964.71
965.568
933.891
933.891
933.891
933.891
933.891
933.891
933.891
933.891
933.891
933.896
934.121
934.3
934.46
934.61
934.754
934.895
935.032
935.168
935.301
935.434
935.565
935.695
935.826
935.957
936.09
936.225
936.366
936.515
936.675
936.85
937.044
937.264
937.512
937.795
938.118
938.485
938.899
939.363
939.881
940.454
941.084
941.772
942.519
943.325
944.187
945.105
946.073
947.089
948.146
949.238
950.359
951.503
952.663
953.832
955.004
956.173
957.335
958.482
959.611
960.71
961.609
962.533
963.446
964.335
965.193
966.013
966.792
967.527
968.216
968.832
933.891
933.891
933.891
933.891
933.891
933.891
933.891
933.891
933.892
933.899
934.193
934.419
934.619
934.805
934.983
935.156
935.325
935.491
935.654
935.816
935.976
936.135
936.296
936.458
936.627
936.804
936.996
937.209
937.45
937.729
938.053
938.43
938.869
939.372
939.945
940.588
941.303
942.088
942.942
943.86
944.841
945.879
946.969
948.105
949.28
950.486
951.714
952.958
954.21
955.46
956.703
957.929
959.133
960.309
961.451
962.554
963.613
964.625
965.587
966.487
967.119
967.778
968.418
969.024
969.591
970.116
970.597
971.036
971.433
971.769
933.891
933.891
933.891
933.891
933.891
933.891
933.891
933.891
933.891
933.896
934.12
934.327
934.52
934.702
934.878
935.049
935.217
935.383
935.546
935.707
935.868
936.027
936.187
936.35
936.518
936.695
936.886
937.097
937.337
937.613
937.934
938.308
938.742
939.239
939.804
940.438
941.143
941.917
942.761
943.671
944.645
945.676
946.76
947.891
949.061
950.263
951.489
952.73
953.98
955.23
956.474
957.703
958.912
960.093
961.241
962.351
963.418
964.437
965.407
966.317
966.993
967.666
968.315
968.929
969.503
970.035
970.524
970.97
971.373
971.719
933.891
933.891
933.891
933.891
933.891
933.891
933.891
933.891
933.891
933.894
934.055
934.211
934.36
934.504
934.643
934.78
934.915
935.048
935.18
935.311
935.441
935.57
935.7
935.829
935.96
936.094
936.233
936.38
936.537
936.708
936.898
937.112
937.353
937.626
937.936
938.287
938.684
939.129
939.627
940.18
940.789
941.456
942.182
942.966
943.807
944.704
945.652
946.648
947.687
948.763
949.87
951.001
952.151
953.313
954.481
955.648
956.81
957.96
959.094
960.201
961.151
962.096
963.026
963.931
964.805
965.644
966.442
967.197
967.906
968.55
933.891
933.891
933.891
933.891
933.891
933.891
933.891
933.891
933.891
933.894
934.038
934.178
934.309
934.435
934.556
934.673
934.788
934.901
935.012
935.123
935.231
935.339
935.446
935.553
935.659
935.765
935.873
935.982
936.094
936.211
936.334
936.464
936.605
936.758
936.928
937.117
937.33
937.571
937.846
938.157
938.511
938.91
939.359
939.861
940.419
941.035
941.709
942.443
943.235
944.083
944.984
945.935
946.933
947.973
949.05
950.159
951.296
952.453
953.626
954.805
955.863
956.94
958.026
959.109
960.181
961.234
962.259
963.252
964.207