/*--------------------------------*- C++ -*----------------------------------*\
  =========                 |
  \\      /  F ield         | OpenFOAM: The Open Source CFD Toolbox
   \\    /   O peration     | Website:  https://openfoam.org
    \\  /    A nd           | Version:  12
     \\/     M anipulation  |
\*---------------------------------------------------------------------------*/
FoamFile
{
    format      ascii;
    class       volScalarField;
    location    "300/porous";
    object      T;
}
// * * * * * * * * * * * * * * * * * * * * * * * * * * * * * * * * * * * * * //

dimensions      [0 0 0 1 0 0 0];

internalField   nonuniform List<scalar> 
140000
(
400
400
400
400
400
400
400
400
400
399.992
399.674
399.431
399.216
399.016
398.824
398.639
398.456
398.277
398.101
397.926
397.753
397.58
397.406
397.229
397.046
396.853
396.643
396.409
396.144
395.836
395.478
395.059
394.573
394.014
393.378
392.661
391.863
390.98
390.015
388.969
387.843
386.642
385.371
384.034
382.64
381.196
379.708
378.187
376.641
375.078
373.506
371.936
370.376
368.834
367.319
365.838
364.398
363.006
361.668
360.402
359.503
358.557
357.632
356.748
355.915
355.138
354.419
353.76
353.161
352.651
400
400
400
400
400
400
400
400
400
399.995
399.751
399.558
399.387
399.225
399.071
398.92
398.772
398.626
398.482
398.339
398.198
398.056
397.915
397.773
397.63
397.483
397.329
397.167
396.992
396.8
396.585
396.344
396.069
395.757
395.403
395
394.545
394.033
393.459
392.821
392.116
391.342
390.497
389.582
388.595
387.54
386.418
385.233
383.99
382.694
381.352
379.971
378.556
377.115
375.656
374.184
372.707
371.231
369.763
368.319
367.122
365.88
364.639
363.419
362.229
361.081
359.978
358.927
357.935
357.037
400
400
400
400
400
400
400
400
400
399.996
399.771
399.597
399.445
399.304
399.169
399.04
398.913
398.789
398.667
398.546
398.427
398.31
398.193
398.076
397.96
397.844
397.726
397.605
397.481
397.351
397.214
397.068
396.909
396.735
396.542
396.325
396.081
395.802
395.485
395.124
394.715
394.251
393.729
393.145
392.494
391.775
390.985
390.123
389.191
388.189
387.119
385.985
384.79
383.538
382.233
380.88
379.485
378.054
376.593
375.114
373.83
372.469
371.078
369.676
368.276
366.891
365.529
364.2
362.913
361.716
400
400
400
400
400
400
400
400
400
399.996
399.776
399.606
399.46
399.325
399.198
399.076
398.958
398.843
398.731
398.62
398.512
398.405
398.299
398.195
398.091
397.988
397.885
397.782
397.678
397.572
397.464
397.352
397.235
397.112
396.978
396.831
396.667
396.48
396.266
396.02
395.735
395.406
395.028
394.596
394.104
393.547
392.923
392.229
391.461
390.621
389.706
388.718
387.658
386.528
385.33
384.069
382.748
381.373
379.95
378.49
377.202
375.821
374.39
372.931
371.459
369.984
368.519
367.074
365.66
364.332
400
400
400
400
400
400
400
400
400
399.996
399.776
399.608
399.463
399.33
399.205
399.086
398.971
398.859
398.75
398.643
398.539
398.436
398.335
398.235
398.137
398.039
397.942
397.845
397.748
397.65
397.552
397.451
397.348
397.24
397.126
397.002
396.863
396.707
396.528
396.32
396.079
395.799
395.474
395.098
394.666
394.172
393.613
392.984
392.282
391.507
390.655
389.726
388.721
387.642
386.489
385.266
383.977
382.626
381.221
379.771
378.485
377.1
375.659
374.183
372.686
371.182
369.682
368.197
366.738
365.364
400
400
400
400
400
400
400
400
400
399.996
399.775
399.607
399.462
399.329
399.205
399.086
398.972
398.861
398.753
398.648
398.545
398.443
398.344
398.246
398.149
398.053
397.958
397.863
397.769
397.674
397.578
397.481
397.382
397.279
397.171
397.053
396.923
396.776
396.608
396.413
396.187
395.923
395.616
395.259
394.848
394.377
393.84
393.234
392.555
391.801
390.969
390.06
389.072
388.007
386.867
385.655
384.373
383.029
381.626
380.177
378.891
377.502
376.056
374.572
373.067
371.553
370.041
368.543
367.07
365.682
400
400
400
400
400
400
400
400
400
399.996
399.775
399.606
399.46
399.328
399.203
399.085
398.971
398.86
398.753
398.647
398.544
398.443
398.344
398.247
398.151
398.056
397.961
397.867
397.772
397.678
397.583
397.488
397.39
397.288
397.181
397.065
396.938
396.794
396.629
396.438
396.217
395.958
395.657
395.308
394.904
394.44
393.911
393.313
392.642
391.894
391.069
390.165
389.182
388.12
386.982
385.771
384.49
383.145
381.741
380.291
379.001
377.61
376.161
374.674
373.166
371.648
370.132
368.63
367.152
365.761
400
400
400
400
400
400
400
400
400
399.996
399.774
399.604
399.459
399.326
399.201
399.083
398.968
398.858
398.75
398.645
398.542
398.441
398.342
398.244
398.148
398.053
397.958
397.864
397.77
397.676
397.581
397.485
397.387
397.286
397.179
397.064
396.936
396.793
396.629
396.44
396.22
395.963
395.664
395.317
394.916
394.455
393.929
393.334
392.665
391.92
391.096
390.193
389.211
388.149
387.011
385.799
384.517
383.17
381.766
380.314
379.023
377.63
376.179
374.691
373.181
371.662
370.145
368.642
367.164
365.771
400
400
400
400
400
400
400
400
400
399.996
399.773
399.603
399.457
399.324
399.199
399.081
398.966
398.856
398.748
398.642
398.539
398.438
398.339
398.241
398.145
398.05
397.955
397.86
397.766
397.671
397.577
397.481
397.382
397.28
397.173
397.058
396.93
396.787
396.623
396.434
396.214
395.958
395.66
395.314
394.914
394.454
393.93
393.336
392.668
391.925
391.102
390.2
389.217
388.155
387.017
385.804
384.521
383.174
381.768
380.316
379.024
377.63
376.178
374.69
373.179
371.659
370.142
368.639
367.161
365.768
400
400
400
400
400
400
400
400
400
399.996
399.773
399.602
399.456
399.323
399.198
399.079
398.964
398.854
398.746
398.64
398.537
398.435
398.336
398.238
398.141
398.046
397.951
397.856
397.761
397.667
397.572
397.475
397.376
397.274
397.166
397.05
396.922
396.778
396.614
396.425
396.205
395.95
395.652
395.306
394.907
394.448
393.924
393.331
392.665
391.921
391.1
390.197
389.215
388.153
387.015
385.802
384.519
383.171
381.765
380.312
379.019
377.625
376.173
374.684
373.173
371.653
370.136
368.633
367.155
365.763
400
400
400
400
400
400
400
400
400
399.996
399.772
399.602
399.455
399.321
399.196
399.077
398.963
398.852
398.744
398.638
398.535
398.433
398.334
398.235
398.138
398.043
397.947
397.852
397.758
397.663
397.567
397.47
397.371
397.268
397.159
397.043
396.914
396.77
396.605
396.416
396.196
395.941
395.643
395.298
394.899
394.44
393.918
393.325
392.66
391.918
391.097
390.195
389.213
388.152
387.013
385.8
384.517
383.169
381.763
380.31
379.016
377.622
376.169
374.68
373.169
371.65
370.133
368.63
367.152
365.76
400
400
400
400
400
400
400
400
400
399.996
399.772
399.601
399.454
399.32
399.195
399.077
398.962
398.851
398.743
398.637
398.534
398.432
398.332
398.233
398.136
398.04
397.944
397.849
397.754
397.659
397.563
397.465
397.366
397.262
397.153
397.035
396.906
396.762
396.597
396.407
396.187
395.932
395.634
395.289
394.891
394.433
393.911
393.32
392.655
391.914
391.093
390.192
389.211
388.15
387.012
385.799
384.516
383.168
381.762
380.308
379.015
377.62
376.167
374.678
373.167
371.647
370.13
368.627
367.15
365.758
400
400
400
400
400
400
400
400
400
399.996
399.771
399.6
399.453
399.32
399.195
399.076
398.962
398.851
398.742
398.637
398.533
398.431
398.33
398.231
398.134
398.038
397.942
397.846
397.751
397.655
397.559
397.461
397.361
397.257
397.147
397.029
396.899
396.754
396.589
396.399
396.179
395.924
395.627
395.282
394.884
394.427
393.905
393.315
392.652
391.911
391.092
390.192
389.211
388.151
387.013
385.8
384.517
383.17
381.763
380.31
379.016
377.621
376.168
374.679
373.168
371.648
370.131
368.628
367.15
365.759
400
400
400
400
400
400
400
400
400
399.996
399.771
399.6
399.453
399.319
399.194
399.076
398.961
398.85
398.742
398.637
398.533
398.43
398.33
398.23
398.133
398.036
397.94
397.844
397.749
397.653
397.556
397.458
397.357
397.253
397.142
397.024
396.893
396.747
396.582
396.392
396.172
395.916
395.62
395.275
394.878
394.422
393.901
393.311
392.649
391.909
391.091
390.191
389.212
388.152
387.014
385.802
384.52
383.173
381.766
380.313
379.019
377.624
376.171
374.681
373.17
371.65
370.133
368.63
367.153
365.761
400
400
400
400
400
400
400
400
400
399.996
399.771
399.6
399.452
399.319
399.194
399.076
398.962
398.851
398.743
398.637
398.533
398.43
398.33
398.23
398.132
398.035
397.939
397.843
397.747
397.651
397.554
397.455
397.354
397.249
397.138
397.019
396.888
396.741
396.576
396.385
396.165
395.91
395.614
395.27
394.873
394.418
393.898
393.309
392.647
391.909
391.091
390.193
389.214
388.155
387.018
385.807
384.525
383.178
381.772
380.318
379.024
377.629
376.176
374.686
373.175
371.655
370.138
368.635
367.157
365.765
400
400
400
400
400
400
400
400
400
399.996
399.771
399.599
399.452
399.319
399.194
399.076
398.962
398.851
398.743
398.638
398.534
398.431
398.33
398.23
398.132
398.035
397.938
397.842
397.746
397.649
397.552
397.453
397.351
397.246
397.134
397.015
396.883
396.736
396.57
396.38
396.16
395.905
395.609
395.266
394.87
394.415
393.896
393.308
392.647
391.91
391.093
390.196
389.217
388.159
387.023
385.812
384.53
383.184
381.778
380.324
379.031
377.635
376.182
374.693
373.181
371.661
370.144
368.641
367.163
365.771
400
400
400
400
400
400
400
400
400
399.996
399.771
399.599
399.452
399.319
399.194
399.076
398.962
398.852
398.744
398.638
398.534
398.432
398.331
398.231
398.132
398.035
397.938
397.842
397.745
397.648
397.55
397.451
397.349
397.243
397.131
397.011
396.879
396.732
396.566
396.375
396.156
395.901
395.605
395.263
394.867
394.413
393.895
393.308
392.648
391.912
391.096
390.199
389.222
388.165
387.029
385.819
384.538
383.192
381.787
380.333
379.039
377.644
376.191
374.701
373.19
371.669
370.152
368.648
367.17
365.778
400
400
400
400
400
400
400
400
400
399.996
399.771
399.599
399.452
399.319
399.195
399.077
398.963
398.853
398.745
398.639
398.535
398.433
398.332
398.232
398.133
398.036
397.939
397.842
397.745
397.647
397.549
397.449
397.347
397.241
397.129
397.009
396.876
396.729
396.562
396.372
396.152
395.898
395.603
395.261
394.866
394.412
393.895
393.309
392.65
391.915
391.1
390.205
389.228
388.172
387.037
385.828
384.547
383.202
381.796
380.342
379.049
377.654
376.201
374.711
373.199
371.679
370.161
368.657
367.178
365.786
400
400
400
400
400
400
400
400
400
399.996
399.771
399.599
399.452
399.319
399.195
399.077
398.964
398.853
398.745
398.64
398.536
398.434
398.333
398.233
398.134
398.037
397.94
397.842
397.745
397.647
397.548
397.448
397.345
397.239
397.127
397.007
396.875
396.727
396.56
396.369
396.15
395.896
395.601
395.26
394.866
394.413
393.897
393.312
392.654
391.919
391.106
390.211
389.236
388.18
387.046
385.838
384.558
383.213
381.808
380.354
379.061
377.666
376.213
374.723
373.211
371.69
370.172
368.668
367.189
365.796
400
400
400
400
400
400
400
400
400
399.996
399.771
399.599
399.452
399.319
399.195
399.078
398.964
398.854
398.746
398.64
398.536
398.434
398.333
398.234
398.135
398.037
397.94
397.843
397.745
397.647
397.548
397.447
397.344
397.238
397.126
397.006
396.874
396.726
396.559
396.368
396.149
395.895
395.601
395.26
394.867
394.415
393.9
393.316
392.659
391.925
391.113
390.219
389.245
388.19
387.057
385.85
384.571
383.226
381.821
380.367
379.074
377.679
376.226
374.736
373.223
371.702
370.184
368.679
367.2
365.807
400
400
400
400
400
400
400
400
400
399.996
399.771
399.6
399.453
399.32
399.196
399.078
398.965
398.854
398.746
398.641
398.537
398.434
398.334
398.234
398.136
398.038
397.941
397.843
397.745
397.647
397.547
397.446
397.344
397.238
397.126
397.006
396.874
396.726
396.559
396.368
396.149
395.896
395.602
395.262
394.869
394.419
393.905
393.322
392.665
391.933
391.121
390.229
389.255
388.202
387.07
385.863
384.585
383.24
381.835
380.381
379.088
377.694
376.24
374.75
373.238
371.716
370.198
368.693
367.213
365.819
400
400
400
400
400
400
400
400
400
399.996
399.771
399.6
399.453
399.32
399.197
399.079
398.965
398.854
398.746
398.64
398.536
398.434
398.333
398.234
398.136
398.038
397.94
397.843
397.744
397.646
397.546
397.446
397.344
397.238
397.126
397.006
396.874
396.726
396.559
396.369
396.15
395.897
395.604
395.264
394.873
394.423
393.91
393.328
392.673
391.942
391.131
390.24
389.267
388.215
387.084
385.878
384.6
383.256
381.851
380.397
379.104
377.709
376.256
374.766
373.253
371.731
370.212
368.707
367.226
365.832
400
400
400
400
400
400
400
400
400
399.996
399.771
399.6
399.454
399.321
399.197
399.079
398.965
398.854
398.746
398.64
398.535
398.433
398.332
398.233
398.135
398.037
397.939
397.841
397.743
397.645
397.546
397.445
397.343
397.237
397.126
397.005
396.874
396.727
396.56
396.37
396.151
395.899
395.606
395.268
394.877
394.428
393.916
393.335
392.681
391.951
391.141
390.251
389.28
388.228
387.098
385.893
384.616
383.272
381.867
380.412
379.12
377.726
376.272
374.782
373.269
371.747
370.227
368.721
367.24
365.845
400
400
400
400
400
400
400
400
400
399.996
399.771
399.601
399.454
399.322
399.198
399.08
398.965
398.854
398.745
398.639
398.534
398.432
398.331
398.232
398.133
398.035
397.938
397.84
397.742
397.643
397.544
397.444
397.342
397.237
397.125
397.005
396.873
396.726
396.56
396.371
396.152
395.9
395.608
395.27
394.881
394.433
393.922
393.342
392.689
391.96
391.151
390.262
389.292
388.241
387.112
385.907
384.631
383.287
381.882
380.427
379.135
377.741
376.287
374.796
373.283
371.761
370.241
368.734
367.253
365.857
400
400
400
400
400
400
400
400
400
399.996
399.771
399.601
399.455
399.322
399.198
399.08
398.965
398.854
398.745
398.638
398.533
398.431
398.33
398.23
398.131
398.033
397.935
397.838
397.74
397.641
397.543
397.443
397.341
397.235
397.124
397.004
396.873
396.726
396.56
396.371
396.153
395.901
395.61
395.273
394.884
394.437
393.927
393.347
392.695
391.966
391.158
390.27
389.3
388.25
387.121
385.917
384.641
383.297
381.892
380.437
379.145
377.75
376.297
374.806
373.292
371.77
370.249
368.742
367.261
365.865
400
400
400
400
400
400
400
400
400
399.996
399.772
399.602
399.456
399.323
399.199
399.08
398.965
398.853
398.743
398.636
398.531
398.428
398.327
398.227
398.129
398.03
397.933
397.835
397.737
397.639
397.541
397.441
397.339
397.234
397.123
397.003
396.871
396.725
396.559
396.37
396.152
395.9
395.609
395.273
394.884
394.438
393.928
393.349
392.697
391.968
391.16
390.272
389.303
388.253
387.124
385.92
384.642
383.298
381.892
380.437
379.145
377.75
376.297
374.806
373.292
371.77
370.249
368.742
367.26
365.864
400
400
400
400
400
400
400
400
400
399.996
399.772
399.602
399.456
399.324
399.199
399.08
398.965
398.852
398.743
398.635
398.53
398.427
398.326
398.226
398.127
398.028
397.93
397.833
397.735
397.637
397.539
397.439
397.338
397.232
397.121
397.001
396.87
396.724
396.558
396.368
396.15
395.899
395.608
395.271
394.882
394.436
393.925
393.346
392.693
391.964
391.156
390.267
389.297
388.247
387.117
385.912
384.635
383.29
381.883
380.428
379.136
377.741
376.287
374.796
373.283
371.76
370.24
368.733
367.252
365.856
400
400
400
400
400
400
400
400
400
399.996
399.772
399.602
399.457
399.324
399.199
399.079
398.964
398.851
398.741
398.634
398.529
398.426
398.324
398.224
398.125
398.026
397.928
397.831
397.733
397.636
397.537
397.438
397.336
397.231
397.12
397
396.869
396.722
396.556
396.366
396.148
395.897
395.605
395.268
394.879
394.432
393.921
393.341
392.687
391.958
391.149
390.259
389.288
388.237
387.107
385.901
384.622
383.276
381.869
380.414
379.121
377.726
376.273
374.782
373.268
371.746
370.226
368.72
367.239
365.844
400
400
400
400
400
400
400
400
400
399.996
399.773
399.603
399.457
399.325
399.2
399.08
398.964
398.851
398.741
398.634
398.528
398.425
398.323
398.223
398.123
398.025
397.927
397.829
397.732
397.635
397.536
397.437
397.335
397.23
397.119
396.999
396.868
396.721
396.555
396.365
396.147
395.895
395.603
395.265
394.876
394.428
393.916
393.335
392.681
391.95
391.14
390.25
389.278
388.226
387.095
385.888
384.608
383.261
381.853
380.397
379.105
377.71
376.256
374.765
373.252
371.73
370.21
368.705
367.224
365.83
400
400
400
400
400
400
400
400
400
399.996
399.773
399.603
399.458
399.325
399.199
399.079
398.963
398.85
398.741
398.633
398.528
398.424
398.322
398.222
398.122
398.024
397.926
397.829
397.732
397.634
397.536
397.436
397.335
397.23
397.119
396.999
396.867
396.72
396.554
396.364
396.145
395.893
395.601
395.263
394.873
394.424
393.911
393.329
392.674
391.942
391.132
390.24
389.267
388.214
387.082
385.874
384.593
383.246
381.838
380.381
379.088
377.693
376.239
374.749
373.236
371.714
370.195
368.69
367.209
365.816
400
400
400
400
400
400
400
400
400
399.996
399.773
399.604
399.459
399.325
399.2
399.079
398.963
398.85
398.74
398.633
398.528
398.424
398.322
398.222
398.122
398.023
397.926
397.829
397.732
397.635
397.537
397.437
397.335
397.23
397.119
396.999
396.868
396.72
396.554
396.364
396.145
395.893
395.6
395.262
394.87
394.42
393.906
393.324
392.668
391.935
391.123
390.231
389.257
388.203
387.07
385.861
384.579
383.231
381.822
380.365
379.072
377.677
376.223
374.733
373.22
371.699
370.18
368.675
367.195
365.802
400
400
400
400
400
400
400
400
400
399.996
399.774
399.605
399.459
399.326
399.2
399.079
398.963
398.851
398.741
398.633
398.528
398.425
398.323
398.222
398.122
398.024
397.926
397.829
397.732
397.636
397.538
397.439
397.337
397.232
397.12
397.001
396.869
396.722
396.555
396.365
396.147
395.894
395.601
395.261
394.869
394.418
393.903
393.319
392.662
391.928
391.116
390.222
389.247
388.192
387.058
385.848
384.566
383.217
381.808
380.35
379.058
377.662
376.209
374.718
373.206
371.685
370.166
368.662
367.183
365.79
400
400
400
400
400
400
400
400
400
399.996
399.774
399.605
399.46
399.326
399.2
399.08
398.963
398.851
398.741
398.634
398.529
398.425
398.323
398.223
398.123
398.025
397.927
397.83
397.734
397.637
397.54
397.441
397.34
397.234
397.123
397.003
396.871
396.724
396.558
396.368
396.149
395.896
395.602
395.262
394.869
394.417
393.901
393.316
392.657
391.923
391.109
390.214
389.239
388.182
387.047
385.836
384.553
383.204
381.794
380.337
379.044
377.649
376.195
374.705
373.193
371.672
370.154
368.65
367.171
365.779
400
400
400
400
400
400
400
400
400
399.996
399.775
399.606
399.46
399.327
399.201
399.08
398.964
398.851
398.742
398.635
398.53
398.426
398.324
398.224
398.124
398.026
397.929
397.832
397.736
397.64
397.543
397.444
397.343
397.238
397.127
397.007
396.875
396.728
396.562
396.372
396.153
395.899
395.605
395.264
394.87
394.417
393.9
393.313
392.654
391.918
391.103
390.208
389.231
388.174
387.038
385.826
384.543
383.193
381.783
380.325
379.032
377.637
376.184
374.694
373.182
371.661
370.143
368.64
367.161
365.769
400
400
400
400
400
400
400
400
400
399.996
399.775
399.607
399.461
399.327
399.201
399.081
398.965
398.852
398.742
398.635
398.531
398.428
398.326
398.225
398.126
398.028
397.931
397.834
397.738
397.642
397.546
397.448
397.347
397.242
397.131
397.011
396.88
396.733
396.567
396.377
396.157
395.903
395.608
395.267
394.872
394.418
393.899
393.312
392.652
391.915
391.098
390.202
389.224
388.166
387.029
385.817
384.533
383.183
381.773
380.314
379.022
377.627
376.174
374.684
373.172
371.651
370.134
368.631
367.153
365.761
400
400
400
400
400
400
400
400
400
399.996
399.776
399.607
399.461
399.328
399.202
399.081
398.965
398.853
398.744
398.637
398.532
398.429
398.328
398.227
398.128
398.03
397.933
397.837
397.741
397.646
397.55
397.452
397.352
397.247
397.136
397.017
396.885
396.739
396.573
396.382
396.163
395.908
395.613
395.27
394.875
394.42
393.9
393.312
392.65
391.912
391.095
390.197
389.218
388.16
387.022
385.809
384.525
383.174
381.764
380.306
379.013
377.619
376.165
374.676
373.164
371.644
370.127
368.624
367.146
365.754
400
400
400
400
400
400
400
400
400
399.996
399.776
399.608
399.462
399.328
399.202
399.082
398.966
398.854
398.745
398.638
398.534
398.431
398.33
398.23
398.131
398.033
397.936
397.84
397.745
397.65
397.554
397.457
397.357
397.253
397.142
397.023
396.892
396.745
396.579
396.389
396.169
395.914
395.618
395.275
394.878
394.423
393.902
393.313
392.65
391.911
391.092
390.194
389.214
388.154
387.016
385.803
384.518
383.168
381.757
380.299
379.007
377.612
376.159
374.669
373.158
371.638
370.121
368.618
367.14
365.749
400
400
400
400
400
400
400
400
400
399.996
399.777
399.609
399.463
399.329
399.203
399.083
398.967
398.855
398.746
398.64
398.535
398.433
398.332
398.232
398.134
398.036
397.94
397.844
397.749
397.654
397.559
397.462
397.363
397.259
397.149
397.03
396.899
396.752
396.586
396.396
396.176
395.921
395.624
395.28
394.883
394.427
393.906
393.315
392.651
391.911
391.092
390.192
389.211
388.151
387.012
385.799
384.514
383.163
381.753
380.295
379.003
377.608
376.155
374.666
373.155
371.635
370.118
368.615
367.137
365.746
400
400
400
400
400
400
400
400
400
399.996
399.777
399.609
399.463
399.33
399.204
399.084
398.968
398.857
398.748
398.641
398.537
398.435
398.335
398.235
398.137
398.039
397.943
397.848
397.753
397.659
397.564
397.468
397.369
397.266
397.156
397.037
396.907
396.76
396.594
396.404
396.184
395.928
395.631
395.287
394.889
394.432
393.91
393.318
392.653
391.912
391.092
390.191
389.21
388.148
387.01
385.796
384.511
383.16
381.75
380.292
379
377.606
376.153
374.664
373.153
371.633
370.116
368.613
367.136
365.744
400
400
400
400
400
400
400
400
400
399.996
399.777
399.61
399.464
399.331
399.205
399.085
398.97
398.858
398.749
398.643
398.539
398.438
398.337
398.238
398.14
398.043
397.947
397.852
397.758
397.664
397.569
397.474
397.376
397.273
397.164
397.046
396.915
396.769
396.603
396.413
396.192
395.937
395.639
395.295
394.896
394.438
393.915
393.323
392.657
391.915
391.093
390.192
389.21
388.149
387.01
385.796
384.511
383.16
381.75
380.293
379.001
377.607
376.155
374.665
373.154
371.635
370.118
368.615
367.137
365.745
400
400
400
400
400
400
400
400
400
399.996
399.778
399.61
399.465
399.332
399.206
399.086
398.971
398.86
398.751
398.645
398.542
398.44
398.34
398.241
398.144
398.047
397.952
397.857
397.763
397.669
397.575
397.48
397.382
397.28
397.172
397.054
396.924
396.778
396.612
396.422
396.201
395.945
395.648
395.302
394.903
394.445
393.921
393.328
392.661
391.918
391.095
390.193
389.211
388.149
387.01
385.796
384.512
383.161
381.752
380.295
379.003
377.61
376.158
374.669
373.158
371.638
370.121
368.618
367.14
365.748
400
400
400
400
400
400
400
400
400
399.996
399.778
399.611
399.466
399.333
399.207
399.088
398.973
398.862
398.753
398.648
398.544
398.443
398.343
398.245
398.147
398.051
397.956
397.861
397.768
397.674
397.58
397.486
397.388
397.287
397.179
397.062
396.932
396.787
396.621
396.431
396.21
395.954
395.656
395.31
394.91
394.451
393.926
393.332
392.664
391.92
391.097
390.195
389.212
388.151
387.011
385.798
384.514
383.164
381.756
380.299
379.008
377.615
376.163
374.674
373.164
371.644
370.127
368.624
367.145
365.753
400
400
400
400
400
400
400
400
400
399.996
399.779
399.612
399.466
399.334
399.209
399.089
398.975
398.863
398.755
398.65
398.546
398.445
398.345
398.247
398.15
398.054
397.959
397.865
397.772
397.678
397.585
397.49
397.394
397.293
397.185
397.068
396.939
396.793
396.628
396.437
396.216
395.959
395.66
395.313
394.912
394.451
393.925
393.33
392.66
391.915
391.091
390.188
389.206
388.144
387.006
385.793
384.51
383.161
381.753
380.297
379.008
377.615
376.164
374.676
373.166
371.647
370.13
368.627
367.148
365.756
400
400
400
400
400
400
400
400
400
399.996
399.779
399.612
399.468
399.335
399.21
399.091
398.976
398.865
398.757
398.652
398.548
398.447
398.347
398.249
398.152
398.057
397.962
397.868
397.774
397.681
397.587
397.493
397.396
397.295
397.188
397.07
396.94
396.794
396.628
396.436
396.214
395.955
395.654
395.304
394.901
394.437
393.908
393.309
392.638
391.89
391.065
390.16
389.177
388.115
386.977
385.765
384.483
383.136
381.729
380.275
378.987
377.596
376.147
374.66
373.151
371.633
370.117
368.615
367.138
365.746
400
400
400
400
400
400
400
400
400
399.996
399.779
399.613
399.468
399.336
399.211
399.092
398.977
398.866
398.757
398.652
398.548
398.446
398.346
398.247
398.15
398.054
397.958
397.864
397.769
397.675
397.581
397.486
397.388
397.286
397.177
397.058
396.926
396.777
396.607
396.411
396.184
395.92
395.613
395.256
394.845
394.374
393.837
393.23
392.551
391.797
390.965
390.056
389.068
388.003
386.863
385.65
384.368
383.021
381.616
380.164
378.878
377.49
376.043
374.559
373.054
371.54
370.028
368.53
367.056
365.669
400
400
400
400
400
400
400
400
400
399.996
399.78
399.613
399.468
399.336
399.21
399.09
398.975
398.862
398.753
398.646
398.541
398.438
398.337
398.236
398.137
398.039
397.941
397.845
397.748
397.651
397.554
397.455
397.354
397.247
397.132
397.006
396.866
396.708
396.527
396.318
396.077
395.796
395.471
395.096
394.664
394.17
393.61
392.981
392.28
391.503
390.651
389.723
388.718
387.639
386.486
385.263
383.973
382.621
381.213
379.76
378.475
377.09
375.649
374.172
372.676
371.172
369.672
368.186
366.727
365.354
400
400
400
400
400
400
400
400
400
399.996
399.779
399.611
399.465
399.33
399.202
399.079
398.961
398.846
398.733
398.622
398.513
398.406
398.3
398.195
398.091
397.987
397.884
397.781
397.677
397.573
397.466
397.356
397.241
397.118
396.984
396.836
396.67
396.481
396.266
396.018
395.733
395.404
395.026
394.594
394.102
393.546
392.922
392.227
391.46
390.619
389.704
388.717
387.657
386.527
385.33
384.069
382.748
381.372
379.946
378.483
377.196
375.816
374.385
372.926
371.454
369.979
368.514
367.069
365.655
364.327
400
400
400
400
400
400
400
400
400
399.996
399.774
399.601
399.449
399.307
399.172
399.042
398.915
398.79
398.668
398.547
398.428
398.31
398.193
398.076
397.959
397.842
397.724
397.604
397.48
397.351
397.216
397.071
396.914
396.741
396.548
396.33
396.084
395.803
395.485
395.123
394.713
394.25
393.729
393.145
392.495
391.776
390.986
390.124
389.192
388.191
387.122
385.988
384.794
383.542
382.238
380.886
379.491
378.059
376.597
375.116
373.833
372.473
371.082
369.68
368.281
366.895
365.534
364.205
362.918
361.721
400
400
400
400
400
400
400
400
400
399.995
399.754
399.561
399.39
399.228
399.073
398.921
398.773
398.627
398.482
398.339
398.197
398.056
397.914
397.772
397.628
397.481
397.328
397.166
396.992
396.801
396.588
396.349
396.077
395.766
395.412
395.008
394.551
394.037
393.462
392.824
392.119
391.345
390.502
389.587
388.602
387.547
386.426
385.242
384
382.706
381.365
379.984
378.571
377.132
375.673
374.203
372.725
371.25
369.781
368.334
367.138
365.896
364.656
363.435
362.246
361.097
359.994
358.943
357.95
357.053
400
400
400
400
400
400
400
400
400
399.992
399.677
399.433
399.219
399.018
398.826
398.639
398.456
398.277
398.101
397.925
397.752
397.579
397.404
397.227
397.044
396.851
396.641
396.409
396.145
395.839
395.483
395.068
394.584
394.027
393.391
392.673
391.872
390.989
390.023
388.976
387.851
386.652
385.382
384.048
382.656
381.213
379.728
378.208
376.663
375.102
373.531
371.963
370.404
368.863
367.349
365.868
364.428
363.036
361.696
360.427
359.528
358.582
357.656
356.771
355.937
355.159
354.439
353.779
353.179
352.668
400
400
400
400
400
400
400
400
400
399.995
399.755
399.532
399.325
399.129
398.939
398.755
398.573
398.394
398.218
398.043
397.869
397.696
397.522
397.345
397.162
396.97
396.762
396.531
396.269
395.966
395.614
395.203
394.724
394.174
393.548
392.841
392.053
391.181
390.227
389.192
388.077
386.887
385.626
384.3
382.916
381.48
380.002
378.488
376.948
375.39
373.822
372.253
370.693
369.148
367.629
366.142
364.695
363.295
361.947
360.668
359.708
358.744
357.806
356.911
356.067
355.279
354.549
353.879
353.269
352.744
400
400
400
400
400
400
400
400
400
399.997
399.825
399.657
399.497
399.342
399.192
399.045
398.899
398.756
398.613
398.472
398.331
398.191
398.051
397.911
397.769
397.623
397.472
397.313
397.142
396.955
396.748
396.515
396.251
395.952
395.611
395.225
394.788
394.296
393.744
393.129
392.449
391.701
390.883
389.995
389.037
388.009
386.915
385.757
384.541
383.27
381.952
380.592
379.196
377.772
376.326
374.865
373.395
371.923
370.456
369.006
367.749
366.485
365.229
363.992
362.785
361.616
360.491
359.417
358.398
357.465
400
400
400
400
400
400
400
400
400
399.998
399.842
399.693
399.551
399.417
399.287
399.16
399.036
398.914
398.794
398.676
398.558
398.442
398.326
398.211
398.096
397.98
397.864
397.745
397.623
397.496
397.363
397.221
397.068
396.901
396.716
396.509
396.276
396.012
395.711
395.368
394.979
394.538
394.042
393.484
392.863
392.174
391.416
390.587
389.689
388.721
387.686
386.586
385.424
384.204
382.929
381.605
380.236
378.827
377.386
375.922
374.594
373.229
371.839
370.435
369.032
367.639
366.265
364.92
363.613
362.38
400
400
400
400
400
400
400
400
400
399.998
399.846
399.701
399.565
399.437
399.314
399.195
399.079
398.966
398.856
398.747
398.639
398.533
398.429
398.325
398.223
398.121
398.019
397.917
397.814
397.709
397.603
397.493
397.379
397.259
397.129
396.988
396.831
396.653
396.449
396.215
395.945
395.634
395.276
394.865
394.398
393.868
393.273
392.609
391.874
391.067
390.188
389.236
388.212
387.118
385.956
384.729
383.441
382.098
380.703
379.267
377.945
376.568
375.149
373.7
372.233
370.761
369.294
367.842
366.416
365.057
400
400
400
400
400
400
400
400
400
399.998
399.846
399.702
399.568
399.441
399.32
399.204
399.091
398.981
398.874
398.769
398.665
398.563
398.463
398.364
398.267
398.17
398.074
397.977
397.881
397.785
397.687
397.588
397.486
397.381
397.269
397.148
397.015
396.865
396.694
396.496
396.268
396.002
395.693
395.337
394.926
394.457
393.924
393.323
392.653
391.909
391.091
390.198
389.229
388.186
387.069
385.882
384.628
383.311
381.937
380.514
379.197
377.819
376.393
374.93
373.444
371.946
370.448
368.96
367.492
366.091
400
400
400
400
400
400
400
400
400
399.998
399.846
399.701
399.567
399.44
399.32
399.204
399.092
398.983
398.877
398.773
398.671
398.57
398.471
398.374
398.278
398.183
398.089
397.995
397.901
397.807
397.712
397.617
397.519
397.418
397.311
397.197
397.071
396.93
396.769
396.583
396.368
396.117
395.826
395.488
395.097
394.648
394.137
393.558
392.909
392.187
391.389
390.515
389.563
388.534
387.43
386.254
385.008
383.697
382.326
380.905
379.587
378.207
376.776
375.307
373.814
372.307
370.798
369.298
367.818
366.403
400
400
400
400
400
400
400
400
400
399.998
399.845
399.7
399.565
399.439
399.318
399.203
399.091
398.982
398.876
398.772
398.67
398.57
398.472
398.375
398.28
398.185
398.091
397.998
397.905
397.811
397.717
397.623
397.526
397.426
397.321
397.208
397.085
396.946
396.788
396.606
396.396
396.15
395.865
395.533
395.149
394.708
394.204
393.633
392.991
392.276
391.484