/*--------------------------------*- C++ -*----------------------------------*\
  =========                 |
  \\      /  F ield         | OpenFOAM: The Open Source CFD Toolbox
   \\    /   O peration     | Website:  https://openfoam.org
    \\  /    A nd           | Version:  12
     \\/     M anipulation  |
\*---------------------------------------------------------------------------*/
FoamFile
{
    format      ascii;
    class       volScalarField;
    location    "1400/porous";
    object      rho;
}
// * * * * * * * * * * * * * * * * * * * * * * * * * * * * * * * * * * * * * //

dimensions      [1 -3 0 0 0 0 0];

internalField   nonuniform List<scalar> 
140000
(
933.891
933.891
933.891
933.891
933.891
933.891
933.891
933.891
933.892
933.898
934.182
934.404
934.603
934.79
934.969
935.142
935.313
935.479
935.643
935.806
935.966
936.124
936.281
936.436
936.589
936.742
936.892
937.041
937.189
937.335
937.479
937.622
937.763
937.903
938.04
938.177
938.311
938.445
938.577
938.707
938.837
938.965
939.092
939.218
939.343
939.467
939.589
939.71
939.829
939.947
940.063
940.177
940.29
940.401
940.509
940.615
940.718
940.816
940.91
940.975
940.58
940.328
940.133
939.972
939.832
939.709
939.599
939.499
939.408
939.328
933.891
933.891
933.891
933.891
933.891
933.891
933.891
933.891
933.891
933.896
934.112
934.288
934.447
934.598
934.743
934.884
935.022
935.159
935.293
935.427
935.559
935.69
935.82
935.949
936.077
936.205
936.332
936.458
936.583
936.707
936.831
936.954
937.077
937.198
937.319
937.439
937.558
937.677
937.795
937.912
938.029
938.146
938.262
938.377
938.492
938.605
938.718
938.831
938.942
939.052
939.161
939.269
939.375
939.48
939.584
939.685
939.785
939.881
939.974
940.049
939.812
939.657
939.534
939.43
939.339
939.256
939.181
939.112
939.047
938.989
933.891
933.891
933.891
933.891
933.891
933.891
933.891
933.891
933.891
933.895
934.094
934.252
934.394
934.526
934.652
934.774
934.893
935.01
935.124
935.237
935.349
935.459
935.568
935.676
935.784
935.89
935.996
936.101
936.205
936.309
936.413
936.515
936.618
936.719
936.821
936.922
937.022
937.122
937.222
937.321
937.42
937.519
937.618
937.716
937.814
937.912
938.009
938.106
938.202
938.297
938.392
938.486
938.579
938.671
938.761
938.85
938.937
939.022
939.104
939.175
938.985
938.866
938.776
938.701
938.637
938.579
938.528
938.481
938.438
938.399
933.891
933.891
933.891
933.891
933.891
933.891
933.891
933.891
933.891
933.895
934.089
934.243
934.379
934.505
934.625
934.74
934.851
934.96
935.066
935.17
935.272
935.373
935.472
935.57
935.667
935.763
935.858
935.952
936.045
936.137
936.229
936.32
936.411
936.501
936.59
936.679
936.767
936.855
936.942
937.029
937.116
937.203
937.289
937.375
937.461
937.546
937.631
937.716
937.8
937.883
937.965
938.047
938.128
938.208
938.286
938.363
938.439
938.513
938.584
938.645
938.467
938.355
938.271
938.202
938.143
938.091
938.046
938.004
937.967
937.932
933.891
933.891
933.891
933.891
933.891
933.891
933.891
933.891
933.891
933.895
934.088
934.24
934.375
934.5
934.618
934.73
934.839
934.945
935.048
935.149
935.248
935.345
935.44
935.534
935.626
935.718
935.808
935.898
935.986
936.073
936.16
936.246
936.331
936.415
936.499
936.582
936.664
936.746
936.827
936.908
936.988
937.068
937.148
937.228
937.307
937.385
937.463
937.541
937.618
937.694
937.769
937.844
937.917
937.99
938.061
938.13
938.198
938.265
938.328
938.383
938.208
938.096
938.012
937.942
937.883
937.831
937.784
937.742
937.704
937.669
933.891
933.891
933.891
933.891
933.891
933.891
933.891
933.891
933.891
933.895
934.088
934.241
934.375
934.499
934.617
934.729
934.838
934.943
935.045
935.145
935.242
935.338
935.432
935.525
935.616
935.706
935.795
935.882
935.969
936.054
936.139
936.222
936.305
936.387
936.468
936.548
936.628
936.707
936.785
936.863
936.941
937.018
937.094
937.171
937.247
937.322
937.397
937.471
937.544
937.617
937.689
937.759
937.829
937.898
937.965
938.03
938.095
938.157
938.216
938.267
938.092
937.98
937.895
937.825
937.764
937.711
937.663
937.619
937.58
937.544
933.891
933.891
933.891
933.891
933.891
933.891
933.891
933.891
933.891
933.895
934.088
934.241
934.375
934.499
934.617
934.73
934.838
934.943
935.045
935.145
935.243
935.338
935.432
935.524
935.615
935.704
935.792
935.879
935.965
936.05
936.134
936.217
936.298
936.379
936.459
936.539
936.617
936.695
936.772
936.849
936.925
937.001
937.077
937.152
937.226
937.3
937.373
937.446
937.518
937.589
937.659
937.728
937.796
937.863
937.928
937.991
938.054
938.113
938.171
938.219
938.045
937.933
937.847
937.776
937.715
937.66
937.612
937.568
937.527
937.49
933.891
933.891
933.891
933.891
933.891
933.891
933.891
933.891
933.891
933.895
934.089
934.241
934.376
934.5
934.618
934.731
934.84
934.945
935.047
935.147
935.245
935.341
935.434
935.527
935.617
935.707
935.795
935.882
935.967
936.052
936.135
936.218
936.299
936.38
936.46
936.539
936.617
936.694
936.771
936.847
936.923
936.998
937.073
937.148
937.222
937.295
937.368
937.44
937.511
937.581
937.651
937.719
937.786
937.852
937.916
937.979
938.04
938.099
938.155
938.202
938.028
937.916
937.83
937.758
937.697
937.642
937.593
937.548
937.507
937.47
933.891
933.891
933.891
933.891
933.891
933.891
933.891
933.891
933.891
933.895
934.089
934.242
934.376
934.501
934.619
934.732
934.841
934.946
935.049
935.149
935.247
935.343
935.437
935.529
935.62
935.71
935.798
935.885
935.97
936.055
936.138
936.221
936.302
936.383
936.463
936.541
936.619
936.697
936.773
936.849
936.925
937
937.075
937.149
937.223
937.296
937.369
937.44
937.511
937.581
937.651
937.719
937.785
937.851
937.915
937.977
938.037
938.095
938.151
938.198
938.024
937.912
937.825
937.754
937.692
937.637
937.588
937.543
937.502
937.465
933.891
933.891
933.891
933.891
933.891
933.891
933.891
933.891
933.891
933.895
934.089
934.242
934.376
934.501
934.62
934.733
934.842
934.948
935.051
935.151
935.249
935.345
935.439
935.532
935.623
935.712
935.801
935.888
935.974
936.058
936.142
936.224
936.306
936.386
936.466
936.545
936.623
936.7
936.776
936.853
936.928
937.003
937.078
937.153
937.226
937.3
937.372
937.444
937.515
937.585
937.654
937.721
937.788
937.853
937.917
937.979
938.039
938.097
938.152
938.199
938.025
937.912
937.826
937.754
937.692
937.638
937.588
937.543
937.502
937.465
933.891
933.891
933.891
933.891
933.891
933.891
933.891
933.891
933.891
933.895
934.089
934.242
934.376
934.501
934.62
934.733
934.843
934.949
935.052
935.152
935.25
935.347
935.441
935.534
935.625
935.715
935.803
935.89
935.976
936.061
936.144
936.227
936.309
936.389
936.469
936.548
936.625
936.703
936.779
936.855
936.931
937.007
937.081
937.156
937.23
937.303
937.375
937.447
937.518
937.588
937.657
937.725
937.792
937.857
937.92
937.982
938.042
938.1
938.155
938.201
938.027
937.915
937.828
937.757
937.695
937.64
937.59
937.545
937.504
937.467
933.891
933.891
933.891
933.891
933.891
933.891
933.891
933.891
933.891
933.895
934.089
934.242
934.377
934.501
934.62
934.734
934.843
934.949
935.053
935.153
935.252
935.348
935.443
935.535
935.627
935.717
935.805
935.892
935.978
936.063
936.147
936.229
936.311
936.392
936.471
936.55
936.628
936.705
936.782
936.858
936.934
937.009
937.084
937.159
937.233
937.306
937.378
937.45
937.521
937.591
937.66
937.728
937.795
937.86
937.923
937.985
938.045
938.103
938.158
938.204
938.03
937.918
937.831
937.759
937.697
937.642
937.593
937.548
937.506
937.469
933.891
933.891
933.891
933.891
933.891
933.891
933.891
933.891
933.891
933.895
934.089
934.242
934.377
934.501
934.62
934.734
934.843
934.949
935.053
935.154
935.252
935.349
935.444
935.537
935.628
935.718
935.806
935.894
935.98
936.065
936.148
936.231
936.313
936.393
936.473
936.552
936.63
936.707
936.784
936.86
936.936
937.011
937.086
937.161
937.235
937.308
937.381
937.453
937.524
937.594
937.663
937.731
937.797
937.863
937.926
937.988
938.048
938.105
938.16
938.206
938.032
937.92
937.833
937.761
937.699
937.644
937.595
937.55
937.509
937.471
933.891
933.891
933.891
933.891
933.891
933.891
933.891
933.891
933.891
933.895
934.089
934.242
934.376
934.501
934.62
934.733
934.843
934.95
935.053
935.154
935.253
935.349
935.444
935.537
935.629
935.719
935.807
935.895
935.981
936.066
936.149
936.232
936.314
936.394
936.474
936.553
936.631
936.708
936.785
936.861
936.937
937.013
937.088
937.163
937.237
937.31
937.383
937.455
937.526
937.596
937.665
937.733
937.799
937.865
937.928
937.99
938.05
938.107
938.162
938.208
938.034
937.921
937.835
937.763
937.701
937.646
937.597
937.552
937.51
937.473
933.891
933.891
933.891
933.891
933.891
933.891
933.891
933.891
933.891
933.895
934.089
934.242
934.376
934.501
934.619
934.733
934.843
934.949
935.053
935.154
935.253
935.35
935.445
935.538
935.629
935.719
935.808
935.895
935.981
936.066
936.15
936.233
936.314
936.395
936.474
936.553
936.631
936.709
936.786
936.862
936.938
937.014
937.089
937.164
937.238
937.311
937.384
937.456
937.527
937.597
937.666
937.734
937.801
937.866
937.929
937.991
938.051
938.108
938.163
938.209
938.035
937.922
937.836
937.764
937.702
937.647
937.598
937.553
937.511
937.474
933.891
933.891
933.891
933.891
933.891
933.891
933.891
933.891
933.891
933.895
934.089
934.241
934.376
934.501
934.619
934.733
934.843
934.949
935.053
935.154
935.253
935.35
935.445
935.538
935.629
935.719
935.808
935.895
935.981
936.066
936.15
936.233
936.314
936.395
936.474
936.553
936.631
936.709
936.786
936.862
936.939
937.014
937.09
937.164
937.238
937.312
937.385
937.457
937.528
937.598
937.667
937.735
937.802
937.867
937.93
937.992
938.052
938.109
938.163
938.209
938.035
937.923
937.836
937.765
937.703
937.648
937.598
937.553
937.512
937.474
933.891
933.891
933.891
933.891
933.891
933.891
933.891
933.891
933.891
933.895
934.089
934.242
934.376
934.5
934.619
934.732
934.842
934.949
935.052
935.154
935.253
935.35
935.445
935.538
935.629
935.719
935.808
935.895
935.981
936.066
936.15
936.232
936.314
936.394
936.474
936.553
936.631
936.709
936.786
936.862
936.939
937.014
937.09
937.164
937.239
937.312
937.385
937.457
937.528
937.598
937.667
937.735
937.802
937.867
937.93
937.992
938.052
938.109
938.163
938.209
938.036
937.923
937.836
937.765
937.703
937.648
937.598
937.553
937.512
937.474
933.891
933.891
933.891
933.891
933.891
933.891
933.891
933.891
933.891
933.895
934.089
934.241
934.376
934.5
934.618
934.732
934.842
934.948
935.052
935.153
935.252
935.349
935.444
935.538
935.629
935.719
935.808
935.895
935.981
936.066
936.15
936.232
936.313
936.394
936.474
936.553
936.631
936.709
936.786
936.862
936.939
937.014
937.09
937.164
937.239
937.312
937.385
937.457
937.528
937.598
937.667
937.735
937.802
937.867
937.93
937.992
938.052
938.109
938.163
938.209
938.035
937.923
937.836
937.764
937.702
937.647
937.598
937.553
937.511
937.474
933.891
933.891
933.891
933.891
933.891
933.891
933.891
933.891
933.891
933.895
934.089
934.241
934.375
934.499
934.618
934.731
934.841
934.948
935.052
935.153
935.252
935.349
935.444
935.537
935.629
935.719
935.808
935.895
935.981
936.066
936.149
936.231
936.313
936.394
936.474
936.553
936.631
936.709
936.786
936.862
936.938
937.014
937.09
937.164
937.238
937.312
937.385
937.457
937.528
937.598
937.667
937.735
937.802
937.867
937.93
937.992
938.051
938.108
938.163
938.209
938.035
937.922
937.836
937.764
937.702
937.647
937.598
937.553
937.511
937.473
933.891
933.891
933.891
933.891
933.891
933.891
933.891
933.891
933.891
933.895
934.089
934.241
934.375
934.499
934.617
934.731
934.841
934.947
935.051
935.153
935.252
935.349
935.444
935.537
935.629
935.719
935.808
935.895
935.981
936.065
936.149
936.231
936.313
936.394
936.474
936.553
936.632
936.709
936.786
936.863
936.939
937.014
937.09
937.164
937.238
937.312
937.385
937.457
937.528
937.598
937.667
937.735
937.802
937.867
937.93
937.992
938.051
938.108
938.163
938.209
938.035
937.922
937.836
937.764
937.702
937.647
937.597
937.552
937.511
937.473
933.891
933.891
933.891
933.891
933.891
933.891
933.891
933.891
933.891
933.895
934.088
934.24
934.374
934.499
934.617
934.73
934.84
934.947
935.051
935.152
935.251
935.348
935.444
935.537
935.629
935.719
935.807
935.895
935.981
936.065
936.149
936.231
936.313
936.394
936.474
936.554
936.632
936.71
936.787
936.863
936.939
937.015
937.09
937.165
937.239
937.312
937.385
937.457
937.528
937.598
937.667
937.735
937.802
937.867
937.93
937.992
938.051
938.108
938.163
938.208
938.035
937.922
937.836
937.764
937.702
937.647
937.597
937.552
937.511
937.473
933.891
933.891
933.891
933.891
933.891
933.891
933.891
933.891
933.891
933.895
934.088
934.24
934.374
934.499
934.616
934.73
934.84
934.946
935.05
935.152
935.251
935.348
935.444
935.537
935.629
935.719
935.807
935.895
935.981
936.065
936.149
936.231
936.313
936.395
936.475
936.554
936.633
936.711
936.788
936.864
936.94
937.015
937.09
937.165
937.239
937.312
937.385
937.457
937.528
937.598
937.667
937.735
937.802
937.867
937.93
937.992
938.051
938.109
938.163
938.209
938.035
937.922
937.836
937.764
937.702
937.647
937.598
937.552
937.511
937.473
933.891
933.891
933.891
933.891
933.891
933.891
933.891
933.891
933.891
933.895
934.088
934.24
934.374
934.498
934.616
934.73
934.839
934.946
935.05
935.151
935.251
935.348
935.443
935.537
935.629
935.719
935.807
935.895
935.981
936.065
936.149
936.232
936.314
936.395
936.475
936.555
936.634
936.711
936.788
936.865
936.941
937.016
937.091
937.165
937.239
937.313
937.385
937.457
937.528
937.598
937.668
937.735
937.802
937.867
937.931
937.992
938.052
938.109
938.163
938.209
938.035
937.923
937.836
937.764
937.702
937.647
937.598
937.553
937.511
937.473
933.891
933.891
933.891
933.891
933.891
933.891
933.891
933.891
933.891
933.895
934.088
934.24
934.374
934.498
934.616
934.729
934.839
934.945
935.05
935.151
935.25
935.348
935.443
935.537
935.629
935.719
935.808
935.895
935.981
936.065
936.149
936.232
936.314
936.395
936.476
936.555
936.634
936.712
936.789
936.865
936.941
937.016
937.091
937.166
937.239
937.313
937.385
937.457
937.528
937.598
937.668
937.735
937.802
937.867
937.931
937.992
938.052
938.109
938.163
938.209
938.035
937.923
937.836
937.765
937.702
937.647
937.598
937.553
937.511
937.474
933.891
933.891
933.891
933.891
933.891
933.891
933.891
933.891
933.891
933.895
934.088
934.24
934.374
934.498
934.616
934.729
934.839
934.945
935.049
935.151
935.25
935.348
935.443
935.537
935.629
935.719
935.808
935.895
935.981
936.066
936.149
936.232
936.314
936.395
936.476
936.555
936.634
936.712
936.789
936.865
936.941
937.016
937.091
937.166
937.239
937.313
937.385
937.457
937.528
937.598
937.667
937.735
937.802
937.867
937.931
937.992
938.052
938.109
938.163
938.209
938.036
937.923
937.836
937.765
937.703
937.648
937.598
937.553
937.511
937.474
933.891
933.891
933.891
933.891
933.891
933.891
933.891
933.891
933.891
933.895
934.088
934.239
934.373
934.497
934.615
934.728
934.838
934.945
935.049
935.15
935.25
935.347
935.443
935.536
935.628
935.719
935.808
935.895
935.981
936.066
936.149
936.232
936.314
936.395
936.476
936.555
936.634
936.712
936.789
936.865
936.941
937.016
937.091
937.165
937.239
937.312
937.385
937.457
937.528
937.598
937.667
937.735
937.802
937.867
937.93
937.992
938.052
938.109
938.164
938.21
938.036
937.923
937.837
937.765
937.703
937.648
937.598
937.553
937.511
937.474
933.891
933.891
933.891
933.891
933.891
933.891
933.891
933.891
933.891
933.895
934.088
934.239
934.373
934.497
934.615
934.728
934.838
934.944
935.048
935.15
935.25
935.347
935.443
935.536
935.628
935.719
935.808
935.895
935.981
936.066
936.149
936.232
936.314
936.395
936.476
936.555
936.634
936.712
936.789
936.865
936.941
937.016
937.091
937.165
937.239
937.312
937.384
937.456
937.527
937.597
937.666
937.734
937.801
937.866
937.93
937.992
938.051
938.109
938.164
938.21
938.036
937.923
937.837
937.765
937.703
937.648
937.598
937.553
937.511
937.474
933.891
933.891
933.891
933.891
933.891
933.891
933.891
933.891
933.891
933.895
934.088
934.239
934.373
934.497
934.614
934.728
934.837
934.944
935.048
935.15
935.249
935.347
935.442
935.536
935.628
935.719
935.807
935.895
935.981
936.066
936.149
936.232
936.314
936.395
936.475
936.555
936.634
936.711
936.788
936.864
936.94
937.015
937.09
937.164
937.238
937.311
937.383
937.455
937.526
937.596
937.666
937.734
937.801
937.866
937.93
937.992
938.052
938.109
938.164
938.21
938.036
937.923
937.837
937.765
937.703
937.648
937.598
937.553
937.511
937.474
933.891
933.891
933.891
933.891
933.891
933.891
933.891
933.891
933.891
933.895
934.088
934.239
934.372
934.496
934.614
934.727
934.837
934.944
935.048
935.15
935.249
935.347
935.442
935.536
935.628
935.718
935.807
935.895
935.981
936.065
936.149
936.232
936.313
936.395
936.475
936.554
936.633
936.711
936.787
936.863
936.939
937.014
937.089
937.163
937.237
937.31
937.383
937.454
937.525
937.596
937.665
937.733
937.8
937.865
937.929
937.991
938.051
938.109
938.164
938.21
938.036
937.923
937.837
937.765
937.703
937.648
937.598
937.553
937.511
937.474
933.891
933.891
933.891
933.891
933.891
933.891
933.891
933.891
933.891
933.895
934.087
934.239
934.372
934.496
934.614
934.727
934.837
934.943
935.048
935.149
935.249
935.346
935.442
935.536
935.628
935.718
935.807
935.895
935.981
936.065
936.149
936.231
936.313
936.394
936.474
936.553
936.632
936.709
936.786
936.862
936.938
937.013
937.088
937.162
937.236
937.309
937.382
937.453
937.524
937.595
937.664
937.732
937.799
937.865
937.929
937.991
938.051
938.109
938.164
938.21
938.036
937.923
937.836
937.765
937.702
937.647
937.598
937.553
937.511
937.474
933.891
933.891
933.891
933.891
933.891
933.891
933.891
933.891
933.891
933.895
934.087
934.239
934.372
934.496
934.614
934.727
934.836
934.943
935.047
935.149
935.248
935.346
935.441
935.535
935.627
935.718
935.807
935.894
935.98
936.065
936.148
936.23
936.312
936.393
936.473
936.552
936.631
936.708
936.785
936.861
936.937
937.012
937.087
937.161
937.235
937.308
937.381
937.453
937.524
937.594
937.663
937.731
937.799
937.864
937.928
937.991
938.051
938.109
938.164
938.211
938.036
937.923
937.837
937.765
937.703
937.648
937.598
937.553
937.511
937.474
933.891
933.891
933.891
933.891
933.891
933.891
933.891
933.891
933.891
933.895
934.087
934.239
934.372
934.496
934.613
934.727
934.836
934.943
935.047
935.148
935.248
935.345
935.441
935.535
935.627
935.717
935.806
935.894
935.98
936.064
936.148
936.23
936.311
936.392
936.472
936.551
936.63
936.707
936.784
936.86
936.936
937.012
937.086
937.161
937.234
937.307
937.38
937.452
937.523
937.593
937.663
937.731
937.798
937.864
937.928
937.991
938.051
938.109
938.164
938.211
938.037
937.924
937.837
937.765
937.703
937.648
937.598
937.553
937.511
937.474
933.891
933.891
933.891
933.891
933.891
933.891
933.891
933.891
933.891
933.895
934.087
934.238
934.372
934.496
934.613
934.726
934.836
934.942
935.046
935.148
935.247
935.345
935.44
935.534
935.626
935.716
935.805
935.893
935.979
936.064
936.147
936.229
936.311
936.391
936.471
936.55
936.629
936.706
936.783
936.86
936.936
937.011
937.086
937.16
937.234
937.307
937.379
937.451
937.522
937.593
937.662
937.731
937.798
937.864
937.928
937.991
938.052
938.11
938.165
938.212
938.037
937.924
937.838
937.766
937.703
937.648
937.599
937.553
937.512
937.474
933.891
933.891
933.891
933.891
933.891
933.891
933.891
933.891
933.891
933.895
934.087
934.238
934.372
934.495
934.613
934.726
934.835
934.942
935.046
935.147
935.246
935.344
935.439
935.533
935.625
935.715
935.804
935.892
935.978
936.063
936.146
936.228
936.31
936.39
936.47
936.549
936.627
936.705
936.782
936.859
936.935
937.01
937.085
937.16
937.233
937.306
937.379
937.451
937.522
937.592
937.662
937.73
937.798
937.864
937.928
937.991
938.052
938.11
938.166
938.213
938.038
937.925
937.838
937.766
937.704
937.649
937.599
937.554
937.512
937.475
933.891
933.891
933.891
933.891
933.891
933.891
933.891
933.891
933.891
933.895
934.087
934.238
934.371
934.495
934.613
934.725
934.835
934.941
935.045
935.146
935.246
935.343
935.438
935.532
935.624
935.714
935.803
935.891
935.977
936.061
936.145
936.227
936.308
936.389
936.469
936.548
936.626
936.704
936.781
936.858
936.934
937.009
937.084
937.159
937.232
937.306
937.378
937.45
937.521
937.591
937.661
937.73
937.797
937.863
937.928
937.991
938.052
938.111
938.166
938.213
938.038
937.925
937.838
937.766
937.704
937.649
937.599
937.554
937.512
937.475
933.891
933.891
933.891
933.891
933.891
933.891
933.891
933.891
933.891
933.895
934.087
934.238
934.371
934.495
934.612
934.725
934.834
934.94
935.044
935.145
935.244
935.342
935.437
935.53
935.622
935.713
935.802
935.889
935.975
936.06
936.143
936.225
936.306
936.387
936.467
936.546
936.624
936.702
936.78
936.856
936.933
937.008
937.083
937.158
937.231
937.304
937.377
937.449
937.52
937.59
937.66
937.729
937.796
937.863
937.928
937.991
938.052
938.111
938.167
938.214
938.038
937.925
937.838
937.766
937.704
937.649
937.599
937.554
937.512
937.475
933.891
933.891
933.891
933.891
933.891
933.891
933.891
933.891
933.891
933.895
934.087
934.238
934.371
934.494
934.612
934.724
934.833
934.939
935.043
935.144
935.243
935.34
935.435
935.529
935.621
935.711
935.8
935.887
935.973
936.058
936.141
936.223
936.304
936.385
936.465
936.544
936.623
936.7
936.778
936.855
936.931
937.006
937.081
937.156
937.23
937.303
937.375
937.447
937.518
937.589
937.658
937.727
937.795
937.861
937.926
937.99
938.051
938.11
938.166
938.213
938.038
937.925
937.838
937.766
937.703
937.648
937.598
937.553
937.512
937.474
933.891
933.891
933.891
933.891
933.891
933.891
933.891
933.891
933.891
933.895
934.087
934.238
934.371
934.494
934.611
934.723
934.832
934.938
935.042
935.143
935.242
935.339
935.434
935.527
935.619
935.709
935.798
935.885
935.971
936.055
936.138
936.221
936.302
936.382
936.462
936.542
936.62
936.698
936.776
936.852
936.929
937.004
937.079
937.154
937.227
937.3
937.373
937.445
937.516
937.586
937.656
937.725
937.793
937.859
937.925
937.988
938.05
938.109
938.165
938.212
938.037
937.924
937.837
937.764
937.702
937.647
937.597
937.552
937.51
937.473
933.891
933.891
933.891
933.891
933.891
933.891
933.891
933.891
933.891
933.895
934.087
934.238
934.37
934.493
934.61
934.723
934.831
934.937
935.04
935.141
935.24
935.337
935.432
935.525
935.617
935.707
935.795
935.882
935.968
936.053
936.136
936.218
936.299
936.38
936.46
936.539
936.618
936.696
936.773
936.85
936.926
937.002
937.076
937.151
937.225
937.298
937.37
937.442
937.513
937.584
937.653
937.722
937.79
937.857
937.922
937.986
938.048
938.107
938.163
938.211
938.035
937.922
937.835
937.763
937.7
937.645
937.595
937.55
937.509
937.471
933.891
933.891
933.891
933.891
933.891
933.891
933.891
933.891
933.891
933.895
934.087
934.237
934.37
934.493
934.609
934.722
934.83
934.936
935.039
935.14
935.238
935.335
935.43
935.523
935.614
935.704
935.793
935.88
935.965
936.049
936.133
936.215
936.296
936.377
936.457
936.536
936.614
936.692
936.77
936.847
936.923
936.998
937.073
937.147
937.221
937.294
937.367
937.438
937.51
937.58
937.65
937.719
937.787
937.854
937.919
937.983
938.045
938.105
938.161
938.209
938.033
937.92
937.833
937.76
937.698
937.643
937.593
937.548
937.506
937.469
933.891
933.891
933.891
933.891
933.891
933.891
933.891
933.891
933.891
933.895
934.086
934.237
934.369
934.492
934.609
934.721
934.829
934.934
935.037
935.138
935.236
935.333
935.427
935.52
935.611
935.701
935.79
935.876
935.962
936.046
936.129
936.211
936.293
936.373
936.453
936.532
936.611
936.689
936.766
936.843
936.919
936.995
937.07
937.144
937.218
937.291
937.363
937.435
937.506
937.576
937.646
937.715
937.783
937.85
937.916
937.98
938.042
938.102
938.159
938.207
938.031
937.918
937.831
937.758
937.696
937.641
937.591
937.546
937.505
937.467
933.891
933.891
933.891
933.891
933.891
933.891
933.891
933.891
933.891
933.895
934.086
934.237
934.369
934.491
934.608
934.719
934.827
934.933
935.035
935.136
935.234
935.33
935.424
935.517
935.608
935.698
935.786
935.873
935.958
936.043
936.126
936.208
936.289
936.37
936.45
936.529
936.608
936.686
936.763
936.84
936.916
936.991
937.066
937.14
937.214
937.287
937.36
937.432
937.503
937.573
937.643
937.712
937.78
937.848
937.914
937.978
938.041
938.101
938.158
938.207
938.031
937.917
937.83
937.758
937.696
937.641
937.591
937.546
937.505
937.467
933.891
933.891
933.891
933.891
933.891
933.891
933.891
933.891
933.891
933.895
934.086
934.236
934.368
934.491
934.607
934.718
934.826
934.931
935.033
935.134
935.232
935.328
935.422
935.515
935.606
935.695
935.783
935.87
935.956
936.04
936.123
936.205
936.287
936.367
936.447
936.527
936.605
936.683
936.761
936.838
936.914
936.99
937.065
937.139
937.213
937.286
937.359
937.431
937.502
937.573
937.643
937.713
937.781
937.849
937.915
937.98
938.044
938.105
938.162
938.211
938.035
937.922
937.835
937.763
937.701
937.646
937.597
937.552
937.511
937.473
933.891
933.891
933.891
933.891
933.891
933.891
933.891
933.891
933.891
933.895
934.085
934.236
934.368
934.49
934.606
934.717
934.825
934.929
935.032
935.132
935.23
935.326
935.42
935.512
935.604
935.693
935.781
935.868
935.954
936.038
936.122
936.204
936.286
936.367
936.447
936.527
936.606
936.685
936.762
936.84
936.916
936.993
937.068
937.143
937.217
937.291
937.364
937.437
937.509
937.581
937.651
937.722
937.791
937.859
937.927
937.993
938.057
938.119
938.179
938.228
938.052
937.939
937.852
937.781
937.719
937.665
937.616
937.571
937.53
937.494
933.891
933.891
933.891
933.891
933.891
933.891
933.891
933.891
933.891
933.895
934.086
934.235
934.367
934.49
934.606
934.717
934.825
934.929
935.032
935.132
935.23
935.326
935.421
935.514
935.605
935.695
935.784
935.872
935.958
936.043
936.127
936.211
936.293
936.375
936.457
936.537
936.617
936.697
936.776
936.854
936.932
937.009
937.086
937.162
937.238
937.313
937.388
937.462
937.536
937.609
937.681
937.753
937.824
937.894
937.964
938.032
938.099
938.163
938.224
938.276
938.1
937.987
937.901
937.83
937.769
937.715
937.667
937.623
937.583
937.547
933.891
933.891
933.891
933.891
933.891
933.891
933.891
933.891
933.891
933.895
934.085
934.235
934.368
934.49
934.607
934.718
934.827
934.932
935.036
935.137
935.236
935.333
935.429
935.524
935.617
935.708
935.799
935.888
935.977
936.064
936.15
936.236
936.321
936.405
936.489
936.572
936.655
936.737
936.819
936.9
936.98
937.061
937.14
937.22
937.299
937.377
937.455
937.532
937.609
937.686
937.762
937.837
937.912
937.986
938.06
938.132
938.202
938.271
938.336
938.392
938.215
938.102
938.017
937.947
937.887
937.835
937.788
937.746
937.707
937.673
933.891
933.891
933.891
933.891
933.891
933.891
933.891
933.891
933.891
933.895
934.086
934.238
934.372
934.496
934.615
934.729
934.84
934.948
935.054
935.159
935.261
935.363
935.462
935.561
935.658
935.754
935.85
935.944
936.037
936.129
936.221
936.312
936.402
936.492
936.581
936.67
936.759
936.847
936.935
937.022
937.109
937.196
937.282
937.368
937.454
937.539
937.623
937.708
937.792
937.875
937.958
938.041
938.123
938.204
938.285
938.364
938.442
938.518
938.591
938.654
938.474
938.361
938.276
938.207
938.148
938.096
938.05
938.008
937.971
937.936
933.891
933.891
933.891
933.891
933.891
933.891
933.891
933.891
933.891
933.895
934.091
934.247
934.387
934.517
934.643
934.764
934.883
934.999
935.114
935.227
935.339
935.45
935.56
935.669
935.777
935.883
935.989
936.095
936.199
936.303
936.406
936.508
936.611
936.712
936.814
936.915
937.015
937.116
937.216
937.315
937.414
937.513
937.612
937.71
937.807
937.905
938.002
938.098
938.194
938.29
938.385
938.479
938.573
938.666
938.759
938.85
938.939
939.027
939.111
939.184
938.992
938.872
938.781
938.706
938.642
938.584
938.533
938.486
938.443
938.404
933.891
933.891
933.891
933.891
933.891
933.891
933.891
933.891
933.891
933.896
934.109
934.284
934.441
934.59
934.733
934.874
935.013
935.149
935.284
935.418
935.551
935.682
935.813
935.943
936.072
936.2
936.327
936.454
936.579
936.703
936.827
936.949
937.071
937.193
937.314
937.434
937.553
937.672
937.79
937.908
938.025
938.141
938.256
938.371
938.485
938.598
938.71
938.822
938.933
939.043
939.153
939.261
939.369
939.475
939.581
939.684
939.786
939.885
939.981
940.058
939.82
939.663
939.541
939.436
939.345
939.262
939.187
939.117
939.053
938.995
933.891
933.891
933.891
933.891
933.891
933.891
933.891
933.891
933.892
933.898
934.179
934.399
934.596
934.781
934.959
935.132
935.303
935.47
935.635
935.798
935.959
936.118
936.276
936.432
936.587
936.74
936.891
937.04
937.187
937.333
937.477
937.619
937.76
937.899
938.037
938.173
938.308
938.441
938.573
938.704
938.833
938.96
939.087
939.212
939.336
939.458
939.579
939.699
939.818
939.936
940.052
940.168
940.281
940.394
940.505
940.614
940.72
940.822
940.919
940.986
940.59
940.337
940.141
939.979
939.839
939.716
939.606
939.506
939.414
939.334
933.891
933.891
933.891
933.891
933.891
933.891
933.891
933.891
933.891
933.896
934.11
934.313
934.503
934.686
934.863
935.035
935.205
935.371
935.535
935.698
935.858
936.017
936.174
936.33
936.484
936.637
936.789
936.939
937.087
937.233
937.379
937.522
937.664
937.804
937.943
938.08
938.215
938.349
938.481
938.613
938.743
938.871
938.999
939.126
939.251
939.375
939.498
939.619
939.739
939.857
939.974
940.089
940.202
940.313
940.422
940.529
940.632
940.732
940.827
940.898
940.573
940.332
940.14
939.979
939.84
939.717
939.606
939.506
939.415
939.334
933.891
933.891
933.891
933.891
933.891
933.891
933.891
933.891
933.891
933.894
934.047
934.199
934.347
934.49
934.631
934.769
934.905
935.039
935.172
935.304
935.435
935.565
935.694
935.822
935.95
936.077
936.203
936.329
936.454
936.578
936.702
936.825
936.947
937.069
937.189
937.309
937.429
937.548
937.666
937.783
937.9
938.017
938.133
938.248
938.363
938.477
938.59
938.703
938.814
938.925
939.034
939.143
939.25
939.356
939.46
939.562
939.662
939.76
939.854
939.935
939.768
939.632
939.518
939.419
939.331
939.251
939.177
939.109
939.046
938.989
933.891
933.891
933.891
933.891
933.891
933.891
933.891
933.891
933.891
933.894
934.031
934.166
934.297
934.422
934.544
934.662
934.779
934.893
935.006
935.117
935.227
935.336
935.444
935.552
935.658
935.764
935.869
935.973
936.077
936.18
936.283
936.385
936.487
936.588
936.689
936.79
936.89
936.989
937.089
937.188
937.286
937.385
937.483
937.582
937.68
937.777
937.874
937.971
938.067
938.162
938.257
938.351
938.444
938.536
938.627
938.716
938.804
938.89
938.973
939.049
938.925