/*--------------------------------*- C++ -*----------------------------------*\
  =========                 |
  \\      /  F ield         | OpenFOAM: The Open Source CFD Toolbox
   \\    /   O peration     | Website:  https://openfoam.org
    \\  /    A nd           | Version:  12
     \\/     M anipulation  |
\*---------------------------------------------------------------------------*/
FoamFile
{
    format      ascii;
    class       volScalarField;
    location    "1400/porous";
    object      T;
}
// * * * * * * * * * * * * * * * * * * * * * * * * * * * * * * * * * * * * * //

dimensions      [0 0 0 1 0 0 0];

internalField   nonuniform List<scalar> 
140000
(
400
400
400
400
400
400
400
400
400
399.993
399.689
399.45
399.236
399.035
398.841
398.654
398.47
398.29
398.112
397.937
397.763
397.591
397.421
397.252
397.085
396.919
396.754
396.592
396.43
396.271
396.113
395.956
395.801
395.648
395.497
395.347
395.199
395.052
394.907
394.762
394.619
394.478
394.337
394.197
394.059
393.922
393.786
393.652
393.52
393.389
393.259
393.132
393.006
392.882
392.762
392.644
392.529
392.418
392.313
392.241
392.682
392.964
393.181
393.361
393.516
393.653
393.775
393.886
393.987
394.076
400
400
400
400
400
400
400
400
400
399.995
399.763
399.574
399.403
399.241
399.085
398.933
398.784
398.636
398.491
398.347
398.204
398.062
397.921
397.781
397.642
397.503
397.365
397.228
397.092
396.956
396.821
396.687
396.553
396.42
396.288
396.157
396.026
395.896
395.766
395.638
395.509
395.381
395.254
395.127
395
394.875
394.75
394.626
394.503
394.382
394.261
394.141
394.023
393.907
393.792
393.68
393.569
393.462
393.359
393.275
393.539
393.711
393.847
393.962
394.064
394.155
394.239
394.316
394.387
394.451
400
400
400
400
400
400
400
400
400
399.996
399.783
399.613
399.461
399.319
399.183
399.051
398.923
398.797
398.674
398.552
398.431
398.312
398.194
398.077
397.96
397.845
397.73
397.616
397.502
397.389
397.277
397.165
397.054
396.943
396.833
396.722
396.613
396.504
396.395
396.286
396.177
396.069
395.961
395.853
395.745
395.638
395.531
395.425
395.319
395.214
395.11
395.007
394.904
394.803
394.703
394.605
394.509
394.414
394.324
394.245
394.455
394.587
394.687
394.769
394.84
394.903
394.96
395.012
395.059
395.102
400
400
400
400
400
400
400
400
400
399.996
399.788
399.623
399.477
399.341
399.212
399.088
398.968
398.851
398.737
398.624
398.514
398.405
398.298
398.192
398.087
397.983
397.88
397.778
397.677
397.576
397.477
397.377
397.279
397.181
397.084
396.987
396.891
396.795
396.7
396.605
396.51
396.415
396.321
396.227
396.133
396.039
395.946
395.853
395.761
395.67
395.579
395.49
395.401
395.313
395.226
395.142
395.058
394.977
394.898
394.831
395.027
395.151
395.243
395.319
395.384
395.441
395.491
395.537
395.578
395.616
400
400
400
400
400
400
400
400
400
399.996
399.789
399.625
399.481
399.347
399.22
399.098
398.981
398.867
398.756
398.647
398.54
398.436
398.333
398.231
398.131
398.032
397.934
397.837
397.741
397.646
397.552
397.458
397.366
397.274
397.183
397.093
397.003
396.914
396.826
396.738
396.65
396.562
396.475
396.388
396.302
396.216
396.13
396.045
395.961
395.877
395.795
395.713
395.632
395.553
395.475
395.398
395.323
395.25
395.18
395.12
395.313
395.436
395.529
395.605
395.67
395.728
395.779
395.825
395.867
395.905
400
400
400
400
400
400
400
400
400
399.996
399.789
399.625
399.481
399.347
399.221
399.1
398.983
398.87
398.759
398.652
398.546
398.442
398.341
398.241
398.142
398.045
397.949
397.854
397.76
397.667
397.575
397.484
397.394
397.305
397.217
397.13
397.043
396.957
396.871
396.786
396.702
396.617
396.534
396.45
396.367
396.285
396.203
396.122
396.041
395.962
395.883
395.806
395.729
395.654
395.58
395.508
395.437
395.369
395.304
395.248
395.44
395.563
395.657
395.734
395.801
395.859
395.912
395.959
396.003
396.042
400
400
400
400
400
400
400
400
400
399.996
399.789
399.625
399.481
399.347
399.22
399.099
398.982
398.869
398.759
398.651
398.546
398.443
398.341
398.241
398.143
398.046
397.951
397.856
397.763
397.671
397.58
397.49
397.401
397.313
397.226
397.14
397.054
396.969
396.885
396.802
396.718
396.636
396.553
396.471
396.39
396.309
396.229
396.149
396.07
395.993
395.916
395.84
395.765
395.692
395.621
395.551
395.483
395.417
395.354
395.3
395.492
395.615
395.709
395.787
395.855
395.914
395.967
396.016
396.06
396.101
400
400
400
400
400
400
400
400
400
399.996
399.788
399.625
399.48
399.346
399.219
399.098
398.981
398.867
398.757
398.649
398.543
398.44
398.338
398.239
398.14
398.044
397.948
397.854
397.761
397.669
397.579
397.489
397.4
397.313
397.226
397.14
397.055
396.97
396.887
396.804
396.721
396.639
396.557
396.475
396.394
396.314
396.235
396.156
396.078
396.001
395.925
395.85
395.776
395.704
395.634
395.565
395.498
395.433
395.371
395.319
395.51
395.634
395.728
395.807
395.874
395.934
395.988
396.037
396.082
396.123
400
400
400
400
400
400
400
400
400
399.996
399.788
399.624
399.48
399.346
399.219
399.097
398.979
398.866
398.755
398.647
398.541
398.438
398.336
398.236
398.137
398.041
397.945
397.851
397.758
397.666
397.575
397.486
397.397
397.309
397.223
397.137
397.052
396.968
396.884
396.801
396.719
396.637
396.555
396.474
396.393
396.313
396.234
396.155
396.077
396.001
395.925
395.85
395.777
395.705
395.635
395.567
395.5
395.436
395.375
395.323
395.515
395.638
395.733
395.812
395.88
395.94
395.994
396.043
396.088
396.129
400
400
400
400
400
400
400
400
400
399.996
399.788
399.624
399.479
399.345
399.218
399.096
398.978
398.864
398.753
398.645
398.539
398.435
398.333
398.233
398.134
398.037
397.942
397.847
397.754
397.662
397.572
397.482
397.393
397.306
397.219
397.133
397.048
396.964
396.881
396.798
396.715
396.633
396.551
396.47
396.389
396.309
396.23
396.152
396.074
395.997
395.922
395.847
395.774
395.702
395.633
395.564
395.498
395.435
395.374
395.323
395.514
395.638
395.732
395.811
395.879
395.939
395.993
396.043
396.088
396.129
400
400
400
400
400
400
400
400
400
399.996
399.788
399.624
399.479
399.345
399.218
399.095
398.978
398.863
398.752
398.643
398.537
398.433
398.331
398.231
398.132
398.035
397.939
397.845
397.752
397.66
397.569
397.479
397.39
397.303
397.216
397.13
397.045
396.961
396.878
396.795
396.712
396.63
396.548
396.467
396.386
396.306
396.226
396.148
396.07
395.994
395.918
395.843
395.77
395.699
395.629
395.561
395.495
395.432
395.371
395.32
395.511
395.635
395.73
395.809
395.877
395.937
395.991
396.04
396.086
396.127
400
400
400
400
400
400
400
400
400
399.996
399.788
399.624
399.479
399.345
399.217
399.095
398.977
398.863
398.751
398.642
398.536
398.432
398.33
398.229
398.13
398.033
397.937
397.842
397.749
397.657
397.566
397.476
397.388
397.3
397.213
397.128
397.043
396.959
396.875
396.792
396.709
396.627
396.545
396.463
396.383
396.302
396.223
396.144
396.067
395.99
395.914
395.84
395.767
395.695
395.626
395.557
395.492
395.428
395.368
395.317
395.508
395.632
395.727
395.806
395.874
395.934
395.988
396.038
396.083
396.124
400
400
400
400
400
400
400
400
400
399.996
399.788
399.624
399.479
399.345
399.218
399.095
398.977
398.862
398.751
398.642
398.535
398.431
398.329
398.228
398.129
398.032
397.936
397.841
397.748
397.655
397.565
397.475
397.386
397.298
397.212
397.126
397.041
396.957
396.873
396.79
396.707
396.624
396.542
396.461
396.38
396.3
396.22
396.142
396.064
395.987
395.911
395.837
395.764
395.692
395.623
395.555
395.489
395.426
395.366
395.315
395.506
395.63
395.725
395.803
395.871
395.932
395.986
396.035
396.081
396.122
400
400
400
400
400
400
400
400
400
399.996
399.788
399.624
399.479
399.345
399.217
399.095
398.977
398.862
398.75
398.641
398.535
398.43
398.328
398.227
398.128
398.031
397.935
397.84
397.746
397.654
397.563
397.474
397.385
397.297
397.211
397.125
397.04
396.955
396.872
396.788
396.705
396.623
396.541
396.459
396.378
396.298
396.218
396.14
396.062
395.985
395.909
395.835
395.762
395.69
395.62
395.553
395.487
395.424
395.364
395.313
395.504
395.628
395.723
395.801
395.87
395.93
395.984
396.033
396.079
396.12
400
400
400
400
400
400
400
400
400
399.996
399.788
399.624
399.479
399.345
399.218
399.095
398.977
398.862
398.751
398.641
398.535
398.43
398.328
398.227
398.128
398.03
397.934
397.839
397.746
397.654
397.563
397.473
397.384
397.297
397.21
397.124
397.039
396.955
396.871
396.787
396.704
396.622
396.54
396.458
396.377
396.297
396.217
396.138
396.061
395.984
395.908
395.833
395.76
395.689
395.619
395.551
395.486
395.422
395.362
395.312
395.503
395.627
395.722
395.8
395.868
395.929
395.983
396.032
396.078
396.119
400
400
400
400
400
400
400
400
400
399.996
399.788
399.624
399.48
399.346
399.218
399.096
398.978
398.863
398.751
398.642
398.535
398.43
398.327
398.227
398.127
398.03
397.934
397.839
397.746
397.654
397.563
397.473
397.384
397.297
397.21
397.124
397.039
396.954
396.871
396.787
396.704
396.621
396.539
396.457
396.376
396.296
396.216
396.138
396.06
395.983
395.907
395.832
395.759
395.688
395.618
395.55
395.485
395.422
395.362
395.311
395.502
395.626
395.721
395.8
395.868
395.928
395.982
396.032
396.077
396.118
400
400
400
400
400
400
400
400
400
399.996
399.788
399.624
399.48
399.346
399.219
399.096
398.978
398.863
398.751
398.642
398.535
398.43
398.327
398.227
398.127
398.03
397.934
397.839
397.746
397.654
397.563
397.473
397.385
397.297
397.21
397.124
397.039
396.954
396.87
396.787
396.704
396.621
396.539
396.457
396.376
396.296
396.216
396.137
396.059
395.983
395.907
395.832
395.759
395.688
395.618
395.55
395.485
395.422
395.362
395.311
395.502
395.626
395.721
395.8
395.868
395.928
395.982
396.032
396.077
396.118
400
400
400
400
400
400
400
400
400
399.996
399.788
399.625
399.48
399.346
399.219
399.097
398.979
398.864
398.752
398.642
398.535
398.43
398.328
398.227
398.128
398.03
397.934
397.839
397.746
397.654
397.563
397.474
397.385
397.297
397.21
397.124
397.039
396.955
396.871
396.787
396.704
396.621
396.539
396.457
396.376
396.296
396.216
396.137
396.059
395.983
395.907
395.832
395.759
395.688
395.618
395.55
395.485
395.422
395.362
395.312
395.503
395.626
395.721
395.8
395.868
395.928
395.983
396.032
396.078
396.119
400
400
400
400
400
400
400
400
400
399.996
399.788
399.625
399.481
399.347
399.22
399.097
398.979
398.864
398.752
398.643
398.536
398.431
398.328
398.227
398.128
398.03
397.934
397.84
397.746
397.654
397.564
397.474
397.386
397.298
397.211
397.124
397.039
396.954
396.871
396.787
396.704
396.621
396.539
396.457
396.376
396.296
396.216
396.138
396.06
395.983
395.907
395.832
395.759
395.688
395.618
395.55
395.485
395.422
395.362
395.312
395.503
395.627
395.722
395.8
395.868
395.929
395.983
396.032
396.078
396.119
400
400
400
400
400
400
400
400
400
399.996
399.788
399.625
399.481
399.347
399.22
399.098
398.98
398.865
398.753
398.643
398.536
398.431
398.328
398.227
398.128
398.03
397.934
397.84
397.747
397.655
397.564
397.475
397.386
397.298
397.21
397.124
397.038
396.954
396.87
396.787
396.704
396.621
396.539
396.457
396.376
396.296
396.216
396.138
396.06
395.983
395.907
395.832
395.759
395.688
395.618
395.55
395.485
395.422
395.362
395.312
395.503
395.627
395.722
395.8
395.869
395.929
395.983
396.033
396.078
396.119
400
400
400
400
400
400
400
400
400
399.996
399.789
399.626
399.482
399.348
399.221
399.099
398.98
398.865
398.753
398.644
398.536
398.431
398.328
398.227
398.128
398.03
397.934
397.84
397.747
397.655
397.564
397.475
397.386
397.297
397.21
397.123
397.038
396.953
396.869
396.786
396.703
396.621
396.539
396.457
396.376
396.296
396.216
396.137
396.059
395.983
395.907
395.832
395.759
395.688
395.618
395.55
395.485
395.422
395.362
395.312
395.503
395.627
395.722
395.801
395.869
395.929
395.983
396.033
396.078
396.119
400
400
400
400
400
400
400
400
400
399.996
399.789
399.625
399.482
399.348
399.221
399.099
398.981
398.866
398.754
398.644
398.537
398.432
398.329
398.227
398.128
398.031
397.934
397.84
397.747
397.655
397.564
397.474
397.385
397.297
397.209
397.123
397.037
396.952
396.869
396.785
396.703
396.62
396.538
396.457
396.376
396.295
396.216
396.137
396.059
395.982
395.907
395.832
395.759
395.687
395.618
395.55
395.485
395.422
395.362
395.312
395.503
395.627
395.722
395.8
395.868
395.929
395.983
396.033
396.078
396.119
400
400
400
400
400
400
400
400
400
399.996
399.789
399.626
399.482
399.348
399.221
399.099
398.981
398.866
398.754
398.644
398.537
398.432
398.329
398.228
398.128
398.031
397.934
397.84
397.747
397.655
397.564
397.474
397.385
397.296
397.209
397.122
397.037
396.952
396.868
396.785
396.702
396.619
396.538
396.456
396.375
396.295
396.216
396.137
396.059
395.982
395.906
395.832
395.759
395.687
395.618
395.55
395.485
395.422
395.362
395.311
395.503
395.626
395.721
395.8
395.868
395.929
395.983
396.032
396.078
396.119
400
400
400
400
400
400
400
400
400
399.996
399.789
399.626
399.482
399.349
399.222
399.1
398.982
398.867
398.754
398.645
398.537
398.432
398.329
398.228
398.128
398.031
397.934
397.84
397.747
397.655
397.564
397.474
397.384
397.296
397.209
397.122
397.036
396.951
396.867
396.784
396.701
396.619
396.537
396.456
396.375
396.295
396.216
396.137
396.059
395.982
395.906
395.832
395.759
395.687
395.618
395.55
395.484
395.422
395.362
395.311
395.502
395.626
395.721
395.8
395.868
395.928
395.983
396.032
396.078
396.119
400
400
400
400
400
400
400
400
400
399.996
399.789
399.626
399.482
399.349
399.222
399.1
398.982
398.867
398.755
398.645
398.538
398.432
398.329
398.228
398.128
398.031
397.934
397.84
397.746
397.654
397.563
397.473
397.384
397.296
397.208
397.122
397.036
396.951
396.867
396.784
396.701
396.619
396.537
396.456
396.375
396.295
396.216
396.137
396.059
395.982
395.907
395.832
395.759
395.687
395.618
395.55
395.485
395.422
395.362
395.311
395.502
395.626
395.721
395.8
395.868
395.928
395.983
396.032
396.078
396.119
400
400
400
400
400
400
400
400
400
399.996
399.789
399.627
399.483
399.35
399.223
399.101
398.983
398.867
398.755
398.645
398.538
398.433
398.329
398.228
398.129
398.031
397.934
397.84
397.746
397.654
397.563
397.473
397.384
397.296
397.208
397.122
397.036
396.951
396.867
396.784
396.701
396.619
396.537
396.456
396.376
396.296
396.216
396.138
396.06
395.983
395.907
395.832
395.759
395.688
395.618
395.55
395.484
395.421
395.361
395.31
395.502
395.626
395.721
395.8
395.868
395.928
395.982
396.032
396.077
396.119
400
400
400
400
400
400
400
400
400
399.996
399.789
399.627
399.483
399.35
399.223
399.101
398.983
398.868
398.755
398.646
398.538
398.433
398.33
398.228
398.129
398.031
397.934
397.84
397.746
397.654
397.563
397.473
397.384
397.296
397.208
397.122
397.036
396.951
396.867
396.784
396.702
396.62
396.538
396.457
396.376
396.296
396.217
396.138
396.06
395.983
395.908
395.833
395.76
395.688
395.618
395.55
395.485
395.422
395.361
395.311
395.502
395.626
395.721
395.8
395.868
395.928
395.982
396.032
396.077
396.119
400
400
400
400
400
400
400
400
400
399.996
399.789
399.627
399.483
399.35
399.223
399.101
398.983
398.868
398.756
398.646
398.539
398.433
398.33
398.228
398.129
398.031
397.934
397.84
397.746
397.654
397.564
397.474
397.385
397.296
397.209
397.122
397.037
396.952
396.868
396.785
396.702
396.62
396.539
396.458
396.377
396.297
396.218
396.139
396.061
395.984
395.908
395.834
395.76
395.689
395.619
395.551
395.485
395.421
395.361
395.31
395.502
395.626
395.721
395.8
395.868
395.928
395.983
396.032
396.078
396.119
400
400
400
400
400
400
400
400
400
399.996
399.79
399.627
399.484
399.35
399.224
399.102
398.984
398.868
398.756
398.646
398.539
398.434
398.33
398.229
398.129
398.031
397.935
397.84
397.746
397.655
397.564
397.474
397.385
397.297
397.209
397.123
397.037
396.953
396.869
396.786
396.703
396.621
396.54
396.459
396.378
396.298
396.219
396.14
396.062
395.985
395.909
395.835
395.761
395.689
395.619
395.551
395.485
395.422
395.361
395.31
395.502
395.626
395.721
395.8
395.868
395.928
395.983
396.032
396.078
396.119
400
400
400
400
400
400
400
400
400
399.996
399.79
399.627
399.484
399.351
399.224
399.102
398.984
398.869
398.756
398.647
398.539
398.434
398.331
398.229
398.129
398.031
397.935
397.84
397.747
397.655
397.564
397.475
397.386
397.298
397.21
397.124
397.038
396.954
396.87
396.787
396.705
396.622
396.541
396.46
396.379
396.299
396.22
396.141
396.063
395.986
395.91
395.835
395.762
395.69
395.62
395.551
395.485
395.422
395.361
395.31
395.502
395.626
395.721
395.8
395.868
395.928
395.983
396.032
396.078
396.119
400
400
400
400
400
400
400
400
400
399.996
399.79
399.627
399.484
399.351
399.224
399.102
398.984
398.869
398.757
398.647
398.54
398.434
398.331
398.23
398.13
398.032
397.935
397.84
397.747
397.655
397.565
397.475
397.387
397.299
397.211
397.125
397.04
396.955
396.872
396.788
396.706
396.623
396.542
396.461
396.38
396.3
396.221
396.142
396.064
395.987
395.911
395.836
395.763
395.69
395.62
395.552
395.485
395.422
395.361
395.31
395.501
395.625
395.721
395.8
395.868
395.928
395.983
396.032
396.078
396.119
400
400
400
400
400
400
400
400
400
399.996
399.79
399.627
399.484
399.351
399.224
399.103
398.985
398.87
398.757
398.648
398.54
398.435
398.332
398.23
398.13
398.032
397.936
397.841
397.748
397.656
397.565
397.476
397.387
397.299
397.212
397.126
397.041
396.956
396.873
396.789
396.707
396.624
396.543
396.461
396.381
396.301
396.221
396.143
396.065
395.988
395.912
395.837
395.763
395.691
395.62
395.552
395.485
395.422
395.361
395.309
395.501
395.625
395.72
395.799
395.868
395.928
395.982
396.032
396.077
396.119
400
400
400
400
400
400
400
400
400
399.996
399.79
399.628
399.484
399.351
399.225
399.103
398.985
398.87
398.758
398.648
398.541
398.436
398.332
398.231
398.131
398.033
397.937
397.842
397.748
397.657
397.566
397.477
397.388
397.3
397.213
397.127
397.042
396.958
396.874
396.79
396.707
396.625
396.543
396.462
396.381
396.301
396.222
396.143
396.065
395.988
395.912
395.837
395.763
395.691
395.62
395.551
395.485
395.421
395.36
395.308
395.5
395.625
395.72
395.799
395.867
395.927
395.982
396.031
396.077
396.118
400
400
400
400
400
400
400
400
400
399.996
399.79
399.628
399.484
399.351
399.225
399.103
398.985
398.871
398.759
398.649
398.542
398.437
398.333
398.232
398.132
398.034
397.938
397.843
397.75
397.658
397.567
397.478
397.389
397.302
397.215
397.129
397.043
396.959
396.875
396.791
396.708
396.626
396.544
396.463
396.382
396.302
396.223
396.144
396.066
395.989
395.913
395.838
395.764
395.691
395.62
395.551
395.485
395.42
395.359
395.307
395.499
395.624
395.719
395.798
395.866
395.927
395.981
396.031
396.076
396.118
400
400
400
400
400
400
400
400
400
399.996
399.79
399.628
399.485
399.352
399.225
399.104
398.986
398.871
398.759
398.65
398.543
398.438
398.334
398.233
398.133
398.036
397.939
397.844
397.751
397.659
397.568
397.479
397.391
397.303
397.216
397.13
397.045
396.96
396.876
396.792
396.709
396.627
396.545
396.463
396.383
396.303
396.223
396.145
396.067
395.99
395.914
395.838
395.764
395.691
395.62
395.551
395.484
395.42
395.359
395.307
395.499
395.624
395.719
395.798
395.866
395.927
395.981
396.031
396.076
396.118
400
400
400
400
400
400
400
400
400
399.996
399.79
399.628
399.485
399.352
399.226
399.104
398.987
398.872
398.76
398.651
398.544
398.439
398.336
398.235
398.135
398.037
397.941
397.846
397.753
397.661
397.57
397.481
397.393
397.305
397.218
397.132
397.047
396.962
396.877
396.794
396.71
396.628
396.546
396.465
396.384
396.304
396.225
396.146
396.068
395.991
395.915
395.839
395.765
395.692
395.621
395.552
395.485
395.42
395.358
395.307
395.499
395.624
395.719
395.798
395.866
395.927
395.981
396.031
396.077
396.118
400
400
400
400
400
400
400
400
400
399.996
399.79
399.628
399.485
399.352
399.226
399.105
398.988
398.873
398.761
398.652
398.545
398.44
398.337
398.236
398.137
398.039
397.943
397.848
397.755
397.663
397.573
397.483
397.395
397.307
397.22
397.134
397.049
396.964
396.879
396.795
396.712
396.63
396.548
396.467
396.386
396.306
396.227
396.148
396.07
395.993
395.917
395.841
395.767
395.694
395.622
395.553
395.485
395.421
395.359
395.307
395.499
395.624
395.72
395.799
395.867
395.928
395.982
396.032
396.077
396.118
400
400
400
400
400
400
400
400
400
399.996
399.79
399.629
399.486
399.353
399.227
399.106
398.989
398.874
398.763
398.654
398.547
398.442
398.339
398.238
398.139
398.041
397.945
397.85
397.757
397.666
397.575
397.486
397.398
397.31
397.223
397.137
397.051
396.966
396.882
396.798
396.715
396.632
396.55
396.469
396.388
396.308
396.229
396.15
396.073
395.995
395.919
395.844
395.769
395.696
395.624
395.554
395.487
395.422
395.36
395.308
395.501
395.625
395.721
395.8
395.869
395.929
395.983
396.033
396.079
396.12
400
400
400
400
400
400
400
400
400
399.996
399.791
399.629
399.486
399.354
399.228
399.107
398.99
398.876
398.764
398.655
398.549
398.444
398.341
398.24
398.141
398.044
397.948
397.853
397.76
397.669
397.578
397.489
397.401
397.313
397.226
397.14
397.054
396.969
396.885
396.801
396.718
396.635
396.553
396.472
396.391
396.312
396.232
396.154
396.076
395.998
395.922
395.847
395.772
395.699
395.627
395.557
395.489
395.424
395.362
395.309
395.502
395.627
395.723
395.802
395.87
395.931
395.985
396.035
396.081
396.122
400
400
400
400
400
400
400
400
400
399.996
399.791
399.629
399.487
399.354
399.229
399.108
398.991
398.877
398.766
398.657
398.551
398.446
398.344
398.243
398.144
398.047
397.951
397.856
397.763
397.672
397.582
397.492
397.404
397.316
397.229
397.143
397.057
396.972
396.888
396.804
396.721
396.639
396.557
396.476
396.395
396.315
396.236
396.157
396.079
396.002
395.926
395.85
395.776
395.702
395.63
395.56
395.492
395.426
395.364
395.312
395.505
395.629
395.725
395.804
395.873
395.933
395.988
396.037
396.083
396.124
400
400
400
400
400
400
400
400
400
399.996
399.791
399.629
399.487
399.355
399.229
399.109
398.992
398.879
398.768
398.659
398.553
398.449
398.346
398.246
398.147
398.05
397.954
397.86
397.767
397.675
397.585
397.496
397.408
397.32
397.233
397.147
397.061
396.976
396.892
396.808
396.725
396.643
396.561
396.48
396.399
396.319
396.24
396.161
396.083
396.006
395.93
395.854
395.779
395.706
395.634
395.563
395.495
395.429
395.366
395.314
395.507
395.632
395.727
395.807
395.875
395.935
395.99
396.039
396.085
396.126
400
400
400
400
400
400
400
400
400
399.996
399.791
399.63
399.488
399.356
399.231
399.11
398.994
398.88
398.77
398.661
398.555
398.451
398.349
398.249
398.15
398.053
397.957
397.863
397.771
397.679
397.589
397.5
397.411
397.324
397.237
397.151
397.065
396.98
396.896
396.812
396.729
396.646
396.565
396.483
396.403
396.323
396.244
396.165
396.087
396.01
395.933
395.857
395.782
395.709
395.636
395.565
395.496
395.43
395.367
395.314
395.507
395.632
395.728
395.807
395.875
395.936
395.99
396.039
396.085
396.126
400
400
400
400
400
400
400
400
400
399.996
399.791
399.63
399.488
399.356
399.232
399.112
398.995
398.882
398.772
398.664
398.558
398.454
398.352
398.252
398.153
398.056
397.961
397.867
397.774
397.682
397.592
397.503
397.414
397.327
397.24
397.153
397.067
396.982
396.898
396.814
396.731
396.648
396.566
396.485
396.404
396.324
396.245
396.166
396.088
396.01
395.933
395.857
395.782
395.707
395.634
395.563
395.493
395.426
395.363
395.309
395.503
395.627
395.723
395.802
395.87
395.93
395.984
396.033
396.078
396.119
400
400
400
400
400
400
400
400
400
399.996
399.792
399.631
399.489
399.357
399.233
399.113
398.997
398.884
398.774
398.666
398.56
398.456
398.354
398.254
398.155
398.058
397.963
397.869
397.776
397.684
397.593
397.504
397.415
397.327
397.239
397.153
397.066
396.981
396.896
396.812
396.728
396.645
396.563
396.481
396.399
396.319
396.239
396.159
396.08
396.002
395.924
395.847
395.771
395.696
395.622
395.549
395.478
395.41
395.345
395.29
395.484
395.608
395.704
395.782
395.85
395.91
395.963
396.012
396.057
396.097
400
400
400
400
400
400
400
400
400
399.996
399.792
399.631
399.489
399.357
399.233
399.113
398.997
398.884
398.774
398.666
398.56
398.456
398.353
398.253
398.154
398.056
397.96
397.865
397.771
397.679
397.587
397.497
397.407
397.318
397.229
397.141
397.054
396.968
396.881
396.796
396.711
396.627
396.543
396.459
396.377
396.294
396.213
396.132
396.051
395.971
395.891
395.813
395.735
395.657
395.581
395.506
395.433
395.363
395.295
395.238
395.432
395.556
395.651
395.729
395.796
395.854
395.907
395.955
395.999
396.038
400
400
400
400
400
400
400
400
400
399.996
399.792
399.631
399.488
399.357
399.232
399.111
398.994
398.881
398.769
398.66
398.553
398.448
398.344
398.242
398.141
398.042
397.944
397.847
397.751
397.656
397.563
397.47
397.377
397.285
397.194
397.104
397.014
396.924
396.835
396.746
396.658
396.571
396.483
396.397
396.31
396.225
396.139
396.054
395.97
395.886
395.803
395.72
395.638
395.556
395.476
395.397
395.319
395.244
395.172
395.11
395.305
395.429
395.522
395.599
395.665
395.723
395.774
395.821
395.863
395.901
400
400
400
400
400
400
400
400
400
399.996
399.791
399.628
399.484
399.35
399.223
399.1
398.981
398.864
398.749
398.636
398.526
398.416
398.308
398.202
398.096
397.992
397.889
397.787
397.686
397.585
397.486
397.387
397.289
397.191
397.093
396.996
396.9
396.804
396.708
396.612
396.517
396.423
396.328
396.234
396.141
396.048
395.955
395.862
395.77
395.679
395.587
395.497
395.406
395.317
395.228
395.141
395.055
394.971
394.89
394.821
395.019
395.144
395.237
395.314
395.379
395.436
395.486
395.532
395.574
395.611
400
400
400
400
400
400
400
400
400
399.996
399.786
399.618
399.468
399.328
399.193
399.062
398.934
398.809
398.685
398.562
398.441
398.321
398.203
398.085
397.968
397.852
397.737
397.623
397.509
397.397
397.284
397.173
397.062
396.951
396.84
396.73
396.62
396.511
396.401
396.292
396.184
396.076
395.968
395.86
395.753
395.646
395.54
395.434
395.328
395.223
395.118
395.014
394.911
394.808
394.706
394.605
394.506
394.409
394.316
394.236
394.447
394.58
394.681
394.764
394.835
394.898
394.955
395.007
395.054
395.097
400
400
400
400
400
400
400
400
400
399.995
399.766
399.579
399.41
399.25
399.095
398.943
398.794
398.647
398.501
398.356
398.213
398.07
397.928
397.787
397.647
397.508
397.37
397.233
397.096
396.961
396.826
396.692
396.559
396.426
396.294
396.163
396.032
395.901
395.772
395.643
395.514
395.387
395.26
395.133
395.008
394.883
394.759
394.636
394.513
394.391
394.27
394.15
394.031
393.913
393.796
393.681
393.567
393.457
393.351
393.265
393.53
393.704
393.84
393.956
394.057
394.149
394.232
394.309
394.381
394.445
400
400
400
400
400
400
400
400
400
399.993
399.692
399.455
399.243
399.044
398.852
398.665
398.481
398.3
398.122
397.945
397.77
397.597
397.426
397.256
397.088
396.921
396.756
396.593
396.432
396.273
396.115
395.959
395.805
395.652
395.501
395.351
395.203
395.056
394.911
394.767
394.624
394.483
394.343
394.204
394.067
393.931
393.797
393.664
393.532
393.401
393.271
393.143
393.016
392.89
392.767
392.645
392.526
392.412
392.303
392.228
392.672
392.954
393.172
393.353
393.508
393.645
393.768
393.879
393.98
394.069
400
400
400
400
400
400
400
400
400
399.995
399.765
399.548
399.343
399.146
398.956
398.77
398.587
398.407
398.229
398.054
397.88
397.707
397.536
397.367
397.199
397.033
396.868
396.704
396.542
396.382
396.223
396.066
395.91
395.756
395.604
395.454
395.305
395.158
395.012
394.867
394.723
394.581
394.44
394.3
394.161
394.024
393.888
393.753
393.62
393.489
393.359
393.231
393.105
392.98
392.859
392.74
392.624
392.512
392.406
392.327
392.691
392.96
393.174
393.353
393.508
393.644
393.767
393.878
393.98
394.069
400
400
400
400
400
400
400
400
400
399.997
399.834
399.67
399.511
399.357
399.206
399.057
398.911
398.766
398.622
398.48
398.338
398.197
398.058
397.918
397.78
397.642
397.505
397.368
397.232
397.097
396.962
396.828
396.695
396.562
396.43
396.299
396.168
396.038
395.908
395.779
395.651
395.523
395.395
395.268
395.142
395.016
394.891
394.767
394.644
394.522
394.401
394.281
394.162
394.045
393.93
393.816
393.705
393.597
393.491
393.402
393.587
393.738
393.865
393.975
394.073
394.161
394.243
394.318
394.388
394.451
400
400
400
400
400
400
400
400
400
399.998
399.85
399.705
399.565
399.43
399.299
399.172
399.046
398.923
398.801
398.681
398.562
398.445
398.328
398.212
398.096
397.982
397.868
397.755
397.642
397.53
397.418
397.307
397.196
397.086
396.976
396.866
396.757
396.649
396.54
396.432
396.324
396.216
396.108
396.001
395.893
395.786
395.68
395.574
395.468
395.363
395.259
395.155
395.053
394.951
394.851
394.752
394.655
394.56
394.468
394.385
394.521
394.632
394.723
394.8
394.867
394.927
394.981
395.031
395.077
395.119
400
400
400
400
400
400
400
400
400
399.998
399.854
399.714
399.579
399.451
399.327
399.206
399.089
398.975
398.862
398.752
398.643
398.535
398.429
398.324
398.22
398.117
398.015
397.913
397.813
397.713
397.614
397.515
397.417
397.32
397.223
397.127
397.031
396.936
396.841
396.746
396.652
396.558
396.464
396.37
396.276
396.183
396.09
395.998
395.906
395.815
395.725
395.635
395.546
395.458
395.371
395.286
395.202
395.12
395.04
394.968
395.093
395.196
395.28
395.351
395.412
395.467
395.515
395.559
395.599
395.636
400
400
400
400
400
400
400
400
400
399.998
399.855
399.716
399.583
399.456
399.334
399.216
399.102
398.99
398.881
398.773
398.668
398.564
398.462
398.362
398.262
398.164
398.066
397.97
397.875
397.78
397.687
397.594
397.502
397.411
397.32
397.23
397.141
397.052
396.964
396.876
396.788
396.701
396.614
396.528
396.442
396.356
396.271
396.186
396.102
396.019
395.936
395.854
395.773
395.693
395.615
395.538
395.462
395.388
395.317
395.253
395.376
395.478
395.562
395.633
395.695
395.75
395.8
395.844
395.885
395.922
400
400
400
400
400
400
400
400
400
399.998
399.855
399.716
399.583
399.456
399.335
399.217
399.103
398.992
398.884
398.777
398.673
398.571
398.47
398.371
398.273
398.176
398.081
397.986
397.893
397.801
397.709
397.619
397.529
397.441
397.353
397.265
397.179
397.093
397.008
396.923
396.839
396.755
396.671
396.588
396.506
396.423
396.342
396.261
396.18
396.101
396.022
395.944
395.867
395.792
395.718
395.645
395.574
395.504
395.438
395.378
395.5
395.602
395.687
395.76
395.823
395.879
395.93
395.976
396.019
396.057
400
400
400
400
400
400
400
400
400
399.998
399.855
399.715
399.583
399.456
399.334
399.217
399.103
398.992
398.883
398.777
398.673
398.571
398.47
398.371
398.274
398.178
398.083
397.989
397.897
397.805
397.714
397.625
397.536
397.448
397.361
397.275
397.19
397.105
397.021
396.938
396.855
396.772
396.69
396.608
396.527
396.447
396.366
396.287
396.208
396.131
396.054