/*--------------------------------*- C++ -*----------------------------------*\
  =========                 |
  \\      /  F ield         | OpenFOAM: The Open Source CFD Toolbox
   \\    /   O peration     | Website:  https://openfoam.org
    \\  /    A nd           | Version:  12
     \\/     M anipulation  |
\*---------------------------------------------------------------------------*/
FoamFile
{
    format      ascii;
    class       volScalarField;
    location    "1050/air";
    object      alphat;
}
// * * * * * * * * * * * * * * * * * * * * * * * * * * * * * * * * * * * * * //

dimensions      [1 -1 -1 0 0 0 0];

internalField   nonuniform List<scalar> 
243000
(
0.000103629
9.39759e-05
8.85843e-05
0.000393755
8.58463e-05
8.57059e-05
8.70069e-05
8.73402e-05
8.75717e-05
8.76001e-05
8.73863e-05
8.70799e-05
0.000376958
0.000379875
8.64599e-05
8.67117e-05
8.7532e-05
8.88701e-05
9.06849e-05
9.26444e-05
9.44424e-05
9.5867e-05
9.68188e-05
9.73254e-05
9.74858e-05
9.73276e-05
9.6914e-05
9.53033e-05
9.17452e-05
0.00040904
0.000374968
0.0003586
0.000330458
0.000317494
0.00029616
0.000289087
0.000284956
0.000283413
0.0002834
0.000284225
0.000285515
0.000287669
0.000291413
0.00029691
0.000303918
0.000312992
0.000323631
0.00033471
0.000344212
0.000351501
0.000356492
0.00035954
0.00036087
0.000360765
0.000359373
0.000356611
0.000352512
0.000346408
0.000335961
0.000317394
0.000485863
0.000490886
0.000485075
0.000477983
0.00046834
0.000458541
0.000448876
0.000446026
0.000454354
0.000467672
0.000483786
0.000501901
0.00052184
0.000544296
0.000568771
0.000595222
0.000619761
0.0006395
0.000650915
0.000653756
0.000648786
0.000637881
0.000622385
0.000603378
0.000581472
0.000556816
0.000529619
0.000499896
0.000467272
0.000426434
0.000523672
0.000530441
0.000528331
0.000523005
0.000514257
0.0005027
0.00048845
0.000475196
0.000469598
0.000474151
0.00049092
0.000515111
0.000544238
0.000577433
0.000612654
0.000648239
0.000679253
0.000702769
0.000715669
0.000718358
0.00071206
0.000699197
0.000681521
0.000660264
0.000636018
0.000608846
0.000578775
0.000546024
0.000510998
0.000470951
0.000560572
0.000568032
0.00056789
0.000563907
0.000555947
0.000544358
0.000529311
0.000510915
0.00049535
0.000488221
0.000493209
0.000517647
0.000555267
0.000600648
0.00064773
0.000692748
0.000729746
0.000756394
0.000770343
0.000772732
0.000765226
0.000750694
0.000731231
0.000708222
0.000682272
0.000653371
0.000621448
0.00058676
0.000549774
0.000510544
0.000596423
0.000604574
0.000605816
0.000602715
0.000595294
0.000583841
0.000568449
0.000549437
0.00052738
0.000510583
0.000504834
0.000517786
0.000559527
0.000616817
0.00067646
0.000730947
0.000773563
0.00080281
0.000817477
0.00081946
0.000810856
0.000794901
0.000773956
0.000749545
0.000722345
0.000692294
0.000659236
0.000623464
0.000585383
0.000546465
0.000631435
0.0006402
0.000642423
0.000639862
0.000632687
0.000621172
0.000605439
0.000585729
0.000561828
0.000538259
0.000523216
0.00052645
0.000561413
0.000628397
0.000700567
0.000764327
0.000812119
0.00084352
0.000858678
0.000860202
0.00085062
0.000833453
0.000811267
0.000785705
0.000757545
0.000726739
0.000693067
0.000656821
0.000618342
0.00057947
0.000665834
0.000675011
0.000677801
0.000675473
0.000668276
0.000656462
0.000640208
0.000619774
0.000595521
0.000568055
0.000545961
0.00054019
0.000565288
0.00063767
0.000721353
0.000793885
0.000846365
0.000879552
0.000895026
0.000896087
0.000885656
0.00086747
0.000844239
0.00081772
0.000788808
0.000757501
0.000723579
0.000687276
0.000648892
0.000610038
0.000699718
0.000709003
0.000712031
0.000709706
0.000702284
0.000690002
0.000673064
0.000651743
0.000626462
0.000597161
0.00057047
0.000557397
0.000575032
0.000646814
0.000739893
0.000820326
0.000876964
0.000911626
0.00092729
0.000927913
0.000916767
0.000897732
0.000873636
0.000846332
0.000816836
0.000785208
0.000751268
0.000715175
0.000677207
0.000638908
0.000733144
0.000742132
0.00074509
0.000742604
0.000734868
0.000722054
0.000704346
0.000682036
0.000655542
0.000625334
0.000595326
0.000576771
0.000588386
0.0006567
0.000756927
0.000844137
0.000904378
0.000940266
0.000956033
0.000956264
0.000944525
0.000924813
0.00090003
0.000872116
0.000842172
0.00081035
0.000776543
0.000740821
0.000703459
0.000665908
0.00076618
0.000774498
0.000777042
0.000774226
0.000766126
0.000752794
0.000734352
0.000711052
0.000683327
0.000652102
0.000619838
0.000597418
0.000604196
0.000667795
0.000772954
0.00086567
0.000928914
0.00096587
0.000981691
0.000981586
0.000969383
0.000949152
0.000923865
0.000895504
0.000865236
0.000833319
0.000799738
0.000764487
0.000727838
0.000691121
0.000798703
0.000805996
0.000807906
0.000804651
0.000796166
0.000782371
0.000763285
0.000739083
0.000710185
0.0006776
0.000643765
0.000618741
0.00062166
0.000680286
0.000788277
0.000885179
0.000950833
0.000988692
0.00100457
0.00100422
0.000991684
0.000971095
0.000945471
0.000916821
0.000886354
0.000854444
0.000821161
0.000786434
0.000750545
0.000714692
0.000830819
0.000836765
0.00083777
0.000833973
0.000825098
0.0008109
0.000791274
0.000766303
0.000736358
0.000702444
0.000667284
0.000640381
0.000640204
0.00069414
0.000803045
0.000902821
0.00097031
0.00100893
0.0010249
0.00102442
0.00101168
0.000990891
0.000965095
0.000936311
0.000905778
0.00087397
0.000841038
0.000806878
0.000771772
0.000736773
0.000862644
0.000867029
0.000866937
0.000862417
0.000853093
0.000838521
0.000818446
0.000792839
0.000761998
0.000726909
0.000690614
0.000662226
0.000659434
0.000709168
0.000817288
0.000918675
0.000987473
0.00102672
0.00104283
0.00104235
0.00102957
0.00100872
0.000982915
0.000954155
0.000923694
0.000892082
0.000859553
0.000826004
0.0007917
0.000757542
0.000894409
0.000897065
0.000895727
0.000890308
0.000880391
0.000865427
0.000844956
0.000818817
0.000787221
0.00075114
0.000713895
0.000684228
0.000679116
0.000725097
0.000830944
0.000932772
0.0010024
0.00104217
0.0010585
0.00105815
0.00104547
0.00102474
0.000999072
0.000970487
0.000940235
0.000908931
0.000876877
0.000843998
0.00081052
0.000777186
0.000926476
0.000927184
0.000924431
0.000917951
0.000907306
0.000891865
0.000870998
0.000844384
0.000812126
0.00077522
0.000737171
0.000706332
0.000699037
0.000741624
0.000843907
0.000945099
0.00101512
0.00105536
0.00107197
0.00107189
0.00105949
0.00103904
0.00101366
0.000985404
0.000955515
0.000924648
0.000893147
0.000860994
0.000828355
0.000795868
0.000959066
0.000957651
0.000953357
0.000945666
0.000934178
0.000918147
0.000896835
0.000869746
0.000836864
0.000799263
0.000760488
0.000728498
0.000719013
0.000758425
0.000856054
0.000955635
0.00102567
0.00106632
0.00108332
0.00108365
0.00107167
0.00105166
0.00102675
0.000998987
0.000969627
0.000939333
0.000908478
0.000877111
0.000845347
0.000813788
0.000991461
0.000988758
0.000982938
0.000973858
0.000961455
0.000944726
0.000922869
0.000895244
0.000861698
0.000823546
0.000783985
0.000750717
0.000738912
0.000775208
0.000867286
0.000964363
0.00103404
0.00107507
0.00109258
0.00109343
0.00108206
0.00106268
0.00103841
0.00101131
0.000982635
0.000953058
0.000922959
0.000892447
0.000861604
0.000831039
0.0010234
0.00101944
0.0010128
0.00100312
0.000989894
0.000972324
0.000949757
0.000921477
0.000887119
0.000849023
0.000807973
0.000773032
0.00075867
0.000791742
0.000877517
0.000971279
0.00104024
0.00108161
0.00109975
0.00110132
0.00109073
0.00107216
0.0010487
0.00102241
0.00099457
0.000965855
0.000936635
0.000907057
0.000877206
0.000847697
0.00105479
0.00104951
0.00104205
0.00103197
0.00101871
0.00100134
0.000978742
0.000949742
0.000914127
0.000875041
0.000832411
0.000795468
0.000778399
0.000807917
0.00088671
0.000976394
0.00104421
0.0010859
0.00110491
0.00110735
0.00109773
0.00108014
0.00105765
0.00103232
0.00100545
0.000977746
0.000949541
0.000920999
0.000892234
0.000863836
0.00108547
0.00107889
0.00107059
0.00106015
0.00104696
0.00103004
0.00100806
0.000979699
0.000945444
0.000903914
0.000858256
0.000818615
0.000799142
0.000823888
0.000894914
0.00097974
0.00104609
0.001088
0.00110801
0.00111149
0.00110305
0.00108663
0.00106528
0.00104108
0.00101533
0.000988765
0.000961717
0.000934336
0.00090675
0.000879542
0.00111529
0.0011075
0.00109844
0.0010877
0.00107466
0.00105843
0.00103747
0.00101124
0.000976808
0.000934115
0.000886492
0.0008441
0.000821451
0.000839824
0.000902193
0.000981354
0.00104614
0.00108821
0.00110905
0.00111374
0.00110668
0.00109165
0.00107165
0.00104874
0.00102426
0.000998968
0.000973225
0.000947148
0.000920856
0.000894938
0.00114414
0.00113533
0.00112568
0.00111487
0.00110229
0.00108744
0.00106874
0.00104256
0.00100753
0.000964104
0.00091528
0.000870641
0.000844396
0.000855555
0.000908487
0.00098132
0.00104364
0.00108577
0.00110777
0.00111387
0.00110842
0.00109505
0.00107661
0.00105523
0.00103222
0.0010084
0.000984134
0.000959525
0.000934673
0.000910187
0.00117206
0.0011626
0.00115276
0.00114282
0.00113182
0.00111763
0.00109808
0.00107143
0.00103631
0.000992678
0.000943395
0.0008971
0.000867107
0.000870593
0.000913459
0.000978956
0.00103827
0.00108026
0.00110346
0.00111125
0.00110758
0.0010961
0.0010797
0.00106023
0.00103907
0.00101701
0.000994488
0.000971588
0.000948387
0.000925538
0.00119924
0.00119034
0.00118157
0.00117133
0.00115899
0.00114347
0.00112311
0.00109621
0.00106116
0.00101808
0.000969403
0.000922447
0.000889065
0.000884716
0.000917126
0.000974257
0.00102968
0.00107109
0.00109538
0.00110505
0.00110354
0.00109432
0.00107999
0.00106282
0.00104399
0.00102423
0.00100394
0.00098322
0.000962098
0.00094123
0.00122378
0.00121412
0.00120372
0.00119205
0.00117851
0.00116195
0.00114103
0.00111417
0.00107991
0.00103946
0.00099455
0.000949924
0.000916074
0.000906353
0.000929627
0.000976772
0.00102632
0.00106562
0.00109037
0.00110171
0.00110243
0.00109512
0.00108245
0.00106639
0.00104826
0.00102952
0.00101163
0.000993613
0.00097518
0.000956988
0.00123879
0.001226
0.00121358
0.00120142
0.00118881
0.00117466
0.00115756
0.00113576
0.00110763
0.00107316
0.00103358
0.00099312
0.000960573
0.000947062
0.000961734
0.000998131
0.00103956
0.00107441
0.00109755
0.00110904
0.00111096
0.0011051
0.00109369
0.00107858
0.00106109
0.00104249
0.00102386
0.00100518
0.000986537
0.00097045
0.00127183
0.00125882
0.00124606
0.00123397
0.00122246
0.00121088
0.00119797
0.00118198
0.00116121
0.00113499
0.00110392
0.00107137
0.001044
0.00103004
0.00103702
0.00106148
0.00109122
0.00111753
0.00113554
0.00114442
0.00114535
0.00113938
0.00112822
0.00111338
0.00109606
0.00107737
0.00105817
0.00103874
0.00101927
0.00100131
0.00134002
0.00132876
0.00131916
0.00131233
0.0013077
0.00130425
0.00130059
0.00129505
0.00128613
0.00127319
0.00125572
0.00123651
0.00121961
0.00120988
0.00121114
0.00122234
0.0012364
0.00124901
0.00125684
0.00125908
0.00125596
0.00124797
0.00123608
0.00122118
0.00120418
0.00118584
0.00116633
0.00114585
0.00112496
0.0011052
0.0015725
0.00156783
0.00157107
0.00157896
0.00158546
0.00159008
0.00159294
0.00159388
0.00159277
0.00158943
0.00158126
0.00157246
0.00156416
0.00155834
0.00155511
0.0015553
0.00155587
0.00155695
0.0015571
0.00155669
0.00155553
0.00155358
0.00155082
0.0015475
0.00154375
0.00153961
0.00153154
0.00151953
0.00150638
0.00149283
0.000132544
0.000144829
0.000146458
0.000145419
0.000141989
0.000138045
0.000133737
0.000129585
0.000125764
0.000122467
0.000119776
0.000117915
0.000116912
0.00011687
0.000117615
0.000119087
0.000120812
0.00012237
0.000123431
0.000123892
0.000123566
0.000122248
0.000119673
0.000115756
0.000110572
0.000104157
9.68838e-05
9.0163e-05
8.6104e-05
9.09398e-05
0.000413246
0.000437871
0.000420692
0.0004118
0.000403987
0.000394024
0.000383609
0.000374678
0.000368432
0.000366492
0.000370002
0.000381249
0.000398955
0.000422326
0.000446042
0.000464902
0.00047038
0.000463312
0.000445683
0.000423956
0.00040313
0.000387031
0.000372977
0.000358352
0.000340618
0.000315517
0.000285123
0.000250993
0.000245236
0.000248531
0.000532553
0.000612012
0.000608467
0.00061015
0.000610401
0.000610182
0.00061215
0.000617216
0.000625952
0.000642928
0.000671987
0.000718112
0.000779073
0.000849897
0.000915563
0.000960158
0.000969013
0.000948213
0.000903216
0.000847601
0.000791946
0.000746167
0.000708946
0.000675548
0.000636733
0.000585762
0.000526022
0.000463303
0.000421129
0.0004062
0.000571638
0.000671074
0.000689632
0.000703512
0.000713122
0.000723964
0.000740848
0.000765171
0.00079945
0.000847056
0.00091529
0.0010118
0.00113377
0.00126709
0.00138381
0.00145594
0.00146861
0.00143594
0.00136483
0.00127609
0.00118579
0.00110782
0.00104215
0.000983534
0.000921018
0.000844896
0.000758187
0.000671007
0.00059836
0.000557198
0.000609529
0.000696591
0.000717959
0.00073741
0.000752385
0.000769751
0.000797677
0.000837164
0.00089346
0.000972961
0.0010937
0.00125318
0.00145022
0.00165571
0.00182547
0.00192309
0.00193798
0.00189385
0.00179915
0.00168062
0.00155897
0.00145084
0.00135778
0.00127477
0.00118993
0.00109153
0.000981522
0.00087321
0.000779388
0.000714824
0.000639589
0.000725382
0.000746626
0.000769951
0.000789013
0.000810018
0.000839455
0.000881516
0.000944511
0.00104651
0.00120807
0.00144854
0.00173401
0.00201856
0.00223847
0.00235788
0.002372
0.00231616
0.00219952
0.00205429
0.00190509
0.00177002
0.00165215
0.00154701
0.00144241
0.00132532
0.0011958
0.00106968
0.000959416
0.000881429
0.000687031
0.000754839
0.000786377
0.000812689
0.000832394
0.000853943
0.000882543
0.000924787
0.000991756
0.00110254
0.0012953
0.00161294
0.00199128
0.00235757
0.00262426
0.00276107
0.0027711
0.00270294
0.00256575
0.00239649
0.00222326
0.00206467
0.00192501
0.00180038
0.00167885
0.00154647
0.0014012
0.00126013
0.00113744
0.00105481
0.000793703
0.000838116
0.000854963
0.000873386
0.000889112
0.000905724
0.000929685
0.000969131
0.00103825
0.00115875
0.00137303
0.00174646
0.00222527
0.00267556
0.00298431
0.0031338
0.00313657
0.00305563
0.00289921
0.00270848
0.00251441
0.00233561
0.00217714
0.00203572
0.00189987
0.00175484
0.00159814
0.00144547
0.00131229
0.00123053
0.000966996
0.000984723
0.000981182
0.00097922
0.000976338
0.000977418
0.000989155
0.00101841
0.00108008
0.00120732
0.00144354
0.00185675
0.0024377
0.00297422
0.00331936
0.00347686
0.00346981
0.00337575
0.00320176
0.00299204
0.00278013
0.00258419
0.00240981
0.00225411
0.0021063
0.00195142
0.00178659
0.00162532
0.00148406
0.00140005
0.00120465
0.00120445
0.00117966
0.00114998
0.00111665
0.00108879
0.00107476
0.00108538
0.00113519
0.00125641
0.00150533
0.00195848
0.00264063
0.00325549
0.00362966
0.0037906
0.00377201
0.00366494
0.00347525
0.00324916
0.00302224
0.00281212
0.00262448
0.00245682
0.00229904
0.00213686
0.00196668
0.00179945
0.00165233
0.00156517
0.00150587
0.00150216
0.00145285
0.00139003
0.0013194
0.00125265
0.00120161
0.00118147
0.00120986
0.00132423
0.00158655
0.00208213
0.00284674
0.00352059
0.00391506
0.00407495
0.00404448
0.00392463
0.00372152
0.00348179
0.00324274
0.00302111
0.00282265
0.00264512
0.00247886
0.00231169
0.00213847
0.00196769
0.0018168
0.00172736
0.00180494
0.00181182
0.00176908
0.00168575
0.00157979
0.00147205
0.00137757
0.00131633
0.00131344
0.00140783
0.00169223
0.00223948
0.00305119
0.00376854
0.00417495
0.00433004
0.00428798
0.00415626
0.00394232
0.00369196
0.00344351
0.0032129
0.00300592
0.00282044
0.00264758
0.00247685
0.00230211
0.00212963
0.00197714
0.00188618
0.00209869
0.0021155
0.00207983
0.00200119
0.00187809
0.00173628
0.00160046
0.0014944
0.00145229
0.00151716
0.00181024
0.00240411
0.0032518
0.00399766
0.00440836
0.00455574
0.00450307
0.00436123
0.00413944
0.00388152
0.00362638
0.00338916
0.00317589
0.00298415
0.00280605
0.00263296
0.00245826
0.0022859
0.0021332
0.00204166
0.00238603
0.00241175
0.00238461
0.00231111
0.00219132
0.00202873
0.00185989
0.00171287
0.00162894
0.00166017
0.00194949
0.00257261
0.00344305
0.00420558
0.00461389
0.00475163
0.00469009
0.00454089
0.00431439
0.00405211
0.00379301
0.00355154
0.00333371
0.00313667
0.00295515
0.00278102
0.00260768
0.00243727
0.00228539
0.00219415
0.00266557
0.002699
0.00268059
0.00261346
0.00249762
0.00233355
0.00214268
0.00196261
0.00184047
0.00183948
0.00211247
0.00275144
0.00362866
0.00439011
0.00478974
0.00491696
0.00484922
0.00469613
0.00446831
0.00420494
0.00394479
0.00370122
0.00348021
0.0032795
0.00309612
0.00292224
0.00275136
0.00258426
0.00243441
0.00234409
0.00293278
0.0029729
0.00296261
0.00290298
0.00279355
0.0026347
0.00243466
0.00223231
0.0020787
0.00204972
0.00229546
0.00293631
0.00380428
0.00454801
0.00493357
0.00505051
0.00498011
0.00482733
0.00460173
0.00434049
0.00408221
0.00383846
0.00361613
0.00341424
0.00323028
0.0030576
0.00289013
0.00272738
0.00258093
0.00249165
0.00318009
0.00322586
0.00322271
0.00317194
0.0030712
0.00291992
0.00272249
0.00250914
0.0023329
0.0022817
0.00249116
0.00312137
0.00396384
0.00467493
0.00504219
0.00515029
0.00508162
0.00493387
0.0047141
0.00445807
0.00420488
0.00396343
0.00374214
0.00354104
0.00335803
0.00318778
0.00302477
0.00286718
0.00272491
0.00263723
0.0034108
0.00344795
0.00345051
0.00341029
0.00332031
0.00318057
0.00299319
0.00277861
0.00258934
0.00252114
0.00269143
0.00329864
0.00409935
0.00476506
0.00511125
0.00521318
0.0051513
0.00501384
0.00480349
0.00455723
0.00431248
0.00407632
0.00385794
0.00365939
0.00347887
0.0033122
0.00315444
0.00300347
0.00286575
0.00278046
0.00362533
0.00364635
0.00364316
0.00360563
0.00352747
0.00340377
0.00323153
0.00302386
0.00283126
0.00275034
0.00288345
0.00345612
0.0041996
0.00481041
0.00513459
0.00523435
0.00518475
0.0050634
0.00486705
0.00463614
0.00440322
0.00417458
0.00396142
0.00376775
0.00359134
0.00342933
0.00327752
0.00313369
0.00300108
0.00291982
0.00381878
0.00382249
0.00380838
0.00376698
0.0036922
0.00357732
0.00341871
0.00322485
0.00303894
0.00294949
0.00304974
0.00357487
0.00424873
0.00479982
0.0051033
0.00520626
0.00517479
0.0050758
0.00490062
0.00468935
0.0044714
0.00425434
0.00404961
0.00386141
0.00369076
0.00353481
0.00338972
0.00325351
0.00312982
0.0030535
0.00398555
0.00397165
0.00394502
0.00389742
0.00382252
0.00371195
0.00355936
0.00337247
0.00318999
0.00309523
0.00316748
0.00362928
0.00422517
0.00471818
0.00500461
0.00511695
0.0051113
0.00503948
0.0048927
0.0047075
0.00450922
0.00430836
0.0041165
0.00393751
0.00377416
0.00362551
0.00348876
0.0033623
0.0032485
0.0031779
0.00411686
0.00408631
0.00404806
0.00399436
0.00391794
0.00380785
0.00365572
0.00346949
0.00328328
0.0031722
0.00321105
0.00358586
0.00410852
0.00454718
0.00482144
0.0049505
0.00497626
0.00493612
0.00482655
0.00467582
0.00450408
0.00432503
0.00415076
0.00398582
0.0038337
0.00369515
0.00356873
0.00345307
0.00335072
0.00328589
0.00420103
0.00415691
0.00410989
0.00405157
0.00397171
0.00385814
0.00370338
0.0035129
0.0033158
0.00317779
0.00317112
0.0034359
0.0038824
0.00427074
0.00453582
0.00468702
0.00474599
0.00474199
0.00467691
0.00456801
0.00443276
0.00428362
0.00413469
0.0039904
0.00385477
0.00373014
0.00361615
0.00351259
0.00342286
0.00336545
0.00422423
0.0041717
0.0041201
0.00405761
0.00397119
0.00385394
0.00369496
0.00349809
0.00328715
0.00311801
0.00305823
0.0032059
0.00355009
0.0038949
0.00414552
0.00431711
0.0044018
0.00443513
0.00441615
0.00435232
0.00425968
0.0041496
0.00403482
0.00392056
0.0038105
0.00370687
0.00361039
0.00352217
0.00344717
0.00339936
0.00416905
0.00411767
0.00406546
0.00399873
0.0039121
0.00379187
0.00363021
0.00343128
0.00321393
0.0030245
0.00291999
0.00296743
0.00319324
0.00347441
0.00370418
0.00387449
0.00397244
0.00403174
0.00404639
0.00402205
0.00397012
0.00389987
0.00382101
0.00374094
0.0036631
0.00358837
0.00351709
0.00345142
0.00339624
0.00336239
0.00402543
0.00398383
0.00393836
0.00388309
0.00380627
0.00369234
0.00353653
0.00334693
0.00314401
0.00296098
0.00283861
0.00282115
0.0029445
0.00313973
0.00333083
0.00347586
0.00356505
0.00362998
0.00365482
0.00364675
0.00361485
0.00356648
0.00351056
0.0034562
0.00340676
0.00336097
0.00331534
0.00327412
0.00324186
0.00322715
0.00382038
0.00380266
0.00377994
0.00374441
0.00368419
0.00358924
0.00345863
0.0032988
0.00313157
0.00298151
0.00287138
0.00283473
0.00289138
0.00300999
0.00314472
0.00325085
0.00331697
0.00336683
0.00338297
0.00337105
0.00333836
0.00329182
0.00323939
0.00318887
0.00314403
0.00310582
0.00307372
0.00304895
0.00303375
0.0030342
0.00361533
0.00361657
0.00362291
0.00361884
0.0035859
0.00352178
0.00342945
0.00331566
0.00319523
0.00308523
0.00300241
0.002968
0.00299021
0.00305404
0.00313564
0.00320393
0.00324774
0.00327983
0.00328621
0.00327027
0.00323716
0.0031929
0.00314457
0.00309753
0.00305466
0.00301742
0.00298624
0.0029609
0.00294277
0.00294613
0.00344422
0.00345092
0.00346976
0.00348099
0.0034712
0.00343862
0.0033859
0.00331744
0.00324102
0.00316814
0.00310928
0.00307807
0.00307922
0.00310823
0.00314809
0.00318681
0.003213
0.00323229
0.00323557
0.00322528
0.00320472
0.00317761
0.00315084
0.00312639
0.00310594
0.00308969
0.0030761
0.00306208
0.00304901
0.00304244
0.00330833
0.00332272
0.00334423
0.00335695
0.00335414
0.00333665
0.00330776
0.00327094
0.00322542
0.00318133
0.00314184
0.00311379
0.00310132
0.0031047
0.00311462
0.00312877
0.00314048
0.00314688
0.00314727
0.00314303
0.00313719
0.00313294
0.00313045
0.00313349
0.00314132
0.0031523
0.00316312
0.00317347
0.00317851
0.00317633
0.000178756
0.000186724
0.000186633
0.000183193
0.000177832
0.000171623
0.000165267
0.000159225
0.000153773
0.000149144
0.000145406
0.000142718
0.000140968
0.000140187
0.000140063
0.000140491
0.000140912
0.00014109
0.000141227
0.000141573
0.000141487
0.000139966
0.000136037
0.000129198
0.00011939
0.000106871
9.14856e-05
0.00038461
0.000357757
9.56891e-05
0.000649694
0.000728925
0.000722279
0.000691345
0.000656559
0.000625043
0.000599593
0.00058146
0.0005711
0.000569337
0.000575347
0.000589147
0.000604515
0.000618388
0.000623104
0.000618616
0.000597875
0.000568794
0.000540302
0.000521808
0.00051229
0.0005093
0.000503322
0.000484839
0.000450989
0.00039392
0.000329733
0.000322959
0.000308751
0.000278893
0.00101423
0.00113559
0.00116833
0.00115794
0.00113032
0.00110144
0.00107888
0.00106697
0.0010687
0.00108755
0.00112358
0.00117566
0.00122972
0.00127557
0.00129679
0.00129054
0.00124576
0.00117856
0.00110689
0.00104728
0.00100303
0.000973235
0.00094413
0.000904951
0.000835846
0.000726703
0.000603271
0.000527193
0.000475379
0.000455529
0.00117598
0.0013547
0.00143849
0.00146063
0.00145606
0.00144606
0.00144078
0.00144788
0.00147406
0.00152716
0.00160836
0.00171366
0.00181979
0.00190704
0.00195136
0.00194698
0.00188275
0.0017808
0.00166704
0.00156403
0.0014806
0.00141812
0.00136187
0.00129355
0.0011913
0.00103912
0.000865742
0.000740617
0.000658374
0.000638543
0.00120721
0.00140417
0.00152586
0.00159585
0.00163147
0.00165388
0.00167588
0.00171203
0.00177457
0.00187588
0.00201724
0.00218984
0.00235788
0.00249078
0.00255901
0.00255604
0.00247378
0.00233854
0.00218442
0.0020407
0.00191989
0.00182426
0.00174005
0.00164652
0.00151757
0.00133342
0.00112131
0.000955732
0.000849659
0.000830054
0.00116748
0.00136372
0.00150589
0.00160599
0.00167513
0.00173144
0.00178944
0.00186586
0.00197724
0.00214305
0.00236054
0.00261478
0.00285253
0.00303232
0.00312286
0.00311824
0.00301661
0.002848
0.00265439
0.00247256
0.00231779
0.00219214
0.00208269
0.00196784
0.00181835
0.00161189
0.00137152
0.00117264
0.00104549
0.00103066
0.00112172
0.00130005
0.00144486
0.00155935
0.0016494
0.00173053
0.00181985
0.00193789
0.00209934
0.00234112
0.0026515
0.00299969
0.00331279
0.00353878
0.00364816
0.00363751
0.00351402
0.0033111
0.00307913
0.00286172
0.00267638
0.00252448
0.00239323
0.00226074
0.00209632
0.00187563
0.00161564
0.00139094
0.00124656
0.0012387
0.00109847
0.00125058
0.00138638
0.00150529
0.00160916
0.00171039
0.00182526
0.00197369
0.00217849
0.00248491
0.00290734
0.00335311
0.00374432
0.00401477
0.00413839
0.00411667
0.0039685
0.00373055
0.00346183
0.00321182
0.00299936
0.00282495
0.00267528
0.00252859
0.00235401
0.00212517
0.00185287
0.00160927
0.00145214
0.00145125
0.00111181
0.00124618
0.00136356
0.00147535
0.00158266
0.00169529
0.00182898
0.00200563
0.00225351
0.00262357
0.00313689
0.00368196
0.00414917
0.00446222
0.00459485
0.00455724
0.00438165
0.00410864
0.00380596
0.00352683
0.00329094
0.0030975
0.00293261
0.00277468
0.00259355
0.00236085
0.0020835
0.00182652
0.00166016
0.00166574
0.00115805
0.00128043
0.00139655
0.00149878
0.00159524
0.00170774
0.00185198
0.00205104
0.00234408
0.00276894
0.00334472
0.00399048
0.00453274
0.00488126
0.00501693
0.00495981
0.00475433
0.00444776
0.00411492
0.00381083
0.00355546
0.0033463
0.00316897
0.00300239
0.00281674
0.00258383
0.00230815
0.00204277
0.00186948
0.00187992
0.0013083
0.00140512
0.00148617
0.00156595
0.00165792
0.0017693
0.00191386
0.00212769
0.00245016
0.00292006
0.00354676
0.00428199
0.00489736
0.00527131
0.00540421
0.00532411
0.00508745
0.00475037
0.00439242
0.00406812
0.00379737
0.00357544
0.00338812
0.00321422
0.00302606
0.0027957
0.00252548
0.00225838
0.00207929
0.00209201
0.00151876
0.00161276
0.00168389
0.00174431
0.00180013
0.00187325
0.00200022
0.00221888
0.00256407
0.00306857
0.00375178
0.00457101
0.00524253
0.00563072
0.00575523
0.00564939
0.00538208
0.00501959
0.00464243
0.00430328
0.004021
0.003789
0.00359395
0.00341395
0.00322428
0.00299842
0.00273568
0.00247171
0.00229002
0.00230365
0.00181132
0.00190534
0.00196751
0.00200492
0.00202674
0.00206413
0.00215626
0.00234071
0.00268217
0.00322311
0.0039753
0.00486433
0.00556429
0.00595633
0.00606757
0.00593475
0.00563962
0.00525889
0.00486917
0.00452076
0.00423055
0.00399089
0.00378969
0.0036045
0.00341414
0.00319402
0.00294026
0.0026834
0.00250227
0.00251603
0.00218813
0.00227526
0.00232924
0.00234181
0.00233032
0.00232861
0.00237654
0.00254013
0.00287867
0.00343391
0.00423428
0.00516801
0.00585972
0.00624363
0.00633785
0.006179
0.0058619
0.00547207
0.00507662
0.00472468
0.00442979
0.00418488
0.0039777
0.00378861
0.00359848
0.00338478
0.00314119
0.0028952
0.00271682
0.00273004
0.0026251
0.00270162
0.00274208
0.00273113
0.00269249
0.00265269
0.00265752
0.00277948
0.00311833
0.00372046
0.00454341
0.00545506
0.00611985
0.00648638
0.00656171
0.00638057
0.00605093
0.00566234
0.00526814
0.00491815
0.00462164
0.00437331
0.00416046
0.00396869
0.00377974
0.00357291
0.00334144
0.00310808
0.00293428
0.0029462
0.00309151
0.00315432
0.00317628
0.0031468
0.00308391
0.00301222
0.0029814
0.00305713
0.00337634
0.00399257
0.00482598
0.00569594
0.00633277
0.00667694
0.00673385
0.00653747
0.00620796
0.00583134
0.00544563
0.00510274
0.00480783
0.00455708
0.00433964
0.00414665
0.00395979
0.0037605
0.00354341
0.00332239
0.00315476
0.00316441
0.00355828
0.00360244
0.00360397
0.00355808
0.00347496
0.00337799
0.00331638
0.00335783
0.00364009
0.00425177
0.00505434
0.00588011
0.00648712
0.00680649
0.00684807
0.00664681
0.00633238
0.0059778
0.00560849
0.00527773
0.00498758
0.00473605
0.0045157
0.00432284
0.00413903
0.00394826
0.00374476
0.00353735
0.00337684
0.00338379
0.00400266
0.00401958
0.00400177
0.00393949
0.0038394
0.0037227
0.00363685
0.00365345
0.00388373
0.00447639
0.00523437
0.00600385
0.00657098
0.00686487
0.00689703
0.00670406
0.0064204
0.00609624
0.00575284
0.00543908
0.00515715
0.00490794
0.00468723
0.00449313
0.00431413
0.00413287
0.00394286
0.0037496
0.0035952
0.00360119
0.00439812
0.00439158
0.00435209
0.00427245
0.00415713
0.00402417
0.00391842
0.00391184
0.00408457
0.00463822
0.00534479
0.0060476
0.00656981
0.00684059
0.00687204
0.00670232
0.00646367
0.00617768
0.00586866
0.00557805
0.00530955
0.00506653
0.0048496
0.0046562
0.00447859
0.00430543
0.00412814
0.00394925
0.00380797
0.00381271
0.00473224
0.00470128
0.00464189
0.00454505
0.00441492
0.0042665
0.00414016
0.00410448
0.00422328
0.00470894
0.00536083
0.00599086
0.00646791
0.00672158
0.00676323
0.00663176
0.00644846
0.00620732
0.00594032
0.00567977
0.00543173
0.00520162
0.00499279
0.00480472
0.00463205
0.00446678
0.00430143
0.00413815
0.0040116
0.00401208
0.00499566
0.00494044
0.00486139
0.0047488
0.00460437
0.00443994
0.00428963
0.00421699
0.00427961
0.00467041
0.00525278
0.00581681
0.006252
0.00649769
0.00656094
0.00648087
0.006356
0.00616517
0.00594605
0.0057222
0.00550237
0.00529324
0.0050993
0.00492261
0.00475989
0.00460504
0.00445299
0.00430661
0.00419395
0.00418768
0.00517584
0.00509895
0.00500292
0.00487689
0.0047196
0.00453861
0.00436146
0.00424471
0.00424543
0.00452358
0.00500798
0.00551391
0.00591962
0.00616694
0.00626034
0.00623852
0.00616869
0.00603054
0.00586151
0.00567865
0.00549186
0.00530966
0.00513855
0.00498133
0.00483592
0.00469759
0.00456281
0.00443465
0.00433566
0.00432217
0.00525958
0.00516674
0.00505942
0.00492428
0.00475763
0.00456214
0.0043589
0.00419663
0.00413333
0.0042923
0.00466002
0.00510234
0.0054873
0.00574774
0.00587237
0.00590565
0.00588181
0.00579414
0.00567083
0.00552784
0.00537756
0.00522719
0.0050841
0.00495239
0.00483076
0.00471504
0.00460259
0.00449586
0.0044124
0.00439313
0.00523712
0.0051379
0.00502779
0.00489148
0.00472287
0.00452004
0.00429919
0.00410198
0.00398342
0.00403708
0.00429371
0.00465415
0.00501306
0.00528966
0.00544058
0.00551497
0.00552392
0.00547691
0.00539222
0.00528431
0.00516565
0.00504431
0.0049278
0.00482103
0.00472384
0.00463318
0.00454624
0.00446393
0.00439809
0.00437659
0.0051118
0.00501833
0.00491684
0.00479219
0.0046348
0.00443873
0.00421868
0.00401109
0.00385887
0.00384518
0.0040079
0.00428586
0.0045959
0.00487064
0.00503942
0.00513288
0.00516
0.00513918
0.00508058
0.00499715
0.00490037
0.00479883
0.00470024
0.00461035
0.00453022
0.00445787
0.00439045
0.00432777
0.00427804
0.00425823
0.00491323
0.00483876
0.00475981
0.00466327
0.0045303
0.00436079
0.00416634
0.00397579
0.00382713
0.00378552
0.00387843
0.00407835
0.00432647
0.00456695
0.00473527
0.00482546
0.00485504
0.00484423
0.00479865
0.00472881
0.00464437
0.0045536
0.00446396
0.00438143
0.00430808
0.00424325
0.00418429
0.00413051
0.00408804
0.00407051
0.00470522
0.00465776
0.00460949
0.00454716
0.00445592
0.00432999
0.00417885
0.00402633
0.00390453
0.00385595
0.00390178
0.00403428
0.00421531
0.00440134
0.00454269
0.00461069
0.00463013
0.00461651
0.00457542
0.00451415
0.00443994
0.00436008
0.00428114
0.00420761
0.0041413
0.0040826
0.00402864
0.00397834
0.00393644
0.00391992
0.00454274
0.00452668
0.0045146
0.00448715
0.00443024