/*--------------------------------*- C++ -*----------------------------------*\
  =========                 |
  \\      /  F ield         | OpenFOAM: The Open Source CFD Toolbox
   \\    /   O peration     | Website:  https://openfoam.org
    \\  /    A nd           | Version:  12
     \\/     M anipulation  |
\*---------------------------------------------------------------------------*/
FoamFile
{
    format      ascii;
    class       volScalarField;
    location    "1050/air";
    object      epsilon;
}
// * * * * * * * * * * * * * * * * * * * * * * * * * * * * * * * * * * * * * //

dimensions      [0 2 -3 0 0 0 0];

internalField   nonuniform List<scalar> 
243000
(
0.835643
0.723928
0.713775
0.805835
0.912289
1.03276
1.15771
1.31083
1.46336
1.59994
1.71157
1.79979
1.90377
1.9801
1.99045
1.98153
1.96729
1.98649
2.01156
2.01311
1.97259
1.88289
1.74928
1.58638
1.41053
1.23205
1.06117
0.874859
0.672136
0.52987
0.486338
0.494091
0.463702
0.45078
0.43275
0.453779
0.497476
0.551134
0.611508
0.674854
0.737837
0.802412
0.870567
0.946039
1.02699
1.12567
1.22434
1.30844
1.35281
1.34891
1.29958
1.21548
1.1079
0.987726
0.863304
0.740069
0.623438
0.513566
0.404398
0.28933
0.544465
0.560484
0.540219
0.514741
0.483396
0.452248
0.426421
0.424296
0.452103
0.494994
0.548301
0.611697
0.686238
0.776693
0.884163
1.00995
1.13657
1.2444
1.30788
1.32112
1.28792
1.22149
1.13296
1.03133
0.922437
0.809789
0.697312
0.587508
0.480653
0.365554
0.681494
0.707063
0.697392
0.674944
0.639915
0.596101
0.545696
0.505747
0.492493
0.513228
0.573289
0.663464
0.782022
0.931632
1.10861
1.30754
1.49789
1.65211
1.73832
1.75243
1.70219
1.60822
1.48713
1.35092
1.20661
1.05808
0.909347
0.764739
0.628037
0.492375
0.835458
0.868031
0.865997
0.846314
0.809138
0.757703
0.695103
0.624618
0.572597
0.553893
0.577387
0.674343
0.834064
1.05292
1.31381
1.5982
1.85843
2.06006
2.16763
2.18081
2.11221
1.9901
1.8367
1.66703
1.48928
1.30736
1.12528
0.948335
0.781515
0.626871
1.00558
1.04612
1.0511
1.03343
0.993916
0.935755
0.861941
0.776988
0.687796
0.62836
0.614626
0.673232
0.85623
1.14491
1.5005
1.87977
2.21447
2.46293
2.58989
2.60034
2.51269
2.36269
2.17783
1.97628
1.76753
1.55528
1.34317
1.13725
0.942864
0.768293
1.19252
1.24153
1.25296
1.2364
1.19347
1.12761
1.04227
0.942187
0.830079
0.732625
0.679468
0.703071
0.866197
1.2151
1.67085
2.15149
2.56295
2.85664
3.00101
3.00723
2.90048
2.72339
2.50838
2.27658
2.03908
1.7995
1.56088
1.32954
1.11083
0.915721
1.39734
1.45448
1.47099
1.45421
1.40639
1.33122
1.23293
1.11697
0.989705
0.859715
0.768296
0.75507
0.880796
1.27303
1.82797
2.41297
2.90145
3.23815
3.39788
3.39898
3.27363
3.07071
2.82707
2.56675
2.3026
2.03838
1.77661
1.52322
1.2835
1.06805
1.62069
1.68455
1.70458
1.68621
1.63199
1.54593
1.43296
1.29934
1.15264
0.998145
0.873959
0.825575
0.92348
1.33055
1.97591
2.664
3.22791
3.60496
3.77811
3.7737
3.63077
3.40358
3.13314
2.8462
2.55747
2.27097
1.98897
1.71657
1.45886
1.22647
1.86314
1.93092
1.95239
1.93113
1.8695
1.77142
1.6423
1.4893
1.32093
1.14548
0.99148
0.911315
0.985417
1.39313
2.11806
2.90427
3.54032
3.95495
4.13984
4.12989
3.97064
3.72123
3.4262
3.11486
2.80353
2.49687
2.19712
1.90828
1.63522
1.38838
2.12538
2.19373
2.21366
2.18786
2.11796
2.00726
1.86126
1.68769
1.49622
1.29957
1.11819
1.01004
1.06327
1.46432
2.25704
3.13332
3.83648
4.28631
4.48162
4.46645
4.29253
4.02317
3.70616
3.37282
3.04091
2.71598
2.40057
2.09748
1.81129
1.55201
2.40651
2.47138
2.48719
2.45542
2.37657
2.25306
2.08998
1.89528
1.67971
1.45806
1.25216
1.11992
1.15467
1.54619
2.39446
3.35055
4.11452
4.59692
4.8019
4.78249
4.59583
4.30913
3.9729
3.62012
3.26974
2.9285
2.5993
2.28378
1.9863
1.71622
2.70754
2.76439
2.77254
2.73312
2.64476
2.50838
2.32833
2.11247
1.87232
1.62425
1.39395
1.23984
1.25785
1.63954
2.53096
3.55499
4.37251
4.8847
5.0991
5.07687
4.87984
4.57863
4.22613
3.85667
3.4902
3.13462
2.79331
2.46703
2.15984
1.88023
3.02968
3.07438
3.07158
3.02184
2.92278
2.77327
2.57638
2.33955
2.07473
1.79972
1.5448
1.36956
1.37146
1.74419
2.66628
3.74521
4.60854
5.14756
5.37153
5.34837
5.14368
4.83101
4.46539
4.08222
3.70222
3.33434
2.9826
2.64717
2.33175
2.04379
3.37574
3.40418
3.38712
3.32403
3.212
3.04862
2.83477
2.57704
2.28755
1.9855
1.70579
1.50925
1.49462
1.85916
2.79933
3.91946
4.82055
5.38361
5.6175
5.59565
5.3864
5.06558
4.69012
4.29636
3.90555
3.52767
3.16733
2.82454
2.50232
2.20704
3.75092
3.7578
3.72253
3.64277
3.51525
3.33629
3.1048
2.82587
2.51143
2.18235
1.87753
1.65891
1.6266
1.98304
2.92852
4.0757
5.00643
5.591
5.83531
5.81728
5.60676
5.28145
4.89955
4.49854
4.10001
3.7147
3.34769
2.99926
2.67158
2.37025
4.15965
4.1396
4.08218
3.98214
3.83642
3.63959
3.38905
3.08796
2.74772
2.39145
2.0607
1.81854
1.76651
2.11396
3.05197
4.21195
5.16416
5.76779
6.02342
6.0117
5.80343
5.47738
5.09291
4.68826
4.2854
3.89543
3.52387
3.17151
2.83985
2.53428
4.59478
4.55525
4.47303
4.34828
4.18173
3.96423
3.69231
3.36708
2.9992
2.61588
2.25683
1.98832
1.91357
2.24993
3.16795
4.32647
5.29188
5.91196
6.18032
6.17739
5.97518
5.65262
5.26975
4.86512
4.46133
4.06969
3.69594
3.34152
3.0074
2.69928
5.05255
4.99204
4.8929
4.75135
4.56287
4.32062
4.02367
3.67088
3.27166
2.8649
2.46891
2.16881
2.06726
2.38903
3.27485
4.41793
5.38806
6.022
6.30446
6.31373
6.12157
5.80684
5.42935
5.02841
4.62711
4.23692
3.86361
3.50913
3.17442
2.86535
5.53105
5.44651
5.3289
5.17328
4.97326
4.71931
4.40223
4.01694
3.57803
3.13463
2.69761
2.36054
2.22841
2.53009
3.37155
4.48542
5.45059
6.09606
6.39553
6.41996
6.24208
5.9392
5.57112
5.17754
4.78202
4.39655
4.02656
3.67431
3.34107
3.03269
6.02724
5.91638
5.77874
5.60875
5.39883
5.13729
4.81011
4.40908
3.95586
3.45106
2.95331
2.5689
2.40574
2.67411
3.45791
4.5284
5.48052
6.13344
6.45203
6.49481
6.33561
6.04897
5.69447
5.31209
4.92582
4.54821
4.18462
3.83723
3.5076
3.20178
6.53709
6.3992
6.24141
6.05758
5.83928
5.57437
5.24415
4.84896
4.36203
3.80674
3.24941
2.81004
2.60638
2.8226
3.53406
4.54762
5.48179
6.13893
6.47273
6.53699
6.40094
6.13549
5.79914
5.43199
5.05849
4.69195
4.33797
3.99839
3.6748
3.37365
7.05694
6.8935
6.71736
6.52323
6.30164
6.04562
5.73307
5.31402
4.7865
4.18389
3.57315
3.07849
2.82427
2.97394
3.59878
4.54203
5.44248
6.10042
6.45385
6.54267
6.43469
6.19575
5.88256
5.5355
5.17933
4.82782
4.487
4.15852
3.84382
3.55001
7.5858
7.40202
7.21366
7.02586
6.82146
6.56385
6.2188
5.76807
5.20796
4.56575
3.91016
3.36327
3.05122
3.12304
3.64763
4.50385
5.35883
6.01082
6.38284
6.50059
6.42338
6.21714
5.93634
5.61729
5.28539
4.95458
4.6319
4.3189
4.01685
3.73385
8.12535
7.94405
7.7676
7.56513
7.32526
7.02978
6.6539
6.17712
5.59084
4.92437
4.24108
3.65293
3.28227
3.2669
3.68022
4.43231
5.22572
5.86149
6.24754
6.39655
6.35762
6.19041
5.9446
5.66172
5.36356
5.06318
4.76742
4.47782
4.19523
3.92836
8.63485
8.43044
8.21351
7.97429
7.70169
7.37598
6.97707
6.4853
5.89215
5.24463
4.58366
3.99094
3.5892
3.50417
3.81978
4.45513
5.16726
5.76864
6.16148
6.33955
6.33941
6.20541
5.98656
5.72008
5.43079
5.1444
4.88021
4.6236
4.37073
4.1306
8.95611
8.68011
8.41681
8.16386
7.90606
7.6224
7.28745
6.87367
6.36352
5.77601
5.14932
4.5637
4.13736
3.98952
4.21437
4.73765
5.35756
5.90496
6.28009
6.46556
6.48797
6.37747
6.17616
5.91969
5.6339
5.34182
5.06003
4.78772
4.52665
4.30866
9.68994
9.39413
9.10951
8.84463
8.59634
8.34971
8.07885
7.75062
7.33764
6.83986
6.28244
5.73795
5.31552
5.12557
5.26504
5.67349
6.17379
6.62739
6.94321
7.09682
7.10484
6.98698
6.77849
6.511
6.20969
5.89637
5.58624
5.28392
4.99251
4.73326
11.3273
11.0426
10.8033
10.6341
10.5187
10.4312
10.3375
10.1974
9.97784
9.66882
9.26686
8.84415
8.4918
8.3062
8.3608
8.6186
8.93102
9.20817
9.37776
9.42171
9.34545
9.16294
8.89972
8.5791
8.22419
7.8534
7.47207
7.08531
6.70494
6.35764
18.2596
18.0973
18.2109
18.4846
18.7109
18.8715
18.9686
18.9962
18.9501
18.8253
18.5317
18.2223
17.9385
17.7459
17.6482
17.6656
17.6912
17.7294
17.7333
17.7164
17.6732
17.6034
17.5073
17.393
17.2657
17.1266
16.8598
16.4656
16.0402
15.6094
1.72126
2.62252
3.16602
3.56814
3.82895
4.00495
4.12464
4.20677
4.2657
4.31713
4.36876
4.44553
4.55061
4.69497
4.86057
5.0399
5.16736
5.1862
5.05862
4.78921
4.38755
3.87233
3.27236
2.64029
2.03224
1.48665
1.04361
0.731647
0.574878
0.560549
1.86651
2.40663
2.60166
2.72332
2.74917
2.68621
2.58859
2.48737
2.39732
2.32905
2.28965
2.28983
2.33613
2.43425
2.57792
2.74983
2.90398
2.99013
2.98629
2.89655
2.72198
2.47542
2.15621
1.79551
1.42732
1.08218
0.778371
0.551682
0.421882
0.369753
1.55311
2.12644
2.2852
2.38736
2.41626
2.37238
2.30059
2.21787
2.12651
2.05215
2.00626
2.00186
2.0457
2.14567
2.2964
2.47964
2.64701
2.75055
2.77035
2.71445
2.58108
2.38684
2.11921
1.80391
1.4759
1.15474
0.857617
0.618674
0.475814
0.388976
1.14829
1.71347
1.87908
1.97638
2.01284
2.00652
1.98704
1.96617
1.93832
1.91318
1.9003
1.92286
1.9921
2.11871
2.29615
2.50338
2.68715
2.80173
2.83183
2.78547
2.66226
2.47978
2.2302
1.93294
1.61505
1.29434
0.987985
0.728369
0.56095
0.447746
0.933985
1.35175
1.49352
1.58181
1.6177
1.62624
1.63553
1.65221
1.68046
1.72464
1.78127
1.8591
1.97708
2.14848
2.36538
2.60285
2.80516
2.93087
2.96816
2.92473
2.80242
2.61985
2.3744
2.08296
1.76778
1.44379
1.12768
0.850191
0.657806
0.524157
0.815681
1.10987
1.23295
1.31063
1.34639
1.36033
1.37143
1.38914
1.4234
1.49953
1.61902
1.77359
1.95978
2.19039
2.45467
2.72597
2.94811
3.08522
3.12887
3.08625
2.96112
2.77328
2.52563
2.23447
1.91909
1.59153
1.26767
0.976105
0.76149
0.610074
0.783802
1.00277
1.104
1.16891
1.19839
1.20885
1.21364
1.22389
1.25163
1.31608
1.44971
1.66712
1.93526
2.23391
2.55002
2.85654
3.09907
3.24792
3.29783
3.25541
3.12606
2.93038
2.67714
2.38309
2.06584
1.73502
1.40547
1.1036
0.87001
0.702123
0.876462
1.01995
1.086
1.1332
1.15242
1.15141
1.14023
1.13467
1.14763
1.19855
1.32026
1.56465
1.90818
2.27779
2.64695
2.98845
3.25139
3.41218
3.46848
3.42619
3.29213
3.08744
2.82674
2.5279
2.20744
1.87407
1.54
1.23047
0.98205
0.799063
1.07551
1.20016
1.23081
1.23342
1.21108
1.17642
1.14183
1.11021
1.0995
1.13064
1.23735
1.4811
1.88405
2.32326
2.74407
3.11916
3.40217
3.57478
3.63769
3.59557
3.45634
3.24251
2.97356
2.66876
2.34417
2.00817
1.67108
1.35613
1.09578
0.901054
1.33424
1.43756
1.47436
1.44901
1.38176
1.29691
1.21146
1.14217
1.1003
1.10463
1.19357
1.43152
1.8702
2.37231
2.84104
3.24757
3.54997
3.7341
3.80351
3.76151
3.6168
3.39414
3.11677
2.8055
2.47647
2.13785
1.79893
1.48026
1.21065
1.00604
1.6753
1.75902
1.7765
1.72737
1.62461
1.49065
1.35038
1.22928
1.14525
1.11497
1.18001
1.41064
1.86809
2.42634
2.93782
3.37315
3.69396
3.88914
3.96439
3.92215
3.77186
3.5408
3.25533
2.9378
2.60489
2.26371
1.92389
1.60278
1.32633
1.11306
1.99623
2.06506
2.09205
2.03074
1.90408
1.73479
1.54512
1.36732
1.23039
1.15959
1.19465
1.41088
1.88476
2.48678
3.03459
3.49567
3.83364
4.03911
4.11894
4.07575
3.91974
3.68085
3.38809
3.06504
2.7286
2.38585
2.04622
1.72405
1.44261
1.22211
2.2899
2.33852
2.36117
2.31296
2.18455
1.9943
1.77092
1.54478
1.35422
1.23574
1.23779
1.4404
1.9208
2.55418
3.13162
3.61521
3.96881
4.18323
4.26606
4.2208
4.05892
3.81254
3.51385
3.18654
2.84767
2.50434
2.1657
1.84384
1.55957
1.33316
2.55907
2.58788
2.60311
2.55973
2.44629
2.25037
2.00677
1.74544
1.5072
1.33907
1.30449
1.49518
1.97676
2.62876
3.22943
3.73223
4.09946
4.32094
4.40493
4.35624
4.18822
3.93454
3.63173
3.30237
2.96187
2.61881
2.28223
1.96212
1.67721
1.44635
2.81743
2.83002
2.83617
2.79324
2.68627
2.49848
2.24413
1.95781
1.68154
1.46721
1.39495
1.56898
2.04729
2.71042
3.3289
3.84781
4.22608
4.45223
4.53529
4.48163
4.30686
4.04719
3.74146
3.41151
3.07028
2.72938
2.39615
2.07923
1.79551
1.56191
3.07951
3.07944
3.07685
3.03088
2.92565
2.74371
2.48361
2.17929
1.87124
1.6174
1.50837
1.66065
2.1322
2.79999
3.43179
3.96386
4.35023
4.57808
4.6579
4.59734
4.41483
4.15065
3.84258
3.51287
3.17434
2.83703
2.50806
2.19555
1.91432
1.68021
3.35616
3.34692
3.33654
3.28601
3.17902
2.99672
2.73317
2.41381
2.07781
1.78902
1.64434
1.76971
2.23248
2.89982
3.54137
4.08386
4.4751
4.70118
4.775
4.70515
4.5136
4.2451
3.93796
3.61005
3.27499
2.94233
2.61872
2.31159
2.03404
1.80174
3.65504
3.6408
3.62409
3.56869
3.45853
3.27318
3.00525
2.67096
2.30811
1.98632
1.80582
1.89967
2.35176
3.01492
3.66359
4.21395
4.60667
4.82699
4.89183
4.8084
4.60977
4.33885
4.03055
3.70418
3.37339
3.04653
2.72945
2.42869
2.1561
1.92765
3.98428
3.9661
3.94561
3.88756
3.77487
3.58642
3.31443
2.96506
2.57467
2.21872
2.00004
2.05893
2.49833
3.15505
3.80921
4.36544
4.75584
4.96574
5.01705
4.92347
4.71585
4.43662
4.12584
3.7999
3.47335
3.15296
2.84323
2.54981
2.28395
2.06009
4.35135
4.33061
4.30699
4.24778
4.13604
3.94962
3.67861
3.31633
2.89759
2.50378
2.24481
2.26476
2.68905
3.3387
3.99787
4.55915
4.94187
5.13857
5.1779
5.06671
4.84359
4.55156
4.23458
3.90818
3.58407
3.26915
2.96666
2.68089
2.4203
2.20182
4.76702
4.74531
4.7197
4.66132
4.55527
4.37996
4.11948
3.75246
3.3101
2.87658
2.57616
2.5514
2.95692
3.60124
4.26674
4.83087
5.20474
5.38519
5.40303
5.26648
5.02093
4.70817
4.37738
4.04375
3.71788
3.40506
3.10706
2.82682
2.57134
2.35807
5.25251
5.2335
5.20966
5.15648
5.0651
4.92211
4.6818
4.32331
3.86796
3.40038
3.05938
2.98957
3.36851
4.01363
4.68964
5.2593
5.61547
5.77481
5.75982
5.58461
5.30164
4.95382
4.59507
4.24093
3.90147
3.58151
3.28108
3.00161
2.74812
2.53931
5.85569
5.84858
5.8351
5.80015
5.74573
5.64981
5.45392
5.13042
4.68792
4.20492
3.83261
3.72657
4.07471
4.72814
5.42339
5.99718
6.32902
6.45881
6.3914
6.15284
5.80321
5.39211
4.97719
4.57417
4.19483
3.84654
3.52685
3.23472
2.9737
2.76506
6.69334
6.71314
6.7285
6.74385
6.76542
6.73935
6.62761
6.39357
6.02301
5.57549
5.20496
5.08569
5.42831
6.09789
6.83014
7.40216
7.70826
7.78807
7.633
7.28339
6.81546
6.28505
5.74995
5.23723
4.76184
4.33168
3.94681
3.60572
3.31176
3.08831
8.03422
8.10508
8.20179
8.33247
8.46094
8.57878
8.64937
8.61606
8.44129
8.14641
7.86811
7.80768
8.19945
8.9339
9.74661
10.3353
10.5948
10.5566
10.2022
9.63639
8.93681
8.1661
7.37889
6.63137
5.94806
5.33734
4.80085
4.33787
3.94848
3.66768
10.5
10.6903
10.9539
11.2542
11.6112
12.0303
12.4824
12.8813
13.14
13.2257
13.2398
13.4348
14.0001
14.8644
15.7904
16.392
16.5475
16.2819
15.5882
14.5869
13.4009
12.1185
10.8297
9.61835
8.51764
7.54053
6.68621
5.95496
5.34216
4.90434
15.5114
15.9548
16.4769
17.1047
17.8915
18.8661
19.9927
21.1272
22.1271
22.9342
23.6132
24.4352
25.4696
26.6149
27.6748
28.2516
28.2255
27.5861
26.3333
24.6138
22.5909
20.4307
18.272
16.2161
14.325
12.632
11.1468
9.85805
8.75178
7.92505
25.8801
26.5564
27.3519
28.4344
29.8932
31.7125
33.7669
35.7958
37.6192
39.2072
40.7175
42.4653
44.3431
45.9607
47.1988
47.7693
47.6377
46.7084
44.9697
42.5672
39.6621
36.4911
33.2506
30.082
27.0734
24.2904
21.7711
19.4789
17.4049
15.7659
40.5329
40.7928
42.1374
44.2485
46.5854
49.1089
51.5724
53.5574
55.1994
56.6666
58.3396
60.6475
63.0978
65.2618
66.7125
67.3332
67.4012
66.6969
65.2393
63.1071
60.3718
57.2605
53.9357
50.5937
47.3256
44.1857
41.1581
38.0757
35.07
32.3335
44.5667
44.8042
46.3552
48.5594
50.7596
52.4683
53.6062
54.3239
54.8278
55.4014
56.3277
57.8639
59.8051
61.8323
63.0942
63.4206
63.5318
63.0297
62.0509
60.6478
58.9682
57.1147
55.2408
53.4761
51.9167
50.5144
49.0745
47.5241
45.9133
44.0854
4.24968
5.62482
6.51593
7.11996
7.48405
7.67803
7.76177
7.78505
7.78216
7.78516
7.806
7.87214
7.96546
8.09007
8.19358
8.25559
8.17667
7.92432
7.55097
7.11772
6.5548
5.77754
4.7707
3.63514
2.52466
1.57645
0.86948
0.679246
0.131789
0.65949
3.35205
3.78444
4.14371
4.37563
4.47688
4.48147
4.42087
4.32663
4.22366
4.13008
4.057
4.01385
4.00697
4.03854
4.10161
4.17015
4.19493
4.1504
4.07502
4.01801
3.89519
3.61703
3.15415
2.56341
1.91547
1.29897
0.764647
0.440101
0.300331
0.360592
3.12429
3.4741
3.77286
3.97417
4.06529
4.06929
4.00857
3.91065
3.80018
3.69484
3.60591
3.54231
3.51091
3.51972
3.56587
3.63038
3.66623
3.65051
3.62122
3.61596
3.56872
3.3942
3.051
2.55911
2.00271
1.43369
0.90657
0.545795
0.378428
0.343604
2.89379
3.26064
3.56701
3.78135
3.89092
3.91686
3.8789
3.79999
3.70432
3.61099
3.53247
3.47683
3.45127
3.46521
3.51765
3.59008
3.63401
3.63138
3.61712
3.62002
3.58523
3.43751
3.13489
2.69548
2.17641
1.62064
1.08265
0.682034
0.464806
0.371971
2.52081
2.91772
3.26562
3.51666
3.66081
3.72109
3.71567
3.67045
3.60982
3.5506
3.50477
3.47955
3.48137
3.51925
3.59235
3.6809
3.73632
3.74759
3.74463
3.74635
3.70624
3.56185
3.27543
2.85957
2.36001
1.80985
1.26269
0.827563
0.564751
0.42799
2.05356
2.43272
2.79934
3.0792
3.2585
3.36122
3.40792
3.42399
3.43112
3.4345
3.4477
3.47599
3.52494
3.60209
3.70547
3.81598
3.88684
3.91493
3.92391
3.92295
3.87093
3.71743
3.43274
3.02703
2.5384
1.99204
1.43846
0.976078
0.676318
0.502447
1.62437
1.95962
2.30374
2.58233
2.77561
2.9049
2.99424
3.07064
3.14754
3.23764
3.34144
3.44766
3.56125
3.69036
3.83122
3.96837
4.0586
4.10689
4.12929
4.12601
4.05931
3.88983
3.59774
3.19366
2.71012
2.16638
1.6089
1.12578
0.794417
0.590645
1.31034
1.58204
1.875
2.13033
2.32477
2.4722
2.59107
2.69997
2.82071
2.9849
3.18773
3.39447
3.58765
3.77754
3.96101
4.12854
4.24204
4.31381
4.35084
4.34546
4.26226
4.0725
3.76685
3.35841
2.87543
2.33359
1.77475
1.27676
0.918009
0.689498
1.12235
1.33589
1.56922
1.78493
1.96238
2.10898
2.23808
2.36901
2.52276
2.72853
3.01064
3.32648
3.60842
3.86343
4.09252
4.29344
4.4344
4.53215
4.58423
4.57601
4.47437
4.26125
3.93788
3.52083
3.03528
2.49512
1.93669
1.42907
1.04736
0.797684
1.04369
1.2182
1.40037
1.56948
1.71432
1.84089
1.96275
2.09813
2.27089
2.50892
2.83951
3.25648
3.62687
3.94981
4.2261
4.46303
4.63566
4.76088
4.82732
4.81409
4.69138
4.45263
4.10883
3.68025
3.19091
2.65225
2.09597
1.58226
1.18215
0.91446
1.04956
1.19826
1.34747
1.47697
1.58289
1.67729
1.77601
1.89985
2.07594
2.3333
2.69816
3.1975
3.64904
4.03936
4.36349
4.63908
4.84697
4.99987
5.07796
5.05618
4.9095
4.64335
4.27758
3.83682
3.34272
2.80581
2.25318
1.73608
1.32221
1.03928
1.1386
1.28274
1.40957
1.49918
1.55993
1.61447
1.67649
1.77654
1.94192
2.20502
2.6029
3.15455
3.68023
4.13528
4.50749
4.82447
5.07007
5.24887
5.33399
5.29889
5.12516
4.83043
4.44187
3.98903
3.49048
2.95616
2.40863
1.89088
1.46722
1.17151
1.29476
1.44252
1.55627
1.62173
1.64017
1.64228
1.65821
1.72436
1.86865
2.13239
2.54564
3.13158
3.72581
4.24131
4.66198
5.02308
5.30722
5.50765
5.59368
5.53929
5.33544
5.01137
4.60043
4.13641
3.63416
3.10342
2.56242
2.04703
1.61731
1.31108
1.53258
1.66239
1.76956
1.81345
1.79617
1.7507
1.71435
1.72945
1.84536
2.10001
2.52021
3.12781
3.78878
4.36195
4.83215
5.24001
5.56126
5.7766
5.85596
5.77557
5.53874
5.18446
4.7534
4.27897
3.77413
3.24791
2.71491
2.20494
1.77286
1.45844
1.84666
1.94096
2.02916
2.05235
2.01136
1.92378
1.83625
1.80234
1.87639
2.10262
2.52264
3.15797
3.87471
4.50349
5.02514
5.48201
5.83636
6.05778
6.12182
6.00846
5.7358
5.35097
4.90172
4.41767
3.91147
3.39072
2.86701
2.3651
1.93421
1.61414
2.23539
2.28504
2.34265
2.33911
2.27479
2.15188
2.01599
1.93559
1.96335
2.16655
2.57905
3.23415
3.99176
4.67492
5.25102
5.75855
6.13928
6.35698
6.3961
6.2426
5.93076
5.51571
5.04856
4.55515
4.04849
3.53399
3.02042
2.5286
2.10173
1.77919
2.69574
2.70072
2.71764
2.68313
2.5891
2.4329
2.25223
2.12767
2.1063
2.27912
2.69285
3.35875
4.15019
4.88941
5.52454
6.0837
6.4819
6.68548
6.68941
6.48877
6.1341
5.68738
5.20109
4.69771
4.19052
3.68196
3.17845
2.69763
2.27695
1.95554
3.2292
3.19389
3.16586
3.09406
2.96484
2.7733
2.55123
2.38132
2.31036
2.44679
2.86016
3.53723
4.36623
5.16746
5.86831
6.47961
6.88516
7.06557
7.02202
6.76717
6.36484
5.88202
5.37333
4.86037
4.34932
3.84329
3.3478
2.8772
2.46513
2.14698
3.83754
3.7693
3.69631
3.58392
3.41658
3.18782
2.92857
2.70745
2.58912
2.68785
3.09998
3.79382
4.66856
5.54238
6.31855
6.98285
7.38605
7.53474
7.43205
7.11364
6.65539
6.12965
5.59102
5.06207
4.54444
4.03754
3.54557
3.0811
2.67228
2.35905
4.5293
4.42996
4.32258
4.1711
3.96671
3.70187
3.4056
3.13584
2.97439
3.0382
3.4507
4.17453
5.1077
6.07039
6.93609
7.65604
8.04976
8.15927
7.98569
7.59074
7.06387
6.48212
5.90056
5.34077
4.80434
4.28731
3.79051
3.32334
2.91104
2.60162
5.34139
5.21316
5.07285
4.88785
4.65338
4.36179
4.03359
3.72459
3.52745
3.56438
3.9899
4.76323
5.77462
6.85053
7.82792
8.60981
8.99343
9.0568
8.79942
8.31078
7.69768
7.03692
6.39144
5.77561
5.19277
4.64046
4.11828
3.63283
3.20764
2.89391
6.33063
6.17471
6.0032
5.79506
5.54574
5.24614
4.90724
4.58018
4.36456
4.39524
4.86069
5.71787
6.83876
8.06428
9.19021
10.0485
10.4282
10.4407
10.0864
9.48293
8.76533
7.9931
7.22721
6.49934
5.81929
5.18686
4.60129
4.06698
3.60458
3.27039
7.59609
7.41465
7.22037
7.00718
6.77131
6.50195
6.19902
5.90234
5.70988
5.78272
6.33697
7.33895
8.64003
10.0541
11.3927
12.3548
12.745
12.7078
12.2518
11.4949
10.5838
9.6002
8.62019
7.69367
6.83871
6.05704
5.34928
4.71726
4.17823
3.79578
9.31725
9.12505
8.93259
8.75159
8.58216
8.41361
8.23582
8.06918
7.99599
8.21518
8.94943
10.1898
11.7657
13.476
15.1293
16.233
16.6582
16.5361
15.8844
14.8485
13.6021
12.263
10.9278
9.6679
8.51535
7.48024
6.56216
5.75805
5.0779
4.60083
11.8548
11.6954
11.5631
11.4816
11.4719
11.5316
11.6387
11.7822
12.0306
12.5856
13.6559
15.2712
17.2347
19.3254
21.3724
22.6354
23.0639
22.7918
21.8428
20.3863
18.6356
16.7474
14.8494
13.0507
11.4051
9.93767
8.65221
7.54249
6.61315
5.96411
15.9556
15.9151
15.952
16.0885
16.4112
16.8991
17.533
18.2634
19.1223
20.2831
21.9055
24.0582
26.52
29.0307
31.4698
32.8391
33.2075
32.6992
31.3507
29.3435
26.9162
24.2729
21.5803
18.9884
16.5871
14.4317
12.5402
10.9065
9.53002
8.56436
23.0141
23.1983
23.5749
24.2004
25.0632
26.2005
27.5943
29.1342
30.8103
32.7667
35.1037
37.9033
40.9156
43.8031
46.4417
47.7151
47.9113
47.0828
45.3217
42.7771
39.6754
36.2635
32.7307
29.2309
25.8983
22.8323
20.0907
17.6631
15.5455
14.0023
34.7293
35.0179
35.8258
37.1195
38.7715
40.6902
42.7836
44.9322
47.1647
49.6422
52.5215
55.8418
59.3006
62.3301
64.668
65.3287
65.0715
63.8341
61.8319
59.1349
55.8875
52.3013
48.5552
44.7632
41.0203
37.4012
34.0095
30.8077
27.799
25.3409
48.0406
48.2879
49.6476
51.6494
53.839
55.9821
57.9543
59.719
61.5176
63.6907
66.498
69.8048
73.3105
75.9394
77.1752
76.3456
75.0966
73.2039
71.07
68.6805
66.1267
63.5034
60.9511
58.5552
56.3058
54.1013
51.6683
48.9829
46.0755
43.0468
48.7329
49.7073
51.6727
54.0836
56.3847
58.2079
59.4929
60.4409
61.3942
62.7943
64.8362
67.3929
70.0302
71.7672
71.8037
69.8048
67.7998
65.3509
62.9778
60.6924
58.6606
56.8993
55.472
54.4117
53.6949
53.1733
52.621
51.8523
50.7919
49.3616
6.47725
8.71488
10.045
10.9589
11.5113
11.7997
11.9162
11.9358
11.9053
11.861
11.7987
11.7379
11.6422
11.5336
11.3615
11.1206
10.6872
10.1539
9.80677
9.71081
9.45971
8.65697
7.19778
5.33624
3.43912
1.87624
0.783691
0.147744
0.133502
0.709155
4.21106
4.96869
5.51748
5.90896
6.13281
6.22152
6.21866
6.16066
6.07448
5.97319
5.86286
5.74545
5.63442
5.53203
5.45058
5.35644
5.20574
5.06337
5.10081
5.34455
5.51232
5.30842
4.66725
3.73708
2.67367
1.64469
0.752611
0.280167
0.232378
0.358581
3.79064
4.37959
4.85423
5.19879
5.41146
5.51042
5.52375
5.47709
5.39151
5.27723
5.14302
4.99627
4.85608
4.73566
4.64803
4.56826
4.45775
4.36265
4.44174
4.70934
4.93557
4.86245
4.42328
3.67062
2.7616
1.83105
0.955371
0.411474
0.267627
0.324478
3.47472
4.00242
4.51259
4.90901
5.17495
5.3217
5.37525
5.35982
5.29272
5.18239
5.04633
4.89416
4.74964
4.62996
4.54799
4.48052
4.38778
4.32075
4.41938
4.67784
4.88942
4.84426
4.45461
3.79199
2.96053
2.06155
1.18049
0.559985
0.32137
0.331496
3.13685
3.61609
4.17778
4.65355
4.98711
5.1878
5.28522
5.30699
5.27091
5.18589
5.06449
4.92686
4.79888
4.69611
4.63135
4.58125
4.50823
4.4766
4.59841
4.84185
5.02442
4.97619
4.61066
3.97605
3.17813
2.29355
1.40507
0.724127
0.39985
0.360338
2.76131
3.2018
3.8053
4.34697
4.7431
4.99682
5.13951
5.2026
5.20892
5.16386
5.08044
4.98014
4.88723
4.81543
4.77717
4.75074
4.70651
4.72112
4.87324
5.10509
5.25248
5.17664
4.80754
4.18286
3.39847
2.51996
1.62311
0.899233
0.501558
0.413082
2.31886
2.71796
3.34129
3.93137
4.38371
4.69411
4.89197
5.00764
5.07058
5.0863
5.06429
5.02169
4.98021
4.95186
4.94839
4.95367
4.94952
5.02112
5.21053
5.43298
5.54113
5.42223
5.03021
4.40095
3.61854
2.74005
1.83534
1.08032
0.623615
0.486308
1.90907
2.2538
2.84012
3.42675
3.90128
4.25403
4.51213
4.69938
4.84665
4.94625
5.00845
5.04406
5.06795
5.09359
5.13306
5.17881
5.22744
5.36723
5.59715
5.80948
5.87349
5.70013
5.27102
4.62564
3.83733
2.95508
2.04398
1.26433
0.761873
0.577921
1.59096
1.86344
2.37633
2.9221
3.39263
3.7673
4.06557
4.31043
4.54154
4.74991
4.91849
5.04947
5.15025
5.2389
5.32829
5.42485
5.54073
5.75763
6.02564
6.22469
6.23746
6.00023
5.52368
4.85347
4.05437
3.16688
2.25128
1.45106
0.913401
0.686557
1.35991
1.57001
1.99793
2.47788
2.91866
3.29471
3.61985
3.91477
4.21099
4.51552
4.80603
5.04265
5.23036
5.38959
5.53574
5.69503
5.89315
6.19223
6.4967
6.67193
6.62161
6.31332
5.78219
5.08158
4.2692
3.37679
2.45894
1.64241
1.07642
0.811109
1.20999
1.36914
1.71115
2.11509
2.51109
2.8742
3.21341
3.5461
3.89948
4.27953
4.68711
5.03469
5.31553
5.55003
5.76005
5.9953
6.29116
6.67467
7.00287
7.14134
7.01596
6.63084
6.04073
5.30827
4.48138
3.58543
2.66788
1.83992
1.25037
0.950863
1.13796
1.26172
1.53864
1.86509
2.20415
2.53823
2.87427
3.2296
3.6276
4.07432
4.58147
5.03232
5.41279
5.72706
6.00909
6.33468
6.74119
7.20275
7.53567
7.62219
7.41093
6.94546
6.29551
5.5316
4.6905
3.79303
2.87881
2.04488
1.4356
1.10549
1.13817
1.2354
1.4645
1.73461
2.01514
2.30486
2.62073
2.98109
3.40902
3.9163
4.5023
5.05022
5.5309
5.92964
6.29358
6.72484
7.24919
7.77306
8.08933
8.10458
7.7988
7.25188
6.54515
5.75105
4.89723
4.00054
3.09275
2.25795
1.63268
1.27504
1.23361
1.30776
1.48408
1.70067
1.93599
2.17993
2.4612
2.8095
3.2568
3.80968
4.45162
5.0994
5.68048
6.16972
6.62772
7.17991
7.82061
8.38141
8.65664
8.58042
8.17583
7.54821
6.79154
5.96891
5.10468
4.21006
3.31067
2.47956
1.84243
1.46004
1.44056
1.4849
1.62529
1.78543
1.95103
2.14161
2.38821
2.71444
3.16458
3.74615
4.43391
5.19534
5.87518
6.46355
7.03026
7.71685
8.46115
9.02374
9.23472
9.05104
8.54559
7.84087
7.04016
6.19176
5.31799
4.42504
3.5347
2.71067
2.06593
1.66138
1.77179
1.77319
1.87093
1.97991
2.0861
2.21022
2.38659
2.68152
3.1258
3.72655
4.47536
5.34736
6.13306
6.83354
7.52642
8.35679
9.17946
9.71507
9.83175
9.52866
8.92183
8.1449
7.30283
6.42924
5.54526
4.65211
3.76967
2.95395
2.30463
1.88049
2.23318
2.18363
2.22377
2.27652
2.32255
2.37936
2.49358
2.73323
3.15144
3.78425
4.62191
5.57956
6.48023
7.31124
8.15073
9.12801
9.99224
10.4653
10.469
10.0403
9.33319
8.48635
7.59862
6.70833
5.8066
4.90648
4.02698
3.21707
2.56187
2.11976
2.83098
2.72252
2.69214
2.67807
2.66082
2.65098
2.69795
2.88862
3.30343
3.96929
4.8703
5.92077
6.95468
7.94195
8.95171
10.0709
10.9335
11.3179
11.1899
10.6351
9.82791
8.90514
7.97554
7.06772
6.15376
5.23075
4.33318
3.51309
2.84752
2.38494
3.56943
3.38712
3.28103
3.19553
3.11176
3.03805
3.018
3.15686
3.56383
4.27268
5.25384
6.41698
7.61378
8.79225
9.99945
11.2469
12.0662
12.3435
12.076
11.3966
10.4843
9.48362
8.53739
7.57994
6.61648
5.65001
4.71604
3.8654
3.17182
2.68412
4.4591
4.19528
4.00983
3.85154
3.70159
3.56566
3.48721
3.5766
3.98233
4.7453
5.83564
7.14278
8.54667
9.96237
11.3981
12.7518
13.4969
13.6603
13.2619
12.4634
11.4541
10.411
9.36159
8.29547
7.23459
6.18782
5.18823
4.28656
3.54907
3.03019
5.52805
5.18063
4.91599
4.68952
4.48138
4.29275
4.16813
4.2195
4.64252
5.48757
6.72338
8.22372
9.89448
11.6065
13.3071
14.7385
15.4026
15.4659
14.9769
14.0969
12.9639
11.7894
10.5331
9.27742
8.05736
6.88636
5.78598
4.80485
4.00316
3.44702
6.83243
6.40582
6.06967
5.78944
5.54406
5.32723
5.18013
5.22237
5.69633
6.66887
8.11107
9.87959
11.8819
13.9643
15.9763
17.464
18.0734
18.107
17.5893
16.5204
15.2138
13.7248
12.1625
10.6286
9.1738
7.81655
6.57247
5.4764
4.58537
3.98071
8.48401
7.98941
7.60255
7.29946
7.05778
6.86193
6.74013
6.83472
7.42006
8.59009
10.3224
12.4562
14.8773
17.4049
19.7968
21.3483
22.0103
22.0028
21.3203
19.9876
18.3498
16.4555
14.4787
12.558
10.7697
9.14044
7.68219
6.41838
5.39968
4.7226
10.6711
10.1616
9.76509
9.49507
9.3253
9.23572
9.23212
9.49433
10.2951
11.7639
13.8905
16.4994
19.4384
22.4776
25.3609
26.9838
27.593
27.4322
26.5014
24.8536
22.754
20.346
17.8385
15.4128
13.1692
11.1545
9.38084
7.86392
6.64824
5.85735
13.7809
13.3294
13.0276
12.8781
12.8769
13.0262
13.3071
13.906
15.0806
16.9739
19.5984
22.778
26.2989
29.8624
33.2448
34.7888
35.2283
34.7922
33.5252
31.4744
28.8786
25.8977
22.7698
19.7476
16.9312
14.3997
12.1798
10.2836
8.75467
7.77136
18.5201
18.2205
18.113
18.2413
18.6027
19.1465
19.8856
21.0166
22.7333
25.1626
28.3392
32.1211
36.1999
40.1699
43.8841
44.9987
45.0203
44.0614
42.3725
39.9824
36.9945
33.5603
29.8942
26.327
22.9255
19.8029
17.0225
14.6036
12.5956
11.2798
25.8876
25.7821
25.9837
26.5298
27.3707
28.4801
29.8758
31.6028
33.8888
36.8424
40.5021
44.7904
49.2517
53.3285
56.8424
56.6321
55.4229
53.5052
51.3126
48.7113
45.7835
42.605
39.2695
35.6816
32.0556
28.5844
25.3551
22.3916
19.7738
17.9056
36.1771
36.223
36.8492
37.8928
39.2054
40.7358
42.5131
44.6273
47.2888
50.631
54.5056
59.0748
63.5515
67.1589
69.2216
66.5641
63.8328
60.8438
58.1698
55.5187
52.9158
50.3857
47.9592
45.6288
43.2914
40.7142
37.8731
34.92
31.9712
29.4354
45.521
46.0914
47.3687
48.9893
50.6661
52.2951
53.9373
55.7752
58.127
61.2672
65.1475
69.4104
73.3453
75.6861
75.5387
70.4014
66.1858
62.1692
59.0158
56.4117
54.3166
52.6931
51.5249
50.7596
50.1941
49.5955
48.6728
47.2334
45.227
42.8013
44.4361
45.9441
48.0278
50.292
52.3777
54.1047
55.558
57.0339
58.9269
61.5271
64.8663
68.4963
71.544
72.5236
70.228
63.4714
58.4053
53.8502
50.3591
47.6409
45.8177
44.7242
44.3088
44.4703
45.0744
45.8453
46.4675
46.6722
46.3782
45.6253
9.74996
12.6934
14.1439
15.1957
15.8458
16.1741
16.2845
16.2673
16.1688
16.0162
15.7804
15.4758
15.058
14.5863
14.0243
13.3861
12.5537
11.9132
12.2779
13.5581
14.3867
13.7449
11.5581
8.50707
5.32398
2.66589
0.181828
0.143215
0.135355
0.696158
5.97315
6.77211
7.2177
7.58654
7.82601
7.93667
7.95173
7.90372
7.81455
7.68481
7.51689
7.30229
7.06794
6.80813
6.56232
6.27275
5.95216
5.78787
6.26883
7.30552
8.09108
8.00337
7.07549
5.65707
4.0385
2.41462
0.829937
0.198934
0.236786
0.353533
5.49329
5.98742
6.32817
6.59795
6.78648
6.89389
6.92996
6.90443
6.82325
6.68389
6.49262
6.25714
6.01199
5.77018
5.55985
5.33496
5.09009
5.00934
5.48292
6.39601
7.13821
7.17504
6.54002
5.43164