/*--------------------------------*- C++ -*----------------------------------*\
  =========                 |
  \\      /  F ield         | OpenFOAM: The Open Source CFD Toolbox
   \\    /   O peration     | Website:  https://openfoam.org
    \\  /    A nd           | Version:  12
     \\/     M anipulation  |
\*---------------------------------------------------------------------------*/
FoamFile
{
    format      ascii;
    class       volScalarField;
    location    "1050/air";
    object      k;
}
// * * * * * * * * * * * * * * * * * * * * * * * * * * * * * * * * * * * * * //

dimensions      [0 2 -2 0 0 0 0];

internalField   nonuniform List<scalar> 
243000
(
0.0288201
0.0255427
0.0239798
0.0256995
0.0270054
0.0290267
0.0309796
0.0330644
0.0349876
0.036592
0.0378041
0.0387013
0.0399472
0.0407774
0.0405909
0.0405224
0.0405648
0.0410854
0.0417681
0.0422337
0.0422106
0.0415508
0.0402485
0.0384286
0.036265
0.0338639
0.0313582
0.0282331
0.024275
0.0209042
0.0418231
0.0412216
0.0387001
0.0367321
0.0352288
0.0354213
0.0368203
0.0386353
0.0406844
0.042796
0.0448487
0.0469464
0.04905
0.0515667
0.0545661
0.058009
0.0615319
0.0646976
0.0667204
0.067334
0.0665655
0.064657
0.0618476
0.0583909
0.054485
0.0502522
0.0458542
0.0412485
0.0360443
0.0294227
0.0503735
0.0513678
0.0501448
0.0485665
0.0466096
0.0446016
0.0428381
0.0425604
0.0443118
0.0470203
0.0503217
0.0541325
0.0584498
0.0635073
0.069291
0.0757692
0.0820306
0.0872033
0.090209
0.0908759
0.0893965
0.0863355
0.0821385
0.0771657
0.0716437
0.065689
0.0594469
0.0530058
0.0463479
0.0386054
0.0585079
0.059976
0.0594457
0.0581866
0.0561857
0.0536183
0.0505722
0.0480022
0.0470603
0.048232
0.0518385
0.0571094
0.0637231
0.0716446
0.0805127
0.0899585
0.0985802
0.105328
0.109049
0.109714
0.10767
0.103718
0.0984758
0.0923872
0.0856983
0.0785194
0.0709695
0.0632084
0.0554074
0.0470972
0.0670234
0.068767
0.0686769
0.0676547
0.0656871
0.0629032
0.059414
0.0553348
0.052147
0.050883
0.0521785
0.0577237
0.0664644
0.0776678
0.0901088
0.102805
0.113809
0.12202
0.126339
0.12694
0.124337
0.119551
0.113361
0.106291
0.0986105
0.0904158
0.0818076
0.0729695
0.0641134
0.0553306
0.0758453
0.0778823
0.0781463
0.0772889
0.0753312
0.0723912
0.0685594
0.0639978
0.0589863
0.0554514
0.0544928
0.0577055
0.0675946
0.0820572
0.0983981
0.114519
0.127906
0.137451
0.14226
0.142743
0.139598
0.134043
0.126995
0.119058
0.110537
0.101511
0.0920549
0.0823707
0.0726685
0.0633737
0.0849841
0.0873089
0.0878606
0.0871038
0.0850989
0.081964
0.077801
0.0727607
0.0668907
0.0614948
0.0583539
0.0594826
0.0681028
0.085312
0.105655
0.125276
0.140989
0.151737
0.156949
0.157277
0.153618
0.147359
0.139538
0.130829
0.121582
0.111873
0.101749
0.0914148
0.0810678
0.0712472
0.0944656
0.0970359
0.0977846
0.0970575
0.0949397
0.0915496
0.0870105
0.0814889
0.0751928
0.0684406
0.0634031
0.0624658
0.0689388
0.087958
0.112128
0.135206
0.15314
0.164968
0.170504
0.170661
0.166528
0.159635
0.151116
0.141717
0.131837
0.121559
0.110915
0.100089
0.0892683
0.0789512
0.104292
0.107026
0.107888
0.107129
0.10484
0.101144
0.0961783
0.0901251
0.083225
0.0756129
0.0691354
0.06637
0.0712131
0.0905628
0.118058
0.144408
0.164419
0.177208
0.183005
0.182989
0.178431
0.17097
0.161831
0.151819
0.141387
0.13063
0.11958
0.108386
0.0972259
0.0865835
0.114461
0.117233
0.118114
0.117272
0.114783
0.110754
0.105328
0.0987032
0.0911361
0.0828921
0.0752315
0.0709489
0.07443
0.0933765
0.123625
0.15295
0.174863
0.188507
0.194513
0.194334
0.189399
0.181446
0.171766
0.161223
0.150309
0.139146
0.127776
0.116308
0.104911
0.0940484
0.124976
0.127652
0.128438
0.127454
0.124743
0.120379
0.114492
0.107282
0.099027
0.0901577
0.0815251
0.0760296
0.0783631
0.0965451
0.128959
0.16088
0.184485
0.198901
0.205083
0.204756
0.199501
0.191129
0.180995
0.169999
0.15867
0.147164
0.135539
0.123869
0.112311
0.101301
0.135778
0.138218
0.13882
0.13765
0.134705
0.130017
0.123688
0.115907
0.106964
0.0973454
0.087921
0.0814827
0.082849
0.100142
0.13414
0.168229
0.193295
0.208403
0.214746
0.214307
0.20879
0.200078
0.189572
0.178203
0.166526
0.154735
0.142912
0.131093
0.119432
0.108327
0.146887
0.148946
0.149251
0.147847
0.14466
0.139664
0.132922
0.124599
0.114992
0.104609
0.0944456
0.0872265
0.0877648
0.104181
0.139202
0.175006
0.201296
0.217016
0.22352
0.223013
0.217302
0.208329
0.197537
0.185876
0.173921
0.161905
0.14993
0.138009
0.126288
0.115123
0.158327
0.15989
0.159804
0.158088
0.154631
0.149333
0.142202
0.133375
0.123136
0.112015
0.101149
0.0932311
0.0930208
0.108629
0.144146
0.181202
0.20848
0.224736
0.231413
0.230894
0.225062
0.21591
0.204916
0.193045
0.180886
0.168702
0.15662
0.144642
0.1329
0.121706
0.170173
0.171136
0.170575
0.168464
0.164674
0.159062
0.151558
0.142255
0.131419
0.119599
0.108066
0.0994858
0.0985588
0.113425
0.148941
0.186792
0.21483
0.231556
0.238423
0.237953
0.232082
0.222837
0.211726
0.199729
0.187441
0.175153
0.163014
0.151026
0.1393
0.128102
0.182566
0.182798
0.181663
0.179071
0.174885
0.168919
0.161037
0.151271
0.13986
0.127382
0.11521
0.105977
0.104326
0.118493
0.153538
0.19174
0.22032
0.237463
0.244543
0.24419
0.238362
0.229115
0.217973
0.205937
0.193602
0.181281
0.169136
0.157184
0.145508
0.134339
0.195607
0.194985
0.193188
0.190031
0.185384
0.17901
0.170724
0.160487
0.148503
0.135396
0.122594
0.11269
0.110274
0.123744
0.157883
0.19601
0.224926
0.242438
0.249765
0.249593
0.243894
0.234736
0.22366
0.211676
0.199385
0.187105
0.175011
0.163139
0.15155
0.140464
0.209024
0.207833
0.205338
0.201513
0.196352
0.189507
0.180766
0.170022
0.157435
0.143741
0.130263
0.119621
0.116361
0.129091
0.161927
0.199572
0.228621
0.246454
0.254075
0.254148
0.248672
0.239705
0.228796
0.216955
0.204793
0.192634
0.180653
0.168909
0.157448
0.146492
0.222688
0.220916
0.217994
0.213785
0.208116
0.200712
0.191432
0.180109
0.166839
0.152739
0.138318
0.126781
0.122562
0.134458
0.165627
0.202403
0.231383
0.249491
0.257455
0.257859
0.252703
0.244032
0.23338
0.22177
0.209823
0.197864
0.186066
0.174503
0.163216
0.152435
0.236537
0.234129
0.230757
0.226258
0.22041
0.212872
0.203268
0.191279
0.177117
0.1622
0.146757
0.134179
0.128905
0.139803
0.168957
0.204491
0.233168
0.251517
0.259912
0.260727
0.255992
0.247711
0.237411
0.22612
0.214468
0.202791
0.191251
0.179927
0.168872
0.158307
0.250482
0.247407
0.243565
0.23878
0.232805
0.225255
0.215631
0.203531
0.189398
0.172984
0.155929
0.142007
0.135725
0.145168
0.171923
0.205833
0.234021
0.252531
0.26142
0.262729
0.258524
0.250736
0.240886
0.230005
0.218732
0.207415
0.196212
0.185197
0.174429
0.164131
0.264415
0.26069
0.256395
0.25135
0.245294
0.23785
0.228407
0.216848
0.202154
0.184691
0.166238
0.150832
0.143247
0.150608
0.17454
0.206453
0.234059
0.252667
0.261959
0.263843
0.260276
0.253102
0.243811
0.233437
0.222627
0.211747
0.200964
0.190335
0.179919
0.169945
0.278253
0.273945
0.269267
0.264067
0.258072
0.251068
0.242387
0.230494
0.215064
0.196708
0.177136
0.160346
0.1512
0.156063
0.176774
0.206341
0.232944
0.25159
0.261422
0.263968
0.261162
0.254732
0.246122
0.236374
0.22614
0.215799
0.205525
0.19537
0.185383
0.175807
0.291985
0.287254
0.282368
0.277462
0.272075
0.26521
0.255883
0.243438
0.227513
0.208513
0.188129
0.170136
0.159276
0.161356
0.178489
0.205245
0.230559
0.2491
0.259469
0.262803
0.260828
0.255287
0.247593
0.238672
0.229196
0.219541
0.209909
0.200346
0.190892
0.181813
0.305668
0.301111
0.296644
0.291477
0.285303
0.277613
0.267681
0.254818
0.238538
0.2193
0.198613
0.179807
0.16729
0.166395
0.179678
0.203143
0.226742
0.24494
0.255758
0.259957
0.259008
0.254525
0.247792
0.239901
0.231424
0.222715
0.213962
0.205211
0.196485
0.188059
0.318304
0.313266
0.307878
0.301886
0.29499
0.286653
0.276282
0.263228
0.247035
0.228675
0.209129
0.190714
0.177578
0.174447
0.184334
0.203964
0.225129
0.242386
0.253417
0.258408
0.258508
0.254926
0.248947
0.241537
0.233345
0.225068
0.2173
0.209619
0.201907
0.194442
0.326146
0.319417
0.312935
0.306647
0.300178
0.292987
0.28439
0.273597
0.259986
0.243827
0.225952
0.208516
0.195232
0.190289
0.196975
0.212663
0.230747
0.246267
0.2567
0.261838
0.262532
0.259612
0.254168
0.247114
0.239117
0.230786
0.222601
0.214544
0.206667
0.199978
0.343729
0.336703
0.329875
0.323462
0.317399
0.311327
0.304603
0.296363
0.285828
0.272846
0.257902
0.242815
0.23068
0.224944
0.228655
0.240049
0.253835
0.266124
0.274576
0.278686
0.278964
0.275926
0.270449
0.263313
0.255143
0.246494
0.237776
0.229118
0.220612
0.212907
0.381431
0.375017
0.369587
0.365728
0.363092
0.361101
0.358971
0.355771
0.350713
0.343505
0.33398
0.323766
0.315055
0.310304
0.311404
0.31755
0.325053
0.331705
0.335778
0.336857
0.335075
0.330732
0.324391
0.316568
0.307786
0.298468
0.288725
0.278672
0.268604
0.259248
0.524369
0.521253
0.523425
0.528666
0.532983
0.536042
0.537897
0.538444
0.5376
0.535263
0.529702
0.523792
0.518309
0.514539
0.512553
0.512798
0.513234
0.513944
0.514012
0.51369
0.51287
0.511533
0.509681
0.507468
0.504995
0.502281
0.497042
0.489269
0.480813
0.472177
0.0467673
0.0603154
0.0666693
0.0704165
0.0721672
0.0727297
0.072641
0.0722067
0.0716258
0.0711009
0.0707302
0.0707884
0.0712869
0.0723911
0.0739189
0.0757477
0.0772602
0.0779071
0.0772849
0.0753492
0.0720333
0.0673177
0.0612337
0.0540987
0.0463906
0.0385131
0.0311185
0.0251296
0.0215364
0.0220238
0.0859863
0.100427
0.102308
0.10348
0.102926
0.10045
0.0972718
0.0942203
0.09171
0.0901439
0.0897938
0.0911451
0.0941787
0.098939
0.104685
0.110438
0.114216
0.115074
0.112832
0.108416
0.102494
0.095785
0.0877686
0.0785155
0.0682673
0.0572252
0.0461342
0.0364294
0.0311729
0.0295628
0.0891439
0.111663
0.115346
0.117972
0.118633
0.117473
0.115819
0.114162
0.112547
0.112029
0.113224
0.116908
0.123112
0.131745
0.141547
0.150723
0.156529
0.157907
0.154724
0.148405
0.139899
0.1306
0.11996
0.10805
0.0949079
0.0805388
0.0657697
0.0524072
0.0437295
0.0388448
0.0793769
0.105
0.111392
0.115304
0.117081
0.117717
0.118438
0.119682
0.121417
0.124134
0.12857
0.135961
0.146525
0.159834
0.174019
0.186507
0.194176
0.196135
0.192308
0.184465
0.173866
0.162204
0.149205
0.134956
0.1194
0.1024
0.0847457
0.0684283
0.0566659
0.0488381
0.0738977
0.0950003
0.101325
0.105617
0.107827
0.109306
0.111525
0.11477
0.119511
0.126289
0.136031
0.148733
0.165058
0.18398
0.202872
0.21859
0.227922
0.230395
0.22606
0.216927
0.204541
0.190798
0.175729
0.159493
0.141983
0.122918
0.103009
0.0843345
0.0700427
0.0598616
0.0707367
0.0878238
0.0938728
0.0982378
0.100746
0.10256
0.104777
0.108001
0.113089
0.122108
0.136211
0.156123
0.179656
0.205112
0.228872
0.247727
0.258521
0.261426
0.256636
0.24637
0.232425
0.216827
0.199922
0.181976
0.162868
0.142195
0.120542
0.100012
0.0836185
0.0717202
0.07182
0.0851475
0.0911621
0.095317
0.0976354
0.099278
0.101082
0.103849
0.10868
0.117406
0.133451
0.159691
0.191281
0.223864
0.252604
0.274444
0.286509
0.289775
0.284572
0.273298
0.257984
0.240721
0.222177
0.202733
0.182296
0.160365
0.137388
0.115422
0.0973198
0.084172
0.0816151
0.0904735
0.0942646
0.0972979
0.0989693
0.0998151
0.100585
0.102386
0.106499
0.114869
0.131113
0.160914
0.200744
0.240827
0.274478
0.299086
0.312238
0.315806
0.310233
0.298069
0.281549
0.262799
0.242789
0.222025
0.200451
0.177527
0.153578
0.130531
0.111064
0.0969839
0.0997991
0.10638
0.107514
0.107502
0.106345
0.10484
0.103859
0.103852
0.106346
0.113889
0.130146
0.161381
0.208747
0.256456
0.294774
0.321876
0.335953
0.339764
0.333882
0.320934
0.303343
0.283283
0.261979
0.240047
0.217489
0.193776
0.169141
0.145308
0.124766
0.10985
0.124091
0.128789
0.129062
0.126316
0.121529
0.11623
0.111556
0.108788
0.1091
0.114884
0.130544
0.162956
0.216463
0.271159
0.31368
0.34296
0.357826
0.361829
0.355693
0.342069
0.32353
0.302339
0.279899
0.256941
0.233537
0.209207
0.184114
0.159734
0.138383
0.122734
0.155493
0.159125
0.157254
0.151673
0.143293
0.133712
0.124595
0.117802
0.11496
0.11851
0.133297
0.166827
0.224668
0.285222
0.331321
0.362427
0.377984
0.38213
0.375786
0.361584
0.342229
0.320066
0.296651
0.272813
0.248696
0.223898
0.198531
0.173804
0.151884
0.135627
0.185867
0.189402
0.188366
0.181143
0.169793
0.156425
0.142765
0.131204
0.124214
0.124663
0.13852
0.173104
0.233699
0.2988
0.347769
0.380348
0.396504
0.400761
0.394241
0.379556
0.359506
0.336527
0.312304
0.287738
0.263044
0.237916
0.212424
0.187522
0.165244
0.148511
0.214674
0.217812
0.217007
0.210674
0.198329
0.182192
0.1648
0.148662
0.137095
0.133667
0.145879
0.181255
0.243617
0.311945
0.363064
0.396771
0.413442
0.417788
0.411129
0.39604
0.375417
0.351756
0.326909
0.301773
0.276638
0.251306
0.225815
0.20091
0.178462
0.161382
0.241981
0.244654
0.243988
0.238189
0.226732
0.209232
0.189161
0.16924
0.153248
0.145645
0.15547
0.191098
0.254364
0.324644
0.377222
0.411739
0.428841
0.433271
0.426504
0.411087
0.390007
0.365796
0.340499
0.314954
0.28952
0.2641
0.23874
0.213997
0.191556
0.174261
0.268359
0.270648
0.270019
0.264595
0.253667
0.236463
0.214736
0.191914
0.172127
0.16057
0.167434
0.20253
0.265828
0.336854
0.39025
0.425294
0.442747
0.447261
0.440419
0.424749
0.403322
0.378728
0.35311
0.327316
0.301711
0.276368
0.251263
0.226828
0.204555
0.187175
0.294282
0.296293
0.29566
0.290482
0.279973
0.263312
0.240823
0.215981
0.193032
0.17805
0.181574
0.215347
0.277858
0.348529
0.402168
0.437498
0.455232
0.459831
0.452945
0.437071
0.415393
0.390578
0.364763
0.33889
0.31335
0.288208
0.263456
0.239446
0.217475
0.200152
0.319896
0.321756
0.321104
0.316152
0.305997
0.289697
0.267156
0.241011
0.215536
0.197645
0.197591
0.229306
0.290306
0.359652
0.413035
0.448446
0.466405
0.471085
0.464167
0.44811
0.426271
0.401369
0.375634
0.34986
0.324503
0.299681
0.275394
0.251904
0.230337
0.213234
0.34573
0.346933
0.346266
0.341613
0.331845
0.315979
0.293731
0.2668
0.239362
0.218955
0.215341
0.244333
0.303097
0.370283
0.422988
0.458313
0.476445
0.481197
0.474241
0.458002
0.436258
0.411508
0.385854
0.360259
0.335208
0.310828
0.287111
0.264265
0.243198
0.22647
0.372143
0.37237
0.371244
0.366603
0.357322
0.34214
0.320504
0.293244
0.264368
0.241733
0.234679
0.26046
0.316274
0.380626
0.432309
0.467426
0.485664
0.490465
0.483434
0.467437
0.445859
0.421097
0.395582
0.370242
0.345586
0.321746
0.29869
0.276575
0.256147
0.239917
0.39915
0.398392
0.396569
0.391688
0.382652
0.368075
0.347271
0.320245
0.29056
0.26595
0.255791
0.277894
0.330104
0.391144
0.44154
0.476395
0.494587
0.499531
0.492804
0.476893
0.455333
0.430564
0.40519
0.38011
0.355873
0.332617
0.310279
0.28896
0.269272
0.253646
0.426806
0.42509
0.422517
0.417354
0.408599
0.394829
0.374965
0.34835
0.318164
0.292021
0.279343
0.297236
0.345241
0.402779
0.451709
0.486148
0.504432
0.509536
0.502981
0.487132
0.465541
0.440671
0.415345
0.39043
0.36652
0.343781
0.322133
0.301632
0.282756
0.267785
0.455335
0.45282
0.449667
0.444386
0.436198
0.423919
0.405107
0.379245
0.348922
0.321438
0.306556
0.319838
0.363401
0.417442
0.464801
0.498905
0.516967
0.522192
0.515775
0.499925
0.478093
0.452885
0.427307
0.402275
0.378404
0.35594
0.334798
0.31498
0.296872
0.28257
0.485661
0.482809
0.479513
0.474666
0.467753
0.457159
0.440074
0.415706
0.386035
0.357794
0.341038
0.349603
0.388545
0.43908
0.484777
0.518342
0.535946
0.541253
0.534797
0.518633
0.496206
0.470216
0.44385
0.418018
0.393446
0.370613
0.349407
0.329786
0.312121
0.298414
0.52067
0.518182
0.515549
0.512199
0.507522
0.499016
0.48456
0.463087
0.435685
0.408152
0.39038
0.394637
0.428872
0.476185
0.520055
0.552622
0.569558
0.574741
0.567863
0.55075
0.527112
0.499635
0.471254
0.44335
0.416777
0.392063
0.369333
0.348662
0.330555
0.316965
0.566703
0.565667
0.565398
0.565178
0.563312
0.558448
0.548667
0.532419
0.510026
0.485972
0.46912
0.470656
0.500051
0.54442
0.587242
0.618577
0.634271
0.637921
0.628363
0.608932
0.582675
0.552079
0.519487
0.487301
0.456695
0.428184
0.402039
0.378569
0.358264
0.343542
0.63658
0.638974
0.643081
0.647231
0.650874
0.652547
0.650544
0.642938
0.629388
0.612745
0.600154
0.602309
0.627775
0.667787
0.708902
0.737891
0.750905
0.751683
0.73811
0.713309
0.680772
0.643089
0.603183
0.564052
0.527002
0.492527
0.460631
0.431997
0.407133
0.389184
0.753692
0.762588
0.772624
0.783483
0.794828
0.805628
0.814151
0.817443
0.815112
0.809707
0.806203
0.814541
0.839486
0.875302
0.912183
0.937017
0.946074
0.94234
0.92297
0.890829
0.849359
0.802133
0.752545
0.70342
0.656483
0.612727
0.5726
0.536304
0.504048
0.479663
0.946918
0.959352
0.974455
0.992991
1.01351
1.03456
1.05351
1.06662
1.07345
1.07685
1.08247
1.09885
1.12675
1.15899
1.18987
1.20987
1.21639
1.2104
1.18884
1.15389
1.10822
1.05573
1.00014
0.944169
0.889497
0.837387
0.788661
0.742806
0.69998
0.666571
1.15646
1.16127
1.18347
1.21472
1.24465
1.27194
1.29346
1.30476
1.3093
1.31158
1.3183
1.33719
1.36394
1.39339
1.4176
1.43276
1.43928
1.436
1.42096
1.39535
1.36046
1.31933
1.27508
1.23016
1.18587
1.14286
1.10057
1.05613
1.01142
0.970106
1.18812
1.19387
1.21829
1.24931
1.27678
1.29472
1.30302
1.30442
1.30132
1.29912
1.30176
1.31341
1.33246
1.35545
1.37127
1.37783
1.38157
1.37748
1.36684
1.35041
1.33036
1.30844
1.28628
1.26618
1.24914
1.2343
1.21866
1.20122
1.18162
1.15746
0.085267
0.100269
0.107891
0.111732
0.112857
0.11229
0.110782
0.108893
0.106984
0.105373
0.104175
0.103637
0.103606
0.104124
0.104747
0.105311
0.104976
0.103422
0.10102
0.0982152
0.0942381
0.0880118
0.0788595
0.0670977
0.0537667
0.0402119
0.0276217
0.0229737
0.0214244
0.0245333
0.144295
0.162456
0.169201
0.170076
0.167611
0.163581
0.159087
0.154942
0.151678
0.149721
0.14915
0.150124
0.151968
0.154359
0.156213
0.157004
0.154865
0.150298
0.145182
0.141697
0.138246
0.132837
0.12333
0.109141
0.091027
0.0701025
0.0492176
0.0355465
0.0300567
0.0309493
0.174038
0.194282
0.205338
0.20976
0.209554
0.206903
0.203182
0.199515
0.196777
0.195684
0.19646
0.199188
0.202864
0.206955
0.21013
0.211598
0.209001
0.202919
0.19591
0.190448
0.18517
0.177892
0.166126
0.148975
0.126713
0.100034
0.0724659
0.0523954
0.041496
0.0386372
0.180433
0.205592
0.221547
0.229801
0.232689
0.232587
0.230962
0.229089
0.228148
0.229208
0.232614
0.238227
0.244667
0.251086
0.256026
0.258467
0.25582
0.248787
0.240291
0.23287
0.225497
0.216103
0.202251
0.182802
0.157694
0.127169
0.0948743
0.0695468
0.054096
0.0476198
0.170672
0.198026
0.218351
0.231673
0.238932
0.242447
0.243789
0.244813
0.24708
0.251856
0.259443
0.269375
0.279705
0.289188
0.296305
0.299884
0.297347
0.289629
0.279869
0.270598
0.261074
0.249493
0.233678
0.212419
0.185327
0.152216
0.116603
0.0870526
0.0677345
0.0582396
0.15153
0.178224
0.200853
0.217484
0.22842
0.235769
0.241248
0.246825
0.254228
0.264695
0.278305
0.294169
0.309562
0.322827
0.332459
0.337265
0.334912
0.326684
0.315805
0.304791
0.293154
0.279399
0.261714
0.238917
0.210374
0.175554
0.137631
0.104738
0.082227
0.070313
0.132125
0.156183
0.178478
0.196248
0.209181
0.21911
0.228023
0.238173
0.250867
0.268529
0.290322
0.31376
0.335315
0.353014
0.365405
0.371485
0.36938
0.360777
0.348919
0.336272
0.322582
0.306696
0.287202
0.263025
0.233379
0.197456
0.157961
0.122518
0.0973266
0.0835784
0.117437
0.137635
0.157719
0.175123
0.18908
0.200937
0.212403
0.225347
0.241868
0.265589
0.2969
0.329133
0.357807
0.380446
0.395747
0.40311
0.401322
0.392475
0.379757
0.365591
0.349914
0.331956
0.310699
0.285242
0.254717
0.218112
0.177645
0.140345
0.112934
0.0977498
0.109345
0.126243
0.143083
0.158688
0.17227
0.184751
0.197582
0.212748
0.232589
0.260872
0.299624
0.34141
0.377745
0.405651
0.423894
0.432538
0.431157
0.422177
0.408718
0.393122
0.375527
0.355554
0.332591
0.305926
0.274673
0.23768
0.196758
0.158184
0.128988
0.112651
0.10761
0.122203
0.136794
0.149978
0.16165
0.173232
0.186173
0.202444
0.225011
0.256962
0.300421
0.351666
0.39587
0.429022
0.450132
0.460082
0.459203
0.450199
0.436099
0.419131
0.39967
0.377755
0.353146
0.325342
0.293473
0.256329
0.215418
0.176025
0.145428
0.128143
0.114714
0.126983
0.138448
0.148734
0.158369
0.168309
0.180032
0.196192
0.219943
0.254466
0.301572
0.360978
0.412787
0.450898
0.474743
0.486007
0.485729
0.476794
0.462107
0.443795
0.422527
0.39874
0.372565
0.343695
0.311311
0.274209
0.233593
0.19386
0.16221
0.144124
0.128745
0.140775
0.150748
0.158177
0.163859
0.16997
0.178848
0.193754
0.217618
0.253597
0.304677
0.370488
0.428964
0.471558
0.497964
0.510556
0.510966
0.502171
0.486899
0.467261
0.444229
0.418654
0.391004
0.361157
0.32835
0.291454
0.25133
0.211637
0.179328
0.16059
0.149947
0.16229
0.171256
0.176423
0.17833
0.18
0.184741
0.196144
0.218385
0.255621
0.310211
0.380863
0.444721
0.491219
0.520011
0.533973
0.535139
0.526516
0.510636
0.489659
0.464903
0.437627
0.408605
0.377879
0.344745
0.308182
0.268713
0.229414
0.196811
0.177565
0.179318
0.19041
0.19873
0.201672
0.200162
0.197462
0.197276
0.204685
0.224935
0.26195
0.318665
0.392429
0.460268
0.510066
0.541101
0.556505
0.558486
0.550034
0.533478
0.511139
0.484696
0.455803
0.425512
0.394017
0.360663
0.324525
0.285853
0.247286
0.21471
0.195098
0.215604
0.22421
0.230923
0.231732
0.227731
0.220991
0.215994
0.218665
0.236107
0.27294
0.330409
0.405222
0.475735
0.528289
0.561478
0.578431
0.581281
0.572967
0.555642
0.531903
0.503804
0.473368
0.441907
0.409746
0.376284
0.340646
0.302933
0.265343
0.23307
0.213237
0.257419
0.26287
0.267057
0.265584
0.259236
0.249121
0.239786
0.237765
0.251406
0.287075
0.344373
0.419111
0.49125
0.546128
0.581451
0.600091
0.603856
0.595635
0.577434
0.552242
0.522506
0.490587
0.458026
0.425291
0.391815
0.356759
0.320168
0.283647
0.251917
0.23203
0.303264
0.305405
0.306402
0.302484
0.293613
0.280563
0.267376
0.261364
0.270484
0.303943
0.360217
0.434041
0.50702
0.563932
0.601446
0.621937
0.626658
0.618451
0.59928
0.57259
0.541223
0.507845
0.474224
0.440968
0.407539
0.373114
0.337619
0.302289
0.271281
0.251565
0.35202
0.35082
0.348489
0.341808
0.330292
0.314505
0.298066
0.288509
0.292716
0.323225
0.377882
0.450158
0.523439
0.582241
0.622089
0.64461
0.65032
0.642048
0.621837
0.593606
0.560595
0.525744
0.491076
0.457283
0.423875
0.389999
0.355528
0.321405
0.291255
0.271947
0.402256
0.398363
0.392701
0.38312
0.368967
0.350617
0.331535
0.31839
0.317887
0.344912
0.397618
0.467955
0.541238
0.601932
0.644335
0.669075
0.675813
0.667422
0.646129
0.616327
0.581647
0.545292
0.50952
0.475059
0.441452
0.407989
0.374373
0.341332
0.312083
0.293329
0.453307
0.44684
0.438591
0.426313
0.409728
0.389073
0.367542
0.351033
0.346562
0.369557
0.420197
0.488611
0.561729
0.624444
0.669707
0.696868
0.704675
0.696176
0.673821
0.642424
0.606074
0.568169
0.531099
0.495675
0.461602
0.428213
0.395113
0.362859
0.334318
0.316007
0.505791
0.496917
0.486248
0.471736
0.453219
0.430859
0.407196
0.38783
0.380009
0.398715
0.447292
0.514321
0.587223
0.652198
0.700712
0.730513
0.739451
0.730944
0.707635
0.674688
0.636766
0.597162
0.558604
0.521736
0.486469
0.45233
0.419022
0.387012
0.358828
0.34052
0.560486
0.54942
0.536615
0.520545
0.50094
0.47777
0.452919
0.431543
0.421099
0.435845
0.482079
0.548649
0.621812
0.689344
0.741602
0.774249
0.784396
0.776146
0.752173
0.717919
0.678817
0.637409
0.596273
0.556741
0.519069
0.482994
0.448334
0.415523
0.386764
0.367781
0.618907
0.606056
0.591823
0.575181
0.555766
0.533283
0.508939
0.487167
0.475344
0.487104
0.531053
0.59794
0.672897
0.743048
0.799653
0.83524
0.846706
0.839262
0.815342
0.779807
0.738076
0.69308
0.647724
0.603961
0.56239
0.5229
0.485503
0.45059
0.420083
0.399486
0.68398
0.67045
0.656198
0.640648
0.623389
0.603835
0.582616
0.563217
0.552328
0.563229
0.605932
0.672998
0.750555
0.825245
0.886936
0.925129
0.938027
0.930722
0.905222
0.866489
0.820025
0.769458
0.717956
0.667967
0.620552
0.576014
0.534424
0.49605
0.462365
0.439006
0.762215
0.750118
0.738281
0.726286
0.713964
0.700521
0.686089
0.673037
0.66693
0.680585
0.723403
0.790816
0.869903
0.948348
1.01458
1.05389
1.06672
1.05839
1.03031
0.987248
0.934795
0.876998
0.81732
0.758889
0.70326
0.651212
0.603029
0.558995
0.520396
0.493032
0.866881
0.859185
0.853126
0.848028
0.844202
0.840495
0.836816
0.834273
0.83745
0.8575
0.901621
0.968587
1.04723
1.12568
1.1935
1.23084
1.24158
1.23078
1.19955
1.15213
1.09363
1.0284
0.960135
0.892301
0.826988
0.765579
0.708679
0.656645
0.610637
0.577611
1.01874
1.01762
1.02051
1.02694
1.03457
1.04275
1.05131
1.06035
1.07372
1.10013
1.14508
1.20952
1.28428
1.3577
1.42027
1.45037
1.45645
1.44176
1.40832
1.3591
1.29817
1.22993
1.1579
1.08484
1.01307
0.94446
0.88007
0.820014
0.765215
0.7247
1.22948
1.23238
1.24485
1.26328
1.28289
1.30101
1.31687
1.33099
1.34753
1.37414
1.41605
1.4743
1.54096
1.60312
1.65023
1.66452
1.661
1.64037
1.60695
1.56217
1.5085
1.44935
1.38783
1.32547
1.26314
1.20172
1.14163
1.0823
1.02426
0.97642
1.41818
1.42492
1.44752
1.47579
1.50131
1.52001
1.53196
1.53912
1.5476
1.56617
1.59973
1.64694
1.701
1.7453
1.7681
1.7581
1.73899
1.70924
1.67535
1.63787
1.59882
1.56004
1.52428
1.49235
1.4631
1.43583
1.40539
1.37024
1.32996
1.2859
1.38494
1.40498
1.43741
1.47193
1.50002
1.51771
1.52517
1.52683
1.52904
1.53954
1.56209
1.59492
1.63106
1.65594
1.65637
1.62691
1.59522
1.55638
1.51852
1.48257
1.45162
1.42646
1.40835
1.39777
1.39378
1.39392
1.39433
1.39158
1.38344
1.36819
0.113074
0.134318
0.144012
0.148976
0.150411
0.149574
0.147468
0.144825
0.142082
0.139564
0.137258
0.135328
0.133505
0.131966
0.130317
0.12851
0.125553
0.122074
0.120323
0.120888
0.120418
0.115314
0.103816
0.086769
0.0662154
0.0453277
0.0256427
0.0221049
0.0216829
0.0257414
0.180825
0.212672
0.225046
0.227833
0.225825
0.221717
0.217104
0.212981
0.209771
0.207544
0.205799
0.204325
0.202283
0.199815
0.196187
0.191275
0.183065
0.175926
0.175057
0.180713
0.186398
0.185752
0.174095
0.15146
0.120303
0.0848315
0.0493572
0.0315617
0.0277498
0.0343559
0.213343
0.250882
0.270606
0.279842
0.282842
0.282318
0.280294
0.278051
0.276278
0.275107
0.274025
0.27271
0.270352
0.267166
0.262511
0.256033
0.245452
0.235779
0.233617
0.238935
0.24456
0.243493
0.230089
0.203719
0.166221
0.121416
0.0751854
0.0456337
0.0364753
0.0430054
0.224102
0.263639
0.291857
0.308127
0.317671
0.322325
0.324365
0.325359
0.326277
0.3273
0.327987
0.327886
0.326247
0.323236
0.318414
0.311173
0.299058
0.287727
0.284061
0.2878
0.291864
0.289315
0.274433
0.245836
0.204701
0.154203
0.100723
0.0622345
0.0468779
0.0511371
0.221348
0.258684
0.292763
0.319548
0.336324
0.34653
0.353261
0.358338
0.363065
0.367533
0.371304
0.373692
0.373831
0.371822
0.367444
0.359914
0.346743
0.334309
0.329221
0.330947
0.332715
0.328016
0.311502
0.281428
0.238264
0.184372
0.125898
0.0805069
0.0592118
0.0609072
0.211393
0.245917
0.283815
0.315883
0.33989
0.357029
0.368984
0.378805
0.388482
0.397798
0.40608
0.412299
0.415328
0.415053
0.411583
0.404111
0.390268
0.377215
0.370869
0.370392
0.369473
0.362197
0.343869
0.312574
0.268254
0.212393
0.150718
0.0999103
0.0733768
0.0727797
0.193712
0.224851
0.265331
0.302205
0.331441
0.353725
0.371463
0.387688
0.403742
0.41944
0.433743
0.445136
0.452041
0.454231
0.452007
0.444914
0.430768
0.417517
0.410125
0.407356
0.403485
0.393343
0.372997
0.340545
0.295522
0.238632
0.174759
0.120104
0.0891751
0.0862626
0.173333
0.200998
0.240904
0.279655
0.312235
0.339161
0.362868
0.384762
0.40988
0.433657
0.455456
0.47327
0.484925
0.490213
0.489504
0.483047
0.469052
0.455969
0.447648
0.442569
0.435567
0.42234
0.399782
0.366138
0.320619
0.263314
0.198077
0.140569
0.106219
0.10112
0.156322
0.179382
0.21638
0.254699
0.289043
0.319257
0.34743
0.375222
0.407175
0.441841
0.472246
0.497593
0.514763
0.52363
0.524677
0.51911
0.505751
0.493095
0.483837
0.476473
0.466198
0.449717
0.424791
0.389885
0.343928
0.286455
0.220796
0.161238
0.124262
0.117204
0.143887
0.162929
0.195912
0.231796
0.266135
0.298308
0.330136
0.363402
0.401701
0.444889
0.48507
0.518901
0.54222
0.554976
0.558046
0.553629
0.541323
0.529261
0.519263
0.509383
0.495657
0.475813
0.44841
0.412177
0.365821
0.308392
0.243125
0.182233
0.143205
0.134391
0.137115
0.152248
0.180988
0.213582
0.246553
0.279494
0.314012
0.352071
0.395884
0.445027
0.495378
0.537936
0.567845
0.584712
0.590062
0.587091
0.576213
0.564942
0.554048
0.541446
0.524137
0.500864
0.470935
0.43334
0.386631
0.329489
0.265093
0.203698
0.163023
0.152608
0.135764
0.148089
0.173203
0.202479
0.233516
0.26588
0.301581
0.342593
0.39092
0.445529
0.504513
0.555621
0.592113
0.613256
0.621175
0.619987
0.61084
0.600364
0.588301
0.572775
0.551781
0.525077
0.492632
0.453689
0.406633
0.350099
0.286856
0.225668
0.183737
0.171824
0.142864
0.152337
0.172709
0.198622
0.227276
0.25794
0.293409
0.336021
0.387623
0.447188
0.513357
0.572774
0.615432
0.641019
0.651873
0.652836
0.64564
0.635775
0.622289
0.603539
0.578783
0.548686
0.51379
0.473563
0.426131
0.370413
0.308581
0.248176
0.205402
0.192042
0.159813
0.167558
0.184837
0.205385
0.22831
0.255826
0.28996
0.332877
0.386392
0.450832
0.523037
0.589941
0.638381
0.66844
0.682697
0.686209
0.681084
0.671488
0.65616
0.633986
0.605426
0.572004
0.534762
0.493355
0.445694
0.390764
0.330465
0.271291
0.228089
0.213288
0.187779
0.193116
0.207175
0.223266
0.241272
0.263013
0.29203
0.333183
0.388408
0.457335
0.534637
0.607657
0.661523
0.696084
0.71426
0.720741
0.717713
0.707841
0.6903
0.66452
0.632148
0.595478
0.556009
0.513521
0.46577
0.411553
0.352796
0.295187
0.251891
0.235602
0.226631
0.228596
0.238791
0.250265
0.262695
0.278827
0.303215
0.340573
0.395675
0.467357
0.548842
0.626426
0.685417
0.724723
0.747309
0.757175
0.756144
0.74584
0.725333
0.695761
0.659593
0.619765
0.57812
0.534583
0.486861
0.433407
0.376051
0.320205
0.276882
0.259025
0.274894
0.272902
0.278158
0.284532
0.29138
0.301425
0.320215
0.354891
0.408294
0.481122
0.56538
0.64675
0.710778
0.75525
0.782841
0.796423
0.797116
0.785743
0.762029
0.728594
0.688704
0.645765
0.60184
0.557457
0.509727
0.457093
0.40107
0.346461
0.303084
0.283567
0.330502
0.324519
0.323866
0.324554
0.325729
0.329746
0.342624
0.373388
0.425911
0.49909
0.584711
0.669364
0.738597
0.788836
0.822108
0.839599
0.841564
0.828558
0.801523
0.764313
0.720829
0.674677
0.628926
0.583652
0.535693
0.483368
0.428102
0.374201
0.330597
0.309325
0.391466
0.380704
0.374359
0.36925
0.364907
0.36309
0.369972
0.396054
0.447287
0.520511
0.60753
0.695367
0.77028
0.827053
0.866716
0.888052
0.890783
0.875716
0.845516
0.804846
0.757933
0.708918
0.662713
0.61548
0.566006
0.512984
0.457515
0.403773
0.359651
0.336446
0.456233
0.440543
0.428686
0.418061
0.408419
0.401547
0.402451
0.42368
0.473133
0.546465
0.635213
0.726468
0.807865