/*--------------------------------*- C++ -*----------------------------------*\
  =========                 |
  \\      /  F ield         | OpenFOAM: The Open Source CFD Toolbox
   \\    /   O peration     | Website:  https://openfoam.org
    \\  /    A nd           | Version:  12
     \\/     M anipulation  |
\*---------------------------------------------------------------------------*/
FoamFile
{
    format      ascii;
    class       volScalarField;
    location    "1050/air";
    object      nut;
}
// * * * * * * * * * * * * * * * * * * * * * * * * * * * * * * * * * * * * * //

dimensions      [0 2 -1 0 0 0 0];

internalField   nonuniform List<scalar> 
243000
(
8.94566e-05
8.1111e-05
7.25056e-05
7.37641e-05
7.19468e-05
7.34241e-05
7.46096e-05
7.50615e-05
7.52868e-05
7.53199e-05
7.51494e-05
7.48983e-05
7.54397e-05
7.55781e-05
7.44988e-05
7.45815e-05
7.52787e-05
7.64773e-05
7.80545e-05
7.97434e-05
8.1292e-05
8.2523e-05
8.33458e-05
8.37809e-05
8.3914e-05
8.37697e-05
8.33991e-05
8.20013e-05
7.89052e-05
7.42234e-05
0.000323696
0.000309517
0.000290687
0.000269382
0.000258107
0.000248844
0.00024527
0.000243755
0.00024361
0.000244253
0.000245348
0.000247201
0.000248724
0.000252972
0.000260929
0.000269044
0.000278317
0.000287915
0.000296158
0.000302503
0.000306858
0.000309547
0.000310734
0.000310667
0.00030948
0.000307101
0.000303534
0.00029817
0.000289138
0.000269286
0.000419447
0.000423703
0.000418913
0.000412408
0.000404474
0.000395884
0.000387314
0.000384224
0.00039088
0.000401987
0.000415656
0.000431143
0.000448057
0.000467348
0.000488724
0.000511594
0.00053284
0.000549984
0.000559983
0.000562597
0.000558463
0.000549203
0.000535946
0.000519629
0.000500797
0.000479575
0.000456114
0.000430403
0.000402226
0.000366934
0.000452075
0.000457867
0.000456044
0.000451461
0.000443988
0.000434058
0.000421809
0.000410044
0.000404718
0.000407946
0.000421866
0.000442425
0.000467324
0.000495867
0.00052625
0.000557022
0.000583905
0.000604358
0.000615683
0.000618194
0.000612946
0.00060201
0.000586884
0.000568638
0.000547798
0.000524417
0.000498491
0.000470195
0.000439939
0.00040545
0.000483916
0.000490306
0.000490171
0.000486752
0.000479933
0.000469989
0.000457057
0.00044119
0.000427418
0.000420691
0.000424383
0.000444703
0.000476674
0.000515619
0.000556218
0.000595164
0.000627264
0.000650462
0.000662722
0.000664995
0.000658722
0.000646355
0.000629694
0.000609944
0.000587641
0.000562775
0.000535263
0.000505317
0.000473372
0.000439537
0.000514854
0.000521841
0.000522897
0.000520228
0.000513858
0.000504024
0.000490794
0.000474415
0.000455287
0.000440412
0.00043482
0.000445156
0.000480259
0.000529306
0.000580736
0.0006279
0.000664899
0.000690376
0.000703281
0.00070522
0.00069801
0.000684419
0.000666482
0.000645526
0.000622148
0.000596295
0.000567814
0.000536949
0.000504064
0.000470471
0.00054507
0.000552589
0.000554489
0.000552278
0.000546107
0.000536206
0.000522675
0.000505708
0.000485126
0.000464556
0.000451038
0.000452922
0.000481898
0.000539078
0.00060129
0.000656506
0.000698023
0.000725391
0.00073874
0.000740293
0.000732246
0.00071761
0.000698604
0.000676657
0.000652451
0.000625949
0.000596946
0.000565685
0.000532464
0.000498901
0.000574761
0.000582637
0.000585023
0.000583008
0.000576808
0.000566639
0.000552648
0.000535054
0.000514149
0.000490361
0.000470906
0.000465093
0.000485617
0.000546957
0.000619014
0.000681842
0.000727451
0.000756389
0.000770024
0.00077119
0.000762411
0.000746894
0.000726988
0.000704215
0.000679359
0.000652424
0.00062321
0.00059191
0.00055878
0.000525252
0.00060401
0.000611981
0.00061457
0.000612551
0.00060615
0.00059557
0.000580981
0.000562616
0.000540824
0.000515514
0.000492212
0.000480207
0.000494237
0.00055477
0.000634838
0.000704514
0.000753751
0.000783988
0.000797795
0.000798592
0.000789194
0.000772944
0.000752291
0.000728841
0.000703479
0.000676264
0.000647038
0.000615927
0.000583166
0.000550117
0.000632867
0.000640582
0.000643107
0.000640946
0.000634268
0.000623222
0.000607964
0.000588741
0.000565904
0.00053986
0.000513756
0.000497124
0.000505962
0.00056328
0.000649405
0.000724942
0.000777317
0.000808638
0.000822539
0.000823
0.000813089
0.000796254
0.000775008
0.00075103
0.00072528
0.000697896
0.000668785
0.000637999
0.000605769
0.000573371
0.000661387
0.000668522
0.000670687
0.000668237
0.000661241
0.000649743
0.000633847
0.000613768
0.000589869
0.000562925
0.000534944
0.000515075
0.000519785
0.000572884
0.000663145
0.000743429
0.000798418
0.000830675
0.000844629
0.000844801
0.000834487
0.000817202
0.000795519
0.000771155
0.000745124
0.000717656
0.000688741
0.000658365
0.000626755
0.000595083
0.000689464
0.000695713
0.000697328
0.000694494
0.000687161
0.00067526
0.000658806
0.000637947
0.000613037
0.00058492
0.000555609
0.000533564
0.000535006
0.000583733
0.000676317
0.000760195
0.000817272
0.00085032
0.000864326
0.00086429
0.000853682
0.000836084
0.00081411
0.000789495
0.000763291
0.000735829
0.000707171
0.000677249
0.000646302
0.000615379
0.000717186
0.00072227
0.000723101
0.000719797
0.000712124
0.000699872
0.00068295
0.000661427
0.000635616
0.000606357
0.000575917
0.000552299
0.000551133
0.00059579
0.00068905
0.000775372
0.000834033
0.00086774
0.000881825
0.000881675
0.000870894
0.000853117
0.000830991
0.000806261
0.00078
0.000752624
0.000724268
0.000694838
0.000664572
0.000634392
0.000744653
0.000748389
0.000748269
0.00074434
0.000736278
0.000723701
0.00070639
0.000684318
0.000657736
0.00062747
0.000596059
0.000571195
0.000567834
0.000608889
0.000701364
0.000789027
0.000848806
0.000883054
0.000897265
0.000897108
0.000886284
0.00086846
0.000846319
0.000821608
0.000795408
0.000768201
0.000740193
0.000711291
0.000681722
0.000652272
0.000772067
0.000774307
0.000773111
0.000768404
0.000759829
0.000746913
0.000729259
0.00070673
0.000679498
0.000648381
0.00061616
0.000590204
0.000584928
0.000622793
0.000713206
0.000801185
0.000861657
0.000896356
0.000910746
0.0009107
0.000899966
0.000882238
0.000860214
0.000835652
0.000809632
0.00078269
0.00075509
0.000726768
0.000697918
0.000669182
0.000799736
0.000800294
0.000797877
0.000792253
0.000783049
0.000769721
0.000751726
0.000728787
0.000700986
0.000669163
0.000636258
0.000609315
0.000602214
0.000637232
0.000724481
0.000811833
0.000872618
0.000907709
0.000922338
0.000922526
0.000912019
0.00089453
0.000872755
0.000848476
0.000822769
0.000796204
0.00076908
0.000741387
0.000713262
0.000685261
0.000827854
0.000826579
0.000822833
0.000816164
0.000806232
0.000792396
0.000774018
0.000750671
0.000722334
0.000689914
0.000656391
0.000628481
0.000619546
0.000651922
0.000735079
0.000820952
0.000881706
0.000917138
0.000932102
0.000932631
0.000922489
0.000905381
0.000884005
0.000860151
0.000834899
0.000808828
0.000782262
0.000755248
0.000727879
0.000700681
0.000855795
0.000853414
0.000848356
0.000840485
0.000829765
0.000815331
0.000796483
0.000772675
0.000743769
0.000710867
0.000676685
0.000647696
0.000636814
0.000666604
0.000744911
0.000828528
0.000888926
0.000924659
0.000940061
0.000941043
0.000931418
0.000914846
0.000894028
0.000870739
0.000846077
0.000820625
0.000794711
0.000768433
0.000741861
0.000715523
0.00088334
0.000879871
0.000874106
0.000865728
0.000854306
0.000839156
0.000819689
0.000795323
0.00076572
0.00073288
0.00069742
0.000667005
0.000653965
0.000681077
0.000753901
0.000834556
0.000894278
0.000930279
0.000946228
0.000947812
0.000938862
0.00092299
0.000902863
0.000880273
0.00085633
0.000831621
0.000806465
0.000780992
0.000755277
0.00072985
0.000910404
0.000905802
0.000899322
0.000890606
0.000879152
0.000864175
0.000844707
0.000819746
0.000789078
0.000755371
0.00071856
0.000686432
0.000671102
0.000695248
0.000762019
0.000839047
0.000897709
0.000933961
0.000950649
0.000952975
0.00094486
0.000929834
0.000910543
0.000888782
0.000865676
0.000841835
0.000817555
0.000792977
0.000768199
0.000743731
0.000936863
0.000931132
0.000923931
0.000914894
0.000903499
0.000888912
0.000869979
0.000845583
0.000816118
0.00078037
0.000740942
0.0007065
0.00068915
0.000709257
0.000769304
0.000842033
0.000899354
0.000935764
0.000953291
0.000956517
0.000949415
0.000935396
0.00091709
0.0008963
0.000874156
0.000851297
0.000828015
0.000804438
0.000780678
0.000757237
0.000962568
0.000955793
0.000947939
0.000938641
0.000927382
0.00091338
0.000895335
0.000872778
0.00084318
0.000806459
0.000765419
0.000728646
0.000708563
0.000723248
0.000775812
0.000843528
0.000899433
0.000935938
0.000954164
0.000958422
0.000952507
0.000939688
0.00092254
0.000902864
0.000881812
0.000860054
0.000837897
0.000815445
0.000792802
0.000770473
0.00098743
0.000979782
0.000971424
0.00096207
0.000951199
0.000938393
0.000922304
0.000899787
0.000869681
0.000832354
0.000790323
0.000751664
0.000728521
0.000737072
0.000781493
0.000843654
0.000897323
0.000933834
0.000953029
0.000958499
0.000953968
0.000942573
0.00092678
0.000908415
0.00088864
0.000868145
0.00084726
0.000826075
0.000804673
0.00078358
0.00101149
0.00100329
0.000994758
0.000986163
0.000976658
0.000964417
0.000947584
0.000924677
0.000894512
0.000857029
0.000814633
0.000774596
0.000748292
0.000750299
0.000786056
0.000841787
0.000892761
0.000929086
0.000949291
0.000956202
0.000953207
0.000943427
0.000929394
0.000912684
0.000894498
0.000875525
0.000856141
0.000836429
0.000816452
0.00079677
0.00103491
0.00102719
0.00101959
0.00101073
0.00100007
0.000986688
0.000969172
0.000946059
0.000915966
0.000878962
0.000837107
0.00079655
0.000767377
0.00076276
0.000789515
0.000837942
0.000885446
0.000921203
0.000942306
0.000950821
0.000949676
0.000941855
0.000929597
0.000914866
0.000898684
0.000881694
0.000864239
0.000846406
0.000828221
0.00081025
0.00105602
0.00104765
0.00103866
0.00102858
0.00101689
0.00100262
0.000984634
0.000961562
0.000932146
0.000897356
0.000858737
0.000820226
0.000790721
0.000781596
0.000800595
0.00084041
0.000882765
0.000916612
0.000938056
0.00094797
0.000948725
0.000942542
0.000931706
0.000917929
0.000902356
0.000886208
0.000870813
0.000855311
0.000839444
0.000823781
0.00106893
0.00105787
0.00104714
0.00103663
0.00102574
0.00101355
0.000998842
0.000980112
0.000955971
0.000926356
0.000892328
0.000857439
0.000829125
0.000816862
0.000828572
0.00085914
0.000894432
0.000924352
0.000944341
0.000954337
0.00095609
0.000951138
0.000941379
0.000928409
0.000913384
0.000897371
0.000881339
0.000865259
0.000849194
0.000835345
0.00109737
0.00108612
0.0010751
0.00106465
0.00105472
0.00104474
0.00103362
0.00101989
0.00100206
0.000979559
0.000952851
0.000924777
0.000900984
0.000888483
0.00089372
0.000914095
0.000939274
0.000961763
0.000977254
0.000984936
0.000985787
0.000980705
0.000971136
0.000958385
0.000943494
0.000927406
0.000910874
0.000894142
0.000877369
0.000861909
0.00115597
0.00114624
0.00113793
0.00113202
0.00112801
0.00112503
0.00112187
0.00111711
0.00110946
0.00109834
0.0010833
0.00106672
0.001052
0.00104331
0.00104386
0.001053
0.00106475
0.00107541
0.00108205
0.00108394
0.00108125
0.00107438
0.00106415
0.00105132
0.00103669
0.00102089
0.00100409
0.000986439
0.000968443
0.000951432
0.00135526
0.00135121
0.001354
0.0013608
0.00136639
0.00137036
0.0013728
0.00137359
0.00137262
0.00136973
0.00136267
0.00135505
0.00134783
0.0013427
0.00133974
0.0013397
0.00134003
0.00134085
0.00134091
0.00134051
0.0013395
0.0013378
0.00133542
0.00133256
0.00132933
0.00132576
0.00131879
0.00130846
0.00129713
0.00128549
0.000114362
0.000124848
0.000126352
0.000125069
0.000122417
0.000118869
0.000115138
0.000111544
0.000108241
0.00010539
0.000103061
0.000101448
0.000100506
0.000100457
0.000101173
0.000102461
0.000103965
0.000105329
0.000106267
0.000106693
0.000106436
0.000105324
0.000103124
9.97618e-05
9.53076e-05
8.9795e-05
8.35101e-05
7.76805e-05
7.26125e-05
7.78781e-05
0.000356509
0.000377165
0.000362089
0.000353877
0.000346808
0.000338068
0.000328968
0.000321212
0.000315755
0.000314005
0.000316931
0.000326518
0.000341705
0.00036192
0.0003826
0.000399187
0.000404301
0.000398573
0.000383689
0.000365214
0.00034734
0.000333571
0.000321536
0.000309004
0.000293864
0.000272344
0.000246095
0.0002165
0.000207303
0.000212727
0.000460493
0.00052772
0.000523991
0.000524662
0.000524216
0.000523521
0.00052476
0.00052887
0.000536094
0.000550418
0.000575091
0.00061446
0.000666807
0.000728025
0.000785224
0.000824539
0.000833057
0.000815882
0.000777719
0.000730226
0.000682453
0.000643136
0.000611141
0.000582472
0.000549276
0.000505554
0.000453942
0.000399542
0.000361704
0.000349129
0.000493833
0.000579088
0.000594302
0.000605426
0.000612925
0.000621552
0.000635354
0.000655662
0.000684499
0.000724882
0.000782893
0.000865222
0.000969955
0.00108521
0.00118696
0.00125057
0.00126282
0.00123575
0.00117536
0.00109944
0.00102193
0.000954886
0.000898397
0.000848021
0.000794451
0.000729115
0.000654225
0.000578579
0.000515184
0.000479433
0.000526217
0.000600893
0.000618682
0.000634679
0.000646847
0.000661216
0.000684427
0.000717527
0.000764941
0.000832296
0.000934947
0.00107091
0.0012402
0.00141793
0.00156599
0.00165217
0.0016667
0.00163001
0.00154954
0.00144805
0.0013436
0.00125059
0.00117051
0.00109912
0.00102632
0.000941828
0.000846855
0.000752898
0.000671229
0.000615287
0.000552093
0.000625456
0.000643245
0.000662703
0.000678462
0.000695907
0.000720448
0.000755707
0.000808638
0.000894908
0.00103138
0.00123687
0.00148225
0.00172864
0.00192059
0.00202612
0.00204028
0.00199368
0.00189449
0.00177006
0.00164193
0.00152573
0.00142428
0.00133382
0.00124399
0.0011434
0.00103161
0.000922247
0.000826386
0.000758828
0.000592279
0.000650708
0.000677492
0.000699524
0.000715913
0.000733796
0.000757699
0.000793057
0.000849305
0.000942624
0.00110562
0.00137669
0.00170157
0.00201905
0.00225205
0.00237307
0.00238389
0.0023268
0.00221004
0.00206496
0.00191616
0.0017797
0.00165948
0.00155222
0.00144777
0.00133399
0.00120869
0.00108645
0.000979762
0.000908166
0.000683991
0.000722284
0.000736395
0.000751869
0.000764947
0.000778763
0.000798575
0.000831483
0.000889467
0.000990811
0.00117187
0.00148941
0.00190068
0.0022916
0.00256161
0.00269395
0.00269863
0.00263059
0.00249736
0.0023338
0.00216707
0.00201321
0.00187678
0.00175504
0.00163821
0.00151351
0.00137842
0.00124624
0.00113047
0.0010594
0.000833451
0.000848637
0.000845247
0.000843275
0.000840431
0.000840883
0.000850218
0.000874313
0.000925741
0.00103248
0.001232
0.00158257
0.00208158
0.00254782
0.00284986
0.00298939
0.00298569
0.00290634
0.00275805
0.00257814
0.00239603
0.00222743
0.00207729
0.00194323
0.00181606
0.00168284
0.00154079
0.00140126
0.00127854
0.0012053
0.0010387
0.00103842
0.0010168
0.000991026
0.000961987
0.000937484
0.000924534
0.000932553
0.000973602
0.00107533
0.00128501
0.00166951
0.00225488
0.00278945
0.00311701
0.00325965
0.0032461
0.00315547
0.00299369
0.00279968
0.00260464
0.00242383
0.00226225
0.00211787
0.00198207
0.00184254
0.00169591
0.00155131
0.0014236
0.0013476
0.00129889
0.00129553
0.00125279
0.00119861
0.00113747
0.00107946
0.00103464
0.001016
0.00103858
0.00113367
0.00135519
0.00177566
0.0024318
0.00301757
0.0033629
0.00350467
0.00348095
0.00337918
0.00320587
0.00300011
0.00279461
0.00260387
0.00243299
0.00228008
0.00213693
0.00199307
0.00184382
0.00169624
0.00156535
0.00148737
0.00155753
0.00156343
0.00152642
0.00145422
0.00136269
0.00126942
0.0011872
0.0011331
0.00112861
0.00120618
0.00144554
0.00191147
0.00260795
0.00323122
0.00358695
0.00372454
0.00369084
0.00357871
0.00339611
0.00318117
0.00296755
0.00276908
0.00259085
0.00243109
0.00228222
0.00213525
0.0019847
0.00183569
0.00170351
0.00162423
0.00181128
0.00182584
0.00179499
0.00172701
0.00162052
0.001498
0.00138025
0.00128758
0.0012491
0.00130126
0.00154732
0.00205276
0.00278083
0.00342883
0.00378826
0.00391913
0.00387625
0.0037553
0.00356592
0.00334446
0.00312507
0.00292087
0.00273725
0.00257207
0.00241867
0.00226962
0.00211909
0.00197025
0.00183793
0.00175821
0.00205932
0.00208163
0.00205821
0.00199475
0.00189131
0.00175084
0.00160475
0.00147688
0.00140237
0.0014257
0.0016676
0.00219817
0.00294577
0.00360833
0.00396562
0.00408806
0.00403746
0.00391006
0.00371662
0.00349139
0.00326858
0.00306073
0.00287316
0.0027034
0.00254703
0.00239704
0.00224767
0.00210055
0.00196901
0.0018896
0.0023005
0.00232951
0.00231365
0.00225578
0.00215586
0.00201416
0.00184928
0.0016931
0.00158575
0.00158154
0.00180871
0.00235289
0.00310645
0.00376782
0.00411743
0.00423066
0.00417462
0.00404378
0.0038492
0.00362301
0.00339927
0.00318965
0.0029993
0.00282638
0.00266837
0.00251857
0.00237129
0.00222707
0.00209736
0.00201876
0.00253097
0.00256576
0.00255695
0.0025056
0.0024113
0.00227429
0.00210162
0.00192645
0.00179215
0.00176404
0.00196717
0.00251329
0.00325881
0.00390449
0.00424166
0.00434585
0.00428742
0.00415676
0.0039641
0.00373972
0.0035176
0.00330783
0.00311632
0.00294238
0.00278386
0.00263505
0.00249069
0.00235025
0.00222354
0.00214585
0.00274421
0.00278388
0.00278123
0.00273757
0.00265084
0.00252049
0.0023502
0.00216577
0.00201224
0.00196517
0.0021369
0.00267406
0.00339757
0.00401454
0.00433555
0.00443193
0.00437488
0.00424849
0.00406085
0.00384094
0.00362319
0.00341541
0.00322478
0.00305153
0.00289381
0.00274707
0.00260654
0.0024706
0.00234753
0.00227124
0.00294323
0.00297534
0.00297758
0.00294308
0.00286564
0.0027453
0.00258382
0.00239854
0.00223407
0.00217221
0.00231112
0.00282831
0.00351571
0.00409292
0.00439533
0.00448619
0.00443488
0.0043173
0.00413781
0.00392623
0.00371578
0.00351257
0.00332448
0.0031534
0.00299781
0.00285414
0.00271811
0.00258791
0.00246884
0.00239461
0.00312833
0.00314649
0.00314374
0.00311142
0.00304411
0.00293757
0.00278933
0.00261016
0.0024431
0.00237036
0.00247829
0.00296539
0.00360347
0.00413269
0.00441568
0.00450444
0.00446362
0.00435988
0.00419245
0.00399409
0.00379383
0.00359711
0.00341352
0.00324669
0.00309462
0.00295494
0.00282404
0.00269999
0.00258544
0.00251465
0.00329527
0.00329848
0.00328629
0.00325059
0.00318614
0.00308717
0.00295051
0.00278323
0.00262227
0.00254241
0.00262321
0.00306887
0.00364707
0.0041242
0.00438888
0.00448015
0.00445489
0.00437044
0.00422121
0.00403978
0.00385242
0.0036657
0.00348939
0.00332725
0.00318021
0.00304577
0.00292065
0.0028031
0.00269622
0.00262977
0.00343919
0.0034272
0.00340421
0.00336312
0.00329854
0.00320325
0.00307171
0.00291044
0.00275235
0.00266806
0.00272612
0.00311651
0.00362784
0.00405437
0.00430393
0.00440306
0.00439996
0.00433902
0.00421414
0.00405523
0.00388484
0.0037121
0.00354688
0.0033927
0.00325193
0.00312378
0.00300583
0.00289667
0.00279838
0.0027369
0.00355253
0.00352616
0.00349312
0.00344675
0.00338082
0.00328591
0.00315478
0.0029941
0.00283281
0.00273469
0.00276457
0.0030796
0.00352839
0.00390748
0.00414608
0.00425941
0.00428335
0.00424978
0.00415676
0.00402772
0.00388024
0.0037263
0.00357627
0.00343422
0.00330313
0.00318368
0.00307462
0.00297477
0.00288633
0.00282995
0.00362519
0.00358709
0.00354646
0.00349607
0.00342712
0.00332922
0.00319584
0.00303154
0.00286098
0.00273999
0.0027312
0.00295178
0.00333448
0.00366977
0.00389993
0.00403207
0.00408459
0.00408217
0.00402739
0.00393447
0.00381854
0.00369045
0.00356231
0.00343811
0.00332122
0.00321377
0.00311544
0.00302601
0.00294842
0.00289852
0.00364522
0.00359982
0.00355519
0.00350116
0.00342656
0.00332548
0.00318846
0.00301873
0.00283644
0.00268908
0.00263512
0.00275605
0.00304953
0.00334668
0.00356379
0.00371313
0.00378758
0.00381731
0.0038022
0.00374816
0.00366905
0.0035747
0.00347607
0.00337781
0.00328303
0.00319373
0.00311051
0.00303432
0.00296941
0.00292782
0.00359757
0.0035531
0.00350787
0.00345015
0.00337537
0.00327176
0.00313239
0.00296101
0.00277344
0.00260914
0.00251733
0.00255345
0.00274464
0.00298586
0.00318436
0.00333203
0.00341743
0.00346937
0.00348312
0.00346311
0.00341911
0.00335915
0.00329155
0.00322281
0.00315588
0.00309157
0.00303012
0.00297341
0.00292563
0.00289608
0.00347342
0.00343731
0.00339787
0.00335002
0.00328368
0.0031856
0.00305139
0.00288816
0.00271321
0.00255496
0.00244842
0.00243024
0.00253348
0.00270004
0.00286432
0.00298948
0.00306676
0.00312325
0.00314549
0.00313932
0.00311251
0.00307139
0.00302358
0.00297701
0.00293459
0.00289534
0.00285608
0.0028205
0.00279253
0.00277953
0.00329594
0.00328042
0.00326064
0.00322987
0.00317792
0.00309621
0.00298387
0.00284652
0.00270242
0.00257285
0.00247729
0.00244372
0.00249027
0.0025908
0.00270596
0.00279701
0.00285398
0.00289712
0.00291147
0.0029017
0.00287403
0.00283434
0.00278947
0.00274615
0.00270767
0.00267487
0.00264725
0.00262588
0.0026127
0.00261284
0.00311818
0.0031191
0.00312448
0.00312097
0.00309264
0.00303753
0.00295821
0.00286041
0.00275677
0.00266185
0.00258998
0.00255907
0.00257674
0.00263038
0.00269968
0.00275787
0.00279538
0.00282295
0.0028286
0.00281511
0.00278686
0.00274894
0.00270748
0.00266707
0.0026302
0.00259813
0.00257124
0.00254934
0.00253363
0.00253639
0.00296958
0.00297525
0.00299149
0.00300122
0.00299288
0.00296493
0.00291964
0.00286076
0.00279504
0.00273213
0.00268108
0.00265346
0.00265351
0.00267751
0.00271107
0.00274384
0.00276608
0.00278258
0.00278545
0.00277671
0.00275916
0.00273586
0.00271296
0.00269195
0.00267437
0.00266038
0.00264865
0.00263653
0.00262523
0.00261956
0.00285072
0.00286311
0.0028817
0.00289273
0.00289038
0.00287539
0.00285057
0.00281894
0.00277979
0.0027417
0.00270757
0.00268309
0.00267185
0.0026742
0.00268226
0.00269405
0.00270393
0.00270937
0.00270974
0.00270617
0.00270125
0.00269774
0.00269558
0.00269821
0.00270494
0.00271438
0.00272367
0.00273258
0.00273691
0.00273503
0.000153974
0.000160866
0.000160781
0.000157803
0.000153167
0.000147799
0.000142305
0.000137082
0.000132366
0.00012836
0.000125124
0.000122795
0.000121282
0.000120613
0.000120518
0.000120905
0.000121295
0.00012148
0.000121634
0.000121972
0.000121937
0.000120665
0.000117319
0.000111464
0.000103055
9.23148e-05
7.8974e-05
6.99324e-05
0.000313458
8.21387e-05
0.000559028
0.000627642
0.000621809
0.000594959
0.000564773
0.000537385
0.000515233
0.000499381
0.000490226
0.000488486
0.000493498
0.000505337
0.000518721
0.000530984
0.000535456
0.000532
0.000514545
0.000489848
0.000465522
0.000449729
0.000441592
0.000439067
0.000434009
0.000418213
0.000389321
0.000340495
0.000285117
0.000258395
0.000270723
0.000239072
0.000872532
0.000977832
0.00100579
0.000996419
0.000972174
0.000946802
0.000926877
0.0009161
0.000917042
0.000932739
0.000963335
0.00100805
0.00105496
0.00109519
0.00111443
0.00110998
0.00107231
0.00101516
0.000953897
0.000902755
0.000864716
0.00083911
0.000814094
0.000780517
0.000721554
0.000628172
0.000521325
0.000452689
0.000409517
0.000391017
0.00101253
0.00116668
0.00123842
0.0012569
0.00125239
0.00124301
0.0012377
0.001243
0.00126465
0.00130941
0.00137859
0.00146907
0.00156105
0.00163741
0.0016771
0.00167474
0.00162079
0.00153401
0.00143666
0.00134822
0.00127646
0.0012227
0.00117435
0.00111575
0.00102833
0.000898091
0.000748258
0.00063825
0.000566632
0.000548667
0.00103998
0.00120961
0.00131397
0.00137361
0.00140351
0.0014217
0.00143958
0.00146957
0.00152206
0.00160785
0.00172849
0.00187687
0.00202251
0.00213872
0.0021996
0.00219885
0.00212974
0.00201453
0.00188253
0.00175908
0.00165515
0.00157284
0.00150042
0.00142013
0.0013098
0.00115217
0.000969097
0.000824147
0.00073115
0.000713257
0.00100631
0.00117512
0.00129701
0.00138249
0.0014411
0.00148839
0.00153702
0.00160136
0.00169533
0.00183599
0.00202187
0.00224057
0.00244673
0.00260393
0.00268457
0.00268274
0.00259721
0.00245343
0.0022875
0.00213125
0.00199811
0.00188994
0.00179578
0.00169715
0.00156917
0.0013924
0.00118516
0.0010115
0.000899748
0.000885571
0.000967225
0.00112031
0.00124445
0.00134228
0.00141883
0.00148742
0.00156283
0.00166264
0.00179953
0.00200446
0.00227022
0.00256988
0.00284148
0.00303919
0.00313657
0.00312977
0.00302562
0.00285237
0.00265347
0.00246658
0.00230712
0.00217635
0.00206342
0.00194961
0.00180874
0.00161975
0.00139577
0.00120002
0.00107314
0.0010644
0.000947254
0.00107767
0.00119401
0.00129564
0.00138405
0.00146986
0.00156706
0.00169273
0.00186656
0.00212683
0.00248876
0.0028722
0.00321167
0.00344842
0.00355853
0.00354236
0.00341706
0.0032137
0.00298318
0.0027682
0.00258538
0.00243525
0.00230645
0.00218039
0.00203075
0.00183475
0.00160033
0.00138843
0.00125038
0.00124722
0.000958754
0.00107371
0.00117419
0.00126972
0.00136107
0.00145662
0.00156986
0.00171952
0.00192994
0.00224476
0.00268373
0.00315364
0.00355896
0.00383332
0.00395153
0.00392181
0.00377293
0.00353937
0.00327962
0.00303956
0.00283656
0.00267004
0.00252813
0.00239237
0.00223704
0.00203768
0.00179907
0.00157584
0.00142971
0.0014318
0.000998571
0.00110329
0.00120263
0.00128987
0.00137183
0.00146715
0.00158933
0.001758
0.00200657
0.0023686
0.00286062
0.00341787
0.0038888
0.00419396
0.00431502
0.00426859
0.00409393
0.00383146
0.00354575
0.00328418
0.00306441
0.00288435
0.00273171
0.00258848
0.0024292
0.00222958
0.0019926
0.00176244
0.00161014
0.00161611
0.00112842
0.00121111
0.00128026
0.00134801
0.00142604
0.00152002
0.00164246
0.00182341
0.00209724
0.00249765
0.00303359
0.0036677
0.00420258
0.00452988
0.00464864
0.00458243
0.00438087
0.00409208
0.00378475
0.00350579
0.00327276
0.0030817
0.00292045
0.00277088
0.00260935
0.00241183
0.00217954
0.00194827
0.00179101
0.00179881
0.00131018
0.00139045
0.00145097
0.00150202
0.00154909
0.00161049
0.00171715
0.0019018
0.00219483
0.00262494
0.00320969
0.00391609
0.00449995
0.00483957
0.00495112
0.00486273
0.00463461
0.00432394
0.00400007
0.00370832
0.00346536
0.00326562
0.0030977
0.00294283
0.00277992
0.00258615
0.00236027
0.00213188
0.00197263
0.00198124
0.00156289
0.00164325
0.0016961
0.00172733
0.00174502
0.00177557
0.00185238
0.00200802
0.00229699
0.00275783
0.0034022
0.00416885
0.00477746
0.00512027
0.00522032
0.0051087
0.00485634
0.00453001
0.00419535
0.00389562
0.00364583
0.00343949
0.00326626
0.00310687
0.00294329
0.00275433
0.00253611
0.00231396
0.0021555
0.00216435
0.00188829
0.00196285
0.00200865
0.00201849
0.00200752
0.00200447
0.0020431
0.00218025
0.00246761
0.00294076
0.00362638
0.00443123
0.00503228
0.00536803
0.00545329
0.00531922
0.0050477
0.00471357
0.00437399
0.00407123
0.00381742
0.00360656
0.00342816
0.00326538
0.0031019
0.00291832
0.00270876
0.00249601
0.0023403
0.00234888
0.00226552
0.00233098
0.00236516
0.00235485
0.00232058
0.00228474
0.00228662
0.00238762
0.00267387
0.00318871
0.00389485
0.00467974
0.00525696
0.00557745
0.00564625
0.00549294
0.00521041
0.00487739
0.00453891
0.00423784
0.00398265
0.00376884
0.00358555
0.00342042
0.00325787
0.00308004
0.00288076
0.00267922
0.00252762
0.00253528
0.00266791
0.00272164
0.00273995
0.00271391
0.00265884
0.00259565
0.00256687
0.00262859
0.00289732
0.00342344
0.00413849
0.00488811
0.00544106
0.00574193
0.00579462
0.00562812
0.00534554
0.00502288
0.00469172
0.00439679
0.00414299
0.00392712
0.00373986
0.00357365
0.00341279
0.00324135
0.00305444
0.00286365
0.00271756
0.00272338
0.00307047
0.00310825
0.00310909
0.00306907
0.00299672
0.00291192
0.00285677
0.00288956
0.00312613
0.00364804
0.00433668
0.00504808
0.00557474
0.00585381
0.00589304
0.00572226
0.00545257
0.00514897
0.00483186
0.00454745
0.00429779
0.00408125
0.00389148
0.00372538
0.00356707
0.00340287
0.00322761
0.00304863
0.00290889
0.00291256
0.00345368
0.00346809
0.00345247
0.00339843
0.00331159
0.00320997
0.00313414
0.00314589
0.00333777
0.00384289
0.0044933
0.00515597
0.00564766
0.00590434
0.00593518
0.00577148
0.00552819
0.00525086
0.00495603
0.00468632
0.00444379
0.00422927
0.0040392
0.00387207
0.0037179
0.00356177
0.00339807
0.0032313
0.00309705
0.00310016
0.00379485
0.00378914
0.0037549
0.00368598
0.00358613
0.00347067
0.00337789
0.00336978
0.00351266
0.00398341
0.00459003
0.00519487
0.00564724
0.00588358
0.00591356
0.00576979
0.00556523
0.00532079
0.0050556
0.00480589
0.00457496
0.00436582
0.00417902
0.00401246
0.00385948
0.00371041
0.00355766
0.00340322
0.00328019
0.00328258
0.00408317
0.00405646
0.00400514
0.00392147
0.00380894
0.00368031
0.00356995
0.00353658
0.00363419
0.00404565
0.00460513
0.00514708
0.00555994
0.00578113
0.00581966
0.00570872
0.00555184
0.00534601
0.00511705
0.0048933
0.00468006
0.00448208
0.00430229
0.00414031
0.00399157
0.00384926
0.00370671
0.00356569
0.00345552
0.00345456
0.00431052
0.00426294
0.00419475
0.00409753
0.00397275
0.00383044
0.00369962
0.00363451
0.00368442
0.00401407
0.00451297
0.00499816
0.00537434
0.00558827
0.00564515
0.00557833
0.00547187
0.00530928
0.00512161
0.00492955
0.0047407
0.00456084
0.00439391
0.00424177
0.0041016
0.0039682
0.00383708
0.00371062
0.00361268
0.00360615
0.00446607
0.00439983
0.00431703
0.00420824
0.00407243
0.00391597
0.00376224
0.00365939
0.00365655
0.00388977
0.00430309
0.00473803
0.00508843
0.00530333
0.00538591
0.00536912
0.0053101
0.00519276
0.00504828
0.00489159
0.00473129
0.00457471
0.00442753
0.0042922
0.00416699
0.00404782
0.00393158
0.00382086
0.0037349
0.00372239
0.0045384
0.00445839
0.00436584
0.0042492
0.00410538
0.00393653
0.00376055
0.00361888
0.00356148
0.00369279
0.00400531
0.00438454
0.00471655
0.00494236
0.00505148
0.00508194
0.00506253
0.00498847
0.00488342
0.00476116
0.00463238
0.00450329
0.00438032
0.00426704
0.0041624
0.00406274
0.0039658
0.0038736
0.00380119
0.00378395
0.00451899
0.00443343
0.00433845
0.00422081
0.00407534
0.00390029
0.00370937
0.00353805
0.00343371
0.00347532
0.00369228
0.00400042
0.00430912
0.00454828
0.00467961
0.00474514
0.00475383
0.00471465
0.00464281
0.00455078
0.00444928
0.00434528
0.00424528
0.00415356
0.00407002
0.00399203
0.00391713
0.00384608
0.00378903
0.00377005
0.00441065
0.00432999
0.0042424
0.0041348
0.00399908
0.00382998
0.00363998
0.00346015
0.00332748
0.00331231
0.00344891
0.00368571
0.00395166
0.00418842
0.0043347
0.00441619
0.00444029
0.00442341
0.00437389
0.00430286
0.00422019
0.00413325
0.00404872
0.00397159
0.0039028
0.00384063
0.00378262
0.00372858
0.00368554
0.00366815
0.00423885
0.00417452
0.00410632
0.00402298
0.00390836
0.00376228
0.00359457
0.00342986
0.00330081
0.00326269
0.00333993
0.00350959
0.0037218
0.00392842
0.00407376
0.00415196
0.0041779
0.00416933
0.00413081
0.00407132
0.00399916
0.00392145
0.00384459
0.00377378
0.00371082
0.00365514
0.00360444
0.0035581
0.00352139
0.00350606
0.0040586
0.00401749
0.00397579
0.00392205
0.00384347
0.00373504
0.00360486
0.00347325
0.00336765
0.0033243
0.00336173