/*--------------------------------*- C++ -*----------------------------------*\
  =========                 |
  \\      /  F ield         | OpenFOAM: The Open Source CFD Toolbox
   \\    /   O peration     | Website:  https://openfoam.org
    \\  /    A nd           | Version:  12
     \\/     M anipulation  |
\*---------------------------------------------------------------------------*/
FoamFile
{
    format      ascii;
    class       volScalarField;
    location    "1050/air";
    object      p_rgh;
}
// * * * * * * * * * * * * * * * * * * * * * * * * * * * * * * * * * * * * * //

dimensions      [1 -1 -2 0 0 0 0];

internalField   nonuniform List<scalar> 
243000
(
29.4914
29.5019
29.5259
29.5239
29.5173
29.498
29.4664
29.4313
29.4002
29.381
29.3762
29.3858
29.4162
29.4826
29.5659
29.6684
29.7691
29.8626
29.9295
29.9698
29.9857
29.9883
29.9792
29.9642
29.9465
29.9286
29.9281
29.9368
30.0569
30.0768
29.4785
29.4874
29.5191
29.5178
29.5111
29.4902
29.46
29.4287
29.4001
29.3817
29.379
29.3936
29.4278
29.4909
29.5721
29.6761
29.7763
29.8694
29.9363
29.9774
29.9942
29.9983
29.9906
29.976
29.9582
29.9382
29.9343
29.9378
30.0577
30.0267
29.467
29.4752
29.5108
29.5102
29.5031
29.4832
29.4545
29.4223
29.3936
29.3764
29.3748
29.3902
29.4226
29.4855
29.5704
29.6778
29.7803
29.8755
29.9445
29.9879
30.0062
30.0108
30.0035
29.9889
29.971
29.9487
29.94
29.9336
30.0412
30.0103
29.44
29.4555
29.4961
29.4981
29.4933
29.4739
29.4469
29.4148
29.3865
29.3698
29.3684
29.3829
29.4143
29.4772
29.5627
29.672
29.7776
29.8767
29.9473
29.9915
30.0107
30.0158
30.0095
29.9963
29.9794
29.9564
29.944
29.9287
30.0195
29.988
29.3986
29.4218
29.4699
29.4774
29.4769
29.4605
29.4366
29.408
29.3795
29.3632
29.3616
29.3749
29.4041
29.4648
29.5493
29.6596
29.7666
29.8676
29.941
29.9873
30.0074
30.0135
30.0083
29.9961
29.981
29.9591
29.9451
29.9246
29.9994
29.9668
29.3461
29.3728
29.4281
29.4434
29.449
29.438
29.4191
29.3963
29.3718
29.3565
29.3545
29.367
29.394
29.4511
29.533
29.6436
29.7514
29.8538
29.9288
29.977
29.9983
30.006
30.0031
29.9931
29.9792
29.9584
29.9442
29.9213
29.9816
29.947
29.2849
29.3135
29.3748
29.3972
29.4089
29.4049
29.3926
29.3763
29.3596
29.3484
29.347
29.3585
29.3836
29.4367
29.5136
29.6234
29.731
29.8341
29.9102
29.9594
29.9818
29.9916
29.9918
29.9852
29.9742
29.9552
29.9414
29.917
29.9659
29.9299
29.2184
29.2465
29.3126
29.3424
29.3609
29.3645
29.3589
29.3485
29.3393
29.3359
29.3377
29.349
29.3723
29.4211
29.4919
29.5991
29.7052
29.8082
29.8845
29.9338
29.9571
29.9694
29.9735
29.9711
29.9647
29.949
29.9362
29.9112
29.9521
29.9156
29.1513
29.1757
29.2441
29.2811
29.3066
29.3182
29.3205
29.3168
29.3131
29.3167
29.3245
29.3377
29.3596
29.404
29.4684
29.5707
29.6742
29.7759
29.8514
29.8999
29.924
29.939
29.9477
29.9507
29.9496
29.9384
29.9286
29.9046
29.9397
29.9031
29.0857
29.1048
29.1731
29.216
29.2477
29.2668
29.2773
29.2817
29.2845
29.2928
29.3064
29.3238
29.3451
29.3854
29.4425
29.5385
29.6379
29.7372
29.8106
29.8577
29.8823
29.9003
29.9141
29.9232
29.9288
29.9228
29.9176
29.8961
29.9277
29.8929
29.0237
29.0367
29.1022
29.1489
29.1866
29.2125
29.2308
29.2429
29.2528
29.2661
29.2841
29.3066
29.3288
29.3648
29.4139
29.5025
29.5965
29.6922
29.7622
29.8075
29.8324
29.8534
29.8727
29.8886
29.9018
29.9021
29.9028
29.8852
29.9157
29.8844
28.9653
28.9726
29.0347
29.0828
29.1248
29.1568
29.182
29.2017
29.2181
29.2369
29.2589
29.2859
29.3102
29.342
29.3829
29.4631
29.5501
29.6409
29.7065
29.7494
29.7746
29.7987
29.8234
29.8465
29.8678
29.876
29.8843
29.8716
29.9031
29.8765
28.9104
28.913
28.971
29.0197
29.0641
29.1013
29.1319
29.1585
29.1815
29.2052
29.2317
29.2625
29.2885
29.3167
29.3496
29.4203
29.499
29.5837
29.6438
29.684
29.7092
29.7364
29.7667
29.7973
29.827
29.8441
29.8613
29.8549
29.8893
29.868
28.8588
28.8573
28.911
28.9596
29.0057
29.0466
29.082
29.1141
29.1432
29.1717
29.2024
29.2363
29.2632
29.2887
29.3138
29.3743
29.4436
29.5208
29.5747
29.6117
29.6369
29.6669
29.7027
29.741
29.7795
29.8061
29.8333
29.8348
29.8738
29.8582
28.809
28.8049
28.8544
28.9022
28.949
28.9927
29.0323
29.0689
29.1031
29.1366
29.1705
29.2072
29.2349
29.2578
29.2754
29.3251
29.384
29.4526
29.4997
29.5333
29.5582
29.5909
29.632
29.6779
29.7251
29.7616
29.7991
29.8112
29.856
29.847
28.7597
28.7546
28.8007
28.8475
28.8942
28.9396
28.9821
29.0224
29.061
29.0994
29.1363
29.1751
29.2036
29.2239
29.2343
29.273
29.3209
29.3797
29.4194
29.4495
29.4739
29.509
29.5549
29.6078
29.6637
29.7106
29.759
29.783
29.835
29.8336
28.711
28.7051
28.7486
28.7946
28.841
28.8871
28.9316
28.9745
29.0165
29.0592
29.0997
29.1402
29.1688
29.1867
29.1902
29.2181
29.2545
29.3027
29.3349
29.3612
29.3847
29.4213
29.4716
29.5312
29.5958
29.6532
29.7124
29.7491
29.8089
29.8189
28.662
28.6562
28.6967
28.7419
28.788
28.8348
28.8807
28.9252
28.9695
29.0151
29.0595
29.102
29.1303
29.146
29.1428
29.1605
29.1851
29.2226
29.2474
29.2688
29.2908
29.329
29.3832
29.4486
29.5213
29.5891
29.659
29.7088
29.7769
29.8013
28.6102
28.6064
28.6444
28.6885
28.734
28.781
28.8279
28.8739
28.9199
28.968
29.0155
29.06
29.0878
29.1016
29.0918
29.1004
29.1137
29.1402
29.1563
29.1731
29.1943
29.2335
29.2897
29.3601
29.4402
29.5178
29.5982
29.6615
29.7383
29.7787
28.5529
28.5514
28.5878
28.6322
28.6779
28.7251
28.7724
28.8192
28.8662
28.9179
28.9679
29.0135
29.041
29.0533
29.0372
29.0383
29.0402
29.0557
29.0641
29.0772
29.0966
29.1345
29.1918
29.2661
29.3522
29.4388
29.5295
29.6061
29.6919
29.7477
28.4826
28.4858
28.5221
28.5679
28.615
28.6637
28.7127
28.7601
28.8097
28.864
28.9158
28.9622
28.9894
29.0007
28.9796
28.9732
28.9663
28.9718
28.9742
28.9821
28.9976
29.0331
29.0902
29.167
29.2576
29.3518
29.452
29.5418
29.637
29.7077
28.3929
28.4026
28.4411
28.4902
28.5405
28.5918
28.6427
28.6954
28.7505
28.8063
28.8588
28.906
28.933
28.9439
28.9203
28.9075
28.8938
28.8908
28.8862
28.8878
28.8986
28.931
28.9864
29.0633
29.1561
29.256
29.3642
29.4662
29.571
29.6561
28.2765
28.295
28.3385
28.3927
28.4476
28.5052
28.5645
28.6252
28.6845
28.7428
28.7971
28.8449
28.8721
28.8834
28.8597
28.8431
28.823
28.8128
28.8013
28.7976
28.8034
28.831
28.8822
28.9563
29.0484
29.1511
29.265
29.3774
29.4913
29.5907
28.1192
28.1469
28.1975
28.2638
28.3333
28.4048
28.476
28.5439
28.6087
28.6716
28.7294
28.7788
28.8074
28.8203
28.7988
28.7811
28.7569
28.7415
28.7252
28.7161
28.7155
28.7349
28.7785
28.847
28.935
29.0371
29.1533
29.2731
29.3948
29.5069
27.922
27.9668
28.0358
28.1211
28.2074
28.2917
28.3721
28.4492
28.5222
28.5922
28.6552
28.7083
28.7404
28.7575
28.7426
28.7286
28.7042
28.6858
28.6645
28.6494
28.6421
28.6522
28.6851
28.7434
28.8221
28.9182
29.0319
29.1536
29.2805
29.4038
27.657
27.7273
27.8244
27.9345
28.0434
28.1481
28.2473
28.3409
28.4278
28.5087
28.5792
28.6388
28.6774
28.7019
28.6977
28.6917
28.671
28.6512
28.6245
28.6035
28.5888
28.5879
28.6065
28.6496
28.7136
28.7973
28.8994
29.013
29.1358
29.263
27.394
27.4992
27.6265
27.7637
27.8971
28.0223
28.1385
28.2458
28.3434
28.4329
28.5111
28.5792
28.6276
28.6648
28.6736
28.6783
28.6649
28.6477
28.6192
28.5919
28.5685
28.5573
28.5609
28.5879
28.6352
28.7028
28.7886
28.8923
29.0092
29.1384
26.8932
27.075
27.278
27.4841
27.6743
27.8439
27.9939
28.1279
28.246
28.353
28.4464
28.5291
28.5915
28.643
28.6655
28.6812
28.675
28.6599
28.6275
28.59
28.5535
28.5232
28.5045
28.5058
28.5247
28.5635
28.6193
28.6949
28.7843
28.8969
26.8733
27.1065
27.3442
27.5655
27.7596
27.9252
28.0653
28.188
28.2966
28.3973
28.4877
28.5716
28.6393
28.6993
28.7334
28.7634
28.7724
28.7713
28.7527
28.7265
28.698
28.674
28.6581
28.6569
28.6758
28.7144
28.7682
28.8429
28.9292
29.0563
25.5149
25.8724
26.2721
26.6516
26.9769
27.2423
27.4514
27.6243
27.7745
27.9113
28.0322
28.1445
28.2359
28.3157
28.361
28.3942
28.4022
28.3938
28.3567
28.303
28.237
28.163
28.088
28.0209
27.9654
27.9243
27.8935
27.886
27.897
27.9673
29.2839
29.3486
29.4314
29.4504
29.4593
29.4503
29.4266
29.3981
29.3695
29.3488
29.3364
29.3361
29.3456
29.3789
29.4253
29.4969
29.5667
29.6394
29.6945
29.7398
29.7747
29.8042
29.8255
29.8395
29.8462
29.8447
29.8427
29.8439
29.946
29.9963
29.2778
29.3389
29.4268
29.4534
29.4679
29.4586
29.4338
29.4046
29.3754
29.3554
29.3435
29.344
29.3551
29.3896
29.4358
29.5075
29.5768
29.6495
29.7048
29.7509
29.7863
29.8161
29.8376
29.8518
29.8589
29.856
29.8523
29.8468
29.948
29.9273
29.2526
29.3104
29.3981
29.4312
29.4539
29.4518
29.4344
29.407
29.3781
29.3583
29.3469
29.348
29.3589
29.3933
29.4387
29.5097
29.5782
29.6506
29.7049
29.749
29.783
29.8145
29.8377
29.8526
29.8596
29.8556
29.8519
29.8415
29.9333
29.9191
29.2148
29.2738
29.3588
29.3956
29.4253
29.4312
29.4224
29.4021
29.3783
29.3598
29.3492
29.3509
29.3609
29.3938
29.4382
29.5075
29.5728
29.6432
29.6955
29.7387
29.7722
29.8054
29.831
29.8489
29.8582
29.8542
29.8502
29.8362
29.9173
29.8969
29.17
29.2328
29.3175
29.3563
29.3899
29.4012
29.3999
29.3875
29.3703
29.3567
29.3492
29.3516
29.3599
29.3916
29.4326
29.4986
29.5593
29.6265
29.6763
29.7182
29.7517
29.7867
29.8159
29.8381
29.8513
29.8485
29.8458
29.8284
29.9011
29.8755
29.1224
29.1872
29.2734
29.3152
29.3518
29.3669
29.3711
29.3661
29.3565
29.3489
29.3458
29.3502
29.3572
29.3871
29.4231
29.4842
29.5391
29.602
29.6485
29.689
29.7229
29.7602
29.7938
29.8212
29.8396
29.8392
29.839
29.8196
29.8858
29.857
29.0743
29.1407
29.228
29.2731
29.3121
29.3303
29.3387
29.3396
29.3373
29.3369
29.3385
29.3463
29.3525
29.3802
29.4104
29.4651
29.5131
29.5707
29.6132
29.6521
29.6866
29.7267
29.7652
29.7986
29.8233
29.8267
29.8301
29.8104
29.871
29.8403
29.0258
29.0938
29.1826
29.2305
29.2712
29.2924
29.3045
29.3101
29.3136
29.3202
29.3273
29.3389
29.3457
29.3711
29.395
29.442
29.482
29.5332
29.5711
29.6081
29.6434
29.6867
29.7307
29.7705
29.8023
29.8108
29.8193
29.8003
29.8569
29.8257
28.9768
29.0416
29.1333
29.1857
29.2294
29.2536
29.2687
29.2784
29.2869
29.299
29.3118
29.3274
29.336
29.3594
29.3768
29.4153
29.4462
29.4899
29.5229
29.5579
29.5939
29.6408
29.6905
29.7373
29.7766
29.7916
29.8063
29.7897
29.8432
29.813
28.9309
28.9844
29.0755
29.1334
29.1827
29.2127
29.2323
29.2455
29.258
29.2746
29.292
29.3121
29.323
29.3451
29.3559
29.3854
29.4061
29.4416
29.4693
29.502
29.5387
29.5895
29.6451
29.6989
29.7464
29.7689
29.7909
29.7782
29.8302
29.8019
28.8885
28.9274
29.0152
29.0744
29.1282
29.1654
29.1929
29.2119
29.2278
29.2478
29.2688
29.2933
29.3066
29.328
29.3321
29.3522
29.362
29.3889
29.4106
29.4409
29.4782
29.5329
29.5944
29.6555
29.7115
29.7426
29.7731
29.7654
29.8177
29.7917
28.8483
28.8703
28.9543
29.0152
29.0711
29.1132
29.1474
29.1748
29.1968
29.2191
29.243
29.2708
29.2865
29.308
29.3053
29.3158
29.3145
29.3322
29.3475
29.3751
29.4129
29.4715
29.539
29.6073
29.6719
29.7124
29.7524
29.751
29.805
29.7818
28.8119
28.8182
28.895
28.956
29.0149
29.0611
29.0997
29.1331
29.1632
29.189
29.2151
29.2449
29.2629
29.2848
29.2751
29.2759
29.2641
29.2725
29.2807
29.3052
29.3434
29.4054
29.479
29.5546
29.6279
29.6781
29.7279
29.7349
29.7919
29.7723
28.7789
28.771
28.8417
28.8991
28.959
29.0098
29.0528
29.0901
29.1254
29.1582
29.1852
29.216
29.2363
29.2584
29.2419
29.233
29.2106
29.2102
29.211
29.2322
29.2704
29.3353
29.4149
29.4976
29.5791
29.6393
29.6996
29.7167
29.7778
29.7628
28.7486
28.7281
28.7938
28.8482
28.906
28.9594
29.0064
29.0479
29.086
29.1262
29.1536
29.1848
29.2068
29.2288
29.2059
29.1876
29.1543
29.1457
29.1396
29.1567
29.1947
29.2627
29.3469
29.4363
29.5256
29.5964
29.6673
29.6964
29.7622
29.7533
28.7194
28.6894
28.7508
28.8025
28.8582
28.9117
28.9614
29.0066
29.0474
29.0917
29.1205
29.1527
29.175
29.1964
29.1675
29.1401
29.096
29.0796
29.0673
29.08
29.1168
29.187
29.2754
29.3711
29.4691
29.5503
29.631
29.673
29.7443
29.7428
28.6878
28.6545
28.7121
28.7615
28.8152
28.868
28.9192
28.9668
29.0101
29.0556
29.0869
29.1207
29.1413
29.1615
29.1271
29.0913
29.0366
29.0127
28.9953
29.0015
29.0365
29.1091
29.2022
29.3042
29.4099
29.5005
29.5902
29.6457
29.7224
29.7321
28.6502
28.6188
28.6755
28.7241
28.7764
28.8286
28.8803
28.9297
28.9748
29.0201
29.0539
29.0882
29.1061
29.1249
29.0853
29.0423
28.9775
28.9459
28.9215
28.9223
28.9572
29.0323
29.1281
29.2349
29.3473
29.4464
29.5446
29.6129
29.6957
29.7198
28.6062
28.5789
28.6358
28.6864
28.7394
28.7925
28.8449
28.896
28.9422
28.9874
29.0227
29.055
29.0706
29.0872
29.043
28.9939
28.9181
28.8786
28.8482
28.8485
28.8822
28.9561
29.0528
29.1635
29.2813
29.3883
29.4938
29.5742
29.664
29.7042
28.554
28.5344
28.5912
28.6439
28.6994
28.7559
28.8111
28.8647
28.9126
28.9585
28.9938
29.0229
29.0361
29.0496
29.0014
28.9445
28.8605
28.8151
28.7832
28.7802
28.8093
28.8807
28.9781
29.0911
29.213
29.3272
29.4395
29.5308
29.6278
29.6832
28.4914
28.4822
28.5408
28.5965
28.6551
28.7153
28.7755
28.8334
28.8843
28.9329
28.9666
28.9939
29.004
29.014
28.962
28.8982
28.8112
28.7599
28.7228
28.7145
28.7397
28.8088
28.9052
29.0194
29.1439
29.2638
29.3819
29.4831
29.5867
29.6567
28.4151
28.4178
28.481
28.5424
28.6057
28.6716
28.7387
28.8029
28.8587
28.9092
28.9428
28.9694
28.9767
28.9825
28.9275
28.863
28.7702
28.711
28.6666
28.6547
28.6768
28.743
28.8374
28.9508
29.0759
29.1995
29.322
29.4315
29.5415
29.6255
28.3202
28.3378
28.4083
28.4787
28.5508
28.6254
28.7011
28.7733
28.8354
28.888
28.9239
28.9503
28.9579
28.9589
28.9017
28.837
28.7387
28.672
28.6209
28.6067
28.6271
28.6906
28.7812
28.8908
29.0135
29.1376
29.2617
29.3767
29.4917
29.5887
28.1998
28.2385
28.3191
28.4001
28.4833
28.5687
28.6548
28.7371
28.8086
28.8693
28.9101
28.94
28.9496
28.9464
28.8895
28.8242
28.7232
28.6506
28.5933
28.5755
28.592
28.6477
28.7318
28.8348
28.9529
29.0754
29.1995
29.3181
29.435
29.5418
28.0525
28.1183
28.2123
28.3091
28.4093
28.5107
28.6084
28.6996
28.7806
28.8523
28.9017
28.9387
28.9513
28.9479
28.8926
28.8284
28.7234
28.6472
28.5838
28.5574
28.565
28.6099
28.6854
28.7809
28.8932
29.0134
29.1361
29.2556
29.3725
29.4872
27.8775
27.9796
28.095
28.2121
28.3323
28.4533
28.5666
28.6692
28.7589
28.8392
28.8974
28.9467
28.9645
28.9641
28.9127
28.8509
28.7465
28.6661
28.5936
28.5583
28.5597
28.5953
28.6603
28.7453
28.8469
28.9594
29.0771
29.1942
29.3069
29.4265
27.7045
27.8506
27.9863
28.1238
28.2655
28.4062
28.5344
28.647
28.7455
28.8354
28.9092
28.9693
28.9921
28.9976
28.9533
28.8966
28.7961
28.7133
28.6353
28.596
28.594
28.6229
28.6758
28.7528
28.8428
28.9378
29.041
29.15
29.2538
29.3763
27.5203
27.7066
27.8707
28.0425
28.2172
28.3817
28.5271
28.6592
28.7778
28.8811
28.9656
29.0339
29.0628
29.0792
29.0432
28.9928
28.8943
28.8081
28.7247
28.6796
28.6705
28.691
28.732
28.7935
28.8657
28.9475
29.0331
29.1194
29.2038
29.3175
27.5766
27.8012
27.9935
28.1937
28.3936
28.5764
28.7336
28.8734
28.9977
29.1077
29.1967
29.2675
29.303
29.3299
29.3006
29.2547
29.1557
29.0683
28.9812
28.9293
28.9106
28.9211
28.9498
28.9963
29.0549
29.1228
29.1934
29.267
29.3377
29.4408
28.3328
28.5239
28.6815
28.8585
29.041
29.208
29.3466
29.4644
29.5641
29.652
29.72
29.7753
29.8015
29.8234
29.7949
29.7521
29.6608
29.5842
29.5078
29.467
29.4592
29.4812
29.5235
29.5851
29.6611
29.7457
29.8289
29.9149
29.9949
30.1072
29.0365
29.0501
29.0814
29.0926
29.1153
29.1361
29.152
29.1664
29.1779
29.1949
29.2121
29.2421
29.2672
29.3098
29.3448
29.4039
29.4439
29.4886
29.5149
29.5499
29.5904
29.6417
29.6922
29.7372
29.7685
29.7803
29.7654
29.7396
29.804
29.8676
29.028
29.043
29.0788
29.1008
29.1291
29.1514
29.1677
29.182
29.1933
29.2101
29.2271
29.2571
29.2821
29.3251
29.3605
29.4207
29.4612
29.5075
29.5345
29.5695
29.6085
29.6578
29.7063
29.7499
29.7806
29.7926
29.7809
29.7464
29.8052
29.806
29.0144
29.0338
29.0707
29.0975
29.1288
29.155
29.1742
29.1895
29.2019
29.2196
29.2372
29.2676
29.292
29.3351
29.3694
29.4294
29.4678
29.5127
29.5375
29.5719
29.6104
29.6604
29.7096
29.7536
29.7846
29.796
29.787
29.7484
29.7994
29.8042
28.9925
29.0179
29.0565
29.0893
29.1249
29.1539
29.1772
29.1954
29.2093
29.2282
29.2464
29.2769
29.3002
29.3429
29.3751
29.4345
29.47
29.5139
29.5356
29.567
29.6038
29.6564
29.7094
29.7548
29.7866
29.797
29.7905
29.7514
29.7953
29.7928
28.9669
28.9973
29.0389
29.0771
29.1167
29.1487
29.1746
29.195
29.2123
29.2332
29.252
29.2828
29.3043
29.346
29.3746
29.4322
29.4632
29.5042
29.5223
29.5506
29.5851
29.6383
29.6942
29.7459
29.7826
29.7938
29.7893
29.7531
29.7898
29.7811
28.9477
28.9794
29.0225
29.0635
29.1059
29.1403
29.1687
29.1917
29.211
29.2341
29.254
29.2858
29.304
29.345
29.369
29.4239
29.4492
29.486
29.4996
29.5249
29.5575
29.6119
29.6716
29.7283
29.7713
29.7866
29.786
29.7529
29.7841
29.771
28.9261
28.9608
29.0068
29.0496
29.0941
29.1305
29.161
29.1861
29.2073
29.2323
29.2529
29.2852
29.302
29.3409
29.3591
29.4102
29.4286
29.4601
29.4687
29.4908
29.5218
29.5781
29.6422
29.7047
29.7547
29.7754
29.7811
29.7512
29.7794
29.7613
28.8958
28.9369
28.988
29.0332
29.0796
29.118
29.1509
29.1784
29.2017
29.2284
29.2498
29.2827
29.2979
29.3339
29.3452
29.3919
29.4022
29.4271
29.4304
29.4492
29.4788
29.5374
29.6065
29.6752
29.733
29.7599
29.7737
29.7481
29.7756
29.7521
28.8585
28.9051
28.9645
29.0141
29.0635
29.1036
29.1376
29.1675
29.1939
29.2227
29.2445
29.2781
29.2912
29.324
29.3278
29.3693
29.3702
29.3879
29.3855
29.4009
29.4291
29.4904
29.5649
29.6403
29.7062
29.7405
29.7631
29.7429
29.7718
29.7435
28.8223
28.8688
28.936
28.9908
29.0445
29.0878
29.1232
29.1544
29.1829
29.2148
29.2367
29.271
29.2819
29.3115
29.307
29.3426
29.3335
29.3432
29.335
29.3466
29.3732
29.4375
29.5177
29.6002
29.6745
29.7172
29.7495
29.735
29.7672
29.7357
28.7901
28.8325
28.905
28.9643
29.0217
29.068
29.107
29.1404
29.1699
29.204
29.2267
29.2612
29.2699
29.2965
29.2828
29.3123
29.2925
29.294
29.2792
29.2869
29.312
29.3793
29.4654
29.5552
29.6382
29.6901
29.7327
29.7247
29.7611
29.7291
28.7623
28.7961
28.8712
28.933
28.9951
29.0446
29.0872
29.1242
29.1562
29.191
29.2144
29.2488
29.2552
29.279
29.2559
29.2788
29.2472
29.2407
29.2189
29.2226
29.246
29.3163
29.4085
29.5058
29.5974
29.6591
29.7125
29.7119
29.7537
29.7237
28.7389
28.7619
28.8371
28.8979
28.9631
29.0176
29.0641
29.105
29.1404
29.1769
29.1999
29.2341
29.2378
29.2591
29.2264
29.2425
29.1983
29.184
29.1547
29.1544
29.1759
29.2492
29.3474
29.4521
29.5525
29.6242
29.6881
29.6969
29.7447
29.7189
28.7177
28.7298
28.8039
28.8633
28.929
28.9872
29.0378
29.0829
29.1213
29.1606
29.1838
29.2172
29.2178
29.237
29.1947
29.2039
29.1466
29.1247
29.0875
29.0833
29.1027
29.1787
29.2827
29.3946
29.5036
29.5857
29.6597
29.6793
29.7338
29.7141
28.6975
28.6989
28.7716
28.8297
28.895
28.9551
29.009
29.0582
29.0995
29.1412
29.1655
29.1983
29.1955
29.2128
29.161
29.1635
29.0927
29.0624
29.0179
29.01
29.0272
29.1054
29.2146
29.3337
29.4515
29.5438
29.6276
29.6597
29.7211
29.7086
28.6781
28.6686
28.7404
28.7971
28.8613
28.9223
28.9791
29.0316
29.0755
29.1193
29.145
29.1777
29.1712
29.187
29.1259
29.1219
29.0374
28.9987
28.9472
28.9354
28.9502
29.0303
29.1442
29.2701
29.3964
29.4987
29.5918
29.6375
29.7061
29.7024
28.657
28.6388
28.7095
28.7654
28.8289
28.89
28.9491
29.0043
29.0505
29.0959
29.1232
29.1559
29.1455
29.16
29.09
29.0799
28.982
28.9357
28.8762
28.8605
28.873
28.9547
29.0717
29.2041
29.3381
29.4508
29.5529
29.6128
29.6882
29.6965
28.6319
28.6094
28.6789
28.7345
28.7978
28.859
28.9201
28.9781
29.0263
29.0722
29.1008
29.1338
29.1194
29.1328
29.0542
29.0386
28.9275
28.8732
28.8057
28.787
28.7973
28.879
28.9971
29.1361
29.2776
29.4005
29.5116
29.5854
29.6671
29.6905
28.6004
28.5786
28.648
28.704
28.7678
28.8304
28.893
28.9542
29.0042
29.0506
29.0792
29.1127
29.0943
29.1064
29.0198
28.9993
28.8757
28.8129
28.7384
28.7163
28.7234
28.8011
28.9222
29.0665
29.2152
29.3468
29.4655
29.5516
29.6422
29.6812
28.5612
28.5443
28.6148
28.6733
28.7387
28.8043
28.8693
28.9332
28.9851
29.0323
29.0604
29.0945
29.0722
29.0825
28.9884
28.9634
28.8288
28.7579
28.6747
28.6479
28.6495
28.7241
28.85
28.9969
29.15
29.289
29.4156
29.5133
29.6134
29.6682
28.5127
28.5056
28.5779
28.6407
28.7099
28.7801
28.8487
28.9162
28.9706
29.0191
29.0468
29.0812
29.0554
29.0634
28.9624
28.9346
28.7892
28.7092
28.6148
28.5822
28.5785
28.6559
28.7815
28.9297
29.0855
29.231
29.3654
29.4753
29.5816
29.6498
28.4539
28.4593
28.5359
28.6053
28.6809
28.7571
28.8305
28.9024
28.9609
29.0121
29.0411
29.0753
29.047
29.0519
28.9448
28.915
28.759
28.6693
28.5642
28.5244
28.5181
28.5949
28.7166
28.8646
29.0226
29.173
29.3138
29.4341
29.5455
29.6256
28.3817
28.4031
28.4876
28.5651
28.6485
28.733
28.814
28.892
28.9551
29.0107
29.0451
29.0799
29.0495
29.0526
28.9399
28.9081
28.7436
28.6444
28.5266
28.4764
28.4681
28.5386
28.6559
28.8021
28.9605
29.1145
29.2594
29.3872
29.5047
29.5963
28.2921
28.3373
28.433
28.5223
28.6158
28.7083
28.7978
28.8834
28.9532
29.0218
29.0613
29.0971
29.065
29.0649
28.9487
28.9157
28.7409
28.6348
28.505
28.443
28.4313
28.4959
28.6073
28.7487
28.9046
29.0593
29.206
29.3377
29.4577
29.5615
28.186
28.2644
28.3745
28.4785
28.5841
28.6863
28.7846
28.878
28.9598
29.0415
29.0881
29.1264
29.0948
29.0919
28.9736
28.9409
28.7593
28.6452
28.5019
28.4339
28.4154
28.4719
28.5744
28.7099
28.8616
29.0139
29.1587
29.2921
29.4125
29.5268
28.0667
28.1893
28.3162
28.4374
28.5552
28.6678
28.7758
28.8784
28.9791
29.0702
29.1251
29.1684
29.1394
29.1371
29.0189
28.9889
28.802
28.6816
28.5276
28.4475
28.4203
28.474
28.5722
28.6999
28.8433
28.9895
29.1289
29.2591
29.3753
29.4928
27.9607
28.1285
28.2727
28.4083
28.5382
28.6606
28.7807
28.9027
29.0135
29.1134
29.1776
29.2276
29.2035
29.2067
29.0905
29.0677
28.8815
28.7592
28.5958
28.5027
28.4639
28.5038
28.5898
28.7128
28.8521
28.9944
29.1298
29.2548
29.3632
29.4804
27.8893
28.0889
28.2451
28.3939
28.5367
28.6807
28.8183
28.9495
29.0676
29.1747
29.2476
29.3067
29.2892
29.3017
29.1902
29.1793
28.9938
28.8697
28.698
28.5926
28.5414
28.5708
28.6417
28.7496
28.8796
29.0185
29.1512
29.2731
29.3765
29.4931
27.8968
28.1271
28.2981
28.4609
28.6121
28.7607
28.9012
29.0329
29.1516
29.2612
29.3396
29.4093
29.401
29.4265
29.3219
29.3276
29.146
29.025
28.8493
28.7347
28.6707
28.6879
28.7471
28.8403
28.9575
29.0856
29.2101
29.3293
29.4307
29.552
28.0192
28.2311
28.402
28.5684
28.7223
28.87
29.0066
29.1339
29.2487
29.3564
29.4365
29.5121
29.5176
29.5618
29.474
29.511
29.3455
29.24
29.0704
28.9553
28.8815
28.8863
28.9322
29.0133
29.119
29.241
29.3658
29.4898
29.5984
29.7196
29.1148
28.9354
28.9135
28.8812
28.8844
28.9087
28.9387
28.9746
29.0109
29.0548
29.0936
29.1437
29.1735
29.2192
29.2289
29.2574
29.2402
29.2378
29.2256
29.25
29.3058
29.3979
29.5004
29.6006
29.6805
29.7319
29.7318
29.6967
29.7365
29.834
29.0589
28.8853
28.8906
28.8774
28.895
28.9259
28.9587
28.9957
29.0324
29.0758
29.1137
29.1629
29.1913
29.2366
29.2461
29.2756
29.2591
29.2588
29.2467
29.2692
29.3207
29.412
29.5131
29.6121
29.6903
29.7396
29.7426
29.7015
29.7325
29.782
28.9989
28.8534
28.8689
28.8693
28.8941
28.9308
28.9691
29.0086
29.0466
29.0908
29.1288
29.1775
29.2044
29.249
29.2556
29.2832
29.2631
29.261
29.2451
29.2655
29.32
29.4141
29.5169
29.6163
29.6945
29.7429
29.7502
29.7033
29.7317
29.7678
28.9279
28.8171
28.8407
28.8547
28.889
28.93
28.9745
29.0189
29.0591
29.1042
29.1424
29.1906
29.2154
29.2594
29.262
29.2873
29.2617
29.2556
29.2354
29.2506
29.3018
29.4023
29.5127
29.6159
29.6955
29.7438
29.7545
29.7084
29.7276
29.749
28.8597
28.7865
28.8142
28.8394
28.8813
28.9265
28.9736
29.0215
29.0655
29.1135
29.1518
29.1997
29.2217
29.2649
29.2619
29.2838
29.2497
29.237
29.2123
29.2226
29.2708
29.3725
29.4917
29.6025
29.6884
29.7392
29.7534
29.7138
29.7232
29.7349
28.7961
28.7579
28.7899
28.8243
28.8727
28.9218
28.9714
29.0211
29.0677
29.1186
29.1576
29.2057
29.2246
29.2665
29.2569
29.2737
29.2285
29.2082
29.1777
29.1835
29.2297
29.3333
29.4571
29.5779
29.6725
29.7282
29.75
29.716
29.7186
29.7223
28.7487
28.7369
28.7703
28.8099
28.863
28.9157
28.9679
29.0195
29.0676
29.1208
29.1594
29.2085
29.2237
29.2646
29.2471
29.2569
29.1987
29.1702
29.1327
29.1344
29.1793
29.2863
29.4154
29.5445
29.6493
29.711
29.743
29.7145
29.715
29.7092
28.7206
28.7259
28.7577
28.7999
28.8551
28.9097
28.9633
29.0165
29.0661
29.1206
29.159
29.2081
29.2212
29.2598
29.2326
29.2344
29.1606
29.1228
29.0779
29.0762
29.1205
29.2318
29.3674
29.5039
29.6192
29.6894
29.732
29.7104
29.7123
29.6979
28.7018
28.7165
28.7481
28.7923
28.8486
28.9045
28.9593
29.0134
29.0634
29.1192
29.1575
29.2066
29.2164
29.2526
29.2144
29.2066
29.1144
29.0665
29.014
29.0097
29.0538
29.1707
29.3137
29.4581
29.5831
29.6635
29.7172
29.7032
29.7097
29.6882
28.6846
28.7061
28.7396
28.7857
28.8428
28.8995
28.9552
29.0103
29.0605
29.1168
29.1547
29.2041
29.2096
29.2431
29.1928
29.1737
29.0619
29.0026
28.9427
28.9355
28.9803
29.1035
29.2546
29.4074
29.542
29.6331
29.6986
29.6928
29.7066
29.68
28.669
28.6939
28.7313
28.7799
28.838
28.8954
28.9512
29.0069
29.0573
29.1139
29.1509
29.2005
29.2012
29.2318
29.1681
29.1366
29.0035
28.9323
28.8643
28.8542
28.9006
29.0309
29.1906
29.3522
29.4964
29.5983
29.6757
29.6793
29.7027
29.673
28.6557
28.6795
28.7222
28.7731
28.8329
28.8912
28.9472
29.0033
29.0538
29.1106
29.146
29.1957
29.1913
29.2188
29.1407
29.0956
28.9393
28.856
28.7788
28.7667
28.8156
28.9536
29.1225
29.293
29.4464
29.559
29.6481
29.6634
29.6974
29.6668
28.6431
28.6636
28.7123
28.7647
28.8263
28.8858
28.9425
28.9992
29.0502
29.107
29.1403
29.1899
29.1803
29.2045
29.1109
29.051
28.87
28.7742
28.6879
28.674
28.7261
28.8723
29.0507
29.2304
29.3924
29.5153
29.6161
29.6444
29.6903
29.6613
28.6293
28.6461
28.7005
28.7548
28.8184
28.8794
28.937
28.9944
29.0458
29.1025
29.134
29.1835
29.1686
29.1893
29.0792
29.0035
28.7962
28.6861
28.592
28.5773
28.6334
28.7878
28.9761
29.1646
29.3348
29.4683
29.5799
29.6225
29.6809
29.6564
28.6158
28.6282
28.6871
28.7435
28.8087
28.8717
28.9306
28.9891
29.0404
29.097
29.1273
29.1769
29.1568
29.1735
29.0461
28.9535
28.7186
28.5936
28.4926
28.4778
28.5385
28.7009
28.8988
29.0968
29.2748
29.4189
29.5401
29.6001
29.669
29.6517
28.6039
28.6097
28.673
28.7312
28.798
28.8629
28.9233
28.9828
29.034
29.0909
29.1205
29.1707
29.1454
29.1579
29.0121
28.9014
28.6382
28.5011
28.3914
28.3768
28.4424
28.6126
28.8195
29.0274
29.2146
29.3693
29.4998
29.5768
29.6555
29.6468
28.5904
28.5906
28.6582
28.7181
28.7871
28.8539
28.9157
28.9756
29.0271
29.0851
29.1144
29.1655
29.135
29.1428
28.978
28.8481
28.5563
28.4074
28.2895
28.2758
28.3465
28.5234
28.7406
28.9575
29.1566
29.3216
29.4613
29.5519
29.6389
29.6409
28.5739
28.5706
28.6427
28.7053
28.7765
28.8459
28.9093
28.9693
29.0209
29.0805
29.1097
29.162
29.1264
29.1289
28.9445
28.7947
28.4745
28.3136
28.1888
28.1765
28.2521
28.4393
28.6633
28.8902
29.1024
29.277
29.4242
29.5253
29.6179
29.636
28.554
28.5508
28.6266
28.6926
28.7667
28.8392
28.9047
28.9649
29.0164
29.0779
29.1071
29.1612
29.1205
29.117
28.9128
28.7426
28.3957
28.2246
28.092
28.0807
28.1665
28.3623
28.5868
28.8237
29.0475
29.2341
29.3881
29.4983
29.5956
29.6291
28.529
28.5305
28.6101
28.6803
28.7576
28.834
28.9021
28.963
29.0147
29.079
29.1086
29.1645
29.1189
29.1082
28.8844
28.6944
28.3234
28.1439
28.0035
27.9976
28.0933
28.283
28.5102
28.7558
28.9887
29.1861
29.3496
29.4691
29.5712
29.6197
28.4978
28.508
28.5923
28.6681
28.7494
28.8302
28.9015
28.9658
29.0214
29.0904
29.1189
29.1732
29.1219
29.1071
28.8613
28.6539
28.2625
28.0796
27.933
27.9285
28.0176
28.1996
28.4335
28.6861
28.9279
29.1351
29.3073
29.4377
29.5469
29.6092
28.4592
28.4823
28.5726
28.6552
28.742
28.828
28.9044
28.9766
29.0395
29.1095
29.1363
29.1887
29.1307
29.1115
28.846
28.6265
28.2231
28.0384
27.878
27.8649
27.9389
28.1221
28.3594
28.6195
28.8701
29.0868
29.2674
29.4072
29.5239
29.5982
28.4105
28.4524
28.5505
28.6408
28.7342
28.8268
28.911
28.994
29.065
29.1371
29.1632
29.2129
29.1476
29.1226
28.8418
28.6183
28.2057
28.0139
27.8331
27.8097
27.8774
28.0571
28.292
28.5604
28.8183
29.0437
29.2317
29.3796
29.5026
29.5893
28.3497
28.4183
28.5257
28.6251
28.7259
28.8258
28.9205
29.0166
29.0962
29.1731
29.2006
29.2475
29.1769
29.1465
28.8518
28.6316
28.2003
28.0037
27.8101
27.7759
27.8372
28.0065
28.2382
28.5096
28.7738
29.0065
29.2015
29.3571
29.4852
29.5862
28.2765
28.3797
28.4981
28.6082
28.7175
28.8253
28.9326
29.0424
29.1326
29.2164
29.2481
29.2943
29.2206
29.1863
28.8796
28.6676
28.2273
28.0277
27.8134
27.7737
27.8293
27.989
28.2091
28.4722
28.7395
28.9778
29.1783
29.3412
29.473
29.585
28.1969
28.3396
28.4699
28.5915
28.7096
28.8263
28.9486
29.0727
29.1743
29.2669
29.3051
29.3537
29.2797
29.2439
28.9282
28.7311
28.279
28.0759
27.8458
27.7943
27.841
27.997
28.2134
28.4673
28.7222
28.962
29.167
29.3355
29.4699
29.5883
28.1259
28.3037
28.4461
28.5795
28.706
28.8353
28.9723
29.1094
29.2225
29.3257
29.3734
29.4258
29.3536
29.3215
28.9985
28.8193
28.3542
28.1507
27.9058
27.8415
27.8758
28.0209
28.2288
28.4761
28.7285
28.965
29.1699
29.3411
29.477
29.6015
28.0714
28.2764
28.431
28.5763
28.719
28.8656
29.0123
29.1569
29.2797
29.3915
29.4497
29.5085
29.4395
29.4133
29.0868
28.9409
28.4727
28.2763
28.0189
27.9415
27.9584
28.0775
28.265
28.5028
28.7463
28.9766
29.1793
29.3518
29.49
29.6238
28.0592
28.2717
28.4377
28.6005
28.7557
28.9091
29.0597
29.2072
29.3351
29.4534
29.5196
29.5879
29.5238
29.5105
29.1873
29.087
28.6198
28.437
28.1731
28.0869
28.0879
28.184
28.3449
28.5587
28.7898
29.0154
29.2157
29.39
29.5341
29.6784
28.1023
28.3066
28.4768
28.644
28.8016
28.9562
29.1061
29.2525
29.3813
29.503
29.573
29.6489
29.59
29.597
29.287
29.2476
28.7943
28.6328
28.3701
28.2802
28.2628
28.3385
28.471
28.6572
28.866
29.0766
29.271
29.4472
29.5992
29.7506
29.2844
28.9166
28.8434
28.74
28.6918
28.6957
28.7248
28.7707
28.8235
28.8923
28.9552
29.0424
29.1013
29.1961
29.2275
29.2862
29.2408
29.1922
29.1203
29.1153
29.1514
29.2523
29.38
29.5193
29.6447
29.7578
29.7919
29.7642
29.7932
29.8786
29.1932
28.8221
28.7914
28.7114
28.6884
28.7063
28.7423
28.7916
28.846
28.9156
28.9783
29.0651
29.1226
29.2179
29.2486
29.3096
29.2652
29.2198
29.1468
29.1359
29.1636
29.2632
29.3908
29.5307
29.655
29.7649
29.7999
29.7686
29.7831
29.842
29.094
28.7666
28.7488
28.6874
28.6838
28.7102
28.7532
28.8069
28.8634
28.9341
28.9968
29.0841
29.1397
29.2364
29.2638
29.3263
29.2779
29.2314
29.1532
29.1373
29.1652
29.267
29.3958
29.5359
29.6596
29.7657
29.8054
29.7679
29.7775
29.8239
28.9782
28.7011
28.6979
28.6596
28.6746
28.7088
28.759
28.8186
28.8784
28.9506
29.0131
29.1013
29.1545
29.2541
29.2775
29.3426
29.2872
29.2349
29.1488
29.1267
29.1472
29.2545
29.3918
29.5345
29.6592
29.7588
29.8068
29.7667