/*--------------------------------*- C++ -*----------------------------------*\
  =========                 |
  \\      /  F ield         | OpenFOAM: The Open Source CFD Toolbox
   \\    /   O peration     | Website:  https://openfoam.org
    \\  /    A nd           | Version:  12
     \\/     M anipulation  |
\*---------------------------------------------------------------------------*/
FoamFile
{
    format      ascii;
    class       volScalarField;
    location    "800/air";
    object      alphat;
}
// * * * * * * * * * * * * * * * * * * * * * * * * * * * * * * * * * * * * * //

dimensions      [1 -1 -1 0 0 0 0];

internalField   nonuniform List<scalar> 
243000
(
0.000161397
0.000171171
0.000172022
0.000170173
0.000166251
0.000160776
0.000154336
0.000147475
0.000140597
0.000134093
0.000128195
0.000123207
0.000119369
0.00011698
0.000116084
0.000116257
0.000116815
0.000117341
0.000117714
0.000117909
0.000117932
0.000117803
0.000117594
0.000117683
0.000117737
0.000116572
0.000113025
0.000105277
9.03073e-05
9.65394e-05
0.000608058
0.00063798
0.000639753
0.000631159
0.000615584
0.000595162
0.000572053
0.000547896
0.000524021
0.000501501
0.000481048
0.00046355
0.000449342
0.000438925
0.000431445
0.000424867
0.000417833
0.000410594
0.000403959
0.000398352
0.000393873
0.000390484
0.00038819
0.000387744
0.000389445
0.00039026
0.000387574
0.000376257
0.00035504
0.00036244
0.000778806
0.000851808
0.000894709
0.000919995
0.000933298
0.000936601
0.000932332
0.000922663
0.000909334
0.000893907
0.000877603
0.000862088
0.000848005
0.000836291
0.00082503
0.000810483
0.000790398
0.000766506
0.000741146
0.000715783
0.000691113
0.000667377
0.000644678
0.000623958
0.000605411
0.000586354
0.000563554
0.00053221
0.00049204
0.000470177
0.000780609
0.000878829
0.000936287
0.000968922
0.000988016
0.000995949
0.000995118
0.000988183
0.000976976
0.000963189
0.000948102
0.000933415
0.000919761
0.000907995
0.000895964
0.000879686
0.00085684
0.000829638
0.000800692
0.000771794
0.000743848
0.000717181
0.000691808
0.000668303
0.000646577
0.000624875
0.000600512
0.000569306
0.000529825
0.000500273
0.000751138
0.000871919
0.000952928
0.00099618
0.00102197
0.00103542
0.00103891
0.00103536
0.00102692
0.00101542
0.00100219
0.00098897
0.00097638
0.000965189
0.000953059
0.000935878
0.000911425
0.000882127
0.000850779
0.000819391
0.000789044
0.000760158
0.000732714
0.000707011
0.000682704
0.000658371
0.000632196
0.000600306
0.000560645
0.00052494
0.000723282
0.000846923
0.000947622
0.00100647
0.00104146
0.00106102
0.00106949
0.00106976
0.00106447
0.00105561
0.00104461
0.00103323
0.00102208
0.00101182
0.000999964
0.000982377
0.000957028
0.000926443
0.00089351
0.000860398
0.000828328
0.000797783
0.000768764
0.000741374
0.000715079
0.000688443
0.000660583
0.000627801
0.000587748
0.000546892
0.000689334
0.000818237
0.000928921
0.00100242
0.0010491
0.00107622
0.00109012
0.00109468
0.00109275
0.00108676
0.00107821
0.00106892
0.00105944
0.00105036
0.001039
0.00102134
0.000995584
0.000964277
0.000930358
0.000896096
0.000862816
0.000831059
0.000800863
0.000772198
0.0007444
0.000715856
0.000686571
0.00065298
0.000612586
0.000567677
0.000648124
0.000786971
0.000904019
0.000988957
0.00104636
0.00108309
0.00110293
0.00111215
0.00111381
0.00111084
0.00110489
0.00109784
0.00109018
0.00108243
0.00107172
0.00105424
0.00102846
0.000996862
0.0009624
0.000927432
0.00089334
0.000860727
0.000829668
0.000800058
0.000771132
0.000741077
0.000710644
0.000676411
0.000635876
0.000588259
0.000607061
0.000750028
0.000878123
0.000968626
0.0010365
0.00108177
0.00110946
0.00112353
0.00112908
0.00112921
0.00112595
0.00112125
0.00111554
0.0011092
0.00109926
0.00108216
0.00105664
0.00102508
0.000990443
0.000955119
0.000920533
0.000887341
0.000855677
0.000825384
0.000795634
0.000764568
0.000733145
0.000698439
0.000657765
0.00060945
0.000588444
0.000704676
0.000849509
0.000948471
0.00102099
0.00107497
0.00110959
0.00112984
0.0011395
0.00114291
0.0011424
0.00114011
0.00113639
0.00113152
0.00112245
0.00110589
0.00108083
0.00104962
0.00101509
0.000979695
0.000944876
0.000911344
0.000879286
0.000848525
0.000818196
0.000786416
0.000754286
0.000719296
0.000678636
0.000629944
0.00059944
0.000657131
0.000816159
0.000926709
0.00100302
0.00106358
0.00110534
0.00113149
0.00114577
0.00115268
0.00115499
0.00115514
0.00115342
0.00115004
0.00114191
0.00112604
0.00110161
0.00107099
0.00103682
0.00100158
0.000966756
0.000933078
0.000900808
0.000869764
0.000839064
0.000806809
0.00077422
0.000739167
0.000698633
0.00065001
0.000624998
0.000624929
0.000776273
0.000902146
0.000985025
0.00104861
0.00109742
0.00112932
0.00114868
0.0011591
0.0011643
0.00116691
0.00116718
0.00116529
0.00115816
0.00114308
0.00111944
0.00108956
0.001056
0.00102113
0.000986475
0.000952823
0.000920504
0.000889339
0.000858438
0.000825904
0.000793074
0.000758076
0.00071777
0.000669554
0.000653879
0.000630513
0.000732059
0.000873498
0.000966098
0.00103284
0.00108644
0.00112421
0.00114812
0.00116263
0.00117078
0.00117585
0.00117811
0.00117768
0.00117158
0.00115741
0.00113468
0.00110568
0.00107291
0.0010386
0.00100428
0.000970805
0.000938589
0.00090745
0.000876499
0.00084385
0.000810965
0.000776127
0.000736153
0.000688587
0.000684504
0.000654731
0.000691411
0.0008399
0.000945387
0.00101707
0.00107303
0.00111661
0.00114516
0.00116351
0.00117476
0.00118232
0.00118657
0.00118756
0.00118252
0.00116933
0.00114761
0.00111962
0.00108776
0.0010542
0.00102036
0.000987216
0.000955248
0.000924275
0.000893408
0.000860788
0.000827998
0.000793384
0.000753894
0.000707094
0.000715495
0.000682455
0.000669338
0.000801762
0.000922097
0.00100083
0.00105865
0.00110696
0.00114017
0.00116218
0.00117672
0.00118662
0.0011928
0.00119523
0.00119124
0.0011791
0.0011585
0.00113162
0.00110078
0.00106808
0.00103491
0.00100224
0.000970657
0.000939976
0.000909319
0.000876859
0.000844281
0.000809977
0.000771037
0.000725055
0.000746174
0.00071238
0.000678413
0.000763243
0.000895767
0.000983752
0.00104475
0.00109568
0.00113346
0.00115912
0.00117654
0.00118904
0.00119703
0.00120088
0.00119797
0.00118694
0.00116755
0.00114188
0.00111217
0.00108044
0.00104804
0.00101601
0.000984961
0.000954699
0.000924376
0.000892197
0.000859907
0.000826025
0.000787659
0.000742511
0.000776418
0.000742912
0.000703991
0.000732393
0.000866732
0.000965562
0.001031
0.00108312
0.00112532
0.00115459
0.0011748
0.00118964
0.00119946
0.00120471
0.00120291
0.00119305
0.00117494
0.00115057
0.00112209
0.00109143
0.00105992
0.00102866
0.000998282
0.000968578
0.000938713
0.000906953
0.000875027
0.000841617
0.000803849
0.000759502
0.000806192
0.000773128
0.000731165
0.000716756
0.000836286
0.000946112
0.00101715
0.00107009
0.001116
0.00114875
0.00117172
0.0011887
0.00120026
0.00120687
0.00120622
0.00119759
0.00118084
0.00115788
0.00113072
0.00110123
0.00107072
0.00104034
0.00101075
0.00098175
0.00095251
0.00092131
0.000889786
0.000856881
0.000819721
0.000776126
0.000835482
0.000802696
0.000759466
0.000719559
0.000807341
0.000925513
0.00100313
0.00105774
0.00110571
0.00114173
0.00116733
0.00118643
0.00119958
0.00120752
0.00120805
0.00120071
0.00118541
0.00116396
0.00113824
0.00111001
0.0010806
0.00105122
0.00102254
0.000994381
0.000965937
0.000935464
0.000904372
0.000871983
0.000835426
0.000792512
0.000864285
0.000831596
0.00078799
0.000740856
0.000784483
0.000904303
0.000988942
0.00104583
0.00109463
0.00113364
0.00116169
0.00118283
0.00119755
0.00120676
0.00120851
0.00120255
0.0011888
0.00116899
0.00114481
0.00111796
0.00108976
0.00106147
0.00103382
0.00100665
0.000979173
0.000949621
0.000918957
0.000887086
0.000851106
0.000808791
0.000892628
0.000859799
0.000816068
0.000764489
0.000770918
0.000883439
0.000974721
0.00103426
0.00108288
0.00112448
0.00115484
0.00117793
0.0011942
0.00120468
0.00120772
0.00120323
0.00119116
0.0011731
0.0011506
0.00112526
0.00109838
0.00107131
0.00104478
0.00101874
0.00099239
0.000963959
0.000933715
0.000902372
0.000866897
0.00082508
0.000920544
0.000887265
0.000843355
0.000789576
0.000767531
0.000864181
0.000960709
0.00102302
0.00107082
0.00111418
0.00114673
0.00117167
0.00118949
0.00120128
0.00120568
0.00120279
0.00119256
0.00117638
0.00115571
0.00113204
0.00110665
0.00108091
0.00105562
0.00103079
0.00100572
0.000978597
0.000948779
0.000917967
0.000882933
0.000841455
0.000947925
0.00091407
0.000869826
0.000815023
0.000772648
0.000847805
0.000947252
0.0010121
0.00105948
0.00110282
0.00113714
0.00116381
0.00118314
0.00119632
0.00120218
0.00120106
0.00119277
0.00117876
0.00116014
0.00113834
0.00111462
0.00109037
0.00106643
0.0010429
0.00101919
0.000993509
0.000964186
0.000933897
0.000899257
0.000857958
0.000974752
0.000940367
0.000895737
0.000838975
0.000784796
0.000835545
0.000934756
0.00100173
0.00104902
0.00109035
0.00112563
0.00115373
0.00117452
0.00118917
0.0011966
0.00119745
0.00119138
0.0011797
0.00116351
0.00114381
0.00112198
0.0010994
0.00107698
0.00105486
0.00103254
0.00100834
0.000979838
0.000950188
0.000915974
0.000874665
0.0010012
0.000967154
0.000923346
0.000862651
0.000799224
0.000827751
0.000924162
0.00099274
0.00103983
0.00107909
0.00111207
0.00114084
0.00116272
0.00117872
0.00118775
0.00119068
0.00118707
0.0011781
0.00116451
0.00114735
0.00112774
0.00110713
0.00108643
0.00106583
0.00104493
0.00102222
0.000995578
0.000967015
0.000933277
0.000891932
0.00103008
0.000996504
0.000949746
0.000885321
0.00081499
0.000825259
0.000917427
0.000986484
0.00103325
0.00107112
0.00110251
0.00112958
0.00115085
0.00116697
0.00117725
0.00118212
0.00118136
0.00117562
0.0011654
0.00115154
0.00113486
0.00111646
0.00109725
0.0010777
0.00105775
0.00103663
0.00101298
0.000985933
0.000952639
0.00091076
0.0010613
0.00102678
0.000978038
0.000910491
0.000835198
0.000831931
0.000918099
0.0009865
0.00103323
0.00107062
0.00110165
0.00112831
0.00114981
0.00116669
0.00117862
0.00118555
0.0011875
0.00118486
0.00117785
0.00116705
0.00115313
0.00113699
0.00111944
0.001101
0.0010818
0.00106143
0.00103881
0.00101217
0.000978459
0.000935021
0.00110399
0.00106912
0.00101987
0.0009523
0.000878801
0.000869952
0.000949597
0.00101383
0.00106134
0.00109874
0.00112997
0.00115669
0.00117875
0.00119672
0.00121023
0.0012188
0.00122269
0.00122236
0.00121761
0.00120892
0.00119689
0.00118233
0.00116594
0.00114811
0.00112895
0.0011082
0.00108499
0.00105743
0.00102201
0.000975754
0.00119534
0.00116729
0.00112883
0.00107868
0.0010279
0.00102906
0.00108841
0.00114163
0.00118534
0.00121978
0.00124864
0.00127285
0.00129302
0.00131039
0.00132301
0.0013307
0.00133397
0.0013334
0.00132854
0.00131989
0.00130813
0.00129398
0.00127805
0.00126052
0.00124073
0.0012187
0.00119421
0.00116588
0.00113118
0.00108579
0.00151751
0.00151116
0.00150264
0.00149129
0.00148371
0.00149223
0.00151334
0.00153062
0.0015455
0.00155803
0.00156952
0.00157825
0.00158628
0.00159659
0.00160172
0.0016042
0.00160447
0.00160336
0.00159979
0.00159495
0.00158922
0.00158332
0.00157761
0.00157173
0.00156059
0.00154699
0.00153313
0.00151787
0.00150196
0.00147937
0.000197593
0.00021121
0.000214584
0.000214122
0.000210802
0.000205261
0.000198232
0.000190418
0.000182361
0.000174545
0.000167243
0.000160745
0.000155182
0.000150719
0.000147166
0.000143795
0.000139912
0.000135298
0.000130105
0.000124376
0.000118065
0.000111143
0.000103659
9.74349e-05
9.42272e-05
9.27523e-05
9.16673e-05
9.18093e-05
9.80895e-05
0.00011451
0.000848396
0.000979344
0.000998625
0.000985653
0.000954765
0.000910598
0.000862045
0.000813752
0.000767893
0.000724953
0.000684179
0.000645619
0.00060723
0.000567565
0.000521636
0.000468054
0.000414357
0.000368725
0.000335076
0.000311256
0.0002943
0.000281515
0.000270503
0.00026997
0.000278518
0.000306343
0.000331312
0.000352394
0.000449714
0.000580905
0.00141877
0.00163662
0.00174124
0.00178027
0.00177123
0.0017236
0.00165511
0.00157837
0.0015005
0.00142412
0.00134913
0.00127533
0.00120005
0.00112086
0.00102906
0.000922305
0.000812043
0.000718059
0.000646394
0.000594832
0.00055836
0.000532354
0.000510843
0.000503563
0.000512606
0.000544383
0.000567992
0.000569004
0.000638426
0.000812873
0.0017431
0.00210528
0.00229386
0.00240437
0.00244226
0.00241904
0.00235315
0.00226647
0.0021706
0.00207212
0.00197294
0.00186983
0.00176285
0.00164793
0.00151679
0.00136467
0.00120681
0.0010708
0.000964686
0.000886672
0.000830602
0.000789478
0.000755381
0.00073761
0.000739107
0.000759553
0.000761151
0.000728626
0.000750558
0.000937226
0.0018367
0.00230598
0.00267714
0.00287211
0.00296793
0.0029841
0.00293753
0.00285357
0.00275051
0.00264024
0.00252127
0.00239863
0.00226641
0.00212264
0.00195863
0.00176906
0.00157333
0.00140247
0.00126739
0.00116666
0.00109323
0.00103862
0.00099351
0.000964798
0.000955536
0.000962675
0.00093781
0.000867473
0.000842087
0.00101889
0.0017829
0.00236825
0.00283674
0.00318063
0.00336961
0.00343349
0.00341827
0.00334646
0.00324478
0.00312817
0.00300015
0.0028623
0.00271117
0.00254452
0.00235374
0.00213379
0.00190893
0.00170968
0.00155043
0.00143032
0.00134205
0.00127584
0.0012216
0.00118306
0.00116272
0.00115768
0.0011074
0.00100004
0.000926429
0.00107115
0.00163928
0.00231404
0.00290085
0.00333657
0.00364021
0.00378296
0.0038067
0.00375731
0.00366288
0.0035458
0.00341358
0.00326652
0.00310206
0.00291856
0.00270587
0.00246227
0.00221542
0.00199368
0.00181442
0.00167769
0.00157664
0.00150042
0.00143862
0.00139179
0.00136138
0.00134597
0.00127313
0.00113224
0.0010088
0.00110222
0.00144591
0.00217637
0.00286801
0.00341388
0.00379409
0.0040344
0.00411374
0.00409539
0.00401389
0.0039009
0.00376859
0.00361743
0.00344478
0.00324966
0.00301974
0.00275849
0.00249504
0.00225688
0.00206085
0.00190991
0.00179752
0.00171262
0.00164453
0.00159099
0.00155204
0.00152815
0.00143606
0.00126625
0.00109627
0.00112436
0.00124833
0.00197838
0.00275128
0.00341276
0.00388392
0.00418566
0.00435207
0.00436772
0.00430681
0.00420174
0.00407065
0.00392107
0.00374464
0.00354236
0.00329987
0.00302619
0.00275072
0.00250105
0.00229136
0.00212828
0.00200561
0.00191309
0.00183982
0.00178104
0.00173523
0.00170422
0.00159649
0.00140247
0.00119391
0.0011506
0.00108073
0.00174479
0.00257416
0.00333343
0.00391123
0.00428529
0.00449798
0.0045814
0.00454752
0.00445458
0.00432972
0.00418326
0.00400658
0.00380088
0.00355028
0.0032688
0.00298527
0.00272758
0.00250758
0.00233401
0.00220218
0.00210267
0.0020252
0.00196254
0.00191164
0.00187497
0.00175456
0.00154049
0.00129936
0.00117527
0.000963599
0.00151179
0.00236032
0.00319318
0.00387324
0.00433605
0.00460344
0.00473226
0.00473933
0.00466632
0.00455023
0.00440785
0.00423498
0.0040291
0.00377454
0.0034893
0.00320112
0.0029378
0.00271098
0.00252823
0.0023883
0.00228237
0.00220152
0.00213616
0.00208201
0.0020412
0.0019104
0.00167971
0.00141289
0.0012203
0.000909526
0.00130988
0.00212768
0.00301169
0.00377697
0.00433895
0.00467124
0.00483972
0.00489251
0.00484131
0.00473664
0.00460173
0.00443421
0.00423037
0.00397581
0.00369029
0.00340036
0.00313354
0.0029022
0.00271201
0.00256486
0.00245332
0.0023696
0.00230255
0.00224707
0.00220351
0.00206425
0.00181956
0.00152935
0.00128484
0.000916004
0.00117152
0.0018947
0.00280469
0.00363862
0.00429117
0.00470369
0.00491763
0.00499812
0.00498169
0.00489381
0.00476828
0.00460754
0.0044084
0.00415697
0.00387404
0.00358476
0.00331622
0.00308161
0.00288657
0.00273276
0.00261642
0.00253028
0.00246234
0.00240759
0.00236237
0.00221639
0.00195991
0.00164584
0.00136468
0.000988242
0.00110695
0.00168048
0.00258677
0.00347195
0.00420389
0.00470405
0.0049686
0.00508053
0.00509267
0.00502536
0.00491066
0.00475861
0.00456489
0.00432036
0.0040424
0.00375578
0.00348708
0.00325034
0.00305212
0.00289267
0.0027723
0.00268434
0.00261611
0.00256361
0.00251808
0.00236721
0.00210097
0.00176522
0.00145558
0.00110235
0.00109448
0.00151602
0.00237234
0.00328972
0.00408788
0.00467107
0.00499608
0.00514198
0.00517637
0.00513348
0.00503212
0.00489009
0.00470452
0.00446788
0.00419679
0.00391452
0.00364701
0.00340921
0.0032087
0.00304523
0.00292144
0.00283232
0.00276433
0.00271529
0.00267085
0.00251706
0.0022429
0.00188815
0.00155483
0.0012452
0.0011722
0.00142202
0.00217567
0.00310327
0.0039534
0.00460644
0.00500243
0.00518511
0.00524343
0.00522231
0.00513566
0.00500394
0.00482787
0.00460066
0.00433812
0.00406161
0.00379652
0.00355869
0.00335651
0.00319052
0.00306397
0.00297437
0.00290716
0.00286257
0.00282062
0.00266613
0.00238576
0.00201502
0.00166196
0.00141553
0.00129154
0.00138724
0.00200886
0.00292244
0.00380999
0.00452365
0.00498949
0.0052116
0.00529478
0.00529106
0.00522209
0.00510081
0.00493616
0.00471942
0.00446649
0.00419695
0.00393539
0.00369863
0.00349552
0.00332795
0.00319951
0.00311003
0.00304414
0.00300484
0.00296669
0.00281418
0.00252946
0.00214596
0.0017748
0.00161225
0.00144683
0.0014118
0.00188545
0.00275597
0.00366589
0.0044298
0.00495798
0.0052218
0.005331
0.0053457
0.00529198
0.0051811
0.0050286
0.00482343
0.00458079
0.00431933
0.00406282
0.00382796
0.00362474
0.00345612
0.00332714
0.0032377
0.00317395
0.00314052
0.00310732
0.00296003
0.00267389
0.00228078
0.00189487
0.00183128
0.00162598
0.00151341
0.00181758
0.00261161
0.0035279
0.00433066
0.00490774
0.00521578
0.0053498
0.00538115
0.00534294
0.00524698
0.00510284
0.00490955
0.0046779
0.00442553
0.00417566
0.0039438
0.00374144
0.00357238
0.00344404
0.00335452
0.003294
0.00326647
0.00323901
0.00310082
0.00281723
0.00242004
0.00202108
0.00206645
0.00182461
0.00164745
0.00179233
0.00249392
0.00340137
0.00423121
0.00484805
0.00519671
0.00535317
0.00539816
0.00537875
0.00529002
0.0051524
0.00497161
0.00475135
0.00450961
0.0042674
0.00404025
0.00384009
0.00367213
0.00354411
0.00345538
0.00339966
0.00337693
0.00335571
0.00323111
0.00295495
0.00255746
0.00215061
0.00230756
0.00203413
0.00180525
0.0018035
0.00240555
0.00329027
0.00413488
0.00478086
0.00516345
0.0053402
0.0053877
0.00537879
0.00530035
0.00516602
0.00499838
0.00478952
0.00455943
0.00432661
0.00410673
0.00391052
0.00374462
0.00361854
0.00353145
0.00348109
0.00346221
0.00344779
0.00334158
0.00307922
0.00268714
0.00227887
0.00253981
0.00224199
0.00196599
0.0018765
0.0023525
0.00319671
0.00404216
0.00470624
0.00509931
0.00525475
0.00533373
0.00532989
0.0052584
0.00512606
0.00496927
0.00477243
0.00455584
0.00433491
0.00412366
0.0039336
0.0037743
0.00365212
0.00356895
0.00352252
0.00350746
0.00350119
0.00341809
0.00317797
0.00280038
0.00239882
0.00274426
0.00243574
0.00212055
0.00195451
0.00232794
0.00311807
0.0039489
0.00456061
0.00493208
0.00513042
0.00520682
0.00520362
0.00513313
0.00500509
0.00485335
0.00467181
0.00447048
0.00426204
0.00406275
0.00388501
0.00373581
0.00362078
0.00354303
0.00350222
0.00349404
0.00349697
0.003442
0.00323488
0.00288475
0.00250091
0.00289932
0.00259411
0.00225572
0.00203486
0.00228781
0.00304407
0.00377497
0.00432299
0.00471118
0.00490336
0.00496966
0.00495673
0.00488601
0.00476687
0.00461862
0.00445674
0.00427114
0.0040807
0.00389873
0.00373668
0.00360159
0.00349865
0.00343148
0.00340085
0.00340358
0.00342041
0.0033961
0.00323313
0.00292569
0.00257414
0.00298452
0.00269913
0.00235213
0.00209559
0.00226345
0.00287391
0.00352529
0.00403626
0.00435768
0.00452436
0.00457909
0.00456165
0.00449824
0.00439673
0.00426324
0.00412438
0.00396522
0.00380167
0.00364428
0.00350423
0.0033883
0.00330178
0.00324856
0.00322944
0.00324281
0.00327415
0.00327717
0.00316461
0.00291209
0.00260766
0.00299539
0.00273933
0.00240048
0.00212129
0.00220571
0.0027166
0.00322708
0.0036238
0.00387382
0.00400517
0.00405877
0.00406067
0.00402538
0.00395917
0.00386238
0.0037571
0.00364128
0.00351558
0.00339187
0.00327889
0.00318317
0.00311129
0.00306739
0.00305311
0.00306789
0.00310123
0.00311775
0.00304779
0.00284932
0.00259672
0.00295517
0.00272995
0.0024185
0.00213538
0.0021058
0.00246464
0.00286231
0.00317625
0.00338246
0.00351077
0.0035856
0.00362146
0.00362507
0.00360321
0.00355641
0.00349456
0.00342553
0.00334539
0.00325939
0.00317628
0.00310128
0.00304099
0.00299956
0.00297858
0.00297845
0.00299315
0.00299891
0.00294274
0.00277674
0.00255802
0.00296165
0.00277345
0.00250754
0.00224027
0.00214402
0.00236319
0.00267031
0.00293328
0.00312195
0.00325126
0.00334054
0.00339849
0.00342833
0.00343631
0.00342446
0.003397
0.00336048
0.00331496
0.00325845
0.00320101
0.00314653
0.00309999
0.00306555
0.00304339
0.00303229
0.00302594
0.00300697
0.00293857
0.00278934
0.00258045
0.00300718
0.00288655
0.00272367
0.0025621
0.00249023
0.00261331
0.00281312
0.00299231
0.00312806
0.00322292
0.00329148
0.00333731
0.0033624
0.00336975
0.00335808
0.0033352
0.00330315
0.00326463
0.0032271
0.00319069
0.00315788
0.00313157
0.0031141
0.00310404
0.00309703
0.0030879
0.00306598
0.00301207
0.002906
0.00274822
0.00312896
0.00307264
0.00299425
0.00291796
0.00289183
0.00294253
0.00302528
0.00309831
0.00315658
0.00319625
0.0032263
0.0032475
0.00325897
0.00326129
0.00324568
0.00322261
0.00319607
0.00316774
0.00314393
0.00312713
0.00311817
0.00311717
0.00312331
0.00313433
0.0031459
0.00315638
0.00315961
0.00314812
0.00310687
0.00303112
0.000221442
0.000239356
0.000243405
0.000243787
0.000240948
0.000235426
0.000228034
0.000219568
0.00021062
0.000201705
0.000193087
0.000185042
0.000177606
0.000170854
0.000164448
0.000157465
0.000149298
0.000140428
0.000131624
0.000122986
0.000113585
0.000102516
8.93015e-05
8.03136e-05
7.6233e-05
0.000371012
8.86001e-05
0.000100515
0.000115446
0.000131224
0.000973215
0.00123096
0.00133524
0.0013517
0.00131945
0.00125675
0.0011833
0.00110758
0.00103425
0.000964746
0.000897675
0.000832933
0.000766079
0.000694656
0.000613121
0.00052921
0.000460649
0.000421129
0.000405691
0.000404332
0.0004007
0.000386555
0.000349414
0.000366281
0.000423361
0.000415564
0.000355091
0.000431131
0.000601634
0.000756845
0.00162566
0.00208156
0.00235126
0.00246977
0.00248164
0.00241659
0.00231291
0.00219117
0.00206377
0.0019358
0.00180702
0.00167749
0.00154054
0.00139151
0.00122347
0.00105068
0.000906243
0.000817891
0.00077534
0.00076052
0.000749694
0.00072012
0.000654007
0.00065359
0.000740745
0.000698999
0.000618348
0.000686737
0.000895693
0.00116887
0.0020881
0.00274876
0.00313317
0.00334425
0.00341897
0.00338462
0.00328228
0.00314312
0.00298547
0.0028183
0.0026441
0.00246142
0.00226478
0.00204657
0.00180325
0.00155534
0.00134864
0.00121494
0.00114331
0.0011106
0.00108663
0.00104479
0.000960652
0.000935023
0.00100535
0.000960335
0.000844495
0.000869857
0.00109112
0.00146103
0.00242577
0.00318997
0.00372599
0.00401377
0.00415748
0.00417076
0.00408672
0.00394765
0.00377521
0.00358352
0.00337894
0.00315294
0.00290303
0.00263035
0.00232476
0.00201678
0.00176085
0.00158934
0.00149175
0.00144208
0.00140707
0.00135691
0.0012644
0.00121994
0.00126199
0.00120757
0.00105727
0.00101905
0.00123094
0.00169398
0.00254473
0.00335518
0.0040357
0.00450981
0.00473142
0.00480495
0.00475382
0.00462536
0.00444823
0.00424253
0.00401292
0.00375446
0.00346643
0.0031484
0.00279095
0.0024365
0.00214337
0.00194039
0.00181988
0.00175465
0.00171066
0.00165603
0.00156251
0.00150514
0.00151865
0.00144911
0.00126906
0.00115998
0.00133831
0.00186169
0.00255398
0.0034214
0.00419043
0.00477073
0.00516713
0.00531065
0.00530614
0.00519601
0.00502236
0.00480794
0.00456035
0.0042806
0.00396232
0.00360866
0.00320965
0.00282037
0.00249949
0.00227063
0.0021299
0.0020504
0.00199857
0.00194211
0.0018524
0.00178696
0.00177627
0.00168888
0.00148362
0.00130778
0.00142693
0.00197468
0.00247554
0.00339651
0.00426608
0.00494585
0.00542217
0.00570741
0.00575767
0.00567679
0.00551197
0.00529328
0.00503375
0.00474062
0.00440021
0.00401878
0.00358827
0.00317403
0.00283263
0.00258349
0.00242445
0.00233167
0.00227267
0.0022154
0.00213244
0.00206315
0.00203408
0.00192852
0.00170184
0.00146678
0.00150857
0.00204443
0.00232745
0.00329485
0.00426129
0.00505049
0.00561545
0.00596648
0.00612008
0.00607925
0.00592793
0.00571151
0.00544705
0.0051436
0.00478838
0.0043855
0.0039334
0.00350275
0.00314641
0.00288185
0.0027061
0.00260071
0.00253478
0.00247723
0.0024024
0.00233288
0.00229095
0.00216824
0.00192336
0.00163915
0.00159259
0.0020641
0.00213462
0.00312498
0.00417663
0.00508222
0.00574895
0.00617064
0.0063885
0.00640949
0.00628127
0.00607113
0.0058045
0.00549476
0.00513352
0.00471546
0.00425104
0.00381119
0.00344447
0.00316805
0.00297711
0.00285957
0.00278665
0.00272915
0.0026625
0.00259619
0.00254555
0.00240739
0.0021469
0.00182538
0.00168238
0.00205487
0.00193022
0.0028994
0.00402791
0.00504695
0.00582224
0.00632477
0.00659327
0.0066804
0.00657972
0.00637909
0.00611599
0.00580497
0.00544177
0.00501519
0.00454658
0.00410341
0.00372994
0.0034441
0.00323958
0.00311008
0.00302997
0.00297237
0.00291341
0.00285372
0.00279635
0.00264465
0.00237076
0.00202052
0.00180177
0.00205187
0.00173783
0.00264996
0.00382468
0.00494596
0.0058361
0.00643113
0.00675771
0.0068776
0.00682684
0.00664282
0.00638787
0.00607925
0.00571715
0.00529022
0.00482464
0.00438281
0.00400546
0.00371159
0.00349554
0.00335387
0.0032661
0.00320792
0.00315579
0.00310473
0.00304121
0.00287821
0.00259319
0.00222005
0.00192974
0.00207589
0.00158261
0.00240106
0.00358842
0.00479716
0.00579583
0.00649042
0.00688417
0.00704296
0.00703252
0.00687004
0.00662492
0.00632345
0.00596437
0.00554551
0.00508893
0.00465197
0.00427305
0.00397216
0.0037461
0.00359206
0.00349608
0.00343657
0.00339007
0.00334721
0.00327776
0.00310598
0.00281231
0.00242159
0.00207106
0.00212953
0.00149804
0.00217823
0.00333838
0.00461472
0.00571002
0.00650466
0.00697466
0.00717759
0.00719213
0.00706322
0.00683225
0.00654179
0.00619162
0.00578511
0.00534191
0.00491248
0.00453387
0.0042269
0.0039916
0.00382516
0.00372029
0.00365865
0.00361628
0.0035795
0.00350401
0.00332547
0.00302586
0.00262296
0.00222982
0.00220089
0.00148377
0.00200816
0.00309579
0.00441281
0.00559613
0.00647813
0.00702961
0.00728234
0.00732701
0.00722896
0.00701447
0.0067365
0.00640008
0.00601095
0.00558435
0.0051645
0.00478782
0.00447568
0.00423147
0.00405272
0.00393834
0.00387349
0.00383374
0.00379926
0.00371708
0.00353365
0.00323107
0.00282102
0.00239767
0.00227137
0.00160365
0.00192745
0.00288175
0.00420583
0.00546224
0.006428
0.00704912
0.00735784
0.00743567
0.00736392
0.00717487
0.00690942
0.00659079
0.00622275
0.00581481
0.00540621
0.005033
0.00471667
0.00446366
0.00427288
0.00414896
0.00407873
0.00403963
0.00400269
0.00391291
0.00372657
0.00342441
0.0030123
0.00257073
0.00237306
0.00178892
0.00191327
0.00271877
0.00400874
0.00531718
0.00635846
0.00704456
0.00740378
0.00751511
0.00746438
0.00730994
0.00706876
0.00676057
0.00641694
0.00602889
0.00563304
0.00526484
0.00494541
0.00468364
0.00448175
0.00434816
0.00427016
0.00422746
0.00418372
0.00408583
0.00389902
0.00360138
0.00319232
0.00274424
0.00249795
0.00203229
0.00202939
0.00262563
0.00383429
0.00516966
0.00627434
0.00702098
0.00742818
0.00756968
0.00754037
0.00743152
0.0072018
0.00690602
0.00658412
0.00621832
0.00583659
0.00547504
0.00515371
0.00488355
0.00467256
0.00452742
0.00444001
0.00438794
0.00433364
0.00422819
0.0040443
0.00375615
0.0033546
0.00291376
0.00263902
0.00229857
0.00219905
0.00258211
0.00369018
0.00502725
0.00617987
0.00697947
0.00742867
0.00759993
0.00760344
0.00750997
0.00730194
0.00701858
0.0067107
0.0063705
0.00600354
0.00565015
0.00532846
0.00505127
0.0048308
0.00467443
0.00457429
0.00450798
0.00444095
0.0043304
0.00415414
0.0038816
0.00349349
0.00307082
0.00278952
0.00257363
0.00241509
0.0025934
0.00358197
0.00489552
0.00607771
0.00691969
0.00740274
0.00759854
0.00761672
0.00753504
0.00734699
0.00708187
0.00678132
0.0064651
0.00611434
0.00577085
0.00545011
0.00516538
0.00493785
0.00476932
0.00465357
0.00457164
0.00449214
0.00438179
0.00421941
0.00396956
0.00360275
0.0032097
0.00293965
0.00283409
0.00263456
0.00269415
0.00351783
0.00477632
0.00596781
0.00683886
0.00732882
0.00748596
0.00754584
0.00748033
0.00731167
0.00706836
0.00677492
0.00647505
0.00614411
0.0058116
0.00548912
0.00520331
0.00496885
0.00478866
0.0046588
0.00456369
0.00447622
0.00437312
0.00423175
0.0040122
0.00367511
0.003322
0.00307917
0.00305446
0.00282291
0.00279201
0.00345411
0.00466519
0.00584402
0.00667912
0.0070729
0.0072976
0.00736885
0.0073178
0.00716342
0.00694235
0.00666561
0.00637322
0.00606666
0.0057432
0.00542519
0.00514195
0.0049049
0.00471855
0.00458
0.00447641
0.00438948
0.00430076
0.00418696
0.00400466
0.00370506
0.00339849
0.00319189
0.00321794
0.00297171
0.0028913
0.00337341
0.00454601
0.00563012
0.00630414
0.00672743
0.00697887
0.00705839
0.00701022
0.00687273
0.00667732
0.00642923
0.00614513
0.00586522
0.005558
0.00525474
0.00498324
0.00475315
0.00456785
0.004427
0.00432277
0.00424284
0.00417292
0.00409015
0.00394889
0.00369215
0.00343113
0.00326448
0.00331787
0.0030715
0.00296183
0.00328643
0.00424932
0.00517655
0.00583426
0.00627621
0.00650964
0.00658626
0.00654793
0.00643671
0.00627653
0.00606781
0.00581087
0.00555879
0.00528968
0.00501421
0.00476548
0.00455162
0.00437634
0.00424028
0.0041399
0.00406851
0.00401579
0.00396098
0.00385837
0.00364261
0.00342041
0.00329071
0.00336467
0.00312296
0.00297105
0.0031579
0.00395802
0.00470184
0.00530221
0.00568739
0.00590637
0.00598306
0.00597416
0.00590762
0.0057973
0.00564103
0.0054326
0.00521808
0.00499897
0.00476565
0.00454963
0.00436012
0.00420129
0.0040749
0.00398033
0.00391529
0.00387281
0.00383531
0.00376023
0.00357696
0.00337835
0.00327019
0.00339196
0.00315259
0.00295332
0.00299654
0.00357777
0.00418018
0.00468323
0.00504759
0.00525752
0.00536274
0.00540216
0.00539231
0.00533965
0.0052417
0.00509302
0.00492391
0.00475214
0.00456258
0.00438194
0.00421899
0.00407999
0.00396754
0.00388246
0.00382438
0.0037866
0.00375496
0.0036933
0.00353119
0.00333651
0.00321265
0.00345412
0.00322296
0.00298738
0.00290576
0.00322134
0.0037107
0.00415802
0.0045049
0.00473193
0.00487332
0.00495852
0.00499751
0.00499278
0.00494153
0.00484276
0.00471237
0.00456575
0.004402
0.00424843
0.00411356
0.00399975
0.00390865
0.00384088
0.00379509
0.00376622
0.00374136
0.00368954
0.00354783
0.00335057
0.00317666
0.00360285
0.00340399
0.00317764
0.00304492
0.0031813
0.00353572
0.00390599
0.00421504
0.00443901
0.00458891
0.00469095
0.00475046
0.00476721
0.00473537
0.00465515
0.00453475
0.00439832
0.00425959
0.00413049
0.00401837
0.00392824
0.00386181
0.00381999
0.00380068
0.00379566
0.00379116