/*--------------------------------*- C++ -*----------------------------------*\
  =========                 |
  \\      /  F ield         | OpenFOAM: The Open Source CFD Toolbox
   \\    /   O peration     | Website:  https://openfoam.org
    \\  /    A nd           | Version:  12
     \\/     M anipulation  |
\*---------------------------------------------------------------------------*/
FoamFile
{
    format      ascii;
    class       volScalarField;
    location    "800/air";
    object      epsilon;
}
// * * * * * * * * * * * * * * * * * * * * * * * * * * * * * * * * * * * * * //

dimensions      [0 2 -3 0 0 0 0];

internalField   nonuniform List<scalar> 
243000
(
3.18014
4.40393
5.18295
5.78628
6.18522
6.36871
6.36238
6.21155
5.96062
5.65926
5.34208
5.05287
4.82333
4.69085
4.66093
4.68079
4.66817
4.57641
4.39838
4.14529
3.83529
3.48862
3.12893
2.79897
2.47409
2.09961
1.65721
1.14726
0.623062
0.700931
2.07765
2.79437
3.27161
3.6254
3.85692
3.96795
3.97787
3.90871
3.78406
3.6272
3.45555
3.2911
3.14309
3.02444
2.91724
2.78261
2.6007
2.38683
2.16499
1.94831
1.74288
1.55125
1.37581
1.22489
1.09733
0.967504
0.823002
0.647566
0.472445
0.451969
2.25254
2.94592
3.41687
3.71305
3.87227
3.9076
3.84847
3.72433
3.56013
3.37748
3.19215
3.02232
2.87347
2.75337
2.64053
2.49977
2.31551
2.11003
1.90655
1.71713
1.54566
1.39198
1.25506
1.13849
1.04016
0.944106
0.836136
0.700393
0.554463
0.503744
2.30188
3.25567
3.92476
4.34441
4.59937
4.70216
4.68182
4.57662
4.41548
4.22483
4.02393
3.83493
3.66481
3.52226
3.37986
3.19418
2.9478
2.67345
2.40202
2.15078
1.92555
1.72606
1.54971
1.39768
1.26593
1.14196
1.01153
0.858128
0.690859
0.597967
2.08565
3.20467
4.15962
4.73114
5.09718
5.28865
5.33022
5.26528
5.12826
4.94964
4.75169
4.55999
4.38268
4.22903
4.06631
3.84451
3.5462
3.2121
2.88009
2.57235
2.29704
2.05423
1.84018
1.65385
1.48909
1.33487
1.17995
1.0066
0.817971
0.684784
1.87019
2.96828
4.11042
4.89901
5.40323
5.69682
5.81823
5.80924
5.71193
5.56061
5.38002
5.19881
5.02591
4.87053
4.69511
4.44499
4.10425
3.71969
3.33501
2.9771
2.65647
2.37368
2.12453
1.90602
1.71016
1.52557
1.34584
1.15169
0.942151
0.768933
1.63741
2.69066
3.89441
4.85929
5.53896
5.95232
6.16578
6.22631
6.17984
6.06719
5.91521
5.7551
5.59603
5.44693
5.26506
4.99377
4.61938
4.19322
3.76389
3.36232
3.00142
2.68247
2.40117
2.15297
1.92839
1.71453
1.51071
1.29611
1.0666
0.854898
1.377
2.41406
3.59836
4.68841
5.51065
6.07733
6.39081
6.53143
6.5445
6.47895
6.3642
6.23363
6.09616
5.95974
5.77688
5.49072
5.09122
4.63191
4.1655
3.72676
3.33063
2.97943
2.669
2.39375
2.14289
1.90159
1.67499
1.44088
1.19312
0.94667
1.13441
2.11726
3.3154
4.42706
5.37349
6.0663
6.51022
6.73669
6.81787
6.80533
6.73424
6.63986
6.52997
6.41135
6.23222
5.93723
5.52016
5.03568
4.5396
4.06988
3.64346
3.26379
2.92732
2.62765
2.35299
2.08691
1.83879
1.58642
1.32077
1.04759
0.995118
1.78518
3.02282
4.16126
5.1529
5.96505
6.52106
6.85363
7.0094
7.05555
7.03271
6.97932
6.90155
6.80457
6.63338
6.33513
5.90704
5.40527
4.88634
4.39156
3.93959
3.53526
3.17579
2.8543
2.55829
2.2701
2.00214
1.733
1.45076
1.15641
1.00991
1.46046
2.70687
3.89198
4.89042
5.79044
6.45422
6.88876
7.12737
7.23792
7.26683
7.25756
7.215
7.14259
6.98294
6.6865
6.25337
5.7413
5.20624
4.69191
4.21906
3.79371
3.4142
3.07351
2.75857
2.45069
2.16485
1.88076
1.58296
1.27012
1.12352
1.22477
2.3597
3.60721
4.63969
5.56149
6.32505
6.85375
7.18324
7.35958
7.44312
7.48016
7.47469
7.42874
7.28361
6.99352
6.56094
6.0444
5.49994
4.9714
4.48195
4.03915
3.64259
3.28525
2.95368
2.6284
2.32674
2.02887
1.71692
1.38778
1.27905
1.18869
1.99949
3.29676
4.38718
5.31513
6.14597
6.76607
7.1749
7.42697
7.56716
7.65206
7.68505
7.66655
7.53819
7.25847
6.83152
6.31582
5.76762
5.2304
4.72847
4.27169
3.86109
3.48966
3.14369
2.80318
2.4877
2.17737
1.85261
1.50945
1.46512
1.28879
1.68292
2.95695
4.12373
5.07927
5.92962
6.63503
7.12191
7.44436
7.64388
7.77782
7.84997
7.85939
7.74951
7.48364
7.06688
6.55701
6.00985
5.46903
4.95883
4.49157
4.06998
3.68703
3.32884
2.97517
2.64776
2.32604
1.99015
1.63467
1.67471
1.45223
1.48209
2.59587
3.84269
4.84582
5.69533
6.46978
7.03173
7.41944
7.68111
7.86157
7.97264
8.01059
7.92046
7.67137
7.26887
6.7693
6.22767
5.68748
5.17342
4.69931
4.26977
3.87778
3.50956
3.14475
2.80703
2.47529
2.12938
1.76281
1.90264
1.64813
1.46842
2.2484
3.54179
4.60964
5.47528
6.27927
6.91108
7.36169
7.67702
7.90833
8.05604
8.12294
8.05376
7.82404
7.43939
6.95424
6.42232
5.88662
5.37242
4.89538
4.46096
4.06252
3.68648
3.31246
2.96573
2.62548
2.2704
1.89364
2.147
1.86925
1.5981
1.97062
3.22689
4.36808
5.26358
6.07064
6.76585
7.27641
7.64268
7.91874
8.1034
8.19892
8.15201
7.94398
7.58045
7.11342
6.5951
6.06763
5.55683
5.08013
4.6441
4.24198
3.86043
3.47924
3.1248
2.77708
2.4136
2.02714
2.40719
2.10994
1.78272
1.8065
2.91261
4.12051
5.0569
5.85417
6.60102
7.16684
7.58204
7.89877
8.11767
8.24115
8.21763
8.03347
7.69417
7.24904
6.74795
6.2321
5.72802
5.25486
4.82008
4.41722
4.033
3.64674
3.28539
2.931
2.5597
2.16371
2.6828
2.36576
1.99642
1.77383
2.62389
3.869
4.85414
5.65243
6.42184
7.03658
7.49625
7.85211
8.10208
8.25232
8.25312
8.09492
7.78267
7.36326
6.88294
6.3821
5.88791
5.4213
4.99053
4.58991
4.20597
3.81709
3.44938
3.08872
2.70987
2.30413
2.97339
2.63507
2.2296
1.87288
2.39283
3.61966
4.65539
5.46217
6.23213
6.8881
7.38733
7.7794
8.05898
8.23486
8.26097
8.1308
7.84872
7.45841
7.00245
6.51995
6.03878
5.58156
5.1576
4.76211
4.38142
3.99287
3.61878
3.25198
2.86554
2.44945
3.27883
2.91641
2.47885
2.04259
2.24297
3.38224
4.46212
5.28196
6.03458
6.72261
7.25662
7.68167
7.98974
8.19053
8.24304
8.14334
7.89456
7.53665
7.10877
6.64823
6.18331
5.73833
5.32365
4.93598
4.5616
4.17658
3.79588
3.42287
3.02812
2.60073
3.59893
3.20871
2.73945
2.24418
2.17825
3.16829
4.27698
5.11115
5.83328
6.5394
7.10403
7.5586
7.89391
8.11951
8.19964
8.13317
7.92162
7.59962
7.20381
6.76919
6.32408
5.89418
5.49131
5.11362
4.74834
4.37004
3.98263
3.60344
3.19928
2.75878
3.93219
3.51179
3.00935
2.46397
2.18735
2.98823
4.10357
4.94892
5.64718
6.34099
6.92654
7.40617
7.76682
8.01786
8.12709
8.0971
7.92523
7.6457
7.28696
6.883
6.46194
6.05043
5.66192
5.29618
4.94207
4.57312
4.1799
3.79429
3.37992
2.92421
4.27762
3.8267
3.29097
2.68701
2.25653
2.8507
3.9457
4.79785
5.47831
6.12744
6.71758
7.21435
7.59697
7.87356
8.01325
8.02328
7.89695
7.66374
7.35067
6.98289
6.59087
6.20217
5.83164
5.48036
5.1388
4.78097
4.38671
3.99622
3.57159
3.09803
4.63765
4.16647
3.60489
2.92031
2.36203
2.75844
3.81373
4.66857
5.33243
5.93653
6.4766
6.97427
7.36943
7.66678
7.8361
7.88762
7.81157
7.6327
7.36978
7.04813
6.69316
6.33385
5.98624
5.65273
5.32528
4.98075
4.60146
4.21226
3.77781
3.28464
5.05473
4.55929
3.92397
3.15619
2.4901
2.72027
3.72936
4.5782
5.22858
5.80256
6.30912
6.76939
7.14662
7.44144
7.63222
7.72142
7.70254
7.5879
7.39021
7.12905
6.82368
6.49796
6.16949
5.84633
5.52731
5.20007
4.84978
4.46574
4.01839
3.49702
5.53113
4.98967
4.28613
3.43232
2.66874
2.77222
3.73257
4.57304
5.22409
5.79106
6.2922
6.74559
7.12744
7.43718
7.66104
7.79189
7.82697
7.77248
7.63412
7.42542
7.1629
6.86707
6.55487
6.23691
5.91625
5.58645
5.23336
4.83379
4.35511
3.78401
6.23073
5.63728
4.8641
3.93128
3.10482
3.15881
4.10757
4.95049
5.65244
6.25167
6.78443
7.26455
7.67856
8.02771
8.2973
8.47092
8.54984
8.54105
8.44087
8.26069
8.01642
7.7279
7.41136
7.07678
6.7278
6.3616
5.966
5.51434
4.96498
4.30155
7.93007
7.36428
6.63187
5.76259
5.00985
5.16861
6.12132
7.03229
7.84778
8.53448
9.14175
9.67357
10.1348
10.544
10.8481
11.0361
11.1163
11.1007
10.9788
10.7648
10.479
10.1423
9.77214
9.37488
8.93749
8.46687
7.96189
7.40018
6.74469
5.94303
16.3339
16.1186
15.8322
15.4709
15.2667
15.6061
16.2758
16.8365
17.3205
17.7382
18.1293
18.4285
18.7152
19.081
19.2658
19.3554
19.3648
19.3235
19.1931
19.0177
18.8114
18.6013
18.4005
18.1955
17.7961
17.3324
16.8695
16.3676
15.849
15.1286
5.79594
8.25823
10.0487
11.5207
12.606
13.2496
13.4762
13.3618
12.9913
12.4597
11.8329
11.1857
10.5556
9.98481
9.44301
8.80039
7.96415
6.96157
5.88962
4.82207
3.81117
2.89935
2.11979
1.57845
1.26279
1.05749
0.890102
0.782856
0.842512
1.15971
4.66774
5.34676
6.0965
6.76659
7.2857
7.61336
7.74153
7.69139
7.49606
7.20115
6.84416
6.45845
6.06612
5.68435
5.30063
4.83591
4.30884
3.72702
3.17926
2.6647
2.19041
1.76444
1.38594
1.07324
0.862386
0.734876
0.673902
0.628951
0.581781
0.658871
4.42719
4.87777
5.40429
5.89306
6.29669
6.57591
6.71276
6.71477
6.59494
6.38346
6.10741
5.79693
5.47031
5.14331
4.80267
4.38688
3.89834
3.38065
2.90014
2.46347
2.07131
1.72263
1.40933
1.13818
0.943944
0.820942
0.750734
0.68222
0.601772
0.695159
4.17097
4.61221
5.07455
5.50598
5.88408
6.17
6.3394
6.39245
6.33461
6.18408
5.96053
5.70282
5.42046
5.13326
4.81881
4.42189
3.94087
3.43473
2.9608
2.53549
2.161
1.83497
1.54199
1.28017
1.08454
0.958731
0.878344
0.792575
0.689495
0.769419
3.68587
4.28257
4.77979
5.20979
5.59846
5.91346
6.12609
6.23018
6.22973
6.13157
5.96379
5.74513
5.5011
5.24626
4.95386
4.56792
4.08899
3.58094
3.10141
2.67211
2.29906
1.97874
1.69219
1.43306
1.23319
1.10163
1.01293
0.91313
0.792732
0.838873
2.96362
3.84559
4.44387
4.91825
5.33878
5.69332
5.95413
6.10991
6.16258
6.11777
5.99329
5.81716
5.60964
5.3854
5.11217
4.73455
4.25616
3.7442
3.25707
2.82092
2.44471
2.12405
1.83932
1.5816
1.37851
1.24063
1.14466
1.03329
0.898092
0.894404
2.2722
3.35161
4.07376
4.61365
5.07827
5.47722
5.7875
5.99462
6.09734
6.10257
6.02181
5.88629
5.71461
5.51972
5.26395
4.89408
4.41692
3.9025
3.40917
2.96696
2.58649
2.26293
1.97802
1.72196
1.51766
1.37405
1.27192
1.15225
1.00608
0.940514
1.73684
2.90681
3.71655
4.30923
4.81413
5.25697
5.61513
5.87194
6.02273
6.07492
6.0371
5.94103
5.80439
5.6376
5.39807
5.03615
4.56212
4.04798
3.55105
3.10475
2.72057
2.39322
2.10735
1.85355
1.64993
1.50202
1.3951
1.27068
1.11795
0.988191
1.3414
2.5058
3.40476
4.02834
4.55595
5.03261
5.43513
5.73852
5.93501
6.03054
6.0377
5.97761
5.87478
5.73465
5.51042
5.15718
4.68879
4.17776
3.68033
3.23228
2.84575
2.5148
2.22814
1.97723
1.77571
1.62557
1.51541
1.38904
1.23305
1.04785
1.0841
2.10336
3.12791
3.79829
4.31675
4.8106
5.24833
5.59476
5.8341
5.9705
6.0177
5.99496
5.92473
5.80965
5.60003
5.25659
4.7964
4.2912
3.7964
3.34908
2.96167
2.6286
2.34182
2.09457
1.8963
1.74588
1.63417
1.5078
1.35071
1.12642
0.961429
1.72054
2.85489
3.6002
4.11062
4.59912
5.05935
5.4426
5.72158
5.89631
5.98055
5.99562
5.95492
5.86305
5.66755
5.33528
4.88563
4.38882
3.89958
3.45532
3.06876
2.7355
2.44986
2.20718
2.0132
1.86427
1.75255
1.6275
1.46985
1.22012
0.96587
1.4045
2.56461
3.41399
3.94168
4.40592
4.87378
5.28532
5.6
5.81027
5.92918
5.97804
5.96668
5.89619
5.7147
5.39503
4.95803
4.4719
3.99065
3.55164
3.16775
2.83642
2.55378
2.31656
2.12782
1.98209
1.87189
1.74897
1.59016
1.32634
1.07077
1.25325
2.25251
3.22311
3.79312
4.23879
4.69731
5.12708
5.47197
5.71499
5.86606
5.94555
5.96219
5.9111
5.74405
5.43838
5.01572
4.54209
4.07087
3.63907
3.25979
2.93253
2.65491
2.42411
2.2417
2.10094
1.99367
1.87345
1.71249
1.44354
1.2266
1.2489
1.93717
3.01317
3.65342
4.09785
4.53346
4.97238
5.34111
5.61333
5.79388
5.90148
5.94363
5.91274
5.75913
5.46855
5.06151
4.60175
4.14205
3.71909
3.3463
3.02525
2.75456
2.53135
2.35664
2.2227
2.11981
2.00268
1.83926
1.56927
1.42762
1.35291
1.72347
2.78275
3.51352
3.97364
4.38721
4.82439
5.21083
5.50842
5.71581
5.84941
5.91479
5.90252
5.76415
5.48967
5.09905
4.6539
4.20676
3.79395
3.42929
3.11639
2.85443
2.64016
2.47477
2.34963
2.25269
2.13902
1.97318
1.70321
1.64181
1.52914
1.64879
2.544
3.3662
3.85947
4.26165
4.68657
5.08437
5.40349
5.63559
5.79374
5.88098
5.88737
5.7654
5.5072
5.13335
4.70295
4.26904
3.86703
3.51162
3.20848
2.95687
2.75309
2.59885
2.48467
2.39543
2.28564
2.11722
1.84716
1.87242
1.74852
1.68904
2.32069
3.20762
3.75065
4.15302
4.56185
4.96562
5.30271
5.55783
5.73979
5.84941
5.87424
5.76945
5.52852
5.17142
4.7548
4.33462
3.94351
3.59782
3.30538
3.06542
2.87374
2.73273
2.63195
2.55246
2.44706
2.27555
2.00376
2.12501
1.98993
1.84635
2.17172
3.04275
3.64414
4.05758
4.45231
4.85941
5.21168
5.48901
5.69587
5.82926
5.87372
5.78711
5.56422
5.22363
4.82145
4.41308
4.03163
3.69509
3.41314
3.18606
3.00775
2.88226
2.79754
2.73016
2.6297
2.45369
2.17537
2.40657
2.257
2.05786
2.12028
2.88341
3.53867
3.97365
4.36225
4.77051
5.13947
5.44054
5.67369
5.83062
5.90021
5.83402
5.63021
5.30509
4.91819
4.5188
4.14455
3.81512
3.5422
3.328
3.16411
3.05647
2.99079
2.93812
2.84283
2.65908
2.36614
2.72752
2.55629
2.31157
2.15812
2.74361
3.43533
3.90156
4.29462
4.70278
5.09114
5.41797
5.684
5.87889
5.97718
5.93459
5.75176
5.44458
5.06874
4.67513
4.3039
3.97699
3.71083
3.50731
3.35833
3.2699
3.22675
3.19133
3.10043
2.90274
2.58442
3.10468
2.89982
2.59905
2.29466
2.63556
3.33872
3.84417
4.25269
4.66585
5.07642
5.45305
5.7696
6.00805
6.1435
6.1298
5.97332
5.68336
5.31576
4.92242
4.54724
4.21732
3.9511
3.75118
3.61743
3.54898
3.5313
3.51437
3.42448
3.20186
2.84208
3.5657
3.30967
2.93247
2.48824
2.58761
3.25838
3.80831
4.24374
4.68846
5.16405
5.60151
5.98219
6.28033
6.46819
6.49626
6.3739
6.10244
5.7388
5.33907
4.95008
4.60446
4.32402
4.12393
3.99803
3.94717
3.95167
3.94929
3.85086
3.58381
3.15637
4.15789
3.82394
3.33677
2.73613
2.59201
3.20778
3.80712
4.33889
4.87104
5.4232
5.95224
6.42798
6.81753
7.088
7.1854
7.11261
6.86715
6.50988
6.09113
5.66817
5.29272
4.98456
4.76034
4.6227
4.57221
4.58039
4.57341
4.44133
4.09301
3.55441
4.96642
4.51372
3.86999
3.05362
2.68217
3.21215
3.94147
4.63176
5.32358
6.02549
6.70347
7.33892
7.88337
8.29769
8.52447
8.54208
8.3519
8.01986
7.58294
7.1066
6.65268
6.26256
5.96227
5.75992
5.65492
5.60764
5.53816
5.31046
4.80875
4.08435
6.15813
5.5284
4.65264
3.5353
2.9196
3.44324
4.37264
5.34196
6.3333
7.34061
8.32694
9.25748
10.0894
10.7812
11.2821
11.5076
11.472
11.2082
10.7384
10.1459
9.52084
8.93514
8.42888
8.01363
7.69353
7.43808
7.15612
6.68809
5.88838
4.84774
8.11524
7.25831
5.99713
4.46998
3.58151
4.20708
5.53562
7.0516
8.63944
10.2465
11.8362
13.3635
14.765
16.0096
17.0571
17.7094
17.9642
17.8673
17.3876
16.5887
15.6037
14.5701
13.5572
12.6045
11.7321
10.9223
10.0858
9.0673
7.68403
6.08121
11.739
10.5017
8.78222
6.76339
5.6493
6.63047
8.76412
11.3943
14.1535
16.8823
19.5622
22.1266
24.4754
26.642
28.6083
29.9946
30.7671
30.9797
30.5169
29.3747
27.7388
25.8512
23.839
21.7755
19.7185
17.6987
15.6737
13.5147
11.0396
8.43475
18.9806
17.3963
15.4189
13.3007
12.3876
14.1466
17.8184
22.2778
26.8997
31.2415
35.3833
39.2675
42.7763
45.9572
48.8187
50.9091
52.1742
52.5953
51.9448
50.1897
47.5872
44.4715
41.0679
37.4696
33.7258
29.9128
26.0758
22.1567
18.0391
13.9249
31.0745
30.0754
29.2906
28.9643
29.7265
32.7547
37.9921
43.8653
49.6904
54.9483
59.7379
63.979
67.5839
70.5168
72.4681
73.296
73.2049
71.9563
69.4181
66.093
62.258
58.1818
54.1696
50.3384
46.6304
42.8863
38.9613
34.8367
30.4837
25.9895
38.0077
38.578
39.9482
42.3087
46.2195
50.867
55.4777
59.7324
63.7772
67.4431
70.514
72.8349
74.3957
74.9575
73.5312
70.7808
67.6478
63.8174
59.7408
55.7169
51.9847
48.6848
45.8831
43.63
41.8748
40.6648
39.8614
39.1328
38.1626
37.0543
8.18476
12.0392
14.6746
17.0014
18.8156
19.9786
20.4985
20.4693
19.998
19.2103
18.1908
17.0421
15.8007
14.5176
13.1436
11.5198
9.63923
7.74835
6.06841
4.63831
3.37466
2.26018
1.34276
0.262543
0.227462
0.208421
0.816477
1.04364
1.38612
1.76483
5.57515
6.93018
7.97883
8.87884
9.57973
10.0471
10.2719
10.2753
10.0836
9.7382
9.27688
8.73183
8.13041
7.48642
6.77657
5.93798
5.06716
4.27407
3.60439
2.9938
2.38431
1.77008
1.17926
0.673358
0.498765
0.432069
0.53915
0.620942
0.755018
1.06857
5.2579
6.39329
7.20271
7.80309
8.23699
8.51682
8.64663
8.63736
8.49414
8.23703
7.88706
7.46832
7.00061
6.49736
5.928
5.24435
4.53006
3.89973
3.37243
2.88371
2.3765
1.86273
1.33276
0.85469
0.631055
0.544358
0.562366
0.612887
0.745988
1.15407
5.14261
6.18897
6.93191
7.44004
7.78723
8.00946
8.11818
8.12282
8.01991
7.81777
7.52787
7.17544
6.77375
6.34293
5.83517
5.20536
4.53163
3.93699
3.4325
2.96761
2.49864
2.02156
1.51455
1.04245
0.785422
0.666858
0.637763
0.661716
0.791067
1.25648
4.99806
5.9731
6.69113
7.1738
7.5024
7.72162
7.84525
7.88069
7.82282
7.66981
7.4252
7.12769
6.7855
6.39828
5.926
5.3203
4.66471
4.07327
3.56281
3.09635
2.64057
2.18389
1.69371
1.23082
0.947562
0.798585
0.734221
0.726804
0.839187
1.31665
4.62712
5.64461
6.39351
6.88458
7.22823
7.47431
7.63465
7.71318
7.70589
7.60196
7.40919
7.15869
6.85737
6.50896
6.06045
5.46953
4.82277
4.22805
3.7065
3.23321
2.78261
2.3391
1.86529
1.41527
1.11222
0.934954
0.841604
0.799958
0.884218
1.33196
3.96326
5.1541
5.99863
6.5387
6.92623
7.21717
7.4279
7.55872
7.60468
7.55453
7.41336
7.20372
6.94248
6.6267
6.19624
5.61811
4.97838
4.38056
3.84877
3.36834
2.91988
2.48572
2.02977
1.5947
1.2777
1.07474
0.95602
0.88345
0.930267
1.31257
3.22565
4.53229
5.51232
6.14039
6.58997
6.93875
7.20723
7.39567
7.4965
7.50225
7.41286
7.2425
7.02
6.73313
6.31843
5.75325
5.12326
4.52517
3.98565
3.49913
3.05127
2.62456
2.18651
1.76819
1.4429
1.21855
1.07667
0.977332
0.982315
1.27829
2.55407
3.90666
4.97868
5.71051
6.23019
6.64055
6.97015
7.21795
7.3748
7.43347
7.3927
7.26609
7.08172
6.82157
6.42254
5.87302
5.25645
4.66139
4.11681
3.62543
3.17747
2.75684
2.33592
1.93526
1.60735
1.3664
1.20376
1.08228
1.04232
1.2426
1.99312
3.31196
4.47233
5.2729
5.86374
6.33148
6.71997
7.02604
7.23799
7.34747
7.35682
7.27548
7.12525
6.8908
6.50912
5.9793
5.37971
4.79055
4.2432
3.74813
3.2999
2.88468
2.47988
2.09691
1.77127
1.5184
1.33769
1.19732
1.12114
1.2237
1.56353
2.75599
3.99516
4.86864
5.50643
6.02277
6.46286
6.82356
7.08806
7.24678
7.30307
7.26637
7.15054
6.94267
6.58141
6.07575
5.4961
4.91479
4.3664
3.86873
3.42052
3.0108
2.62089
2.25527
1.93575
1.67521
1.47897
1.32162
1.21387
1.23681
1.28289
2.25543
3.54755
4.50323
5.17307
5.72507
6.20656
6.6152
6.92868
7.13425
7.23487
7.24248
7.16189
6.98137
6.64445
6.16723
5.60939
5.03696
4.48858
3.98929
3.54168
3.13809
2.76203
2.41374
2.10304
1.83835
1.62885
1.45541
1.32001
1.27517
1.13967
1.85612
3.11923
4.16474
4.87705
5.44628
5.95909
6.40718
6.76474
7.01419
7.15769
7.20743
7.16479
7.01272
6.70471
6.2598
5.72419
5.16064
4.61278
4.11257
3.66638
3.2696
2.90697
2.57655
2.27655
2.01051
1.78941
1.59997
1.43985
1.34079
1.11261
1.59155
2.7193
3.84463
4.61416
5.19468
5.72777
6.2064
6.60179
6.89183
7.07665
7.16683
7.16262
7.04414
6.77013
6.36005
5.8462
5.29076
4.74339
4.24254
3.7987
3.40914
3.06056
2.74889
2.46089
2.19559
1.96391
1.75749
1.57287
1.42592
1.19486
1.46991
2.37589
3.54035
4.3728
4.97956
5.51895
6.01968
6.44668
6.77368
6.99854
7.12997
7.16589
7.08571
6.8506
6.47661
5.98321
5.43444
4.88705
4.38547
3.94459
3.56248
3.22976
2.93771
2.66241
2.39919
2.15713
1.93156
1.7205
1.5336
1.35261
1.47107
2.11925
3.25659
4.15061
4.78835
5.33521
5.85305
6.30647
6.66778
6.93239
7.10804
7.18716
7.15033
6.95876
6.62121
6.14649
5.60265
5.05421
4.5512
4.11248
3.73894
3.42586
3.15291
2.89001
2.62923
2.37602
2.12794
1.88616
1.66202
1.56344
1.5855
1.99006
3.00561
3.94667
4.61944
5.17829
5.71184
6.18994
6.58497
6.89137
7.10755
7.24315
7.25533
7.11189
6.81081
6.35313
5.81247
5.26133
4.75541
4.31713
3.95375
3.66317
3.40852
3.15635
2.89697
2.6306
2.355
2.07519
1.81149
1.81104
1.77144
1.97106
2.80413
3.76191
4.47219
5.0481
5.59444
6.09953
6.53076
6.87766
7.15962
7.35574
7.42676
7.33469
7.07124
6.63007
6.09125
5.53522
5.02334
4.5851
4.23486
3.96575
3.72586
3.48001
3.2187
2.93515
2.62411
2.29499
1.9847
2.10513
2.02172
2.05401
2.66743
3.59955
4.34682
4.94586
5.5066
6.04213
6.51352
6.93798
7.29016
7.55842
7.70113
7.66475
7.44371
7.02113
6.48347
5.92009
5.40182
4.96254
4.63018
4.37296
4.13833
3.88942
3.61864
3.31002
2.95119
2.55544
2.18618
2.46117
2.32624
2.23324
2.59811
3.46534
4.24541
4.87483
5.45942
6.03086
6.59573
7.1069
7.54645
7.90275
8.13406
8.16607
7.99703
7.59946
7.06544
6.49865
5.97284
5.54078
5.21159
4.94845
4.69894
4.42963
4.1343
3.78556
3.35923
2.87071
2.42366
2.90077
2.68988
2.47691
2.60435
3.36762
4.1732
4.84219
5.47874
6.16459
6.83183
7.45124
8.00166
8.47433
8.81961
8.94776
8.84929
8.49404
7.9796
7.41842
6.89866
6.45961
6.10217
5.79779
5.49594
5.17498
4.82564
4.40863
3.883
3.26358
2.7081
3.46069
3.14169
2.79485
2.70021
3.3172
4.14144
4.89778
5.69452
6.50951
7.31259
8.07927
8.78723
9.42199
9.92614
10.2017
10.2131
9.9444
9.48343
8.96691
8.44281
7.95074
7.50897
7.09583
6.68187
6.25173
5.79272
5.25531
4.57718
3.7681
3.05431
4.20461
3.73233
3.20546
2.89618
3.33274
4.21821
5.17898
6.1774
7.20099
8.21063
9.20094
10.1429
11.0173
11.7609
12.2827
12.4866
12.3936
12.0717
11.6015
11.0278
10.4022
9.77568
9.15524
8.52377
7.87863
7.20841
6.45561
5.53373
4.44557
3.49455
5.25425
4.56946
3.80173
3.24549
3.56535
4.58545
5.81343
7.14062
8.50456
9.86493
11.2208
12.5243
13.771
14.8962
15.8514
16.4084
16.6034
16.461
16.0194
15.3245
14.4646
13.5181
12.5221
11.4878
10.4365
9.37262
8.24075
6.92365
5.41491
4.09964
6.87454
5.90256
4.79866
3.95552
4.19234
5.47495
7.15236
9.03028
10.9724
12.9125
14.863
16.7713
18.618
20.3478
21.9566
23.0274
23.5955
23.7008
23.2908
22.402
21.154
19.6787
18.0458
16.3136
14.5553
12.8057
11.0223
9.07787
6.93132
5.03466
9.65191
8.32957
6.77193
5.58264
5.83045
7.58174
10.0093
12.8244
15.728
18.5914
21.4553
24.257
26.9618
29.5228
32.0246
33.7658
34.8038
35.1605
34.7048
33.4766
31.6235
29.3569
26.778
23.9869
21.158
18.3553
15.5628
12.6556
9.56006
6.7472
14.8237
13.2012
11.1482
9.68687
10.0866
12.6326
16.2807
20.4887
24.839
28.979
33.044
36.9598
40.6808
44.1468
47.539
49.7902
51.0577
51.2995
50.3714
48.294
45.4614
42.206
38.6809
34.9639
31.0718
27.0796
23.0453
18.892
14.564
10.4446
24.3369
22.7584
20.8338
19.6026
20.5325
24.0987
29.2444
35.0061
40.8962
46.268
51.3911
56.1889
60.5952
64.455
67.8165
69.2754
68.8964
67.1372
64.4207
61.0094
57.2223
53.3143
49.4546
45.6577
41.8354
37.8488
33.5593
28.8445
23.7384
18.679
37.1101
36.515
36.5739
37.5486
39.9612
44.335
50.2369
56.5569
62.7891
68.3796
73.4802
77.9899
81.6854
84.064
84.4433
82.0392
78.5597
74.2298
69.5643
64.894
60.5364
56.6341
53.2944
50.4901
48.0305
45.6528
43.0426
39.9096
36.1942
32.4918
41.977
42.8799
44.8357
48.2821
53.2445
58.6929
64.1482
69.3865
74.3402
78.7896
82.4724
85.0855
86.3382
85.4446
81.9188
76.0975
70.0172
63.7827
57.963
52.8385
48.6746
45.4922
43.2362
41.8535
41.2152
41.1604
41.4385
41.5714
41.3299
41.1205
10.6044
15.7144
19.0339
21.9092
24.33
25.9831
26.8077
26.8951
26.3574
25.3388
23.9269
22.2451
20.3205
18.2156
15.8698
13.1359
10.2983
8.07588
6.73464
5.78219
4.55519
3.09046
1.67641
0.264931
0.224627
0.206637
1.0798
1.5137
2.13131
2.94631
6.70533
8.46042
9.76272
10.8314
11.6934
12.2822
12.5814
12.6128
12.4049
11.997
11.4249
10.7161
9.90538
8.9894
7.94162
6.74132
5.65274
4.94702
4.51137
3.9859
3.21625
2.33534
1.42697
0.456266
0.341677
0.41169
0.571161
0.772116
1.18044
2.21074
6.17947
7.66219
8.74404
9.51625
10.0422
10.3497
10.4712
10.4312
10.2425
9.92285
9.48846
8.95739
8.35169
7.66974
6.86785
5.94045
5.12294
4.61521
4.25692
3.77108
3.08131
2.28141
1.45382
0.572059
0.377124
0.438756
0.529164
0.700066
1.1318
2.24959
5.91079
7.35429
8.44175
9.15892
9.58497
9.79958
9.86173
9.80245
9.63259
9.35809
8.98558
8.53477
8.01469
7.4382
6.73215
5.89483
5.14771
4.6618
4.27115
3.76401
3.08864
2.32549
1.52255
0.704767
0.463063
0.496184
0.561123
0.71185
1.13584
2.27901
5.65271
7.07949
8.19758
8.92794
9.34591
9.54501
9.60188
9.55508
9.41466
9.17821
8.84748
8.45688
8.00901
7.48276
6.82145
6.02315
5.30114
4.80089
4.37246
3.84141
3.17041
2.42085
1.61534
0.871007
0.585641
0.576469
0.614007
0.738239
1.12808
2.23326
5.34269
6.75345
7.90048
8.66977
9.11543
9.34124
9.42658
9.41584
9.31673
9.11881
8.8497
8.4988
8.09034
7.60368
6.96674
6.19044
5.48389
4.96721
4.50538
3.95626
3.28779
2.54928
1.7363
1.05734
0.740853
0.674913
0.682443
0.775947
1.11382
2.14336
4.9424
6.33829
7.52155
8.3409
8.837
9.11544
9.25328
9.29446
9.24924
9.10615
8.87812
8.56848
8.19806
7.73918
7.11737
6.36075
5.67276
5.14532
4.65715
4.09454
3.43336
2.70555
1.9141
1.26178
0.91735
0.796043
0.763748
0.823665
1.10224
2.02873
4.38062
5.80711
7.05188
7.93236
8.49876
8.84774
9.05448
9.15924
9.17587
9.09149
8.90631
8.63834
8.30337
7.8663
7.25776
6.52655
5.86472
5.33276
4.82415
4.25081
3.59823
2.88777
2.12641
1.48255
1.10828
0.938017
0.86051
0.882303
1.1029
1.90795
3.77426
5.19082
6.49503
7.45451
8.10567
8.53908
8.82459
9.00132
9.08241
9.05798
8.92312
8.69565
8.39503
7.97785
7.38639
6.69081
6.06349
5.53273
5.00613
4.42274
3.77853
3.08549
2.35241
1.71509
1.3102
1.09531
0.976397
0.954485
1.1146
1.7937
3.18892
4.56345
5.90461
6.93139
7.67496
8.19802
8.56777
8.82015
8.9678
9.00478
8.92634
8.73613
8.47037
8.07463
7.50863
6.86092
6.27488
5.74739
5.20409
4.61025
3.97313
3.29673
2.59066
1.95674
1.52183
1.26534
1.10942
1.04288
1.14435
1.69886
2.65904
3.95895
5.32528
6.40394
7.23003
7.83923
8.29228
8.62055
8.8351
8.93077
8.90575
8.7616
8.53199
8.16246
7.63379
7.04626
6.50535
5.98079
5.4201
4.81521
4.18321
3.52447
2.84199
2.20833
1.74422
1.44833
1.25689
1.14896
1.19503
1.63429
2.20626
3.39525
4.77505
5.90894
6.79005
7.47898
8.0091
8.41022
8.6897
8.84258
8.87249
8.77742
8.58629
8.25108
7.77395
7.25648
6.76156
6.23762
5.65747
5.04153
4.41205
3.77436
3.11088
2.47333
1.98043
1.64635
1.41994
1.27226
1.26637
1.59988
1.84815
2.88921
4.25872
5.45105
6.38426
7.13195
7.72971
8.19768
8.53913
8.74819
8.83204
8.78946
8.64283
8.35371
7.9436
7.50877
7.05165
6.52388
5.92188
5.29479
4.66615
4.05316
3.40405
2.75806
2.2358
1.8635
1.60124
1.41542
1.35484
1.5979
1.59572
2.46554
3.78404
5.02918
6.02056
6.80679
7.46489
7.99278
8.39251
8.6565
8.79448
8.80739
8.71507
8.48705
8.15936
7.81033
7.38474
6.84805
6.22254
5.5831
4.95932
4.37159
3.73137
3.07187
2.51834
2.10648
1.80526
1.5782
1.46514
1.62163
1.45233
2.14468
3.36541
4.64568
5.68853
6.52177
7.22527
7.80589
8.2607
8.57962
8.77511
8.84913
8.82136
8.67153
8.44081
8.17664
7.77432
7.22302
6.57407
5.92254
5.31617
4.74657
4.10638
3.42747
2.83922
2.3847
2.0384
1.76254
1.59109
1.675
1.41152
1.93844
3.01818
4.30361
5.39222
6.26718
7.01362
7.64705
8.1559
8.5284
8.77773
8.93265
8.9883
8.93337
8.81126
8.62812
8.24083
7.66985
7.00023
6.34085
5.76416
5.20142
4.54716
3.84211
3.21352
2.71098
2.31165
1.97631
1.73724
1.75488
1.47873
1.85054
2.75921
4.0083
5.13286
6.04714
6.82871
7.51307
8.07677
8.50596
8.84346
9.08457
9.24532
9.30868
9.30299
9.19443
8.81535
8.22209
7.53799
6.88697
6.33978
5.76819
5.08236
4.33972
3.66191
3.10297
2.63919
2.23042
1.91239
1.85683
1.65986
1.86449
2.59321
3.76578
4.91263
5.86485
6.68287
7.41338
8.03445
8.54577
8.9953
9.34121
9.63181
9.8391
9.9619
9.92028
9.54554
8.93534
8.24955
7.64311
7.0997
6.49085
5.75195
4.95456
4.21332
3.5849
3.0408
2.53841
2.12444
1.98737
1.93105
1.9992
2.52076
3.58304
4.73473
5.72365
6.58145
7.35915
8.05287
8.71052
9.28
9.75461
10.2062
10.5848
10.8516
10.8737
10.5104
9.89216
9.2486
8.69403
8.1194
7.43195
6.61434
5.73674
4.90966
4.19136
3.54413
2.91883
2.38324
2.15993
2.28703
2.23024
2.53824
3.46578
4.60378
5.62859
6.53257
7.37916
8.25141
9.0448
9.76033
10.4009
11.0531
11.6357
12.0692
12.1636
11.8357
11.23
10.6842
10.1568
9.4976
8.69346
7.75861
6.76216
5.81361
4.97356
4.18886
3.39792
2.70546
2.37503
2.74197
2.56487
2.67066
3.41774
4.5266
5.58936
6.5863
7.6298
8.66505
9.63083
10.5374
11.3962
12.3009
13.1312
13.7714
13.9651
13.731
13.2294
12.7975
12.2031
11.4038
10.4327
9.32359
8.14937
7.02325
6.01042
5.03536
4.01909
3.1158
2.64292
3.33714
3.01919
2.91939
3.44987
4.51686
5.68265
6.90535
8.15958
9.41142
10.604
11.774
12.925
14.1528
15.293
16.212
16.5696
16.5672
16.227
15.8135
15.0911
14.1008
12.8924
11.5252
10.0844
8.69155
7.42635
6.17857
4.85361
3.65147
2.99361
4.14608
3.63856
3.31962
3.67559
4.72632
6.09421
7.57261
9.12258
10.6771
12.199
13.7356
15.2842
16.9325
18.4759
19.7969
20.4615
20.703
20.5458
20.0839
19.2109
17.9706
16.4318
14.6886
12.8511
11.0591
9.41317
7.76815
6.01941
4.39535
3.48315
5.32471
4.57357
4.01001
4.19462
5.33241
6.95377
8.81273
10.7913
12.8042
14.8008
16.8573
18.948
21.1482
23.2284
25.1464
26.1265
26.5729
26.5745
26.0994
25.0418
23.4763
21.5017
19.2457
16.851
14.4875
12.2504
10.04
7.71866
5.5116
4.23395
7.19976
6.14029
5.27502
5.30247
6.60781
8.65675
11.0638
13.6905
16.3896
19.0554
21.8134
24.6161
27.5104
30.2525
32.8703
34.1182
34.7349
34.725
33.8846
32.3641
30.3206
27.8733
25.1329
22.2
19.202
16.266
13.3509
10.299
7.32085
5.51829
10.4234
9.03457
7.82179
7.71277
9.30571
11.9914
15.2274
18.7593
22.4203
25.9644
29.598
33.2576
36.9382
40.3731
43.6496
44.8612
45.0444
44.1742
42.621
40.4739
37.919
35.0735
32.0073
28.7413
25.3095
21.789
18.1744
14.3237
10.4462
7.93996
16.1257
14.5549
13.1606
12.9957
14.9895
18.5212
22.8351
27.4721
32.2578
36.7713
41.3121
45.812
50.1723
54.055
57.4859
57.3382
55.9086
53.5852
50.9344
47.9922
44.945
41.8934
38.8457
35.7209
32.3944
28.8043
24.8782
20.4872
15.915
12.7026
25.2504
24.0986
23.4096
23.5738
26.0599
30.3641
35.6492
41.2258
46.849
52.0616
57.1714
62.1097
66.6086
70.0914
72.0293
68.5345
64.5769
60.2025
56.1003
52.2819
48.8701
45.9093
43.3474
41.0164
38.6451
36.0199
32.8464
28.9051
24.5915
21.3434
35.8259
35.8023
36.8482
39.1359
42.5153
47.1841
52.6865
58.3561
63.9386
69.05
73.9381
78.427
81.9434
83.1554
81.2868
73.7111
66.7418
60.1151
54.7017
50.1869
46.6476
44.0435
42.2911
41.1773
40.474
39.8263
38.7701
36.9623
34.6402
32.939
38.8945
40.2411
42.8033
46.8393
52.0652
57.6116
63.0038
68.1876
73.1839
77.7975
81.8216
84.8854
86.2371
83.9243
78.1261
67.367
58.4576
50.6683
44.5921
39.8953
36.5578
34.4307
33.3827
33.2309
33.8553
34.9824
36.2417
37.1752
37.7385
38.6407
14.1774
20.1532
23.8582
26.9707
29.7111
31.6819
32.726
32.8961
32.2838
31.0341
29.2163
26.9645
24.2846
21.2499
17.7814
13.8769
10.5744
9.61802
10.7308
11.0005
9.23868
6.69508
3.93617
1.3717
1.00852
0.958652
1.32723
1.87284
2.64457
3.84082
8.51076
10.3629
11.7237
12.8323
13.7701
14.4398
14.8007
14.8572
14.6364
14.17
13.4952
12.626
11.6038
10.3904
8.95248
7.41324
6.39966
6.4771
6.93114
6.63317
5.66141
4.44952
3.07529
1.2937
0.475242
0.532422
0.679252
0.948201
1.54514
3.13629
7.86903
9.27069
10.3622
11.1893
11.7667
12.106
12.2367
12.1824
11.9619
11.5914
11.0876
10.4577
9.72854
8.86781
7.8146
6.69145
6.00262
6.07976
6.20848
5.74783
4.87699
3.89749
2.80905
1.27662
0.501319
0.508082
0.603183
0.83713
1.46915
3.13459
7.58345
8.88395
10
10.7961
11.2701
11.4988
11.5466
11.4502
11.2328
10.9017
10.4668
9.9354
9.32029
8.60709