/*--------------------------------*- C++ -*----------------------------------*\
  =========                 |
  \\      /  F ield         | OpenFOAM: The Open Source CFD Toolbox
   \\    /   O peration     | Website:  https://openfoam.org
    \\  /    A nd           | Version:  12
     \\/     M anipulation  |
\*---------------------------------------------------------------------------*/
FoamFile
{
    format      ascii;
    class       volScalarField;
    location    "800/air";
    object      k;
}
// * * * * * * * * * * * * * * * * * * * * * * * * * * * * * * * * * * * * * //

dimensions      [0 2 -2 0 0 0 0];

internalField   nonuniform List<scalar> 
243000
(
0.0700107
0.0848554
0.0922846
0.0969889
0.0991217
0.0989187
0.096876
0.0935742
0.0895054
0.0851748
0.0809143
0.0771478
0.0741924
0.07243
0.0719208
0.0721283
0.0722061
0.0716568
0.0703637
0.0683689
0.0657718
0.0626973
0.0593271
0.0561347
0.0527931
0.0484004
0.0423531
0.034027
0.0232421
0.0253969
0.109874
0.130513
0.141403
0.147849
0.15061
0.150216
0.147466
0.143068
0.137677
0.131873
0.126069
0.120781
0.116217
0.112678
0.109722
0.106347
0.101965
0.096837
0.0914813
0.0861795
0.0810505
0.0761358
0.0714902
0.0674151
0.0639492
0.0601138
0.0552601
0.0483133
0.0400751
0.0395154
0.129454
0.154828
0.170882
0.180636
0.185806
0.186996
0.185167
0.181224
0.175913
0.169894
0.163666
0.157849
0.15266
0.148409
0.144364
0.139231
0.13234
0.124414
0.116294
0.108463
0.101116
0.094295
0.0880004
0.0824538
0.0776315
0.0727898
0.0671634
0.0597515
0.0511142
0.047536
0.130892
0.16526
0.187323
0.200501
0.208338
0.211518
0.210992
0.2079
0.203064
0.197242
0.190997
0.185021
0.179555
0.17491
0.170211
0.163974
0.155476
0.145703
0.135682
0.126054
0.117092
0.108855
0.101302
0.0945543
0.0885116
0.0826453
0.0762579
0.0684023
0.0592129
0.0534708
0.122115
0.163238
0.194489
0.212131
0.223041
0.22871
0.230023
0.228252
0.224365
0.219205
0.213392
0.207676
0.202313
0.197605
0.192559
0.185555
0.175881
0.164688
0.153154
0.142048
0.131722
0.122264
0.113609
0.105796
0.0986466
0.0917205
0.0845089
0.0760731
0.0662804
0.0586385
0.11343
0.154732
0.192739
0.21692
0.231794
0.240273
0.243825
0.243698
0.241078
0.236896
0.231821
0.226658
0.221667
0.217131
0.211948
0.204421
0.193894
0.181624
0.168898
0.156596
0.14514
0.134643
0.125042
0.116306
0.108197
0.100271
0.0922599
0.0832136
0.0728346
0.0634432
0.103546
0.144757
0.185684
0.215551
0.235506
0.247338
0.2534
0.255213
0.254067
0.251078
0.24696
0.242564
0.238143
0.233956
0.228787
0.220933
0.209809
0.19674
0.183095
0.169839
0.157458
0.146091
0.135683
0.126157
0.117228
0.108398
0.0996539
0.0900304
0.0791174
0.0681729
0.0920208
0.134412
0.176052
0.210237
0.234556
0.250686
0.259482
0.263463
0.263963
0.262317
0.259313
0.255842
0.252142
0.248434
0.243399
0.235371
0.223875
0.210243
0.195908
0.181909
0.16878
0.156692
0.145603
0.135406
0.125779
0.116159
0.106759
0.0966139
0.085255
0.0730443
0.0808677
0.122781
0.1665
0.202119
0.230479
0.250281
0.262655
0.268931
0.271258
0.271059
0.269279
0.266852
0.26398
0.260846
0.256042
0.247978
0.23629
0.2223
0.207477
0.192918
0.179198
0.166517
0.15486
0.144098
0.133881
0.123604
0.113617
0.103014
0.0912312
0.0782299
0.0748113
0.109188
0.1563
0.193894
0.223961
0.247371
0.262869
0.272008
0.276306
0.277668
0.277187
0.275883
0.273915
0.271421
0.26693
0.258949
0.247216
0.233056
0.217919
0.202961
0.188788
0.175635
0.16351
0.152277
0.141567
0.130747
0.120255
0.109264
0.0971206
0.0835577
0.076219
0.0953492
0.144881
0.185319
0.216249
0.242396
0.260998
0.272892
0.279383
0.282434
0.283316
0.28318
0.282162
0.280353
0.276241
0.26845
0.256797
0.242626
0.227337
0.21212
0.19762
0.1841
0.171601
0.159984
0.148869
0.1376
0.126689
0.115389
0.102933
0.0889554
0.0821004
0.0854826
0.13182
0.175977
0.208713
0.235848
0.257424
0.271926
0.280829
0.28559
0.287887
0.288955
0.288907
0.287807
0.28413
0.276618
0.265159
0.2511
0.235815
0.220469
0.205753
0.191964
0.179177
0.167255
0.155813
0.14418
0.132931
0.12137
0.108658
0.0943733
0.0896195
0.084749
0.117799
0.16547
0.200963
0.228826
0.252459
0.269557
0.280594
0.287333
0.291085
0.293378
0.294318
0.293932
0.290728
0.283573
0.27241
0.25857
0.243412
0.228067
0.213236
0.199268
0.186278
0.174128
0.162431
0.150507
0.138995
0.127222
0.114306
0.0998127
0.098139
0.090023
0.105096
0.153582
0.192693
0.221968
0.246422
0.266018
0.27919
0.287777
0.293057
0.296595
0.298529
0.298857
0.296152
0.289421
0.278641
0.265119
0.250187
0.234958
0.220112
0.206054
0.192942
0.180638
0.168752
0.156605
0.144896
0.132947
0.119891
0.105256
0.107264
0.097576
0.0973095
0.140536
0.183654
0.215052
0.239886
0.261535
0.276806
0.28713
0.294017
0.298733
0.301646
0.302695
0.300507
0.294254
0.283936
0.270819
0.256203
0.24118
0.226423
0.212364
0.19921
0.18682
0.174809
0.162503
0.15065
0.138572
0.125415
0.110682
0.116744
0.1062
0.0977611
0.127625
0.173724
0.207924
0.233653
0.256327
0.273606
0.285632
0.293918
0.29993
0.303762
0.305536
0.303885
0.298159
0.288369
0.275738
0.261521
0.246783
0.232198
0.218235
0.205117
0.192712
0.18064
0.168233
0.156277
0.144121
0.13089
0.116087
0.126492
0.115491
0.103938
0.117145
0.16306
0.200493
0.227571
0.250573
0.269736
0.283415
0.293045
0.300207
0.304967
0.307455
0.306368
0.301212
0.292013
0.279938
0.266197
0.251821
0.237486
0.223696
0.210697
0.19835
0.186282
0.173837
0.161818
0.149616
0.136334
0.121475
0.13647
0.125158
0.111908
0.111141
0.152141
0.192724
0.221546
0.24459
0.26532
0.280561
0.291499
0.299713
0.305343
0.308528
0.308026
0.303483
0.294937
0.283492
0.2703
0.256356
0.242342
0.2288
0.21599
0.203778
0.191795
0.179377
0.167319
0.155095
0.141778
0.126864
0.146654
0.135025
0.120684
0.110602
0.141903
0.184672
0.215546
0.238948
0.260481
0.27715
0.289304
0.298545
0.304967
0.308824
0.308929
0.305042
0.297204
0.28647
0.273898
0.260457
0.246835
0.233608
0.221054
0.209056
0.197241
0.184923
0.172844
0.16061
0.147269
0.13229
0.157021
0.145032
0.129906
0.115422
0.133666
0.176537
0.209576
0.233566
0.255313
0.273236
0.286503
0.296712
0.303902
0.308405
0.30914
0.305956
0.298893
0.288939
0.277064
0.264198
0.251035
0.23819
0.225961
0.214251
0.202687
0.190559
0.178459
0.166222
0.152854
0.137791
0.167561
0.155133
0.139383
0.12247
0.12841
0.168655
0.203686
0.228408
0.249881
0.268842
0.283121
0.294235
0.302175
0.307314
0.308708
0.306283
0.300065
0.290962
0.279865
0.267654
0.255025
0.242629
0.230784
0.219433
0.208204
0.196359
0.184235
0.171997
0.158581
0.143405
0.178266
0.165289
0.148943
0.130456
0.126395
0.161449
0.197965
0.22346
0.244317
0.263936
0.279145
0.291096
0.299768
0.30555
0.307637
0.306038
0.300757
0.292585
0.282356
0.270891
0.258881
0.247001
0.235602
0.224664
0.213844
0.202373
0.190229
0.177993
0.164502
0.149157
0.189081
0.175502
0.158527
0.138876
0.127216
0.15533
0.192537
0.21871
0.239117
0.258575
0.274483
0.28718
0.296555
0.303009
0.305832
0.305142
0.300855
0.293769
0.284526
0.273918
0.262628
0.251346
0.240455
0.229978
0.219618
0.208593
0.196459
0.184224
0.17064
0.155063
0.199976
0.18581
0.168218
0.147159
0.130306
0.150659
0.187543
0.214241
0.234356
0.252744
0.268941
0.28221
0.292227
0.299375
0.30298
0.303293
0.300143
0.294234
0.286182
0.276562
0.266109
0.255531
0.245237
0.23528
0.22541
0.214868
0.202888
0.190705
0.177034
0.161153
0.211021
0.196617
0.178749
0.155564
0.134594
0.147563
0.183332
0.210387
0.230205
0.247496
0.262482
0.275922
0.286371
0.294118
0.298504
0.299867
0.297977
0.293437
0.286677
0.27828
0.268854
0.259135
0.249555
0.240193
0.230837
0.220816
0.209457
0.197519
0.183786
0.167566
0.223449
0.208767
0.189135
0.163835
0.139583
0.146369
0.180637
0.20769
0.22724
0.243792
0.257955
0.270495
0.280563
0.288313
0.293286
0.295617
0.295172
0.29226
0.287175
0.280377
0.272311
0.263568
0.2546
0.245623
0.236606
0.227198
0.2169
0.205352
0.191503
0.174715
0.237248
0.221684
0.200589
0.173263
0.146314
0.148404
0.180801
0.207587
0.22715
0.243502
0.257513
0.26987
0.28006
0.288194
0.294006
0.297388
0.29831
0.296945
0.293423
0.288056
0.281226
0.273423
0.265064
0.256415
0.247549
0.238279
0.228162
0.216466
0.202046
0.184147
0.256805
0.240427
0.218194
0.189627
0.161881
0.162023
0.192952
0.218993
0.239496
0.256319
0.270822
0.283565
0.294322
0.303241
0.310039
0.314382
0.316353
0.316153
0.313686
0.309211
0.303087
0.295768
0.287632
0.278907
0.269666
0.259807
0.248959
0.236309
0.220473
0.200565
0.301409
0.28707
0.267954
0.244223
0.222269
0.225517
0.25233
0.277055
0.298282
0.315584
0.330486
0.343265
0.354139
0.363646
0.370633
0.374919
0.376746
0.376403
0.373651
0.368789
0.362237
0.354439
0.345765
0.336335
0.325812
0.314297
0.301712
0.287421
0.270312
0.248644
0.487138
0.482919
0.477284
0.470037
0.465686
0.472036
0.485437
0.496536
0.506083
0.514231
0.521788
0.527548
0.532981
0.539912
0.543392
0.545076
0.545255
0.544487
0.542044
0.53875
0.534861
0.530879
0.527054
0.523133
0.515549
0.50657
0.497521
0.487623
0.477329
0.462862
0.104618
0.12909
0.143528
0.153519
0.159347
0.161214
0.159791
0.155955
0.150499
0.144203
0.137566
0.131133
0.125169
0.119979
0.1153
0.110031
0.103258
0.0949422
0.0856412
0.0757726
0.0656376
0.0555511
0.0458764
0.0384008
0.0337597
0.0306382
0.0279445
0.0262165
0.0280849
0.0355848
0.19477
0.223822
0.241267
0.252493
0.257862
0.257452
0.252626
0.244683
0.234682
0.223525
0.211724
0.199819
0.187835
0.175815
0.162795
0.147317
0.130851
0.1148
0.101062
0.0891597
0.0785906
0.0689757
0.0599123
0.0526529
0.0479165
0.0463727
0.0462139
0.0460409
0.0499276
0.0603337
0.245331
0.276272
0.299853
0.316589
0.326445
0.329149
0.325943
0.318402
0.307717
0.294983
0.280874
0.26609
0.250777
0.235041
0.217667
0.196982
0.174255
0.152589
0.134077
0.118522
0.105274
0.0937244
0.0830258
0.0740466
0.0680254
0.0653648
0.063891
0.0609776
0.0605499
0.0732873
0.263705
0.304542
0.333376
0.35554
0.370485
0.377666
0.377657
0.372268
0.362726
0.350223
0.335553
0.319576
0.302563
0.284723
0.264709
0.240565
0.213585
0.187822
0.1655
0.146805
0.131149
0.117799
0.105605
0.0950507
0.0875637
0.0834672
0.0800355
0.0744325
0.0703323
0.082762
0.254213
0.306907
0.349365
0.377897
0.398313
0.410604
0.414775
0.412367
0.40492
0.393649
0.379437
0.3633
0.345613
0.326681
0.304991
0.278384
0.248408
0.219474
0.194145
0.17287
0.155192
0.140307
0.126874
0.115023
0.106174
0.10075
0.0954301
0.0872146
0.0799401
0.0901065
0.224268
0.294586
0.346634
0.386233
0.414385
0.432121
0.441082
0.442229
0.437427
0.428006
0.414937
0.399348
0.381721
0.362389
0.339642
0.31126
0.279154
0.24778
0.220051
0.196664
0.177308
0.161113
0.146675
0.133816
0.123837
0.117263
0.110255
0.0996391
0.0893039
0.0954315
0.188095
0.27162
0.335449
0.383038
0.41994
0.444849
0.458885
0.464144
0.462294
0.455122
0.443659
0.429148
0.412118
0.392923
0.369529
0.339944
0.306351
0.27316
0.243538
0.218432
0.197673
0.180338
0.165064
0.151451
0.140607
0.133076
0.124627
0.111973
0.0986789
0.099344
0.154316
0.245075
0.318337
0.374316
0.417355
0.449974
0.469848
0.479584
0.480975
0.476294
0.466762
0.453712
0.437689
0.419017
0.395315
0.364991
0.330405
0.295993
0.26489
0.238406
0.216464
0.198136
0.18216
0.168005
0.15654
0.14825
0.138626
0.124358
0.108522
0.102929
0.12595
0.216701
0.298196
0.361685
0.410694
0.4484
0.475425
0.489607
0.49458
0.492518
0.485138
0.473828
0.459103
0.441232
0.417521
0.386853
0.351697
0.316541
0.284344
0.256779
0.23385
0.214664
0.198117
0.183593
0.171716
0.162858
0.152334
0.136834
0.11898
0.10729
0.10539
0.186234
0.276246
0.346868
0.401038
0.443524
0.474923
0.495115
0.503872
0.5046
0.499516
0.490129
0.476907
0.460031
0.436578
0.405911
0.370557
0.335015
0.302105
0.273714
0.24998
0.230082
0.213094
0.198358
0.186252
0.177023
0.16583
0.149407
0.129933
0.112527
0.0938291
0.156682
0.252509
0.330316
0.389245
0.436144
0.471689
0.496272
0.509394
0.513244
0.510501
0.503148
0.491562
0.475814
0.452857
0.422497
0.387262
0.351609
0.318351
0.289353
0.264992
0.244535
0.227242
0.212436
0.200271
0.190856
0.179189
0.162077
0.141353
0.11949
0.0915141
0.131813
0.227038
0.3122
0.37623
0.426917
0.466306
0.494551
0.512034
0.518957
0.518618
0.513346
0.503491
0.488933
0.4667
0.436912
0.402066
0.366544
0.333204
0.30383
0.279004
0.25816
0.240703
0.225953
0.213891
0.204463
0.192493
0.174861
0.152952
0.127941
0.0970162
0.117976
0.200657
0.292572
0.362098
0.416274
0.459312
0.490973
0.511567
0.522092
0.52435
0.521135
0.513049
0.499746
0.478433
0.449442
0.415207
0.380015
0.346775
0.317285
0.292142
0.271081
0.253605
0.239023
0.227236
0.217956
0.205839
0.187817
0.164662
0.137639
0.108005
0.1147
0.175204
0.271531
0.346997
0.404983
0.451172
0.48598
0.509548
0.523153
0.528074
0.526898
0.520582
0.508608
0.488377
0.460366
0.426919
0.392222
0.359235
0.32982
0.304528
0.283415
0.266067
0.251764
0.240417
0.23145
0.219347
0.201044
0.176732
0.148251
0.123188
0.119098
0.157209
0.249806
0.331122
0.393147
0.442143
0.479981
0.506317
0.522473
0.530116
0.531021
0.526445
0.515877
0.496858
0.469968
0.437449
0.403372
0.370764
0.341555
0.316304
0.295287
0.278211
0.264301
0.253552
0.245078
0.233157
0.21467
0.189322
0.15966
0.140455
0.131322
0.149252
0.228713
0.314698
0.380937
0.432674
0.473339
0.502213
0.520805
0.53092
0.5339
0.531009
0.521921
0.504224
0.478565
0.447074
0.413708
0.381591
0.352676
0.327623
0.306838
0.290172
0.276777
0.266782
0.258988
0.247439
0.228857
0.202588
0.171919
0.159958
0.147584
0.149307
0.209934
0.29805
0.368577
0.423197
0.466341
0.49756
0.518435
0.530692
0.535858
0.534677
0.527145
0.510863
0.486518
0.456129
0.423511
0.391989
0.363441
0.338683
0.318249
0.302113
0.28936
0.280282
0.273363
0.262407
0.243824
0.216738
0.18506
0.18187
0.166688
0.158157
0.196978
0.281881
0.356311
0.413882
0.459179
0.492664
0.515709
0.5301
0.53735
0.537933
0.53202
0.517234
0.494275
0.465045
0.433304
0.402366
0.374203
0.349775
0.329779
0.314259
0.302273
0.294274
0.288426
0.278318
0.259866
0.232029
0.19925
0.206257
0.188231
0.17306
0.191399
0.267143
0.344407
0.404921
0.452159
0.487841
0.513006
0.529481
0.538871
0.541402
0.537123
0.523922
0.502419
0.474364
0.443649
0.41326
0.385459
0.361335
0.341806
0.326927
0.315833
0.309054
0.304468
0.295496
0.277327
0.248806
0.214615
0.233214
0.212215
0.191619
0.191745
0.254698
0.333181
0.396561
0.445865
0.483464
0.510739
0.529205
0.541135
0.545849
0.543207
0.531722
0.51176
0.485082
0.455293
0.425445
0.397937
0.374031
0.354894
0.340628
0.330551
0.325026
0.321894
0.314356
0.296598
0.26721
0.231365
0.262869
0.238616
0.212695
0.198996
0.245283
0.323059
0.389103
0.440568
0.480002
0.509368
0.530367
0.545168
0.552325
0.551408
0.541817
0.523584
0.49831
0.469457
0.440115
0.412759
0.388946
0.370029
0.35613
0.347155
0.342872
0.341333
0.335463
0.318184
0.287643
0.249738
0.295465
0.267571
0.235807
0.211579
0.240505
0.314605
0.382904
0.436634
0.478124
0.509569
0.534807
0.552554
0.562418
0.563569
0.556111
0.539855
0.516125
0.488227
0.459295
0.431916
0.408013
0.388893
0.375388
0.367141
0.363972
0.363874
0.359653
0.342763
0.310633
0.270004
0.331545
0.299698
0.261273
0.22662
0.239534
0.308329
0.378418
0.434622
0.479213
0.515946
0.544653
0.565899
0.578904
0.582912
0.57796
0.564203
0.542329
0.515592
0.486933
0.45932
0.435216
0.415762
0.401867
0.393668
0.391006
0.391535
0.38837
0.371364
0.336895
0.292528
0.372307
0.335941
0.290191
0.244472
0.241548
0.304883
0.376514
0.437154
0.489586
0.531617
0.56463
0.5901
0.60729
0.615459
0.614068
0.603878
0.584588
0.559959
0.532223
0.504407
0.479107
0.458118
0.442636
0.433052
0.429204
0.42847
0.424495
0.405929
0.367695
0.318088
0.420478
0.379118
0.324865
0.266878
0.251044
0.306852
0.38326
0.453649
0.513541
0.563582
0.604009
0.635745
0.659149
0.673712
0.678702
0.674251
0.660135
0.638933
0.612332
0.583648
0.555929
0.531596
0.512083
0.497777
0.488683
0.482814
0.473973
0.450631
0.405857
0.348714
0.483405
0.437477
0.372494
0.301894
0.274485
0.329911
0.412663
0.493877
0.565512
0.626447
0.677934
0.720635
0.754285
0.779037
0.794311
0.798317
0.791597
0.775742
0.751685
0.721871
0.689789
0.658933
0.631058
0.607003
0.586982
0.56943
0.548783
0.514823
0.458491
0.389633
0.577317
0.525094
0.452264
0.372623
0.337151
0.394577
0.489094
0.587829
0.676394
0.752846
0.819168
0.8757
0.921587
0.958715
0.987077
1.00194
1.00474
0.996348
0.976083
0.945333
0.907685
0.867647
0.827443
0.787998
0.749798
0.712113
0.670903
0.617474
0.542376
0.455306
0.7346
0.680899
0.609836
0.535202
0.504283
0.564768
0.673866
0.790091
0.896001
0.985645
1.06344
1.13012
1.18482
1.22961
1.26519
1.28684
1.29574
1.29214
1.27313
1.24034
1.1974
1.1489
1.09786
1.04483
0.989434
0.93086
0.866495
0.789912
0.694704
0.587374
0.946611
0.912645
0.875094
0.843864
0.841951
0.904424
1.01054
1.12016
1.21921
1.30158
1.37161
1.42944
1.47478
1.50817
1.5263
1.52979
1.5215
1.49964
1.46443
1.42083
1.37186
1.32063
1.27069
1.22293
1.1757
1.12589
1.06942
1.0025
0.921373
0.827578
1.06721
1.06562
1.07053
1.0874
1.13095
1.19639
1.26687
1.33043
1.38772
1.43606
1.47535
1.50443
1.5232
1.52953
1.51132
1.47752
1.43851
1.39096
1.34072
1.29129
1.24548
1.20509
1.17104
1.14392
1.12276
1.10829
1.0979
1.08592
1.06545
1.03709
0.131577
0.165905
0.184717
0.198992
0.208135
0.212017
0.211377
0.207285
0.20068
0.192493
0.183282
0.173676
0.163846
0.154048
0.143814
0.131761
0.117373
0.102071
0.0874617
0.0739204
0.0606014
0.047123
0.0339104
0.0304348
0.0283127
0.0279155
0.0262968
0.0316479
0.0390583
0.0469801
0.227642
0.285412
0.318996
0.338637
0.34759
0.347475
0.340974
0.329984
0.315923
0.299887
0.282374
0.263924
0.244276
0.223253
0.199605
0.173617
0.149618
0.13135
0.118353
0.107656
0.0956315
0.0809298
0.0627935
0.0498057
0.0465821
0.0424023
0.0428515
0.0505369
0.065758
0.087682
0.285741
0.356458
0.402132
0.42906
0.441974
0.443594
0.437354
0.425533
0.409601
0.390704
0.36943
0.346415
0.321463
0.294395
0.263744
0.229927
0.198449
0.174874
0.158284
0.14492
0.130596
0.113316
0.0913459
0.0730573
0.0668617
0.0605196
0.0577645
0.0634144
0.0798201
0.113285
0.320367
0.40301
0.455395
0.487481
0.504365
0.509064
0.50481
0.49423
0.478697
0.459275
0.436594
0.411324
0.383414
0.352769
0.317686
0.278709
0.242136
0.214159
0.19392
0.177663
0.16122
0.142186
0.118002
0.0964551
0.0868297
0.0783788
0.0719143
0.0742385
0.0907387
0.132073
0.340366
0.426549
0.48787
0.524362
0.545866
0.55482
0.553719
0.545561
0.531648
0.512969
0.490179
0.463988
0.434479
0.401679
0.363511
0.320852
0.280704
0.249146
0.225675
0.206792
0.188594
0.16841
0.143146
0.119745
0.106873
0.0961506
0.0863549
0.0842677
0.0993032
0.145574
0.335234
0.425097
0.496209
0.544423
0.571532
0.585861
0.589125
0.584227
0.572773
0.555682
0.53362
0.507431
0.477287
0.443249
0.402788
0.357566
0.314892
0.280466
0.254237
0.233089
0.21346
0.192537
0.166982
0.142655
0.127036
0.11395
0.101294
0.0943707
0.106333
0.153537
0.310627
0.409985
0.489611
0.545571
0.584582
0.605197
0.613911
0.612989
0.604616
0.589716
0.569032
0.543531
0.513451
0.478822
0.436757
0.389884
0.345479
0.308809
0.280264
0.257175
0.236341
0.21493
0.189649
0.165021
0.147274
0.131878
0.116722
0.105337
0.112669
0.156953
0.275718
0.382894
0.473379
0.538201
0.584046
0.615143
0.629912
0.633781
0.628891
0.616635
0.597827
0.573537
0.544099
0.509345
0.466326
0.418539
0.37308
0.33478
0.304279
0.279516
0.257629
0.235868
0.21118
0.186731
0.167496
0.150045
0.132651
0.117361
0.119099
0.157626
0.237738
0.349923
0.449465
0.524355
0.577833
0.615209
0.63865
0.647937
0.646887
0.637606
0.621053
0.598404
0.570087
0.535565
0.492236
0.444215
0.398262
0.358852
0.326706
0.300476
0.277644
0.255615
0.231671
0.207741
0.18763
0.168465
0.149096
0.130581
0.126082
0.156221
0.201017
0.313568
0.421574
0.505298
0.567114
0.610875
0.640645
0.656389
0.6597
0.653573
0.639565
0.618909
0.592092
0.558159
0.515151
0.467515
0.421535
0.381409
0.347884
0.320355
0.29666
0.274439
0.251284
0.228124
0.207636
0.187119
0.166036
0.144946
0.134487
0.15473
0.16924
0.275341
0.39109
0.483707
0.552942
0.603144
0.638241
0.660396
0.668176
0.665352
0.654112
0.635742
0.610694
0.577785
0.535692
0.48898
0.443352
0.402785
0.368115
0.339418
0.314938
0.292592
0.270221
0.24803
0.227519
0.205997
0.183445
0.160214
0.144867
0.155563
0.145447
0.238003
0.358919
0.460355
0.53648
0.592913
0.633187
0.659754
0.672921
0.673692
0.665374
0.649525
0.626463
0.595062
0.554447
0.509116
0.464118
0.423278
0.387681
0.357914
0.332716
0.310317
0.288705
0.267646
0.247331
0.225122
0.201331
0.176228
0.156378
0.158997
0.130899
0.205456
0.325827
0.435847
0.518997
0.580877
0.626187
0.657046
0.67485
0.67934
0.67399
0.660842
0.64
0.610605
0.571981
0.528406
0.484222
0.443205
0.406837
0.376079
0.350234
0.327842
0.306977
0.287129
0.267173
0.244567
0.219743
0.192973
0.169278
0.16522
0.125981
0.181226
0.293323
0.410577
0.500947
0.567854
0.6179
0.652807
0.674189
0.682794
0.680574
0.670258
0.651958
0.625032
0.588848
0.547296
0.504038
0.462902
0.425849
0.39417
0.367751
0.345411
0.325319
0.306707
0.287222
0.264456
0.23878
0.210484
0.183623
0.173229
0.130275
0.167377
0.263977
0.385161
0.482672
0.554764
0.608872
0.647569
0.672429
0.684807
0.685778
0.6784
0.662987
0.638968
0.605596
0.566241
0.523965
0.482733
0.445037
0.412499
0.385574
0.363315
0.34409
0.326673
0.307719
0.284975
0.25859
0.228833
0.199174
0.182616
0.144329
0.164284
0.240578
0.360559
0.464496
0.54183
0.599419
0.641817
0.669972
0.685726
0.690283
0.685981
0.673764
0.653055
0.622786
0.585733
0.544463
0.50315
0.464826
0.431483
0.404087
0.381946
0.363785
0.347397
0.328962
0.306368
0.279389
0.248184
0.21595
0.194447
0.164105
0.170277
0.226559
0.338141
0.446813
0.529239
0.590313
0.635985
0.667264
0.686065
0.694668
0.693822
0.685014
0.667977
0.641043
0.606353
0.566114
0.524746
0.485794
0.451711
0.42385
0.401889
0.384846
0.369319
0.351328
0.328957
0.30147
0.268767
0.234028
0.208363
0.188321
0.185791
0.221788
0.319436
0.430085
0.517229
0.581835
0.630428
0.664763
0.686695
0.699711
0.70286
0.697673
0.684518
0.661107
0.628858
0.589722
0.548363
0.508797
0.474049
0.445735
0.424144
0.407995
0.393033
0.375305
0.353155
0.325208
0.290821
0.253575
0.224224
0.215945
0.206773
0.224708
0.305693
0.414842
0.506034
0.574176
0.625448
0.662932
0.688633
0.706417
0.714114
0.712918
0.703662
0.683983
0.654327
0.616464
0.575241
0.535149
0.49985
0.471211
0.450196
0.434303
0.419373
0.401572
0.379517
0.351064
0.314714
0.274662
0.241982
0.247054
0.232589
0.235276
0.29733
0.40167
0.49592
0.567563
0.621656
0.662232
0.693505
0.716107
0.728737
0.732207
0.726912
0.711159
0.684397
0.648141
0.607314
0.566996
0.531422
0.502978
0.481804
0.465314
0.449513
0.431126
0.408843
0.379658
0.34095
0.297591
0.261566
0.281392
0.261171
0.25278
0.295169
0.391145
0.487205
0.562319
0.61962
0.664497
0.702462
0.730521
0.748519
0.757435
0.756511
0.744931
0.721656
0.687625
0.647717
0.608033
0.572957
0.544241
0.521712
0.503303
0.485341
0.465561
0.442358
0.411893
0.370195
0.32277
0.282963
0.318988
0.292136
0.27354
0.297789
0.383714
0.480284
0.558913
0.620512
0.674092
0.718106
0.752309
0.776333
0.791433
0.79601
0.78909
0.770344
0.739626
0.702012
0.664573
0.629808
0.59943
0.573901
0.551532
0.529995
0.507486
0.482087
0.449266
0.40351
0.350748
0.305912
0.360795
0.326665
0.29831
0.304907
0.379678
0.475808
0.558349
0.630208
0.693268
0.744647
0.785709
0.816896
0.839247
0.850904
0.850177
0.837512
0.812292
0.77953
0.744211
0.708633
0.674677
0.643861
0.615699
0.588564
0.561188
0.531511
0.494421
0.442836
0.382755
0.330864
0.409433
0.367401
0.328738
0.318941
0.379647
0.475677
0.569006
0.654404
0.72757
0.788395
0.838511
0.878406
0.909635
0.930285
0.93918
0.934665
0.917234
0.889239
0.855226
0.817501
0.778784
0.741054
0.704713
0.669116
0.633611
0.596389
0.552116
0.491946
0.421705
0.359741
0.471519
0.420973
0.369884
0.345195
0.397637
0.495435
0.601679
0.7005
0.787164
0.859653
0.921752
0.973778
1.01647
1.04833
1.06878
1.0728
1.06299
1.04025
1.00761
0.967413
0.922793
0.876515
0.829529
0.782204
0.734799
0.685911
0.630277
0.558139
0.474112
0.397343
0.56087
0.502386
0.438177
0.399859
0.44582
0.549766
0.66893
0.786446
0.889161
0.976563
1.0531
1.11887
1.17395
1.21725
1.24979
1.26194
1.25872
1.2397
1.20705
1.16328
1.11184
1.05635
0.997965
0.937382
0.875956
0.812482
0.742134
0.654698
0.553292
0.455935
0.701267
0.639396
0.565576
0.519208
0.55673
0.668685
0.80394
0.939148
1.06013
1.1623
1.25214
1.32961
1.39442
1.44527
1.48482
1.49907
1.49431
1.47077
1.43177
1.37949
1.31974
1.257
1.19283
1.12723
1.05856
0.984993
0.902522
0.80168
0.684246
0.564152
0.91734
0.86248
0.797275
0.756456
0.790028
0.901929
1.04455
1.18757
1.31762
1.42521
1.51885
1.59838
1.66293
1.70947
1.73867
1.73448
1.70356
1.65496
1.59638
1.53229
1.46719
1.40413
1.34495
1.28896
1.23299
1.17211
1.0992
1.00486
0.890327
0.767458
1.15807
1.12754
1.10391
1.10023
1.14519
1.24362
1.36941
1.49471
1.60819
1.70178
1.78118
1.84515
1.89031
1.90811
1.89519
1.84191
1.77458
1.69791
1.62027
1.54641
1.48085
1.42497
1.38008
1.3456
1.31713
1.2893
1.25347
1.20056
1.12844
1.05001
1.2404
1.2404
1.25122
1.28713
1.35659
1.44668
1.54196
1.63185
1.71254
1.77965
1.83335
1.86837
1.88156
1.86076
1.80238
1.71166
1.61663
1.5205
1.43172
1.35479
1.29393
1.24962
1.2213
1.20816
1.207
1.21603
1.22726
1.23074
1.22286
1.21114
0.156369
0.19815
0.219671
0.235642
0.247042
0.252629
0.252806
0.248688
0.241263
0.231541
0.220052
0.207463
0.1938
0.179253
0.163129
0.143889
0.122736
0.104962
0.093717
0.0855471
0.0739332
0.0579781
0.0392811
0.0301843
0.0271054
0.0273996
0.0317112
0.0406084
0.0521506
0.0661177
0.258893
0.331065
0.373394
0.401578
0.416116
0.418231
0.411443
0.398506
0.381279
0.361121
0.338479
0.313855
0.286633
0.256464
0.222188
0.187769
0.162536
0.152634
0.151459
0.147938
0.132845
0.106419
0.0713227
0.0414451
0.0396335
0.0405569
0.0475718
0.0634738
0.0912673
0.138416
0.320039
0.411206
0.472695
0.512715
0.532601
0.535857
0.528139
0.513049
0.492623
0.468232
0.440326
0.409403
0.374884
0.336287
0.292223
0.248201
0.216661
0.204013
0.20074
0.194362
0.175291
0.142983
0.0990934
0.0584538
0.0543148
0.0549441
0.0607788
0.0771647
0.11094
0.175304
0.355136
0.465141
0.539902
0.588457
0.612955
0.618344
0.611333
0.596228
0.575077
0.549082
0.518632
0.484165
0.445267
0.401503
0.351106
0.300909
0.264609
0.248166
0.241192
0.231351
0.209395
0.173761
0.124712
0.0796267
0.0708714
0.0691836
0.0725078
0.0877824
0.124795
0.201972
0.377127
0.495417
0.585508
0.640544
0.669798
0.678577
0.673556
0.659777
0.639268
0.613077
0.58152
0.545012
0.503312
0.45605
0.401005
0.346633
0.306902
0.286799
0.276048
0.263001
0.239095
0.201895
0.150019
0.104315
0.0899267
0.0842124
0.0843795
0.0972286
0.134625
0.219085
0.385407
0.507358
0.608384
0.67359
0.708257
0.72194
0.720286
0.709001
0.690174
0.664769
0.633086
0.595585
0.552184
0.502378
0.44385
0.386728
0.344674
0.321402
0.307233
0.291474
0.266326
0.228783
0.175867
0.131146
0.111482
0.10076
0.0967821
0.106457
0.141872
0.229268
0.380975
0.503454
0.60962
0.686739
0.731403
0.75136
0.754657
0.746848
0.730567
0.706723
0.675726
0.63803
0.593741
0.542062
0.481089
0.422463
0.37904
0.353149
0.335974
0.317893
0.291999
0.254931
0.203454
0.159025
0.134698
0.119246
0.110226
0.115825
0.147611
0.233998
0.364184
0.488802
0.600722
0.684081
0.739882
0.768993
0.778804
0.775296
0.762276
0.740648
0.710967
0.673743
0.629315
0.576219
0.5139
0.454929
0.41096
0.382952
0.36312
0.34301
0.316649
0.280475
0.231669
0.18738
0.158944
0.139319
0.12522
0.125957
0.152785
0.235196
0.339713
0.46459
0.582431
0.67367
0.736923
0.776995
0.794254
0.795916
0.786679
0.767792
0.739961
0.703813
0.659806
0.605932
0.543361
0.485111
0.44128
0.411599
0.389318
0.367354
0.340667
0.305562
0.259727
0.215746
0.183765
0.16038
0.142121
0.137256
0.158189
0.2338
0.310707
0.434648
0.557641
0.656574
0.728165
0.775308
0.802309
0.810054
0.804938
0.789199
0.763689
0.729163
0.686036
0.632198
0.570503
0.513923
0.470738
0.439658
0.415079
0.391352
0.364355
0.330402
0.287415
0.243737
0.208836
0.182093
0.160375
0.149958
0.164582
0.231141
0.279972
0.401047
0.528865
0.634872
0.714791
0.769407
0.803229
0.818677
0.818101
0.805823
0.783044
0.750655
0.70883
0.656012
0.596338
0.542215
0.500005
0.467663
0.440847
0.415393
0.388019
0.355308
0.314666
0.271198
0.233986
0.204301
0.179554
0.164233
0.172621
0.229378
0.250131
0.365634
0.497386
0.610562
0.697917
0.760239
0.800524
0.823089
0.827233
0.818569
0.798872
0.769041
0.729163
0.678406
0.621862
0.570745
0.529692
0.496106
0.467034
0.439867
0.412001
0.380604
0.341654
0.298209
0.259188
0.226945
0.199527
0.179856
0.182462
0.229698
0.223628
0.330468
0.464382
0.584749
0.679451
0.748754
0.795367
0.823023
0.833109
0.828319
0.812019
0.785168
0.748032
0.700446
0.648042
0.600521
0.560392
0.525449
0.494067
0.465171
0.436731
0.40651
0.368696
0.325082
0.284567
0.250079
0.220254
0.196766
0.193645
0.231536
0.202823
0.29813
0.431386
0.558482
0.660184
0.735642
0.788503
0.821336
0.836706
0.835985
0.823361
0.799971
0.766484
0.723197
0.67579
0.631983
0.592621
0.556168
0.52242
0.491758
0.462805
0.433442
0.3962
0.352233
0.310397
0.273889
0.241777
0.215012
0.206312
0.235237
0.189478
0.271227
0.400076
0.532651
0.640963
0.722172
0.78063
0.818504
0.838961
0.84256
0.833872
0.814483
0.785614
0.747709
0.705952
0.665797
0.626938
0.588762
0.552664
0.520242
0.491159
0.461969
0.424646
0.380156
0.337077
0.298679
0.264206
0.234301
0.220644
0.241233
0.184721
0.251994
0.372302
0.507995
0.622375
0.708966
0.772324
0.815059
0.83985
0.848883
0.84462
0.829898
0.806535
0.774968
0.739312
0.702607
0.663949
0.623854
0.585535
0.551516
0.522557
0.492752
0.454556
0.40943
0.365108
0.324856
0.287902
0.254739
0.23614
0.250001
0.18878
0.241868
0.350015
0.485395
0.604843
0.696486
0.76409
0.811562
0.840722
0.855792
0.856777
0.847511
0.830475
0.805916
0.776686
0.74311
0.70438
0.66227
0.621996
0.586996
0.557803
0.526535
0.486761
0.440735
0.395096
0.352946
0.313276
0.276607
0.253022
0.261519
0.205481
0.240762
0.334301
0.465728
0.588809
0.685102
0.756828
0.808601
0.842571
0.864261
0.871713
0.868648
0.858841
0.8416
0.818889
0.788155
0.749196
0.705157
0.663558
0.628701
0.598034
0.564129
0.52219
0.474902
0.427771
0.383577
0.340864
0.30024
0.271487
0.275829
0.2287
0.248997
0.325646
0.449836
0.574701
0.675109
0.750851
0.806721
0.846637
0.875709
0.890549
0.894812
0.893071
0.883466
0.867017
0.838931
0.799807
0.754127
0.712695
0.677998
0.64445
0.606555
0.562008
0.512987
0.464057
0.417545
0.371331
0.326097
0.291771
0.292461
0.258337
0.265415
0.324005
0.438318
0.5629
0.666786
0.74649
0.806365
0.854943
0.891862
0.914819
0.927516
0.935001
0.933251
0.922651
0.897213
0.85836
0.811661
0.771708
0.736214
0.698109
0.655597
0.607825
0.556437
0.505201