/*--------------------------------*- C++ -*----------------------------------*\
  =========                 |
  \\      /  F ield         | OpenFOAM: The Open Source CFD Toolbox
   \\    /   O peration     | Website:  https://openfoam.org
    \\  /    A nd           | Version:  12
     \\/     M anipulation  |
\*---------------------------------------------------------------------------*/
FoamFile
{
    format      ascii;
    class       volScalarField;
    location    "800/air";
    object      nut;
}
// * * * * * * * * * * * * * * * * * * * * * * * * * * * * * * * * * * * * * //

dimensions      [0 2 -1 0 0 0 0];

internalField   nonuniform List<scalar> 
243000
(
0.000138715
0.00014715
0.000147885
0.000146314
0.000142963
0.000138276
0.000132756
0.000126869
0.000120962
0.000115373
0.000110302
0.000106011
0.00010271
0.000100653
9.98802e-05
0.000100031
0.000100518
0.000100979
0.000101309
0.000101486
0.000101514
0.000101411
0.00010124
0.000101323
0.000101387
0.000100416
9.74172e-05
9.08295e-05
7.80302e-05
8.2819e-05
0.000522954
0.00054861
0.000550043
0.000542656
0.000529308
0.000511813
0.00049201
0.000471299
0.000450821
0.000431499
0.000413947
0.000398933
0.000386746
0.000377814
0.000371416
0.000365801
0.000359792
0.000353593
0.000347898
0.000343078
0.000339225
0.000336308
0.000334332
0.000333932
0.000335409
0.000336153
0.000333937
0.000324408
0.000305943
0.000310933
0.000669575
0.000732356
0.000769142
0.000790898
0.000802409
0.00080537
0.000801829
0.000793644
0.000782301
0.000769145
0.000755221
0.000741969
0.000729942
0.00071994
0.000710342
0.00069793
0.000680736
0.000660229
0.000638424
0.000616593
0.000595344
0.000574892
0.000555327
0.000537448
0.000521457
0.000505082
0.000485547
0.000458773
0.000424086
0.000403718
0.000669865
0.000754983
0.000804661
0.000832804
0.00084934
0.000856325
0.000855777
0.000849976
0.000840488
0.000828767
0.000815912
0.000803391
0.000791749
0.000781717
0.00077147
0.000757583
0.000738023
0.000714672
0.000689783
0.000664908
0.000640835
0.000617853
0.000595979
0.000575702
0.000556974
0.000538306
0.000517407
0.000490718
0.000456757
0.000430327
0.00064348
0.000748345
0.000818422
0.000856021
0.000878376
0.000890162
0.000893387
0.000890529
0.000883451
0.000873716
0.00086248
0.000851239
0.000840523
0.000830997
0.000820675
0.000806022
0.000785084
0.000759934
0.000732979
0.00070596
0.000679817
0.000654921
0.00063126
0.000609091
0.000588146
0.000567202
0.000544731
0.000517426
0.000483364
0.000451913
0.00061918
0.000725936
0.000813386
0.00086444
0.000894941
0.000912056
0.000919617
0.000920087
0.000915745
0.000908312
0.000899008
0.000889365
0.000879895
0.000871182
0.000861104
0.000846106
0.000824402
0.000798146
0.000769828
0.000741326
0.000713698
0.000687372
0.000662352
0.000638731
0.000616078
0.000593145
0.000569215
0.000541124
0.000506755
0.000471112
0.000589326
0.00070091
0.000796801
0.000860534
0.000901191
0.000924995
0.000937278
0.00094149
0.000940071
0.00093513
0.000927952
0.000920113
0.000912087
0.000904395
0.000894752
0.000879702
0.000857645
0.000830769
0.000801604
0.000772112
0.000743442
0.000716071
0.000690036
0.000665319
0.000641376
0.000616796
0.00059163
0.00056283
0.000528185
0.000489274
0.000553451
0.000673547
0.000775212
0.00084847
0.000898533
0.000930661
0.000948202
0.000956479
0.000958189
0.000955854
0.00095093
0.000945029
0.000938589
0.000932046
0.00092297
0.000908071
0.000885997
0.000858867
0.000829236
0.000799136
0.000769766
0.000741658
0.000714879
0.00068935
0.000664441
0.000638608
0.000612402
0.000583032
0.000548273
0.000507243
0.000518829
0.000640817
0.000752547
0.000830499
0.000889713
0.000929342
0.000953715
0.000966226
0.000971316
0.000971672
0.00096908
0.000965214
0.000960444
0.000955131
0.000946722
0.000932145
0.000910296
0.000883206
0.00085342
0.000823013
0.000793219
0.000764611
0.000737311
0.000711197
0.00068558
0.00065888
0.000631821
0.000602029
0.000567155
0.00052577
0.000506177
0.000601055
0.000727362
0.000813103
0.000876066
0.000923268
0.000953683
0.000971598
0.000980263
0.000983473
0.000983256
0.000981477
0.000978427
0.000974382
0.000966722
0.000952612
0.000931164
0.000904371
0.000874679
0.000844209
0.000814215
0.000785313
0.000757674
0.000731157
0.000705044
0.000677734
0.000650062
0.000620014
0.000585151
0.00054338
0.000517708
0.000560256
0.000697908
0.000794165
0.000860608
0.000913235
0.000949889
0.000972935
0.00098563
0.000991887
0.000994119
0.000994438
0.000993122
0.000990367
0.000983518
0.000969997
0.000949091
0.000922799
0.000893422
0.000863089
0.000833088
0.00080406
0.000776238
0.000749478
0.000723045
0.00069533
0.000667258
0.000637141
0.000602394
0.000560715
0.000539946
0.000536959
0.000662752
0.000772646
0.000844994
0.000900149
0.000942922
0.000970994
0.000988115
0.000997416
0.00100215
0.0010046
0.001005
0.00100353
0.00099754
0.000984709
0.000964473
0.000938822
0.000909968
0.000879948
0.000850096
0.000821091
0.000793227
0.000766363
0.000739757
0.000711804
0.00068352
0.000653448
0.000618893
0.000577592
0.000565143
0.000543806
0.000624609
0.000747468
0.000828491
0.000886623
0.000933328
0.000966515
0.000987603
0.00100046
0.00100774
0.00101232
0.00101445
0.00101423
0.00100914
0.000997077
0.000977622
0.000952728
0.00092455
0.00089502
0.000865454
0.000836603
0.000808826
0.000781986
0.000755335
0.000727284
0.000698947
0.000669011
0.000634738
0.000594014
0.000591634
0.000565934
0.000590676
0.00071793
0.000810371
0.000873015
0.000921665
0.00095989
0.000985023
0.00100122
0.00101119
0.00101792
0.00102176
0.00102278
0.00101859
0.00100737
0.000988791
0.000964762
0.000937368
0.000908478
0.000879331
0.00085076
0.000823195
0.000796498
0.000769919
0.000741893
0.000713633
0.000683885
0.000650027
0.000609966
0.000618314
0.000590055
0.000575015
0.000684752
0.000789966
0.000858937
0.000909356
0.000951506
0.00098069
0.00100006
0.00101289
0.00102164
0.00102715
0.00102941
0.00102613
0.00101582
0.000998194
0.000975121
0.000948607
0.00092046
0.000891879
0.000863717
0.000836487
0.000810041
0.000783643
0.000755754
0.000727673
0.000698185
0.0006648
0.000625448
0.0006447
0.000615882
0.000585766
0.000651989
0.000766906
0.000844081
0.000897384
0.000941717
0.000974876
0.000997422
0.00101275
0.00102376
0.00103083
0.00103432
0.00103196
0.0010226
0.00100601
0.000983979
0.000958437
0.000931122
0.000903209
0.000875601
0.000848825
0.000822741
0.000796631
0.000768982
0.000741143
0.000712018
0.000679125
0.000640491
0.00067071
0.000642204
0.000608403
0.000626742
0.000741568
0.000828231
0.00088551
0.000930845
0.00096783
0.00099351
0.00101126
0.0010243
0.00103295
0.00103765
0.00103625
0.00102789
0.0010124
0.000991488
0.000967002
0.000940608
0.000913463
0.000886511
0.000860317
0.000834713
0.000808997
0.000781708
0.000754182
0.00072546
0.000693079
0.000655133
0.000696315
0.000668179
0.000632244
0.000615394
0.000715242
0.000811268
0.000873543
0.000919717
0.000959778
0.000988485
0.00100863
0.00102351
0.00103368
0.00103955
0.00103913
0.00103183
0.00101751
0.000997802
0.000974457
0.000949066
0.000922777
0.000896585
0.000871074
0.000846074
0.000820895
0.000794089
0.00076691
0.000738621
0.000706761
0.00066946
0.000721507
0.000693585
0.000656586
0.000620662
0.000690688
0.000793318
0.000861411
0.000909105
0.000950903
0.000982448
0.00100486
0.00102159
0.00103312
0.00104013
0.00104074
0.00103455
0.00102147
0.00100307
0.000980949
0.000956649
0.000931307
0.00090597
0.000881237
0.000856964
0.000832471
0.000806292
0.000779486
0.000751642
0.000720301
0.000683584
0.000746284
0.000718424
0.000681199
0.000640189
0.000672007
0.000774903
0.000849124
0.00089887
0.000941354
0.000975481
0.00100003
0.00101851
0.0010314
0.00103951
0.00104117
0.00103616
0.00102441
0.00100742
0.000986626
0.00096351
0.000939208
0.000914818
0.000890965
0.000867541
0.000843878
0.000818494
0.000792059
0.000764662
0.000733818
0.000697618
0.000770672
0.000742675
0.000705362
0.000660873
0.000661635
0.000756897
0.000836802
0.000888931
0.000931241
0.000967606
0.000994149
0.00101432
0.00102855
0.00103775
0.00104052
0.00103677
0.00102646
0.00101097
0.00099162
0.000969802
0.000946646
0.000923302
0.000900417
0.000877956
0.000855267
0.000830849
0.000804778
0.000777843
0.000747434
0.000711664
0.000794702
0.0007663
0.00072882
0.000682522
0.000660071
0.000740436
0.000824669
0.000879276
0.00092095
0.000958745
0.000987184
0.00100896
0.00102452
0.00103485
0.00103878
0.00103642
0.00102768
0.0010138
0.000996036
0.000975652
0.000953772
0.000931575
0.000909755
0.000888343
0.000866749
0.00084346
0.000817759
0.000791284
0.000761261
0.000725788
0.000818279
0.000789365
0.000751585
0.000704463
0.000665897
0.000726673
0.000813038
0.000869903
0.000911235
0.000948981
0.000978942
0.00100221
0.00101908
0.00103061
0.0010358
0.00103495
0.00102789
0.00101587
0.000999861
0.000981085
0.000960642
0.000939724
0.000919069
0.000898775
0.000878356
0.000856309
0.000831037
0.000805016
0.000775345
0.000740029
0.000841389
0.000812003
0.000773861
0.000725347
0.000677217
0.000716606
0.000802268
0.000860998
0.00090229
0.000938267
0.000969046
0.000993548
0.00101168
0.00102448
0.00103101
0.00103184
0.00102669
0.00101669
0.00100277
0.000985804
0.000966983
0.000947512
0.000928163
0.000909084
0.000889869
0.000869097
0.000844531
0.000819063
0.000789759
0.000754455
0.000864167
0.000835056
0.000797697
0.000745817
0.00069025
0.000710453
0.000793175
0.000853293
0.000894432
0.000928638
0.0009574
0.00098246
0.00100153
0.00101548
0.0010234
0.00102602
0.00102298
0.0010153
0.00100363
0.000988853
0.000971953
0.000954174
0.000936311
0.000918554
0.000900553
0.000881068
0.000858101
0.000833572
0.000804686
0.000769357
0.000889
0.000860341
0.000820467
0.000765407
0.000704191
0.000708809
0.000787445
0.000847971
0.000888846
0.000921851
0.000949206
0.000972776
0.000991298
0.00100534
0.00101432
0.0010186
0.00101802
0.00101312
0.00100434
0.000992418
0.000978037
0.00096217
0.000945605
0.000928744
0.000911553
0.000893391
0.000873052
0.000849857
0.000821372
0.000785605
0.000915868
0.00088642
0.000844871
0.00078717
0.000721947
0.000714996
0.000788202
0.000848081
0.00088891
0.000921487
0.000948504
0.000971696
0.000990402
0.00100509
0.00101547
0.00102152
0.00102326
0.00102102
0.00101501
0.00100572
0.000993722
0.000979809
0.000964672
0.000948767
0.000932223
0.000914696
0.000895259
0.000872435
0.000843615
0.000806532
0.000952603
0.000922869
0.0008809
0.000823207
0.000759621
0.000747947
0.00081575
0.000871875
0.000913275
0.000945819
0.000972965
0.000996185
0.00101533
0.00103092
0.00104265
0.00105009
0.00105349
0.00105323
0.00104917
0.00104169
0.00103133
0.00101879
0.00100466
0.000989295
0.000972793
0.000954943
0.000935007
0.000911403
0.000881125
0.000841642
0.00103105
0.00100714
0.000974378
0.000931536
0.000887513
0.000885583
0.000936124
0.000982379
0.00102035
0.00105026
0.00107527
0.00109626
0.00111372
0.00112875
0.00113966
0.00114631
0.00114915
0.00114868
0.00114452
0.00113708
0.00112696
0.00111478
0.00110107
0.00108598
0.00106896
0.00105002
0.00102899
0.00100471
0.000975018
0.000936251
0.00130754
0.00130216
0.00129495
0.00128526
0.00127845
0.00128499
0.00130306
0.00131793
0.00133084
0.00134169
0.00135161
0.00135918
0.00136607
0.00137495
0.00137937
0.00138151
0.00138175
0.0013808
0.00137774
0.00137359
0.00136868
0.00136361
0.0013587
0.00135364
0.00134417
0.00133249
0.00132057
0.00130745
0.00129383
0.00127452
0.000169953
0.000181611
0.000184502
0.000184114
0.00018128
0.000176541
0.000170522
0.000163824
0.000156913
0.000150206
0.000143937
0.000138359
0.000133583
0.000129751
0.000126703
0.000123815
0.000120489
0.000116534
0.000112078
0.00010716
0.00010174
9.57916e-05
8.9357e-05
8.40799e-05
8.12287e-05
7.98901e-05
7.89577e-05
7.90153e-05
8.4258e-05
9.82702e-05
0.000731441
0.000843252
0.000859329
0.000847952
0.000821386
0.000783536
0.000741943
0.000700563
0.000661258
0.000624441
0.000589472
0.000556398
0.000523463
0.000489413
0.000449983
0.000403898
0.00035763
0.000318245
0.000289129
0.000268492
0.000253781
0.000242676
0.000233094
0.000232481
0.000239613
0.000263362
0.000285228
0.000303328
0.000385625
0.000497235
0.00122354
0.0014083
0.00149734
0.00153071
0.00152318
0.00148276
0.00142438
0.00135882
0.00129222
0.00122681
0.00116254
0.00109926
0.00103468
0.000966691
0.000887863
0.00079605
0.000701021
0.000619855
0.000557872
0.000513203
0.000481549
0.000458939
0.000440206
0.000433554
0.000441203
0.000468401
0.000489369
0.000490523
0.000548325
0.000695371
0.00150052
0.00180979
0.00197112
0.00206626
0.00209945
0.00208053
0.00202484
0.00195113
0.0018693
0.00178508
0.00170012
0.00161176
0.00151998
0.00142133
0.0013087
0.00117788
0.00104181
0.000924363
0.000832582
0.000764999
0.000716341
0.000680609
0.000650926
0.000635162
0.000636278
0.000654
0.000656361
0.00062911
0.000645685
0.0008012
0.00157797
0.00197948
0.00229823
0.002467
0.00255048
0.00256594
0.00252746
0.00245646
0.00236871
0.00227452
0.0021727
0.00206763
0.00195422
0.00183079
0.00168994
0.00152691
0.00135818
0.00121063
0.00109379
0.00100654
0.00094282
0.000895384
0.000856128
0.0008309
0.000822721
0.000829264
0.000809158
0.000749701
0.000725514
0.00087108
0.0015274
0.00203096
0.00243345
0.0027298
0.00289473
0.0029518
0.00294078
0.00288073
0.00279442
0.00269494
0.00258548
0.00246738
0.00233776
0.00219469
0.00203086
0.00184167
0.00164783
0.00147576
0.00133801
0.00123396
0.00115737
0.00109986
0.00105268
0.00101898
0.00100123
0.000997521
0.000955799
0.000864728
0.000799212
0.000916415
0.00140136
0.00198113
0.00248599
0.00286208
0.00312537
0.00325168
0.00327461
0.00323435
0.00315456
0.00305482
0.0029418
0.00281589
0.00267485
0.00251733
0.00233468
0.00212513
0.00191233
0.00172082
0.00156577
0.00144732
0.00135964
0.00129344
0.0012397
0.00119885
0.00117242
0.00115994
0.00109903
0.000979306
0.000871082
0.00094441
0.00123397
0.00185962
0.00245401
0.0029263
0.00325639
0.00346643
0.00353833
0.00352525
0.00345696
0.00336087
0.00324791
0.00311847
0.00297041
0.00280293
0.00260549
0.00238073
0.00215362
0.0019479
0.00177835
0.00164759
0.00155008
0.00147635
0.00141714
0.00137051
0.00133668
0.00131691
0.00123973
0.00109534
0.000948107
0.000964892
0.00106434
0.00168662
0.0023505
0.00292266
0.00333196
0.00359567
0.00374279
0.00375956
0.00370932
0.00362019
0.00350834
0.00338031
0.00322903
0.00305542
0.00284718
0.00261169
0.00237422
0.00215854
0.00197717
0.00183591
0.0017295
0.00164913
0.00158541
0.00153426
0.00149449
0.00146844
0.00137817
0.00121316
0.00103327
0.000988689
0.000922082
0.00148405
0.00219573
0.00285091
0.00335318
0.00368026
0.00386783
0.00394343
0.0039166
0.00383819
0.00373173
0.00360642
0.00345494
0.00327843
0.0030632
0.00282098
0.00257654
0.00235392
0.00216365
0.00201331
0.00189896
0.00181252
0.00174514
0.00169062
0.0016464
0.00161542
0.00151452
0.00133242
0.00112491
0.0010117
0.000824138
0.00128415
0.00201004
0.00272757
0.00331727
0.00372244
0.00395785
0.00407264
0.00408164
0.00402077
0.00392188
0.00380014
0.00365194
0.00347531
0.00325664
0.00301115
0.00276268
0.00253521
0.00233904
0.00218078
0.00205942
0.00196738
0.00189704
0.00184018
0.00179305
0.00175851
0.00164889
0.00145267
0.00122343
0.00105318
0.000780369
0.00111337
0.00180892
0.00256949
0.00323197
0.00372299
0.0040153
0.0041648
0.00421359
0.00417166
0.00408266
0.00396738
0.00382378
0.00364896
0.00343025
0.00318447
0.00293446
0.00270397
0.00250391
0.00233923
0.00221162
0.00211471
0.00204184
0.00198351
0.00193504
0.00189823
0.00178152
0.00157342
0.00132407
0.00111072
0.000791108
0.000999525
0.00160874
0.00239019
0.00311099
0.00367925
0.00404212
0.00423143
0.00430432
0.00429261
0.0042183
0.00411103
0.00397332
0.00380253
0.00358646
0.00334288
0.00309342
0.00286146
0.00265859
0.00248973
0.00235636
0.00225527
0.00218026
0.00212115
0.00207309
0.002035
0.00191269
0.00169461
0.00142495
0.00118113
0.000855913
0.000948076
0.00142614
0.0022022
0.00296616
0.00360215
0.00404108
0.0042748
0.00437503
0.00438813
0.00433174
0.00423385
0.00410364
0.0039375
0.00372731
0.003488
0.00324081
0.00300874
0.00280404
0.00263244
0.0024942
0.00238961
0.00231298
0.00225361
0.0022074
0.00216909
0.00204271
0.00181641
0.00152837
0.00126048
0.000956676
0.000943592
0.00129061
0.00201824
0.00280852
0.00350077
0.00401034
0.00429782
0.00442772
0.00446008
0.00442493
0.00433865
0.00421705
0.00405787
0.00385454
0.00362104
0.00337759
0.00314657
0.00294096
0.00276741
0.00262571
0.00251813
0.00244046
0.00238127
0.00233798
0.00230066
0.00217189
0.00193897
0.00163484
0.00134699
0.00108141
0.00101501
0.00121595
0.00185058
0.00264783
0.00338393
0.00395353
0.0043026
0.00446459
0.00451771
0.00450153
0.00442795
0.00431516
0.00416419
0.00396881
0.00374277
0.00350429
0.00327538
0.00306978
0.00289479
0.00275095
0.00264096
0.00256285
0.00250428
0.00246477
0.0024296
0.00230036
0.00206236
0.00174463
0.00144008
0.00122985
0.00112112
0.00118786
0.00170919
0.00249251
0.00325981
0.00388118
0.0042905
0.00448705
0.00456178
0.00456061
0.00450241
0.00439859
0.00425747
0.00407115
0.00385329
0.00362083
0.00339499
0.00319036
0.00301458
0.0028694
0.00275775
0.00267974
0.00262224
0.00258724
0.00255532
0.00242791
0.0021865
0.00185792
0.00153823
0.00140089
0.00125665
0.00121929
0.00160795
0.00235022
0.0031355
0.00379952
0.00426207
0.00449533
0.00459276
0.00460748
0.00456244
0.00446772
0.00433696
0.00416059
0.00395162
0.00372614
0.00350469
0.00330175
0.00312591
0.00297985
0.0028677
0.00278975
0.002734
0.00270405
0.00267631
0.00255351
0.00231119
0.00197473
0.0016425
0.00159097
0.00141285
0.00130984
0.00155499
0.00222753
0.0030168
0.00371358
0.00421807
0.00448987
0.0046086
0.00463768
0.00460624
0.00452447
0.00440071
0.00423455
0.00403506
0.00381745
0.00360178
0.00340148
0.00322643
0.00308002
0.00296844
0.00289042
0.0028373
0.00281249
0.00278959
0.00267471
0.00243486
0.00209522
0.00175196
0.00179466
0.00158557
0.00142959
0.00153326
0.00212801
0.00290827
0.00362764
0.00416604
0.00447318
0.00461133
0.00465215
0.00463661
0.00456134
0.00444301
0.00428767
0.00409802
0.00388963
0.00368064
0.00348446
0.00331138
0.00316595
0.0030547
0.00297734
0.00292817
0.00290767
0.00289003
0.00278685
0.00255363
0.0022138
0.00186412
0.00200311
0.00176714
0.00156655
0.00155315
0.00205448
0.00281337
0.00354462
0.00410776
0.00444425
0.0045999
0.00464254
0.00463614
0.0045698
0.00445424
0.00431025
0.00413047
0.0039322
0.00373138
0.00354157
0.00337201
0.00322837
0.00311887
0.00304292
0.00299839
0.00298129
0.00296938
0.00288193
0.00266076
0.00232567
0.00197504
0.00220348
0.00194687
0.00170656
0.00161919
0.00201183
0.00273384
0.00346489
0.00404324
0.00438827
0.00452541
0.00459548
0.00459338
0.00453292
0.0044193
0.00428452
0.00411521
0.00392869
0.00373822
0.00355599
0.00339179
0.00325395
0.00314786
0.00307533
0.00303433
0.00302059
0.00301553
0.00294775
0.00274582
0.00242322
0.00207872
0.00237933
0.00211397
0.00184122
0.00168928
0.00199223
0.00266727
0.00338524
0.00391821
0.00424306
0.00441768
0.00448541
0.0044838
0.00442414
0.00431444
0.00418395
0.00402796
0.00385471
0.0036752
0.00350335
0.00334989
0.00322087
0.00312108
0.0030533
0.00301722
0.00300942
0.00301218
0.00296821
0.00279465
0.00249569
0.00216676
0.00251189
0.00225027
0.0019584
0.00176151
0.00195777
0.00260443
0.00323703
0.00371334
0.00405225
0.00422132
0.00428027
0.00427033
0.00421039
0.0041085
0.00398114
0.00384218
0.00368262
0.00351875
0.00336196
0.00322213
0.00310536
0.0030161
0.00295749
0.00293026
0.00293187
0.00294648
0.00292835
0.00279261
0.00253038
0.00222953
0.00258392
0.00233987
0.0020415
0.00181318
0.00194276
0.00246112
0.00302333
0.00346722
0.00374768
0.00389425
0.00394316
0.0039293
0.00387565
0.003789
0.00367459
0.00355551
0.00341877
0.00327808
0.00314252
0.0030217
0.0029215
0.00284645
0.00279997
0.0027828
0.00279365
0.0028206
0.00282535
0.00273264
0.00251763
0.00225757
0.00259158
0.00237311
0.00208228
0.00183504
0.00189327
0.00232839
0.00276864
0.00311309
0.0033315
0.00344694
0.00349466
0.00349746
0.003468
0.00341177
0.00332903
0.00323884
0.00313938
0.00303123
0.00292465
0.00282715
0.00274439
0.00268203
0.0026437
0.00263086
0.00264311
0.00267182
0.0026874
0.00263075
0.00246215
0.0022468
0.00255529
0.00236296
0.00209615
0.00184764
0.00181091
0.0021133
0.00245651
0.00272932
0.00290924
0.0030215
0.00308724
0.00311917
0.0031231
0.00310495
0.00306516
0.00301222
0.00295297
0.00288394
0.0028098
0.00273804
0.00267316
0.00262088
0.00258483
0.0025664
0.002566
0.00257869
0.00258459
0.00253906
0.00239822
0.00221196
0.00255879
0.00239856
0.00217077
0.00193822
0.00184758
0.00202922
0.00229362
0.00252187
0.00268604
0.00279867
0.00287652
0.00292722
0.00295353
0.00296088
0.002951
0.00292752
0.00289617
0.00285703
0.0028083
0.00275871
0.00271162
0.00267131
0.00264142
0.00262215
0.00261249
0.00260708
0.00259141
0.00253451
0.00240784
0.00222986
0.00259527
0.0024925
0.00235301
0.00221271
0.00214621
0.00224757
0.00241911
0.00257442
0.00269234
0.00277478
0.00283435
0.00287435
0.00289636
0.00290301
0.00289317
0.00287358
0.00284606
0.00281284
0.00278042
0.00274899
0.00272063
0.00269783
0.00268266
0.00267391
0.00266789
0.00266021
0.00264181
0.0025964
0.00250637
0.00237172
0.00269696
0.00264914
0.00258189
0.00251531
0.00249059
0.00253251
0.00260366
0.00266698
0.00271756
0.00275203
0.00277816
0.00279671
0.00280679
0.00280895
0.00279565
0.00277585
0.00275304
0.00272857
0.00270797
0.00269341
0.00268559
0.00268464
0.00268986
0.0026993
0.00270935
0.00271851
0.00272156
0.00271203
0.00267716
0.00261239
0.000190369
0.000205763
0.000209262
0.000209619
0.000207212
0.000202498
0.000196172
0.000188918
0.000181244
0.000173595
0.0001662
0.000159294
0.000152912
0.000147117
0.000141622
0.000135634
0.000128629
0.000121014
0.00011345
0.000106026
9.79439e-05
8.84228e-05
7.70741e-05
0.000317528
0.000317173
0.000336504
7.62261e-05
8.63739e-05
9.90528e-05
0.000112556
0.00083655
0.0010579
0.00114782
0.0011624
0.00113507
0.00108155
0.00101867
0.000953745
0.000890824
0.000831149
0.000773555
0.000717951
0.000660531
0.000599188
0.000529145
0.000456865
0.0003976
0.000363297
0.000349757
0.000348414
0.000345209
0.000333017
0.000300927
0.000331554
0.000391547
0.000374514
0.000306524
0.000370176
0.000515445
0.000647529
0.00139758
0.00178869
0.00202062
0.0021233
0.00213435
0.00207939
0.00199096
0.00188681
0.00177764
0.00166789
0.00155737
0.00144615
0.00132852
0.00120051
0.00105609
0.000907256
0.000782417
0.000705766
0.000668609
0.000655465
0.000645902
0.00062041
0.000563468
0.000562033
0.000637574
0.00060555
0.000534006
0.000590523
0.000768661
0.00100081
0.0017962
0.00236187
0.00269257
0.00287464
0.00294001
0.00291195
0.00282514
0.00270642
0.00257155
0.00242832
0.0022789
0.00212208
0.00195322
0.00176577
0.00155663
0.00134305
0.00116441
0.00104846
0.000986005
0.000957257
0.000936215
0.000900052
0.000827442
0.000803223
0.000863924
0.000829099
0.000729817
0.0007496
0.00093673
0.00124944
0.00208609
0.00274146
0.00320149
0.00344949
0.0035745
0.00358789
0.00351734
0.00339911
0.00325183
0.00308774
0.00291235
0.00271836
0.00250379
0.00226954
0.00200686
0.00174147
0.00152026
0.00137153
0.00128652
0.00124297
0.00121227
0.00116882
0.00108883
0.00104848
0.00108484
0.0010419
0.000914091
0.000879321
0.00105757
0.00144856
0.00218589
0.00288128
0.00346603
0.00387469
0.00406716
0.00413295
0.00409136
0.00398265
0.00383164
0.00365569
0.00345888
0.00323715
0.00298982
0.00271661
0.0024093
0.00210381
0.00185042
0.00167441
0.00156948
0.00151235
0.00147375
0.00142634
0.00134535
0.00129413
0.00130588
0.00124991
0.00109724
0.00100196
0.00115086
0.00159285
0.00219113
0.00293511
0.0035966
0.00409689
0.00444054
0.0045674
0.00456654
0.00447404
0.00432633
0.00414306
0.00393098
0.00369092
0.00341764
0.00311382
0.00277073
0.00243513
0.00215773
0.00195927
0.00183677
0.00176719
0.0017217
0.00167258
0.00159477
0.00153689
0.0015278
0.0014564
0.00128256
0.00113038
0.00122814
0.00168911
0.00212107
0.00291126
0.00365869
0.00424557
0.00465858
0.00490811
0.00495488
0.00488814
0.00474826
0.0045615
0.00433918
0.00408768
0.00379543
0.00346777
0.00309751
0.00274033
0.00244512
0.00222908
0.00209068
0.00200954
0.00195772
0.00190777
0.00183568
0.00177478
0.00174991
0.0016628
0.00147091
0.00126837
0.00129959
0.00174931
0.00199162
0.00282086
0.0036519
0.00433329
0.00482332
0.0051296
0.00526655
0.00523472
0.0051068
0.00492215
0.00469566
0.00443538
0.00413034
0.00378427
0.00339533
0.00302391
0.00271574
0.00248632
0.00233343
0.00224131
0.00218342
0.00213307
0.0020679
0.00200701
0.00197123
0.0018693
0.00166201
0.00141796
0.00137261
0.00176763
0.00182463
0.0026719
0.00357649
0.00435802
0.00493638
0.00530447
0.0054968
0.00551892
0.0054115
0.0052323
0.00500405
0.00473844
0.00442814
0.00406901
0.00366935
0.0032899
0.0029727
0.002733
0.00256696
0.00246429
0.00240027
0.00234982
0.00229162
0.0022336
0.0021906
0.00207534
0.00185479
0.00157922
0.00145192
0.00176083
0.0016487
0.00247575
0.00344558
0.00432514
0.00499725
0.00543612
0.00567267
0.00575229
0.00566887
0.00549795
0.0052728
0.00500596
0.00469408
0.00432761
0.00392423
0.00354181
0.00321873
0.00297087
0.00279309
0.00268006
0.00260976
0.00255909
0.00250744
0.00245501
0.00240674
0.0022798
0.00204783
0.00174798
0.00155601
0.00176097
0.00148409
0.00226037
0.00326819
0.00423548
0.00500727
0.00552641
0.00581375
0.00592193
0.00588192
0.00572554
0.00550736
0.00524259
0.0049318
0.00456484
0.00416393
0.00378255
0.00345609
0.00320129
0.00301358
0.00289003
0.00281306
0.00276178
0.00271595
0.00267101
0.00261789
0.00248114
0.00223966
0.00192047
0.00166732
0.00178424
0.00135311
0.0020468
0.00306315
0.00410509
0.00497066
0.00557584
0.00592202
0.00606412
0.00605907
0.00592161
0.00571185
0.00545327
0.00514516
0.00478494
0.00439163
0.00401438
0.00368653
0.00342569
0.00322939
0.00309519
0.00301108
0.00295854
0.00291753
0.00287978
0.00282195
0.00267752
0.00242865
0.00209471
0.00179112
0.00183235
0.00128383
0.00185722
0.00284759
0.00394618
0.00489478
0.00558672
0.00599919
0.00617978
0.00619646
0.00608817
0.00589069
0.00564156
0.00534085
0.00499136
0.00460948
0.00423865
0.00391107
0.00364505
0.00344084
0.00329596
0.00320417
0.00314971
0.00311215
0.00307988
0.00301707
0.00286682
0.00261287
0.00226876
0.00192932
0.00189404
0.00127834
0.00171531
0.00263967
0.00377121
0.00479499
0.00556248
0.00604558
0.00626962
0.00631246
0.00623094
0.00604786
0.00580933
0.00552055
0.00518582
0.00481814
0.00445551
0.00412965
0.00385925
0.00364744
0.00349199
0.003392
0.00333471
0.00329926
0.00326934
0.00320092
0.00304642
0.00278991
0.0024399
0.00207516
0.00195709
0.00138603
0.0016512
0.00245795
0.00359278
0.00467838
0.00551801
0.00606112
0.00633407
0.00640575
0.00634691
0.00618605
0.00595822
0.00568461
0.00536804
0.00501635
0.00466342
0.00434062
0.00406672
0.00384743
0.00368167
0.00357345
0.00351155
0.00347667
0.00344494
0.00337003
0.00321293
0.00295672
0.00260514
0.00222522
0.00204742
0.00155025
0.00164585
0.00232134
0.00342377
0.00455264
0.00545704
0.00605649
0.00637323
0.00647369
0.00643309
0.00630219
0.00609562
0.00583061
0.00553488
0.00520034
0.00485842
0.00454006
0.00426363
0.00403694
0.00386168
0.00374518
0.0036766
0.00363882
0.00360146
0.00351951
0.00336183
0.0031094
0.00276061
0.00237531
0.002157
0.00176244
0.00175373
0.00224605
0.003275
0.0044253
0.00538378
0.00603551
0.00639376
0.00652048
0.0064984
0.00640678
0.00620998
0.00595552
0.00567823
0.00536296
0.00503329
0.00472083
0.00444296
0.00420918
0.0040262
0.00389983
0.00382323
0.00377768
0.00373142
0.00364277
0.00348734
0.00324291
0.00290075
0.00252159
0.00227989
0.00199364
0.00190331
0.00221248
0.00315297
0.00430289
0.00530189
0.00599916
0.00639354
0.00654621
0.00655244
0.0064734
0.00629564
0.00605189
0.0057865
0.00549333
0.00517657
0.00487137
0.0045934
0.00435376
0.00416277
0.00402689
0.00393956
0.00388198
0.00382487
0.0037315
0.00358229
0.00335108
0.00302049
0.00265689
0.0024106
0.00223196
0.00209299
0.0022308
0.0030624
0.0041902
0.00521369
0.00594718
0.00637084
0.0065446
0.00656264
0.00649408
0.00633346
0.00610564
0.00584654
0.00557394
0.00527144
0.00497506
0.00469818
0.00445224
0.0042554
0.00410931
0.00400879
0.00393791
0.00387014
0.00377644
0.00363877
0.00342686
0.00311447
0.00277648
0.00254059
0.0024567
0.00228224
0.00232176
0.00301081
0.0040888
0.00511914
0.00587716
0.00630686
0.00644651
0.00650056
0.00644584
0.00630186
0.00609295
0.00584014
0.00558162
0.00529657
0.00500993
0.00473187
0.00448523
0.00428274
0.00412685
0.0040144
0.00393224
0.0038574
0.00376953
0.00364951
0.00346344
0.00317641
0.00287299
0.00266097
0.00264624
0.00244484
0.00240949
0.00295572
0.00399471
0.00501289
0.00574026
0.00608535
0.00628249
0.00634671
0.00630468
0.00617286
0.00598313
0.00574512
0.00549318
0.00522944
0.00495095
0.00467699
0.00443287
0.00422835
0.00406736
0.00394762
0.00385817
0.00378345
0.00370758
0.00361087
0.00345661
0.00320151
0.0029384
0.00275755
0.00278636
0.00257316
0.00249855
0.00288904
0.00389289
0.00483033
0.00541763
0.00578636
0.00600693
0.00607809
0.00603856
0.00592125
0.00575371
0.0055407
0.00529622
0.00505571
0.00479149
0.00453043
0.00429656
0.00409824
0.00393829
0.00381662
0.00372657
0.00365762
0.00359757
0.00352718
0.00340799
0.00318941
0.0029659
0.00281936
0.00287143
0.00265863
0.00255835
0.00282087
0.00363833
0.00444104
0.00501237
0.00539757
0.00560196
0.00567069
0.00563943
0.00554474
0.00540767
0.00522875
0.0050081
0.0047917
0.00456043
0.00432338
0.00410921
0.00392494
0.00377372
0.00365618
0.00356937
0.00350759
0.00346206
0.0034154
0.00332917
0.00314588
0.00295575
0.00284103
0.0029107
0.00270216
0.00256598
0.00271124
0.00339438
0.00403493
0.00455536
0.00489055
0.00508244
0.00515083
0.00514474
0.00508858
0.00499454
0.00486091
0.00468223
0.0044982
0.00430997
0.00410915
0.00392318
0.00375993
0.00362291
0.00351371
0.00343186
0.00337545
0.00333855
0.00330655
0.00324365
0.00308846
0.00291869
0.0028223
0.00293328
0.00272706
0.00255169
0.00257761
0.00306803
0.00358781
0.00402344
0.00434053
0.00452407
0.0046167
0.00465211
0.00464476
0.00460039
0.00451694
0.00438969
0.00424465
0.00409707
0.00393388
0.00377834
0.00363808
0.00351817
0.00342097
0.0033473
0.00329687
0.00326386
0.00323675
0.00318508
0.0030482
0.00288198
0.00277284
0.00298575
0.00278721
0.00258237
0.00250462
0.00276559
0.0031856
0.00357287
0.00387433
0.00407216
0.00419564
0.0042703
0.00430491
0.00430171
0.00425835
0.0041739
0.00406203
0.00393606
0.00379507
0.00366275
0.00354638
0.00344809
0.00336929
0.00331055
0.00327078
0.00324572
0.00322453
0.0031811