/*--------------------------------*- C++ -*----------------------------------*\
  =========                 |
  \\      /  F ield         | OpenFOAM: The Open Source CFD Toolbox
   \\    /   O peration     | Website:  https://openfoam.org
    \\  /    A nd           | Version:  12
     \\/     M anipulation  |
\*---------------------------------------------------------------------------*/
FoamFile
{
    format      ascii;
    class       volScalarField;
    location    "800/air";
    object      p_rgh;
}
// * * * * * * * * * * * * * * * * * * * * * * * * * * * * * * * * * * * * * //

dimensions      [1 -1 -2 0 0 0 0];

internalField   nonuniform List<scalar> 
243000
(
28.6922
28.8191
28.9523
29.0462
29.1298
29.2084
29.2854
29.361
29.4371
29.5125
29.5839
29.6519
29.6951
29.7109
29.6714
29.5614
29.3725
29.1528
28.9425
28.7748
28.6583
28.5873
28.5532
28.5519
28.5869
28.6859
28.8371
29.032
29.2053
29.3533
28.6858
28.8054
28.9465
29.0554
29.1587
29.2435
29.3222
29.3973
29.4715
29.544
29.6124
29.677
29.7163
29.7289
29.688
29.5793
29.3939
29.1778
28.9685
28.7989
28.6787
28.6032
28.5647
28.5576
28.5912
28.6895
28.8394
29.0276
29.1991
29.3062
28.6605
28.7537
28.8931
29.0112
29.1251
29.2201
29.3076
29.3898
29.4698
29.5513
29.6262
29.6927
29.7328
29.7473
29.7075
29.6016
29.4192
29.2058
28.997
28.8252
28.701
28.6208
28.5775
28.5653
28.5957
28.6913
28.8379
29.0186
29.1975
29.3057
28.6464
28.6994
28.8205
28.936
29.0588
29.1662
29.2669
29.3616
29.4513
29.5394
29.6196
29.6907
29.7363
29.7541
29.7157
29.6119
29.4325
29.2208
29.0123
28.8402
28.7154
28.6345
28.5884
28.5731
28.601
28.6941
28.8386
29.0121
29.1949
29.3121
28.6666
28.6647
28.7611
28.8589
28.9839
29.0997
29.212
29.3186
29.4195
29.5164
29.6035
29.6803
29.7298
29.7512
29.7138
29.6107
29.4309
29.2198
29.0124
28.8431
28.7206
28.6415
28.5973
28.5806
28.6068
28.6974
28.8399
29.0088
29.1949
29.3178
28.7035
28.6547
28.7249
28.795
28.9135
29.0322
29.1533
29.2701
29.3816
29.4877
29.582
29.6646
29.7181
29.7428
29.706
29.6042
29.425
29.215
29.0091
28.8418
28.721
28.6456
28.605
28.588
28.6134
28.7018
28.8422
29.0085
29.1961
29.3229
28.7424
28.6706
28.7101
28.7522
28.8531
28.9677
29.0936
29.2179
29.3384
29.453
29.5542
29.6423
29.6995
29.7272
29.6902
29.5892
29.4131
29.2047
29.0012
28.8366
28.7182
28.6448
28.6082
28.594
28.62
28.7068
28.8453
29.0092
29.198
29.3277
28.7795
28.7047
28.7175
28.7308
28.8094
28.9111
29.0366
29.1646
29.2918
29.4136
29.521
29.6136
29.6739
29.704
29.6661
29.5654
29.3922
29.1887
28.988
28.8271
28.712
28.6413
28.6075
28.5986
28.6265
28.7122
28.8491
29.0107
29.1999
29.3322
28.8129
28.7493
28.7447
28.7282
28.7832
28.8662
28.9853
29.1131
29.244
29.3712
29.4836
29.5795
29.6421
29.6736
29.6338
29.5329
29.3624
29.1653
28.9696
28.8131
28.7022
28.6351
28.6051
28.6016
28.6326
28.7179
28.8532
29.0126
29.2018
29.3368
28.8161
28.7972
28.781
28.7488
28.7729
28.8346
28.9421
29.0653
29.1967
29.3274
29.4429
29.5408
29.6045
29.6362
29.5936
29.4921
29.3239
29.1333
28.9454
28.7944
28.6883
28.6258
28.6008
28.6035
28.638
28.7235
28.8576
29.0151
29.2038
29.3419
28.8009
28.8387
28.8278
28.7812
28.7788
28.8157
28.9072
29.023
29.1519
29.2834
29.4001
29.4983
29.562
29.5926
29.5462
29.4436
29.2774
29.0929
28.9131
28.7702
28.6702
28.6129
28.5923
28.604
28.6425
28.7289
28.8621
29.0182
29.206
29.3475
28.7798
28.8558
28.8833
28.8214
28.8015
28.8089
28.8811
28.987
29.1103
29.2402
29.3562
29.4531
29.5152
29.5433
29.4925
29.388
29.2235
29.0448
28.873
28.7387
28.6458
28.5944
28.5794
28.6021
28.6457
28.7339
28.8667
29.0217
29.2083
29.3535
28.7539
28.8414
28.9333
28.8683
28.8297
28.8163
28.8644
28.9571
29.0727
29.1987
29.312
29.4059
29.465
29.4893
29.4332
29.3263
29.1631
28.9898
28.8258
28.7003
28.6151
28.57
28.5619
28.5963
28.6476
28.7382
28.8712
29.0258
29.211
29.36
28.7269
28.8229
28.9669
28.9168
28.8616
28.8336
28.856
28.9332
29.0396
29.1595
29.2684
29.3577
29.4124
29.4316
29.3693
29.2594
29.0969
28.9284
28.7719
28.6554
28.5773
28.5392
28.5395
28.5866
28.648
28.7417
28.8754
29.0301
29.2139
29.3667
28.697
28.799
28.9629
28.9614
28.8961
28.8545
28.8541
28.9153
29.0115
29.1232
29.226
29.3093
29.3585
29.3709
29.3019
29.1884
29.026
28.8616
28.712
28.6038
28.5324
28.5013
28.512
28.5724
28.6456
28.744
28.8792
29.0345
29.2171
29.3738
28.662
28.7689
28.9371
28.9959
28.931
28.8754
28.8622
28.903
28.9877
29.0901
29.1856
29.2618
29.304
29.3083
29.232
29.1143
28.9513
28.7901
28.6465
28.5453
28.4805
28.4562
28.4782
28.5529
28.6393
28.7451
28.8823
29.0387
29.2205
29.3814
28.6222
28.7363
28.906
29.0116
28.9639
28.8945
28.8722
28.8955
28.9682
29.0608
29.1479
29.2159
29.2502
29.2447
29.1607
29.0382
28.8737
28.7144
28.5757
28.4801
28.4213
28.4035
28.4373
28.5266
28.6279
28.7441
28.8845
29.0426
29.224
29.3891
28.5785
28.7
28.873
29.0015
28.9921
28.9122
28.8825
28.8921
28.9526
29.0356
29.1133
29.1724
29.198
29.1813
29.0892
28.9612
28.7943
28.6348
28.4995
28.4084
28.3548
28.3427
28.388
28.4911
28.6099
28.7383
28.8851
29.0456
29.2273
29.3964
28.5313
28.6592
28.8336
28.9748
29.01
28.9288
28.8917
28.8912
28.9409
29.0146
29.0826
29.1324
29.1482
29.1195
29.019
28.8848
28.7132
28.5523
28.4182
28.3302
28.2805
28.2732
28.3292
28.4462
28.5834
28.726
28.8824
29.0473
29.2299
29.403
28.4798
28.6136
28.7882
28.9381
29.0126
28.9427
28.8981
28.8923
28.9328
28.9981
29.0562
29.0964
29.102
29.0611
28.9516
28.8099
28.632
28.468
28.3321
28.2452
28.1981
28.1944
28.259
28.3895
28.5447
28.7046
28.8732
29.047
29.2316
29.4082
28.4235
28.563
28.7387
28.8967
28.9967
28.9519
28.9027
28.8957
28.9283
28.9868
29.0345
29.0653
29.0598
29.0074
28.8883
28.7376
28.5526
28.3823
28.2417
28.1537
28.1069
28.1045
28.1753
28.3183
28.4886
28.6705
28.8547
29.0403
29.2312
29.4115
28.3604
28.5068
28.6839
28.8504
28.9658
28.9546
28.9046
28.8997
28.9275
28.9808
29.0198
29.04
29.0226
28.9588
28.8297
28.6692
28.4748
28.296
28.1474
28.0544
28.0053
28.0022
28.0765
28.2299
28.4143
28.6185
28.8228
29.024
29.2241
29.4121
28.2874
28.4436
28.6233
28.7982
28.9241
28.9432
28.9037
28.9044
28.935
28.9812
29.0154
29.0242
28.9946
28.9189
28.7793
28.6074
28.402
28.2119
28.0506
27.948
27.8938
27.8877
27.9616
28.1224
28.3205
28.5418
28.772
28.994
29.2072
29.4071
28.1984
28.3668
28.5538
28.7404
28.8753
28.9181
28.8975
28.9122
28.9492
28.9955
29.0232
29.0226
28.9825
28.8946
28.7438
28.5589
28.3404
28.1353
27.9553
27.8373
27.7741
27.762
27.8306
27.9944
28.2041
28.4408
28.6935
28.9418
29.1743
29.3899
28.0858
28.2719
28.48
28.6798
28.8217
28.8835
28.892
28.9264
28.9737
29.0238
29.0466
29.0385
28.9903
28.8942
28.7287
28.5296
28.2958
28.0726
27.8703
27.7311
27.6547
27.6331
27.6906
27.8506
28.0667
28.3173
28.5881
28.8632
29.1231
29.3621
27.929
28.1486
28.3862
28.605
28.761
28.8444
28.8874
28.9518
29.0145
29.0698
29.0904
29.0766
29.022
28.9167
28.7398
28.5259
28.2753
28.0325
27.8041
27.6381
27.5415
27.5044
27.5433
27.6904
27.9041
28.1625
28.448
28.7432
29.0267
29.2992
27.7822
28.0387
28.299
28.5365
28.7073
28.8133
28.9037
28.998
29.0782
29.1393
29.1598
29.1435
29.0844
28.9712
28.7839
28.5569
28.2903
28.023
27.7736
27.5796
27.4574
27.4017
27.4181
27.544
27.747
28.0053
28.3015
28.6181
28.9296
29.2384
27.451
27.7929
28.1209
28.4117
28.626
28.7846
28.9365
29.0628
29.1575
29.2237
29.246
29.2274
29.1621
29.0398
28.8399
28.5972
28.3111
28.0143
27.7383
27.5077
27.3469
27.2559
27.2408
27.3314
27.5072
27.7493
28.0408
28.3671
28.6998
29.0429
27.4426
27.8056
28.1442
28.4406
28.6667
28.8799
29.0862
29.2262
29.3181
29.3832
29.4067
29.3888
29.3179
29.1897
28.9822
28.7339
28.4432
28.1409
27.8573
27.6201
27.4556
27.3582
27.3296
27.4002
27.5579
27.7969
28.0869
28.4128
28.7488
29.091
26.2438
26.7707
27.2757
27.7077
28.0523
28.4097
28.726
28.9156
29.0385
29.1205
29.1444
29.1222
29.0421
28.9009
28.6699
28.3912
28.0637
27.7147
27.3731
27.0651
26.824
26.6516
26.5533
26.5608
26.6463
26.8131
27.0408
27.3252
27.6364
27.9948
28.2775
28.2957
28.3381
28.3698
28.4277
28.5075
28.6101
28.7296
28.8553
28.9807
29.0952
29.198
29.2664
29.2975
29.2593
29.1504
28.975
28.7926
28.6365
28.5329
28.4763
28.4558
28.4534
28.4347
28.4563
28.5498
28.7123
28.9112
29.0997
29.2923
28.2649
28.2829
28.3276
28.3681
28.4419
28.5346
28.6463
28.768
28.8931
29.016
29.1267
29.2251
29.2888
29.3159
29.2757
29.1686
28.9961
28.8165
28.6612
28.5557
28.4952
28.4696
28.4645
28.4428
28.4616
28.5544
28.7078
28.9015
29.0765
29.2392
28.2489
28.2668
28.3069
28.3514
28.4292
28.5253
28.6405
28.7652
28.8927
29.0196
29.1332
29.2336
29.2952
29.32
29.277
29.1681
28.9939
28.8135
28.6583
28.553
28.4933
28.4688
28.4644
28.4476
28.4678
28.5583
28.7063
28.8943
29.0727
29.2205
28.2425
28.2513
28.2815
28.328
28.4088
28.5084
28.6274
28.7556
28.8862
29.0153
29.1303
29.2318
29.2938
29.318
29.2726
29.163
28.9888
28.8084
28.654
28.5496
28.4912
28.4678
28.4642
28.4517
28.4751
28.5637
28.7066
28.8838
29.0707
29.2122
28.2555
28.2429
28.2628
28.3042
28.3853
28.4864
28.6081
28.7393
28.8726
29.0039
29.1203
29.2232
29.2837
29.3064
29.258
29.1474
28.975
28.7965
28.6434
28.5412
28.4852
28.4634
28.4615
28.4535
28.4823
28.5699
28.708
28.8773
29.0684
29.2043
28.2831
28.2417
28.2534
28.2851
28.3628
28.4632
28.586
28.7192
28.8546
28.9877
29.1053
29.2083
29.2662
29.2878
29.2356
29.1241
28.9525
28.7783
28.6282
28.5293
28.4759
28.4556
28.4567
28.4545
28.4893
28.5769
28.7105
28.8741
29.0664
29.1986
28.3255
28.2567
28.2532
28.2741
28.3448
28.4416
28.5638
28.6976
28.8342
28.9685
29.0869
29.1882
29.2433
29.2634
29.2069
29.094
28.9231
28.7536
28.6081
28.5134
28.463
28.4449
28.45
28.4548
28.4959
28.5843
28.714
28.8738
29.0664
29.1964
28.3788
28.2923
28.2695
28.2717
28.3337
28.4239
28.5433
28.6763
28.813
28.9476
29.0652
29.1641
29.2162
29.2341
29.1727
29.0582
28.8877
28.7231
28.5829
28.4934
28.4464
28.4313
28.4414
28.4547
28.502
28.5918
28.7184
28.8746
29.0672
29.1973
28.4356
28.3476
28.3024
28.286
28.3303
28.4118
28.5261
28.6568
28.7923
28.9261
29.0416
29.1375
29.1862
29.201
29.1341
29.0173
28.8471
28.6875
28.5531
28.4694
28.4264
28.4152
28.4314
28.4537
28.5075
28.5994
28.7235
28.8765
29.0685
29.2
28.4781
28.4152
28.3538
28.3155
28.3384
28.4064
28.5134
28.64
28.7731
28.9052
29.0173
29.1093
29.1543
29.1649
29.0918
28.9725
28.8022
28.6475
28.5192
28.4417
28.4029
28.3967
28.4201
28.4517
28.5125
28.607
28.7293
28.8793
29.0702
29.2032
28.4885
28.4825
28.4191
28.3621
28.3624
28.4081
28.5059
28.6269
28.7562
28.8855
28.9934
29.0806
29.1212
29.1266
29.0468
28.9243
28.754
28.6037
28.4816
28.4101
28.376
28.3759
28.4073
28.4485
28.517
28.6145
28.7356
28.8832
29.0721
29.2075
28.4758
28.5376
28.494
28.4203
28.4007
28.4228
28.504
28.6182
28.7424
28.8678
28.9706
29.0525
29.0875
29.0866
28.9996
28.8738
28.7032
28.5568
28.4405
28.3748
28.3453
28.3527
28.3929
28.4445
28.5212
28.6218
28.7423
28.888
29.0743
29.2138
28.4582
28.5619
28.5685
28.4865
28.4504
28.4498
28.5109
28.614
28.7321
28.8527
28.9497
29.0256
29.0541
29.0455
28.9512
28.8218
28.6505
28.5072
28.3962
28.3359
28.3111
28.3269
28.3766
28.4395
28.5248
28.6288
28.7493
28.8937
29.0771
29.2217
28.4385
28.5531
28.6353
28.5572
28.506
28.4879
28.5274
28.6141
28.7257
28.8405
28.9315
29.0003
29.0215
29.0044
28.9024
28.7691
28.5965
28.4556
28.349
28.2935
28.2735
28.2983
28.3583
28.4334
28.5276
28.6354
28.7566
28.9003
29.0807
29.2307
28.4169
28.5373
28.6778
28.6264
28.5647
28.5328
28.5517
28.623
28.7232
28.8316
28.9165
28.9772
28.9904
28.964
28.8542
28.7166
28.542
28.4028
28.2993
28.248
28.2325
28.2668
28.3376
28.4256
28.5297
28.6415
28.7641
28.9077
29.0851
29.2402
28.3924
28.5173
28.6841
28.6871
28.6229
28.5805
28.5822
28.6396
28.7255
28.8263
28.9049
28.9569
28.9614
28.9254
28.8077
28.6652
28.4878
28.3488
28.2475
28.1997
28.1883
28.2318
28.314
28.4156
28.5307
28.6471
28.7718
28.9156
29.0902
29.2497
28.3652
28.4939
28.6671
28.7356
28.6778
28.6285
28.6183
28.6615
28.7353
28.8246
28.8968
28.9401
28.9349
28.8896
28.7638
28.6159
28.4352
28.2932
28.1941
28.1487
28.1407
28.1932
28.2868
28.4026
28.5304
28.6519
28.7795
28.924
29.0961
29.2591
28.3363
28.4684
28.6444
28.7616
28.7264
28.6747
28.6568
28.686
28.7524
28.829
28.8924
28.9275
28.9122
28.8577
28.7237
28.57
28.3831
28.239
28.1397
28.0953
28.0898
28.1505
28.2549
28.3856
28.5268
28.6556
28.787
28.9326
29.1025
29.2682
28.3057
28.4405
28.6179
28.7558
28.7652
28.7176
28.6961
28.7142
28.7742
28.8425
28.8921
28.9196
28.8945
28.8306
28.6885
28.5279
28.334
28.1891
28.085
28.0399
28.0359
28.1032
28.2186
28.3659
28.5207
28.658
28.7939
28.9414
29.109
29.2769
28.2731
28.4104
28.5882
28.7363
28.7951
28.7568
28.7354
28.7465
28.7999
28.8609
28.9003
28.9173
28.8828
28.8095
28.6591
28.491
28.2927
28.142
28.0305
27.9827
27.9786
28.0527
28.1805
28.3447
28.5117
28.6586
28.7997
28.9499
29.1157
29.2854
28.2384
28.3788
28.5573
28.7119
28.8119
28.7912
28.7745
28.7827
28.8299
28.885
28.9146
28.9214
28.8788
28.7957
28.6369
28.4614
28.2567
28.0979
27.9771
27.9255
27.9215
28.0022
28.1404
28.3182
28.4949
28.6542
28.8037
28.9577
29.1225
29.2941
28.2005
28.3461
28.5257
28.6849
28.8082
28.8209
28.8138
28.8233
28.8656
28.916
28.9361
28.9333
28.8834
28.793
28.6236
28.4402
28.2261
28.0589
27.9277
27.8723
27.8687
27.9516
28.0922
28.2779
28.4653
28.6414
28.8048
28.9638
29.1287
29.3028
28.1585
28.3127
28.4944
28.6579
28.797
28.8475
28.8554
28.8703
28.9092
28.9549
28.9667
28.9558
28.8986
28.8
28.6235
28.4298
28.206
28.0292
27.8899
27.8267
27.8182
27.8953
28.0326
28.2185
28.4206
28.6168
28.7981
28.967
29.1338
29.3116
28.1107
28.2788
28.4649
28.6346
28.7849
28.8725
28.9038
28.9258
28.9629
29.0033
29.0098
28.9927
28.9295
28.8232
28.6389
28.4364
28.2005
28.0141
27.8621
27.7828
27.7626
27.8277
27.9592
28.1463
28.3605
28.5775
28.7775
28.9644
29.1367
29.3197
28.0573
28.2452
28.4392
28.6167
28.7782
28.9066
28.9622
28.9925
29.0311
29.0673
29.0685
29.0465
28.9789
28.8662
28.6743
28.4627
28.2152
28.0084
27.8383
27.7359
27.7019
27.7557
27.8791
28.0643
28.286
28.5238
28.7432
28.9507
29.137
29.3294
27.9946
28.2105
28.4196
28.6084
28.7936
28.9609
29.0356
29.0775
29.1212
29.1553
29.1508
29.1225
29.0486
28.9284
28.727
28.5044
28.2435
28.0166
27.8249
27.7016
27.6518
27.6939
27.8049
27.9822
28.2024
28.4454
28.6869
28.9217
29.1297
29.3395
27.9481
28.1915
28.4215
28.6409
28.8614
29.0427
29.1325
29.1865
29.2351
29.2679
29.2593
29.2243
29.143
29.0142
28.8032
28.5695
28.2964
28.0529
27.8357
27.6929
27.629
27.6574
27.7507
27.9127
28.126
28.3717
28.6324
28.8941
29.1304
29.3608
27.8909
28.1681
28.4396
28.7048
28.9517
29.1492
29.2515
29.3158
29.3712
29.4067
29.3977
29.3594
29.274
29.1425
28.9269
28.6866
28.4075
28.1523
27.915
27.7477
27.6619
27.6764
27.7559
27.899
28.0924
28.3261
28.5857
28.8572
29.1151
29.37
28.041
28.3592
28.6547
28.9375
29.1979
29.3992
29.5021
29.5788
29.6436
29.6847
29.6789
29.6411
29.5528
29.4209
29.2037
28.964
28.6812
28.4165
28.1615
27.9762
27.874
27.8753
27.9418
28.0695
28.2478
28.4661
28.7194
28.9962
29.2667
29.5369
28.7376
29.0056
29.2527
29.5041
29.7354
29.9171
30.0217
30.1046
30.1678
30.203
30.1919
30.1489
30.0579
29.9266
29.7132
29.4852
29.2178
28.9734
28.7408
28.5719
28.4824
28.4948
28.5731
28.7108
28.8941
29.1143
29.3641
29.6311
29.8919
30.1471
28.3181
28.2868
28.3219
28.3067
28.3083
28.335
28.3926
28.4768
28.5783
28.6932
28.8044
28.9136
28.9886
29.0322
28.9983
28.8902
28.7143
28.5608
28.4492
28.3979
28.3902
28.4047
28.4152
28.386
28.3867
28.4485
28.5822
28.7457
28.9306
29.1434
28.3047
28.2669
28.3055
28.2993
28.3148
28.3545
28.4213
28.5109
28.615
28.7296
28.8386
28.9446
29.0158
29.057
29.0222
28.9164
28.7437
28.5909
28.4763
28.418
28.4026
28.4139
28.4264
28.3959
28.3882
28.4493
28.5791
28.7338
28.9034
29.0876
28.2892
28.2552
28.2908
28.2884
28.3101
28.3533
28.4258
28.5217
28.6302
28.7484
28.8578
28.9615
29.0295
29.0679
29.0299
28.9233
28.7502
28.595
28.478
28.4206
28.4052
28.4161
28.4297
28.4026
28.3907
28.4514
28.58
28.732
28.8961
29.0554
28.2694
28.244
28.2712
28.2709
28.2991
28.3459
28.4217
28.5204
28.6324
28.7551
28.8666
28.9728
29.0382
29.0753
29.0347
28.9284
28.7524
28.5962
28.4774
28.4196
28.404
28.415
28.4292
28.4093
28.3952
28.4548
28.5812
28.7286
28.8887
29.033
28.2518
28.2376
28.2541
28.2532
28.2846
28.3338
28.4123
28.5133
28.6272
28.7515
28.8638
28.9709
29.0365
29.074
29.0301
28.9242
28.7466
28.5909
28.472
28.4148
28.3983
28.409
28.4253
28.4129
28.4013
28.4596
28.5831
28.728
28.8848
29.0154
28.2416
28.2335
28.2413
28.2378
28.2696
28.3199
28.4001
28.5029
28.6183
28.744
28.8567
28.9648
29.0297
29.066
29.0183
28.9127
28.7352
28.5812
28.4626
28.4063
28.3889
28.4
28.4185
28.4137
28.4086
28.4658
28.586
28.7291
28.8844
29.004
28.2413
28.2309
28.2328
28.2265
28.2561
28.3062
28.3871
28.4909
28.6073
28.7339
28.8465
28.9554
29.0177
29.0528
29.0005
28.8951
28.718
28.5672
28.4495
28.3941
28.3764
28.3885
28.4093
28.4134
28.4162
28.4731
28.59
28.7311
28.8855
28.9979
28.243
28.2339
28.2284
28.2199
28.2457
28.2942
28.3748
28.4787
28.5953
28.7224
28.8344
28.9434
29.0017
29.0355
28.9777
28.8726
28.6958
28.5485
28.4323
28.3784
28.361
28.3747
28.3981
28.4125
28.4235
28.4811
28.5954
28.7339
28.8879
28.997
28.2448
28.2416
28.2313
28.218
28.2393
28.285
28.3642
28.4675
28.5835
28.7104
28.8212
28.9291
28.9828
29.0147
28.9509
28.8461
28.6693
28.5258
28.4113
28.3596
28.3428
28.359
28.3854
28.4109
28.4307
28.4895
28.6022
28.7377
28.8919
28.9994
28.2411
28.2525
28.242
28.2232
28.2368
28.2793
28.3561
28.458
28.5726
28.6987
28.8076
28.9133
28.9619
28.9913
28.9212
28.8166
28.6394
28.4996
28.3871
28.3378
28.3221
28.3416
28.3722
28.4096
28.4376
28.4985
28.6099
28.7429
28.8969
29.003
28.2314
28.2633
28.2577
28.2364
28.2403
28.2772
28.3512
28.4508
28.5635
28.6881
28.7943
28.8969
28.9398
28.9662
28.8892
28.7849
28.6069
28.4705
28.3599
28.313
28.2988
28.3225
28.3587
28.4087
28.4439
28.5077
28.6184
28.7493
28.9023
29.0076
28.2183
28.2727
28.2782
28.2567
28.2532
28.2805
28.3496
28.4465
28.5565
28.679
28.7819
28.8806
28.9172
28.94
28.8558
28.7513
28.5724
28.4391
28.33
28.2855
28.2731
28.3018
28.3458
28.4075
28.4494
28.5173
28.6278
28.7569
28.9087
29.0148
28.2025
28.2701
28.3022
28.283
28.275
28.2915
28.3534
28.4452
28.5521
28.6719
28.7709
28.865
28.8947
28.9136
28.8217
28.717
28.5366
28.4058
28.2977
28.2554
28.2449
28.2798
28.3338
28.4052
28.4542
28.5271
28.6379
28.7657
28.916
29.0243
28.1865
28.2682
28.3262
28.3122
28.303
28.3102
28.3642
28.4493
28.5504
28.6672
28.7617
28.8508
28.873
28.8875
28.7876
28.6831
28.5003
28.3713
28.2633
28.2226
28.214
28.2561
28.3216
28.4019
28.4584
28.5371
28.6487
28.7759
28.9239
29.0353
28.1739
28.2663
28.348
28.3431
28.3342
28.3357
28.381
28.46
28.553
28.6652
28.7547
28.8385
28.8528
28.8624
28.7543
28.6498
28.4639
28.3359
28.2272
28.1873
28.1803
28.2305
28.3091
28.397
28.4619
28.5473
28.6604
28.7874
28.9327
29.0479
28.1652
28.2594
28.3653
28.3742
28.367
28.3659
28.403
28.4763
28.5619
28.6663
28.7502
28.8287
28.8347
28.8392
28.7226
28.618
28.4284
28.3002
28.1895
28.1496
28.1438
28.2029
28.2947
28.3896
28.4645
28.5573
28.6727
28.8002
28.9428
29.0616
28.1577
28.2504
28.3766
28.4047
28.4004
28.3983
28.4287
28.4977
28.5767
28.6737
28.7484
28.8224
28.8193
28.8182
28.6934
28.5886
28.3944
28.2652
28.1507
28.1095
28.1046
28.1729
28.2768
28.3795
28.4661
28.567
28.6859
28.8142
28.9543
29.0761
28.1501
28.2448
28.3796
28.4307
28.433
28.4312
28.458
28.5223
28.5971
28.6875
28.7511
28.8195
28.8076
28.8005
28.6675
28.5625
28.3626
28.232
28.111
28.0669
28.0635
28.14
28.2536
28.3659
28.4665
28.5761
28.6995
28.8297
28.9672
29.092
28.1422
28.2405
28.3747
28.4511
28.4629
28.4637
28.4894
28.5492
28.621
28.7062
28.7617
28.8204
28.8004
28.7872
28.6458
28.5406
28.3353
28.2011
28.0713
28.0229
28.0215
28.1028
28.2236
28.3477
28.4645
28.5842
28.7136
28.8469
28.9817
29.1095
28.1341
28.2368
28.368
28.4641
28.4885
28.4951
28.5215
28.5789
28.6481
28.7289
28.7769
28.8273
28.799
28.7797
28.6302
28.5248
28.313
28.1726
28.0307
27.9796
27.9782
28.0599
28.1867
28.3246
28.4594
28.5909
28.7277
28.8655
28.9982
29.1292
28.1254
28.2338
28.3633
28.4665
28.5088
28.5245
28.5542
28.6118
28.6795
28.7568
28.7979
28.8402
28.8043
28.7813
28.6224
28.5165
28.2962
28.1454
27.9943
27.9375
27.9319
28.013
28.144
28.2965
28.4509
28.5957
28.7413
28.885
29.0171
29.1517
28.1152
28.231
28.3601
28.4644
28.5245
28.5518
28.589
28.6491
28.7165
28.7917
28.8261
28.8612
28.8188
28.7913
28.6251
28.5176
28.2875
28.1274
27.9668
27.8969
27.8845
27.963
28.0971
28.2646
28.4372
28.5979
28.7535
28.905
29.0382
29.176
28.1027
28.2289
28.3579
28.4634
28.5361
28.5774
28.6274
28.6926
28.7608
28.8354
28.865
28.8928
28.8458
28.8144
28.6425
28.5343
28.2908
28.12
27.9461
27.8593
27.8396
27.9139
28.0497
28.2269
28.4172
28.5976
28.7637
28.9248
29.0616
29.2022
28.0857
28.2268
28.3564
28.4629
28.5468
28.6081
28.6709
28.7435
28.8156
28.8911
28.9171
28.9386
28.8884
28.854
28.6761
28.5663
28.3097
28.1209
27.9335
27.8312
27.8023
27.8693
28.0018
28.1845
28.3869
28.5882
28.7716
28.9438
29.0868
29.2301
28.0672
28.2237
28.357
28.4695
28.5711
28.6485
28.7235
28.8058
28.8852
28.9619
28.9853
29.001
28.9475
28.9096
28.7256
28.6137
28.3439
28.144
27.9327
27.8202
27.7783
27.8348
27.9587
28.1414
28.3533
28.5701
28.7736
28.9608
29.1151
29.2604
28.0542
28.2237
28.3684
28.501
28.613
28.7021
28.7906
28.884
28.9706
29.0489
29.0705
29.0807
29.0249
28.9828
28.7945
28.6818
28.4043
28.1977
27.9712
27.8376
27.7781
27.825
27.941
28.1184
28.3322
28.5569
28.7744
28.9742
29.1431
29.2915
28.0536
28.2501
28.4126
28.5572
28.6745
28.774
28.8753
28.9785
29.0712
29.1512
29.1724
29.1791
29.1221
29.0776
28.8882
28.7815
28.4971
28.28
28.0345
27.8781
27.7989
27.8341
27.9451
28.1173
28.3288
28.5579
28.7815
28.9909
29.1747
29.3267
28.0607
28.2828
28.4654
28.6241
28.7515
28.8635
28.9774
29.0906
29.189
29.2714
29.2937
29.299
29.2426
29.1999
29.0108
28.9097
28.6179
28.3934
28.1341
27.9605
27.8612
27.8842
27.9771
28.1399
28.3457
28.5723
28.7976
29.0122
29.2049
29.3632
28.1391
28.3684
28.5532
28.7163
28.8556
28.9805
29.105
29.2266
29.3281
29.411
29.4353
29.4418
29.3872
29.3462
29.1612
29.0757
28.7949
28.5815
28.3201
28.1355
28.0194
28.0267
28.1021
28.2427
28.4321
28.6467
28.8638
29.0756
29.268
29.4307
28.2788
28.4989
28.6877
28.8639
29.0203
29.1548
29.2835
29.4061
29.5059
29.586
29.6099
29.614
29.5567
29.5189
29.342
29.2853
29.0186
28.8184
28.562
28.3746
28.2439
28.2303
28.2856
28.4025
28.5718
28.7738
28.9861
29.1983
29.3943
29.5693
28.4086
28.2376
28.2574
28.1864
28.1356
28.1119
28.1273
28.1801
28.2594
28.3652
28.4731
28.5889
28.6622
28.7097
28.6627
28.5309
28.3468
28.2364
28.1906
28.2078
28.2556
28.3269
28.4007
28.4169
28.4117
28.4637
28.5668
28.6807
28.8001
28.93
28.364
28.1805
28.2163
28.1537
28.1211
28.112
28.1408
28.2026
28.2877
28.3962
28.5043
28.6183
28.6892
28.7353
28.6878
28.5589
28.3738
28.259
28.2052
28.2146
28.2613
28.3319
28.4045
28.4241
28.4138
28.4624
28.5659
28.6737
28.7847
28.8962
28.3196
28.1488
28.1856
28.1267
28.107
28.1086
28.1441
28.2145
28.306
28.419
28.5267
28.6388
28.7054
28.7476
28.6948
28.5633
28.3727
28.257
28.2031
28.2149
28.2636
28.3341
28.4058
28.4207
28.4101
28.4588
28.563
28.6727
28.7826
28.8738
28.263
28.1155
28.1497
28.0967
28.0896
28.101
28.1419
28.2184
28.3167
28.4354
28.5455
28.6562
28.719
28.7587
28.6999
28.5656
28.3691
28.2513
28.1946
28.2051
28.2579
28.3312
28.401
28.4184
28.4064
28.455
28.5569
28.6666
28.7794
28.8606
28.2081
28.0909
28.117
28.0702
28.0721
28.091
28.1368
28.2168
28.3185
28.442
28.554
28.6675
28.7255
28.7625
28.6962
28.5587
28.3579
28.2383
28.1794
28.1897
28.2442
28.3223
28.3888
28.4148
28.402
28.4517
28.5523
28.6601
28.7771
28.8549
28.1562
28.0721
28.0881
28.0476
28.0555
28.08
28.1303
28.2135
28.3173
28.4432
28.5562
28.672
28.7254
28.7611
28.6862
28.545
28.3394
28.2189
28.1589
28.1701
28.2265
28.3086
28.3737
28.4081
28.3979
28.4486
28.5484
28.6538
28.774
28.854
28.1116
28.0589
28.0653
28.0304
28.0414
28.0695
28.1236
28.2096
28.3151
28.4426
28.5557
28.6724
28.723
28.756
28.6711
28.5258
28.3148
28.1942
28.1342
28.1472
28.2057
28.291
28.3585
28.3981
28.3946
28.4473
28.5464
28.6504
28.771
28.8543
28.0797
28.0481
28.0464
28.0182
28.0307
28.0605
28.1175
28.2058
28.3127
28.4416
28.5546
28.6718
28.7191
28.7483
28.6522
28.5022
28.2854
28.1652
28.1057
28.1212
28.1823
28.2709
28.343
28.3851
28.3903
28.4481
28.5459
28.6506
28.7701
28.8551
28.0598
28.0468
28.0329
28.0101
28.0232
28.0537
28.1129
28.2029
28.3109
28.4408
28.5536
28.671
28.7141
28.7386
28.6306
28.4753
28.2521
28.1326
28.0737
28.0923
28.1563
28.2491
28.3254
28.3703
28.3862
28.4497
28.5467
28.652
28.7705
28.8564
28.0447
28.0479
28.0291
28.0075
28.0185
28.0495
28.11
28.2015
28.3101
28.4411
28.5531
28.6707
28.7088
28.728
28.6071
28.4462
28.2156
28.0969
28.0385
28.0604
28.128
28.2262
28.3065
28.3545
28.3825
28.4518
28.5484
28.6549
28.7711
28.8585
28.0326
28.0493
28.0322
28.0101
28.0167
28.0479
28.1093
28.2023
28.3121
28.4449
28.5548
28.6721
28.7042
28.7171
28.5827
28.415
28.1766
28.0584
28.0003
28.0256
28.0975
28.2023
28.2865
28.3384
28.3795
28.4547
28.5513
28.6589
28.7716
28.8617
28.0222
28.0518
28.039
28.0183
28.0199
28.0503
28.114
28.2089
28.3194
28.4532
28.5606
28.677
28.7008
28.7068
28.558
28.3827
28.1357
28.0175
27.9591
27.9877
28.0651
28.1769
28.2651
28.3233
28.3782
28.4584
28.5557
28.6632
28.7735
28.8661
28.0105
28.051
28.0483
28.0315
28.0301
28.0602
28.1257
28.2222
28.3325
28.467
28.5714
28.6863
28.6993
28.6976
28.5338
28.3513
28.0935
27.9746
27.9152
27.9467
28.0306
28.1494
28.2425
28.31
28.3783
28.4634
28.5618
28.6691
28.7774
28.8712
27.9979
28.0487
28.0603
28.0498
28.0472
28.0775
28.1443
28.2423
28.3518
28.4869
28.5879
28.6982
28.7
28.6901
28.5105
28.32
28.0505
27.9301
27.8687
27.903
27.9945
28.1197
28.2191
28.2983
28.3793
28.4701
28.57
28.6769
28.7824
28.8781
27.9855
28.0455
28.0746
28.0716
28.0709
28.1009
28.1702
28.2695
28.3779
28.5129
28.6085
28.7126
28.7034
28.6854
28.4887
28.289
28.0073
27.8843
27.8201
27.8573
27.9564
28.087
28.1945
28.2886
28.3813
28.4783
28.5802
28.6864
28.7888
28.8891
27.9735
28.0422
28.0903
28.0958
28.1003
28.1303
28.2016
28.3023
28.41
28.5425
28.6324
28.7301
28.7102
28.6857
28.4693
28.2597
27.9647
27.8377
27.7694
27.8106
27.9149
28.0507
28.1693
28.2801
28.3839
28.4879
28.5923
28.6983
28.7978
28.9014
27.9647
28.0402
28.1083
28.1227
28.134
28.1655
28.2369
28.3391
28.4458
28.5757
28.6596
28.7509
28.7205
28.6883
28.4525
28.2328
27.9234
27.7915
27.718
27.7648
27.8695
28.0105
28.1431
28.2712
28.3871
28.4992
28.6068
28.7132
28.8097
28.9124
27.9627
28.0387
28.1232
28.1512
28.17
28.2053
28.2765
28.3796
28.4856
28.6127
28.6906
28.7752
28.7348
28.6938
28.4387
28.2093
27.8847
27.7466
27.6689
27.7176
27.8195
27.9661
28.1151
28.2615
28.3907
28.5118
28.6236
28.7314
28.8239
28.9247
27.9661
28.0402
28.135
28.1778
28.2069
28.248
28.3203
28.4231
28.5293
28.6539
28.7255
28.8035
28.7535
28.7027
28.4292
28.1908
27.8506
27.7059
27.6271
27.6661
27.7651
27.919
28.0847
28.2507
28.3939
28.5255
28.6426
28.7527
28.8411
28.9403
27.9682
28.0462
28.1479
28.204
28.2439
28.2921
28.3676
28.4704
28.5771
28.6996
28.7648
28.8364
28.7771
28.7169
28.4273
28.1794
27.8237
27.6815
27.5905
27.6129
27.7094
27.8713
28.0533
28.238
28.3963
28.5399
28.6638
28.7771
28.862
28.9597
27.9739
28.0598
28.1592
28.2296
28.2806
28.3377
28.4184
28.5224
28.6288
28.7499
28.8091
28.8744
28.8063
28.7377
28.4315
28.1763
27.8096
27.6696
27.5485
27.5616
27.6571
27.824
28.0211
28.2222
28.398
28.554
28.6867
28.8046
28.887
28.9835
27.9821
28.0791
28.1749
28.2542
28.3159
28.3858
28.473
28.579
28.6852
28.8057
28.8598
28.9185
28.8424
28.767
28.445
28.1902
27.8057
27.6513
27.5102
27.5191
27.6112
27.7799
27.9882
28.2045
28.398
28.5671
28.7105
28.8349
28.9166
29.0106
27.9887
28.0986
28.1924
28.2764
28.3532
28.4375
28.5318
28.6407
28.7487
28.8679
28.9176
28.9699
28.8863
28.8068
28.4709
28.2187
27.8131
27.6396
27.4909
27.4921
27.577
27.7471
27.9609
28.1872
28.3959
28.5783
28.7336
28.8677
28.9506
29.0414
27.991
28.1159
28.211
28.3063
28.3965
28.4925
28.5952
28.7101
28.8218
28.9401
28.9845
29.0301
28.9392
28.8591
28.511
28.2637
27.8424
27.658
27.487
27.4773
27.5507
27.7197
27.9356
28.1702
28.3914
28.5869
28.7539
28.9004
28.9886
29.078
28.0034
28.1376
28.2413
28.3481
28.4475
28.5545
28.6678
28.7901
28.9063
29.0248
29.065
29.1037
29.0067
28.9278
28.5683
28.3332
27.8924
27.6947
27.4992
27.4732
27.5359
27.6982
27.9116
28.1517
28.3844
28.5934
28.7722
28.9316
29.0288
29.1192
28.0243
28.1736
28.2888
28.4019
28.5105
28.6285
28.7532
28.8828
29.0034
29.1225
29.1605
29.1941
29.0926
29.016
28.6465
28.4272
27.9598
27.7511
27.5346
27.4934
27.5451
27.7016
27.9083
28.1448
28.3822
28.6001
28.7896
28.9611
29.0699
29.1631
28.0537
28.2198
28.3463
28.4716
28.5896
28.7172
28.852
28.9892
29.1135
29.2326
29.2699
29.3005
29.196
29.1235
28.7454
28.5446
28.0574
27.8504
27.6153
27.5571
27.5909
27.7297
27.9272
28.1582
28.3931
28.6142
28.8116
28.9915
29.1145
29.213
28.0936
28.2745
28.414
28.5551
28.6854
28.8221
28.9655
29.1094
29.236
29.3543
29.3919
29.4207
29.3137
29.2485
28.8656
28.6971
28.195
27.99
27.7351
27.6584
27.6727
27.7855
27.9629
28.1843
28.414
28.6363
28.8396
29.0243
29.163
29.271
28.1514
28.3411
28.4983
28.6516
28.7933
28.9394
29.0894
29.2378
29.364
29.4797
29.5179
29.5469
29.4388
29.3819
29.0007
28.8744
28.3651
28.1694
27.9002
27.8069
27.7991
27.8851
28.0334
28.2324
28.4521
28.6711
28.8761
29.0643
29.2188
29.3461
28.2274
28.4193
28.5895
28.7582
28.9166
29.0703
29.2217
29.369
29.4905
29.5998
29.6371
29.6673
29.5543
29.5068
29.1358
29.0723
28.57
28.3879
28.1109
28.0048
27.9708
28.0325
28.15
28.3218
28.5208
28.7292
28.931
29.1211
29.288
29.438
28.6781
28.3141
28.3106
28.1937
28.1036
28.0376
28.0091
28.0237
28.0707
28.1598
28.2571
28.383
28.4678
28.5512
28.5205
28.395
28.2211
28.1569
28.1402
28.1709
28.2383
28.3281
28.4469
28.5445
28.576
28.5793
28.6177
28.6369
28.6532
28.7064
28.5922
28.2109
28.2484
28.1456
28.0779
28.0296
28.0131
28.0394
28.0947
28.189
28.2886
28.4149
28.4993
28.5833
28.5538
28.4307
28.2513
28.1801
28.1516
28.1749
28.2417
28.3325
28.4518
28.5498
28.5794
28.5789
28.6179
28.6357
28.6555
28.7085
28.5
28.156
28.2014
28.1062
28.0551
28.0193
28.0153
28.0526
28.115
28.2133
28.314
28.44
28.5208
28.6031
28.5678
28.4466
28.2649
28.1916
28.1572
28.1785
28.2453
28.3369
28.4544
28.5435
28.5696
28.5713
28.6155
28.6364
28.6594
28.709
28.3848
28.0967
28.1462
28.0627
28.029
28.0061
28.0129
28.0589
28.1295
28.2345
28.3363
28.4626
28.5405
28.6237
28.5826
28.4635
28.2749
28.194
28.1545
28.1782
28.2458
28.3379
28.451
28.5325
28.5564
28.5602
28.6088