/*--------------------------------*- C++ -*----------------------------------*\
  =========                 |
  \\      /  F ield         | OpenFOAM: The Open Source CFD Toolbox
   \\    /   O peration     | Website:  https://openfoam.org
    \\  /    A nd           | Version:  12
     \\/     M anipulation  |
\*---------------------------------------------------------------------------*/
FoamFile
{
    format      ascii;
    class       volScalarField;
    location    "100/porous";
    object      rho;
}
// * * * * * * * * * * * * * * * * * * * * * * * * * * * * * * * * * * * * * //

dimensions      [1 -3 0 0 0 0 0];

internalField   nonuniform List<scalar> 
140000
(
933.891
933.891
933.891
933.892
933.894
933.902
933.933
934.021
934.23
934.658
935.683
937.06
938.898
941.224
943.988
947.081
950.36
953.668
956.864
959.84
962.523
964.874
966.88
968.551
969.913
970.998
971.847
972.497
972.987
973.35
973.614
973.802
973.935
974.027
974.089
974.131
974.159
974.177
974.189
974.196
974.201
974.204
974.205
974.206
974.207
974.207
974.207
974.207
974.207
974.207
974.207
974.207
974.207
974.207
974.207
974.207
974.207
974.206
974.206
974.202
974.088
974.011
973.949
973.896
973.85
973.809
973.772
973.739
973.708
973.682
933.891
933.891
933.891
933.892
933.893
933.9
933.922
933.983
934.123
934.408
935.12
936.073
937.354
939.011
941.05
943.437
946.109
948.978
951.947
954.909
957.766
960.436
962.863
965.013
966.871
968.442
969.742
970.798
971.638
972.295
972.8
973.181
973.464
973.671
973.82
973.925
973.998
974.048
974.082
974.105
974.12
974.13
974.136
974.139
974.142
974.143
974.144
974.144
974.145
974.145
974.145
974.145
974.145
974.145
974.145
974.145
974.144
974.144
974.143
974.141
974.061
974.002
973.953
973.909
973.87
973.834
973.801
973.77
973.741
973.715
933.891
933.891
933.891
933.892
933.893
933.899
933.918
933.967
934.079
934.305
934.898
935.675
936.723
938.098
939.835
941.937
944.372
947.073
949.949
952.895
955.808
958.595
961.181
963.517
965.572
967.339
968.824
970.048
971.036
971.819
972.429
972.896
973.247
973.506
973.695
973.831
973.926
973.992
974.038
974.068
974.089
974.102
974.11
974.116
974.119
974.121
974.122
974.123
974.123
974.123
974.124
974.124
974.124
974.124
974.124
974.123
974.123
974.123
974.122
974.12
974.046
973.992
973.947
973.907
973.871
973.837
973.806
973.776
973.749
973.723
933.891
933.891
933.891
933.892
933.893
933.899
933.916
933.963
934.068
934.279
934.842
935.578
936.572
937.888
939.564
941.61
943.998
946.665
949.523
952.468
955.395
958.208
960.829
963.205
965.302
967.11
968.634
969.892
970.91
971.719
972.351
972.835
973.2
973.471
973.669
973.81
973.911
973.98
974.028
974.06
974.082
974.096
974.105
974.111
974.114
974.116
974.118
974.118
974.119
974.119
974.119
974.119
974.119
974.119
974.119
974.119
974.118
974.118
974.117
974.116
974.043
973.99
973.945
973.906
973.87
973.837
973.806
973.777
973.75
973.725
933.891
933.891
933.891
933.892
933.893
933.899
933.916
933.962
934.066
934.274
934.833
935.561
936.547
937.853
939.519
941.553
943.929
946.587
949.44
952.384
955.314
958.133
960.764
963.149
965.256
967.073
968.604
969.869
970.893
971.706
972.341
972.827
973.194
973.467
973.665
973.808
973.909
973.979
974.027
974.059
974.081
974.095
974.104
974.11
974.114
974.116
974.117
974.118
974.118
974.118
974.118
974.118
974.118
974.118
974.118
974.118
974.118
974.117
974.117
974.115
974.042
973.989
973.945
973.906
973.87
973.837
973.806
973.777
973.75
973.725
933.891
933.891
933.891
933.892
933.893
933.899
933.916
933.963
934.067
934.277
934.839
935.572
936.564
937.878
939.549
941.587
943.966
946.624
949.474
952.416
955.343
958.159
960.787
963.169
965.273
967.086
968.615
969.877
970.899
971.711
972.344
972.83
973.196
973.468
973.666
973.808
973.909
973.979
974.027
974.059
974.081
974.095
974.104
974.11
974.114
974.116
974.117
974.118
974.118
974.118
974.118
974.118
974.118
974.118
974.118
974.118
974.117
974.117
974.116
974.114
974.042
973.989
973.945
973.906
973.87
973.837
973.806
973.777
973.75
973.725
933.891
933.891
933.891
933.892
933.893
933.899
933.917
933.963
934.069
934.279
934.845
935.581
936.578
937.897
939.574
941.614
943.992
946.648
949.496
952.435
955.358
958.172
960.798
963.179
965.281
967.094
968.622
969.883
970.903
971.714
972.347
972.832
973.198
973.469
973.667
973.809
973.909
973.979
974.027
974.06
974.081
974.095
974.104
974.11
974.114
974.116
974.117
974.118
974.118
974.118
974.118
974.118
974.118
974.118
974.118
974.118
974.117
974.117
974.116
974.114
974.042
973.989
973.945
973.906
973.87
973.837
973.806
973.777
973.75
973.725
933.891
933.891
933.891
933.892
933.893
933.899
933.917
933.964
934.07
934.282
934.851
935.592
936.596
937.922
939.606
941.652
944.033
946.689
949.536
952.471
955.391
958.201
960.822
963.199
965.298
967.107
968.632
969.891
970.91
971.719
972.35
972.834
973.199
973.47
973.668
973.809
973.91
973.98
974.027
974.06
974.081
974.095
974.105
974.11
974.114
974.116
974.117
974.118
974.118
974.118
974.118
974.118
974.118
974.118
974.118
974.118
974.117
974.117
974.116
974.114
974.042
973.989
973.945
973.906
973.87
973.837
973.806
973.777
973.75
973.725
933.891
933.891
933.891
933.892
933.893
933.899
933.917
933.964
934.07
934.284
934.855
935.599
936.606
937.937
939.625
941.674
944.057
946.712
949.557
952.489
955.407
958.214
960.833
963.208
965.305
967.113
968.637
969.895
970.913
971.721
972.352
972.836
973.201
973.471
973.668
973.81
973.91
973.98
974.028
974.06
974.081
974.096
974.105
974.11
974.114
974.116
974.117
974.118
974.118
974.119
974.119
974.119
974.118
974.118
974.118
974.118
974.118
974.117
974.116
974.114
974.042
973.989
973.945
973.906
973.87
973.837
973.806
973.777
973.75
973.725
933.891
933.891
933.891
933.892
933.893
933.899
933.917
933.964
934.071
934.285
934.858
935.605
936.616
937.951
939.644
941.698
944.082
946.739
949.582
952.513
955.427
958.232
960.848
963.22
965.315
967.121
968.643
969.899
970.916
971.724
972.354
972.837
973.202
973.472
973.669
973.81
973.91
973.98
974.028
974.06
974.082
974.096
974.105
974.111
974.114
974.116
974.118
974.118
974.119
974.119
974.119
974.119
974.119
974.119
974.118
974.118
974.118
974.117
974.116
974.114
974.042
973.989
973.945
973.906
973.87
973.837
973.806
973.777
973.75
973.725
933.891
933.891
933.891
933.892
933.893
933.899
933.917
933.964
934.071
934.286
934.86
935.608
936.621
937.959
939.654
941.711
944.097
946.753
949.596
952.525
955.437
958.24
960.854
963.225
965.319
967.124
968.646
969.901
970.918
971.725
972.355
972.838
973.202
973.472
973.669
973.811
973.911
973.98
974.028
974.06
974.082
974.096
974.105
974.111
974.114
974.116
974.118
974.118
974.119
974.119
974.119
974.119
974.119
974.119
974.119
974.118
974.118
974.117
974.116
974.114
974.042
973.989
973.945
973.906
973.87
973.837
973.806
973.777
973.75
973.725
933.891
933.891
933.891
933.892
933.893
933.899
933.917
933.964
934.071
934.286
934.861
935.611
936.626
937.965
939.664
941.722
944.11
946.768
949.61
952.537
955.448
958.249
960.862
963.231
965.324
967.128
968.648
969.903
970.919
971.726
972.356
972.839
973.203
973.473
973.669
973.811
973.911
973.98
974.028
974.06
974.082
974.096
974.105
974.111
974.114
974.117
974.118
974.119
974.119
974.119
974.119
974.119
974.119
974.119
974.119
974.118
974.118
974.117
974.116
974.115
974.042
973.989
973.945
973.906
973.87
973.837
973.806
973.777
973.75
973.725
933.891
933.891
933.891
933.892
933.893
933.899
933.916
933.964
934.07
934.285
934.861
935.611
936.627
937.968
939.667
941.727
944.116
946.774
949.616
952.542
955.453
958.252
960.864
963.232
965.324
967.128
968.648
969.904
970.919
971.726
972.356
972.839
973.203
973.473
973.67
973.811
973.911
973.981
974.028
974.061
974.082
974.096
974.105
974.111
974.115
974.117
974.118
974.119
974.119
974.119
974.119
974.119
974.119
974.119
974.119
974.118
974.118
974.117
974.117
974.115
974.042
973.989
973.945
973.906
973.87
973.837
973.806
973.777
973.75
973.725
933.891
933.891
933.891
933.892
933.893
933.899
933.916
933.963
934.07
934.285
934.861
935.612
936.628
937.969
939.67
941.73
944.12
946.779
949.62
952.546
955.456
958.254
960.865
963.233
965.325
967.128
968.648
969.903
970.919
971.726
972.356
972.839
973.203
973.473
973.67
973.811
973.911
973.981
974.028
974.061
974.082
974.096
974.105
974.111
974.115
974.117
974.118
974.119
974.119
974.119
974.119
974.119
974.119
974.119
974.119
974.119
974.118
974.117
974.117
974.115
974.042
973.989
973.945
973.906
973.87
973.837
973.806
973.777
973.75
973.725
933.891
933.891
933.891
933.892
933.893
933.899
933.916
933.963
934.07
934.284
934.86
935.61
936.626
937.968
939.669
941.73
944.12
946.778
949.62
952.545
955.454
958.253
960.863
963.231
965.323
967.126
968.647
969.902
970.918
971.725
972.355
972.838
973.202
973.473
973.67
973.811
973.911
973.981
974.029
974.061
974.082
974.096
974.105
974.111
974.115
974.117
974.118
974.119
974.119
974.119
974.119
974.119
974.119
974.119
974.119
974.119
974.118
974.117
974.117
974.115
974.042
973.989
973.945
973.906
973.87
973.837
973.806
973.777
973.75
973.725
933.891
933.891
933.891
933.892
933.893
933.898
933.916
933.963
934.069
934.283
934.859
935.609
936.625
937.966
939.666
941.727
944.117
946.775
949.617
952.543
955.451
958.249
960.86
963.228
965.32
967.124
968.645
969.9
970.917
971.724
972.354
972.838
973.202
973.472
973.67
973.811
973.911
973.981
974.029
974.061
974.082
974.096
974.106
974.111
974.115
974.117
974.118
974.119
974.119
974.12
974.12
974.12
974.119
974.119
974.119
974.119
974.118
974.118
974.117
974.115
974.043
973.989
973.945
973.906
973.87
973.837
973.806
973.777
973.75
973.725
933.891
933.891
933.891
933.892
933.893
933.898
933.916
933.963
934.068
934.282
934.857
935.607
936.621
937.962
939.662
941.722
944.111
946.769
949.611
952.537
955.445
958.243
960.855
963.223
965.316
967.12
968.641
969.898
970.915
971.723
972.353
972.837
973.202
973.472
973.669
973.811
973.911
973.981
974.029
974.061
974.083
974.097
974.106
974.111
974.115
974.117
974.118
974.119
974.12
974.12
974.12
974.12
974.12
974.119
974.119
974.119
974.118
974.118
974.117
974.115
974.043
973.99
973.945
973.906
973.87
973.837
973.806
973.777
973.75
973.725
933.891
933.891
933.891
933.892
933.893
933.898
933.916
933.962
934.068
934.281
934.855
935.604
936.618
937.957
939.656
941.715
944.104
946.762
949.603
952.528
955.437
958.236
960.848
963.217
965.31
967.115
968.638
969.895
970.912
971.721
972.352
972.836
973.201
973.472
973.669
973.811
973.911
973.981
974.029
974.061
974.083
974.097
974.106
974.112
974.115
974.117
974.119
974.119
974.12
974.12
974.12
974.12
974.12
974.12
974.119
974.119
974.119
974.118
974.117
974.115
974.043
973.99
973.945
973.906
973.87
973.837
973.806
973.777
973.75
973.725
933.891
933.891
933.891
933.892
933.893
933.898
933.916
933.962
934.067
934.28
934.853
935.601
936.613
937.951
939.648
941.706
944.094
946.751
949.592
952.518
955.427
958.226
960.839
963.209
965.303
967.11
968.633
969.891
970.909
971.719
972.35
972.835
973.2
973.471
973.669
973.811
973.911
973.981
974.029
974.062
974.083
974.097
974.106
974.112
974.115
974.117
974.119
974.119
974.12
974.12
974.12
974.12
974.12
974.12
974.119
974.119
974.119
974.118
974.117
974.115
974.043
973.99
973.945
973.906
973.87
973.837
973.806
973.777
973.75
973.725
933.891
933.891
933.891
933.892
933.893
933.898
933.916
933.962
934.066
934.278
934.851
935.597
936.608
937.944
939.64
941.696
944.083
946.739
949.58
952.505
955.415
958.215
960.829
963.2
965.296
967.103
968.628
969.887
970.906
971.716
972.349
972.834
973.199
973.471
973.668
973.811
973.911
973.981
974.029
974.062
974.083
974.097
974.106
974.112
974.115
974.117
974.119
974.119
974.12
974.12
974.12
974.12
974.12
974.12
974.12
974.119
974.119
974.118
974.117
974.115
974.043
973.99
973.945
973.906
973.87
973.837
973.806
973.777
973.75
973.725
933.891
933.891
933.891
933.892
933.893
933.898
933.916
933.961
934.066
934.277
934.848
935.593
936.602
937.937
939.63
941.685
944.07
946.725
949.565
952.491
955.401
958.203
960.817
963.19
965.287
967.096
968.622
969.882
970.903
971.714
972.347
972.832
973.198
973.47
973.668
973.81
973.911
973.981
974.029
974.061
974.083
974.097
974.106
974.112
974.115
974.117
974.119
974.119
974.12
974.12
974.12
974.12
974.12
974.12
974.12
974.119
974.119
974.118
974.117
974.115
974.043
973.99
973.945
973.906
973.87
973.837
973.806
973.777
973.75
973.725
933.891
933.891
933.891
933.892
933.893
933.898
933.915
933.961
934.065
934.275
934.846
935.589
936.596
937.928
939.619
941.672
944.055
946.709
949.549
952.475
955.386
958.188
960.805
963.179
965.278
967.088
968.615
969.877
970.899
971.71
972.344
972.83
973.197
973.469
973.667
973.81
973.91
973.98
974.029
974.061
974.083
974.097
974.106
974.112
974.115
974.117
974.119
974.119
974.12
974.12
974.12
974.12
974.12
974.12
974.12
974.119
974.119
974.118
974.117
974.115
974.043
973.99
973.945
973.906
973.87
973.837
973.806
973.777
973.75
973.725
933.891
933.891
933.891
933.892
933.893
933.898
933.915
933.961
934.064
934.273
934.843
935.584
936.589
937.919
939.608
941.658
944.039
946.692
949.531
952.458
955.369
958.173
960.791
963.167
965.267
967.08
968.609
969.871
970.894
971.707
972.342
972.829
973.196
973.468
973.666
973.809
973.91
973.98
974.028
974.061
974.083
974.097
974.106
974.112
974.115
974.117
974.119
974.119
974.12
974.12
974.12
974.12
974.12
974.12
974.12
974.119
974.119
974.118
974.117
974.115
974.043
973.99
973.945
973.906
973.87
973.837
973.806
973.777
973.75
973.725
933.891
933.891
933.891
933.892
933.893
933.898
933.915
933.96
934.063
934.272
934.84
935.58
936.582
937.91
939.596
941.643
944.023
946.674
949.513
952.439
955.352
958.157
960.776
963.154
965.257
967.071
968.601
969.866
970.89
971.704
972.339
972.827
973.194
973.467
973.666
973.809
973.91
973.98
974.028
974.061
974.082
974.097
974.106
974.112
974.115
974.117
974.119
974.119
974.12
974.12
974.12
974.12
974.12
974.12
974.12
974.119
974.119
974.118
974.117
974.115
974.043
973.99
973.945
973.906
973.87
973.837
973.806
973.777
973.75
973.725
933.891
933.891
933.891
933.892
933.893
933.898
933.915
933.96
934.063
934.27
934.837
935.575
936.576
937.901
939.585
941.631
944.009
946.659
949.497
952.424
955.337
958.143
960.764
963.144
965.248
967.064
968.596
969.861
970.886
971.701
972.337
972.825
973.193
973.466
973.665
973.808
973.909
973.98
974.028
974.061
974.082
974.097
974.106
974.112
974.115
974.117
974.119
974.119
974.12
974.12
974.12
974.12
974.12
974.12
974.12
974.119
974.119
974.118
974.117
974.115
974.043
973.99
973.945
973.906
973.87
973.837
973.806
973.777
973.75
973.725
933.891
933.891
933.891
933.892
933.893
933.898
933.915
933.96
934.063
934.27
934.837
935.575
936.576
937.902
939.585
941.631
944.009
946.66
949.498
952.425
955.338
958.144
960.765
963.145
965.249
967.064
968.596
969.862
970.887
971.701
972.337
972.825
973.193
973.466
973.665
973.808
973.909
973.98
974.028
974.061
974.082
974.097
974.106
974.112
974.115
974.117
974.119
974.119
974.12
974.12
974.12
974.12
974.12
974.12
974.12
974.119
974.119
974.118
974.117
974.115
974.043
973.99
973.945
973.906
973.87
973.837
973.806
973.777
973.75
973.725
933.891
933.891
933.891
933.892
933.893
933.898
933.915
933.96
934.063
934.272
934.84
935.58
936.583
937.91
939.596
941.644
944.024
946.676
949.515
952.442
955.354
958.159
960.779
963.156
965.258
967.072
968.603
969.867
970.891
971.705
972.34
972.827
973.194
973.467
973.666
973.809
973.91
973.98
974.028
974.061
974.083
974.097
974.106
974.112
974.115
974.117
974.119
974.119
974.12
974.12
974.12
974.12
974.12
974.12
974.12
974.119
974.119
974.118
974.117
974.115
974.043
973.99
973.945
973.906
973.87
973.837
973.806
973.777
973.75
973.725
933.891
933.891
933.891
933.892
933.893
933.898
933.915
933.961
934.064
934.274
934.843
935.585
936.59
937.92
939.609
941.66
944.042
946.695
949.535
952.461
955.373
958.176
960.794
963.17
965.27
967.082
968.611
969.873
970.896
971.708
972.343
972.829
973.196
973.468
973.667
973.809
973.91
973.98
974.028
974.061
974.083
974.097
974.106
974.112
974.115
974.117
974.119
974.119
974.12
974.12
974.12
974.12
974.12
974.12
974.12
974.119
974.119
974.118
974.117
974.115
974.043
973.99
973.945
973.906
973.87
973.837
973.806
973.777
973.75
973.725
933.891
933.891
933.891
933.892
933.893
933.898
933.915
933.961
934.065
934.275
934.846
935.589
936.597
937.93
939.621
941.674
944.059
946.713
949.553
952.48
955.391
958.193
960.809
963.183
965.281
967.091
968.618
969.879
970.9
971.712
972.345
972.831
973.198
973.469
973.667
973.81
973.91
973.981
974.029
974.061
974.083
974.097
974.106
974.112
974.115
974.117
974.119
974.119
974.12
974.12
974.12
974.12
974.12
974.12
974.12
974.119
974.119
974.118
974.117
974.115
974.043
973.99
973.945
973.906
973.87
973.837
973.806
973.777
973.75
973.725
933.891
933.891
933.891
933.892
933.893
933.898
933.916
933.961
934.066
934.277
934.849
935.594
936.603
937.938
939.633
941.688
944.074
946.73
949.571
952.497
955.407
958.208
960.823
963.195
965.292
967.1
968.625
969.885
970.905
971.715
972.348
972.833
973.199
973.47
973.668
973.81
973.911
973.981
974.029
974.061
974.083
974.097
974.106
974.112
974.115
974.117
974.119
974.119
974.12
974.12
974.12
974.12
974.12
974.12
974.12
974.119
974.119
974.118
974.117
974.115
974.043
973.99
973.945
973.906
973.87
973.837
973.806
973.777
973.75
973.725
933.891
933.891
933.891
933.892
933.893
933.898
933.916
933.962
934.067
934.278
934.851
935.598
936.609
937.947
939.643
941.7
944.088
946.745
949.586
952.513
955.422
958.222
960.836
963.206
965.301
967.108
968.632
969.89
970.909
971.718
972.35
972.835
973.2
973.471
973.669
973.811
973.911
973.981
974.029
974.062
974.083
974.097
974.106
974.112
974.115
974.118
974.119
974.119
974.12
974.12
974.12
974.12
974.12
974.12
974.12
974.119
974.119
974.118
974.117
974.115
974.043
973.99
973.945
973.906
973.87
973.837
973.806
973.777
973.75
973.725
933.891
933.891
933.891
933.892
933.893
933.898
933.916
933.962
934.067
934.28
934.853
935.601
936.615
937.954
939.652
941.711
944.1
946.758
949.6
952.526
955.435
958.235
960.847
963.216
965.31
967.115
968.638
969.895
970.912
971.721
972.352
972.836
973.201
973.472
973.669
973.811
973.912
973.981
974.029
974.062
974.083
974.097
974.106
974.112
974.115
974.117
974.119
974.119
974.12
974.12
974.12
974.12
974.12
974.12
974.12
974.119
974.119
974.118
974.117
974.115
974.043
973.99
973.945
973.906
973.87
973.837
973.806
973.777
973.75
973.725
933.891
933.891
933.891
933.892
933.893
933.898
933.916
933.962
934.068
934.281
934.856
935.605
936.619
937.96
939.66
941.72
944.111
946.77
949.612
952.538
955.447
958.245
960.857
963.225
965.317
967.122
968.643
969.899
970.916
971.724
972.354
972.838
973.202
973.473
973.67
973.812
973.912
973.981
974.029
974.062
974.083
974.097
974.106
974.112
974.115
974.117
974.119
974.119
974.12
974.12
974.12
974.12
974.12
974.12
974.119
974.119
974.119
974.118
974.117
974.115
974.043
973.99
973.945
973.906
973.87
973.837
973.806
973.777
973.75
973.725
933.891
933.891
933.891
933.892
933.893
933.898
933.916
933.963
934.069
934.282
934.858
935.608
936.623
937.965
939.666
941.728
944.119
946.779
949.621
952.547
955.456
958.254
960.865
963.232
965.324
967.127
968.647
969.902
970.919
971.726
972.356
972.839
973.203
973.473
973.67
973.812
973.912
973.981
974.029
974.061
974.083
974.097
974.106
974.111
974.115
974.117
974.118
974.119
974.12
974.12
974.12
974.12
974.12
974.119
974.119
974.119
974.118
974.118
974.117
974.115
974.043
973.99
973.945
973.906
973.87
973.837
973.806
973.777
973.75
973.725
933.891
933.891
933.891
933.892
933.893
933.898
933.916
933.963
934.069
934.284
934.859
935.61
936.627
937.97
939.672
941.734
944.126
946.786
949.628
952.555
955.463
958.261
960.871
963.238
965.329
967.131
968.651
969.905
970.921
971.728
972.357
972.84
973.204
973.473
973.67
973.812
973.912
973.981
974.029
974.061
974.083
974.097
974.106
974.111
974.115
974.117
974.118
974.119
974.119
974.12
974.12
974.12
974.119
974.119
974.119
974.119
974.118
974.118
974.117
974.115
974.043
973.99
973.945
973.906
973.87
973.837
973.806
973.777
973.75
973.725
933.891
933.891
933.891
933.892
933.893
933.899
933.916
933.963
934.07
934.285
934.861
935.612
936.629
937.972
939.675
941.737
944.129
946.789
949.632
952.558
955.467
958.265
960.875
963.242
965.332
967.135
968.654
969.908
970.923
971.729
972.358
972.84
973.204
973.474
973.67
973.812
973.912
973.981
974.029
974.061
974.082
974.096
974.105
974.111
974.115
974.117
974.118
974.119
974.119
974.119
974.119
974.119
974.119
974.119
974.119
974.119
974.118
974.118
974.117
974.115
974.043
973.989
973.945
973.906
973.87
973.837
973.806
973.777
973.75
973.725
933.891
933.891
933.891
933.892
933.893
933.899
933.916
933.964
934.07
934.285
934.862
935.613
936.631
937.974
939.676
941.739
944.131
946.791
949.634
952.56
955.47
958.268
960.878
963.245
965.335
967.137
968.656
969.909
970.924
971.73
972.359
972.841
973.204
973.474
973.671
973.812
973.912
973.981
974.029
974.061
974.082
974.096
974.105
974.111
974.115
974.117
974.118
974.119
974.119
974.119
974.119
974.119
974.119
974.119
974.119
974.119
974.118
974.117
974.117
974.115
974.043
973.989
973.945
973.906
973.87
973.837
973.806
973.777
973.75
973.725
933.891
933.891
933.891
933.892
933.893
933.899
933.916
933.964
934.071
934.286
934.862
935.613
936.63
937.973
939.675
941.736
944.128
946.787
949.63
952.558
955.468
958.267
960.878
963.245
965.335
967.137
968.656
969.91
970.924
971.73
972.359
972.841
973.204
973.474
973.671
973.812
973.911
973.981
974.029
974.061
974.082
974.096
974.105
974.111
974.115
974.117
974.118
974.119
974.119
974.119
974.119
974.119
974.119
974.119
974.119
974.119
974.118
974.117
974.117
974.115
974.042
973.989
973.945
973.906
973.87
973.837
973.806
973.777
973.75
973.725
933.891
933.891
933.891
933.892
933.893
933.899
933.917
933.964
934.071
934.286
934.862
935.613
936.629
937.971
939.671
941.732
944.123
946.782
949.625
952.554
955.465
958.265
960.876
963.244
965.335
967.137
968.656
969.91
970.925
971.73
972.359
972.841
973.204
973.474
973.67
973.812
973.911
973.981
974.028
974.061
974.082
974.096
974.105
974.111
974.114
974.117
974.118
974.119
974.119
974.119
974.119
974.119
974.119
974.119
974.119
974.118
974.118
974.117
974.117
974.115
974.042
973.989
973.945
973.906
973.87
973.837
973.806
973.777
973.75
973.725
933.891
933.891
933.891
933.892
933.893
933.899
933.917
933.964
934.071
934.286
934.861
935.611
936.625
937.965
939.663
941.721
944.11
946.769
949.612
952.542
955.455
958.256
960.87
963.239
965.331
967.135
968.654
969.909
970.923
971.73
972.358
972.841
973.204
973.474
973.67
973.811
973.911
973.981
974.028
974.06
974.082
974.096
974.105
974.111
974.114
974.116
974.118
974.118
974.119
974.119
974.119
974.119
974.119
974.119
974.119
974.118
974.118
974.117
974.116
974.115
974.042
973.989
973.945
973.906
973.87
973.837
973.806
973.777
973.75
973.725
933.891
933.891
933.891
933.892
933.893
933.899
933.917
933.964
934.071
934.286
934.859
935.608
936.62
937.958
939.653
941.709
944.096
946.755
949.6
952.531
955.445
958.249
960.864
963.234
965.328
967.132
968.652
969.907
970.922
971.729
972.358
972.84
973.204
973.473
973.67
973.811
973.911
973.98
974.028
974.06
974.082
974.096
974.105
974.111
974.114
974.116
974.118
974.118
974.119
974.119
974.119
974.119
974.119
974.119
974.118
974.118
974.118
974.117
974.116
974.115
974.042
973.989
973.945
973.906
973.87
973.837
973.806
973.777
973.75
973.725
933.891
933.891
933.891
933.892
933.893
933.899
933.917
933.964
934.071
934.285
934.856
935.602
936.611
937.944
939.635
941.687
944.071
946.729
949.575
952.508
955.425
958.232
960.849
963.222
965.318
967.124
968.646
969.902
970.919
971.726
972.356
972.839
973.203
973.472
973.669
973.811
973.911
973.98
974.028
974.06
974.082
974.096
974.105
974.11
974.114
974.116
974.117
974.118
974.118
974.119
974.119
974.119
974.119
974.118
974.118
974.118
974.118
974.117
974.116
974.114
974.042
973.989
973.945
973.906
973.87
973.837
973.806
973.777
973.75
973.725
933.891
933.891
933.891
933.892
933.893
933.899
933.917
933.964
934.07
934.283
934.853
935.595
936.601
937.93
939.616
941.665
944.048
946.707
949.554
952.49
955.41
958.219
960.839
963.214
965.311
967.118
968.642
969.899
970.916
971.724
972.354
972.837
973.202
973.472
973.669
973.81
973.91
973.98
974.028
974.06
974.081
974.095
974.105
974.11
974.114
974.116
974.117
974.118
974.118
974.118
974.118
974.118
974.118
974.118
974.118
974.118
974.117
974.117
974.116
974.114
974.042
973.989
973.945
973.906
973.87
973.837
973.806
973.777
973.75
973.725
933.891
933.891
933.891
933.892
933.893
933.899
933.917
933.963
934.069
934.28
934.846
935.584
936.584
937.905
939.584
941.628
944.008
946.666
949.515
952.454
955.378
958.191
960.815
963.194
965.294
967.105
968.631
969.89
970.91
971.719
972.351
972.835
973.2
973.47
973.668
973.81
973.91
973.98
974.027
974.06
974.081
974.095
974.104
974.11
974.114
974.116
974.117
974.118
974.118
974.118
974.118
974.118
974.118
974.118
974.118
974.118
974.117
974.117
974.116
974.114
974.042
973.989
973.945
973.906
973.87
973.837
973.806
973.777
973.75
973.725
933.891
933.891
933.891
933.892
933.893
933.899
933.916
933.963
934.068
934.278
934.841
935.575
936.57
937.886
939.56
941.601
943.982
946.642
949.494
952.436
955.362
958.178
960.804
963.184
965.286
967.098
968.625
969.885
970.905
971.716
972.348
972.833
973.198
973.469
973.667
973.809
973.909
973.979
974.027
974.06
974.081
974.095
974.104
974.11
974.114
974.116
974.117
974.118
974.118
974.118
974.118
974.118
974.118
974.118
974.118
974.118
974.117
974.117
974.116
974.115
974.042
973.989
973.945
973.906
973.87
973.837
973.806
973.777
973.75
973.725
933.891
933.891
933.891
933.892
933.893
933.899
933.916
933.963
934.067
934.275
934.835
935.565
936.553
937.862
939.53
941.567
943.946
946.606
949.459
952.403
955.333
958.151
960.78
963.164
965.269
967.084
968.613
969.876
970.898
971.71
972.344
972.83
973.196
973.468
973.666
973.808
973.909
973.979
974.027
974.059
974.081
974.095
974.104
974.11
974.114
974.116
974.117
974.118
974.118
974.118
974.118
974.118
974.118
974.118
974.118
974.118
974.118
974.117
974.117
974.115
974.042
973.989
973.945
973.906
973.87
973.837
973.806
973.777
973.75
973.725
933.891
933.891
933.891
933.892
933.893
933.899
933.917
933.963
934.069
934.28
934.845
935.581
936.578
937.897
939.575
941.624
944.014
946.683
949.542
952.487
955.412
958.224
960.844
963.218
965.313
967.119
968.641
969.898
970.915
971.723
972.354
972.838
973.202
973.472
973.669
973.811
973.911
973.981
974.028
974.06
974.082
974.096
974.105
974.111
974.114
974.116
974.118
974.118
974.119
974.119
974.119
974.119
974.119
974.119
974.119
974.119
974.118
974.118
974.117
974.116
974.043
973.99
973.945
973.906
973.87
973.837
973.806
973.777
973.75
973.725
933.891
933.891
933.891
933.892
933.893
933.899
933.918
933.967
934.08
934.306
934.9
935.678
936.728
938.106
939.845
941.949
944.386
947.088
949.964
952.91
955.822
958.607
961.192
963.526
965.58
967.345
968.829
970.052
971.039
971.822
972.431
972.897
973.248
973.507
973.696
973.831
973.926
973.992
974.038
974.068
974.089
974.102
974.11
974.116
974.119
974.121
974.122
974.123
974.123
974.123
974.124
974.124
974.124
974.124
974.124
974.123
974.123
974.123
974.122
974.12
974.046
973.992
973.947
973.907
973.871
973.837
973.806
973.776
973.749
973.723
933.891
933.891
933.891
933.892
933.893
933.9
933.922
933.983
934.123
934.408
935.12
936.073
937.355
939.013
941.052
943.44
946.113
948.982
951.95
954.911
957.767
960.436
962.862
965.011
966.869
968.439
969.74
970.796
971.636
972.294
972.799
973.18
973.463
973.67
973.819
973.924
973.998
974.048
974.082
974.105
974.12
974.13
974.136
974.14
974.142
974.143
974.144
974.144
974.145
974.145
974.145
974.145
974.145
974.145
974.145
974.145
974.144
974.144
974.144
974.141
974.061
974.002
973.953
973.909
973.87
973.834
973.801
973.77
973.741
973.715
933.891
933.891
933.891
933.892
933.894
933.902
933.933
934.021
934.229
934.657
935.681
937.056
938.892
941.215
943.976
947.067
950.344
953.65
956.845
959.821
962.504
964.856
966.864
968.537
969.9
970.987
971.838
972.49
972.982
973.346
973.61
973.8
973.933
974.026
974.089
974.131
974.159
974.177
974.189
974.196
974.201
974.204
974.206
974.207
974.207
974.207
974.208
974.208
974.208
974.207
974.208
974.208
974.208
974.208
974.207
974.207
974.207
974.206
974.206
974.202
974.089
974.011
973.949
973.897
973.851
973.81
973.773
973.739
973.709
973.682
933.891
933.891
933.891
933.892
933.893
933.901
933.927
934.004
934.189
934.573
935.465
936.739
938.471
940.691
943.36
946.38
949.613
952.907
956.119
959.133
961.873
964.292
966.372
968.118
969.55
970.7
971.604
972.303
972.833
973.228
973.516
973.724
973.871
973.974
974.044
974.092
974.123
974.144
974.157
974.166
974.171
974.175
974.177
974.178
974.178
974.179
974.179
974.179
974.179
974.179
974.179
974.179
974.179
974.179
974.179
974.179
974.178
974.178
974.178
974.175
974.086
974.014
973.953
973.902
973.856
973.815
973.778
973.744
973.713
973.686
933.891
933.891
933.891
933.892
933.893
933.898
933.917
933.969
934.09
934.338
934.93
935.781
936.953
938.487
940.397
942.659
945.218
947.997
950.905
953.842
956.71
959.423
961.919
964.154
966.109
967.781
969.18
970.328
971.252
971.982
972.548
972.981
973.306
973.545
973.719
973.844
973.932
973.993
974.034
974.062
974.081
974.093
974.101
974.106
974.109
974.11
974.111
974.112
974.112
974.113
974.113
974.113
974.113
974.113
974.113
974.113
974.112
974.112
974.112
974.11
974.053
974.001
973.955
973.914
973.876
973.84
973.807
973.777
973.748
973.721
933.891
933.891
933.891
933.892
933.893
933.898
933.913
933.956
934.052
934.248
934.733
935.422
936.374
937.638
939.248
941.217
943.525
946.118
948.913
951.812
954.714
957.525
960.166
962.579
964.728
966.595
968.183
969.505
970.584
971.449
972.13
972.656
973.056
973.356
973.576
973.735
973.849
973.929
973.984
974.021
974.047
974.063
974.074
974.081
974.085
974.088
974.09
974.091
974.091
974.091
974.092
974.092
974.092
974.092
974.092
974.092
974.091
974.091
974.09
974.089
974.038
973.991
973.949
973.911
973.875
973.842
973.812
973.783
973.755
973.73
933.891
933.891
933.891
933.892
933.893
933.897
933.912
933.952
934.043
934.226
934.684
935.336
936.238
937.446
938.998
940.914
943.176
945.734