/*--------------------------------*- C++ -*----------------------------------*\
  =========                 |
  \\      /  F ield         | OpenFOAM: The Open Source CFD Toolbox
   \\    /   O peration     | Website:  https://openfoam.org
    \\  /    A nd           | Version:  12
     \\/     M anipulation  |
\*---------------------------------------------------------------------------*/
FoamFile
{
    format      ascii;
    class       volScalarField;
    location    "100/porous";
    object      T;
}
// * * * * * * * * * * * * * * * * * * * * * * * * * * * * * * * * * * * * * //

dimensions      [0 0 0 1 0 0 0];

internalField   nonuniform List<scalar> 
140000
(
400
400
400
400
399.998
399.988
399.955
399.861
399.637
399.176
398.069
396.571
394.552
391.962
388.83
385.251
381.364
377.334
373.326
369.481
365.909
362.69
359.869
357.462
355.461
353.837
352.549
351.55
350.79
350.224
349.811
349.514
349.304
349.159
349.06
348.994
348.95
348.921
348.902
348.891
348.883
348.879
348.876
348.875
348.874
348.873
348.873
348.873
348.873
348.873
348.873
348.873
348.873
348.873
348.873
348.874
348.874
348.875
348.876
348.881
349.062
349.185
349.283
349.366
349.438
349.503
349.561
349.614
349.662
349.704
400
400
400
400
399.998
399.991
399.967
399.902
399.752
399.446
398.678
397.647
396.25
394.427
392.157
389.459
386.385
383.014
379.444
375.791
372.173
368.696
365.449
362.497
359.882
357.622
355.713
354.138
352.866
351.861
351.081
350.488
350.046
349.721
349.487
349.321
349.205
349.125
349.071
349.035
349.012
348.997
348.987
348.981
348.977
348.975
348.974
348.973
348.973
348.973
348.972
348.972
348.972
348.972
348.972
348.973
348.973
348.974
348.975
348.978
349.106
349.199
349.277
349.345
349.407
349.464
349.516
349.565
349.611
349.652
400
400
400
400
399.998
399.992
399.972
399.919
399.798
399.556
398.918
398.078
396.939
395.433
393.514
391.16
388.39
385.26
381.856
378.286
374.664
371.104
367.708
364.559
361.716
359.213
357.064
355.26
353.78
352.59
351.654
350.932
350.386
349.979
349.682
349.469
349.319
349.214
349.142
349.094
349.062
349.041
349.027
349.019
349.013
349.01
349.008
349.007
349.007
349.006
349.006
349.006
349.006
349.006
349.006
349.006
349.007
349.008
349.009
349.012
349.128
349.214
349.285
349.349
349.406
349.459
349.508
349.555
349.599
349.639
400
400
400
400
399.998
399.992
399.973
399.923
399.81
399.584
398.978
398.184
397.104
395.665
393.814
391.528
388.819
385.737
382.366
378.809
375.183
371.604
368.176
364.985
362.094
359.541
357.342
355.492
353.969
352.743
351.775
351.026
350.458
350.035
349.724
349.501
349.343
349.233
349.157
349.106
349.072
349.05
349.035
349.026
349.021
349.017
349.015
349.014
349.014
349.013
349.013
349.013
349.013
349.013
349.013
349.014
349.014
349.015
349.016
349.019
349.134
349.218
349.288
349.35
349.407
349.459
349.508
349.554
349.597
349.636
400
400
400
400
399.998
399.992
399.973
399.924
399.813
399.589
398.988
398.202
397.131
395.703
393.864
391.592
388.897
385.828
382.465
378.912
375.285
371.7
368.262
365.06
362.158
359.594
357.385
355.526
353.996
352.763
351.791
351.039
350.467
350.042
349.73
349.505
349.346
349.235
349.159
349.108
349.074
349.051
349.037
349.027
349.022
349.018
349.016
349.015
349.015
349.014
349.014
349.014
349.014
349.014
349.015
349.015
349.016
349.016
349.017
349.02
349.135
349.219
349.289
349.351
349.407
349.459
349.508
349.554
349.597
349.636
400
400
400
400
399.998
399.992
399.973
399.923
399.811
399.586
398.981
398.19
397.112
395.676
393.831
391.553
388.856
385.786
382.424
378.873
375.249
371.666
368.232
365.034
362.135
359.575
357.369
355.513
353.986
352.756
351.785
351.035
350.465
350.04
349.729
349.505
349.346
349.235
349.159
349.108
349.074
349.051
349.037
349.027
349.022
349.018
349.016
349.015
349.015
349.015
349.014
349.014
349.014
349.015
349.015
349.015
349.016
349.017
349.018
349.021
349.135
349.219
349.289
349.351
349.407
349.459
349.508
349.554
349.597
349.636
400
400
400
400
399.998
399.992
399.973
399.923
399.81
399.584
398.975
398.18
397.097
395.654
393.803
391.523
388.825
385.757
382.398
378.85
375.229
371.65
368.218
365.021
362.123
359.564
357.36
355.505
353.979
352.751
351.781
351.032
350.462
350.038
349.727
349.504
349.345
349.235
349.159
349.107
349.073
349.051
349.036
349.027
349.022
349.018
349.016
349.015
349.015
349.014
349.014
349.014
349.014
349.015
349.015
349.015
349.016
349.017
349.018
349.021
349.135
349.219
349.289
349.351
349.407
349.459
349.508
349.554
349.597
349.636
400
400
400
400
399.998
399.992
399.973
399.922
399.809
399.58
398.968
398.167
397.078
395.627
393.767
391.48
388.778
385.709
382.351
378.806
375.188
371.613
368.185
364.993
362.1
359.545
357.344
355.493
353.97
352.744
351.776
351.028
350.46
350.036
349.726
349.503
349.344
349.234
349.158
349.107
349.073
349.051
349.036
349.027
349.021
349.018
349.016
349.015
349.015
349.014
349.014
349.014
349.014
349.014
349.015
349.015
349.016
349.017
349.018
349.021
349.135
349.219
349.289
349.351
349.407
349.459
349.508
349.554
349.597
349.636
400
400
400
400
399.998
399.992
399.973
399.922
399.808
399.579
398.964
398.16
397.067
395.611
393.746
391.455
388.751
385.682
382.326
378.783
375.168
371.596
368.171
364.981
362.089
359.536
357.337
355.487
353.965
352.74
351.773
351.025
350.458
350.035
349.725
349.502
349.344
349.234
349.158
349.107
349.073
349.051
349.036
349.027
349.021
349.018
349.016
349.015
349.014
349.014
349.014
349.014
349.014
349.014
349.014
349.015
349.016
349.017
349.018
349.021
349.135
349.219
349.289
349.351
349.407
349.459
349.508
349.554
349.597
349.636
400
400
400
400
399.998
399.992
399.973
399.922
399.808
399.577
398.961
398.154
397.056
395.595
393.725
391.429
388.722
385.651
382.295
378.755
375.142
371.573
368.151
364.964
362.076
359.525
357.328
355.48
353.96
352.736
351.77
351.023
350.456
350.034
349.724
349.501
349.343
349.233
349.158
349.107
349.073
349.05
349.036
349.027
349.021
349.017
349.016
349.015
349.014
349.014
349.014
349.014
349.014
349.014
349.014
349.015
349.016
349.016
349.018
349.021
349.135
349.219
349.289
349.351
349.407
349.459
349.508
349.554
349.597
349.636
400
400
400
400
399.998
399.992
399.973
399.922
399.808
399.577
398.959
398.15
397.05
395.587
393.714
391.414
388.705
385.634
382.279
378.74
375.13
371.563
368.143
364.957
362.07
359.521
357.325
355.477
353.958
352.734
351.769
351.022
350.455
350.033
349.724
349.501
349.343
349.233
349.157
349.106
349.072
349.05
349.036
349.027
349.021
349.017
349.015
349.014
349.014
349.014
349.014
349.014
349.014
349.014
349.014
349.015
349.015
349.016
349.017
349.021
349.135
349.219
349.289
349.351
349.407
349.459
349.508
349.553
349.597
349.636
400
400
400
400
399.998
399.992
399.973
399.922
399.808
399.577
398.958
398.148
397.045
395.579
393.703
391.401
388.69
385.618
382.263
378.724
375.116
371.551
368.133
364.949
362.064
359.516
357.321
355.475
353.956
352.733
351.768
351.021
350.455
350.032
349.723
349.5
349.343
349.233
349.157
349.106
349.072
349.05
349.036
349.026
349.021
349.017
349.015
349.014
349.014
349.013
349.013
349.013
349.013
349.014
349.014
349.014
349.015
349.016
349.017
349.02
349.135
349.219
349.289
349.351
349.407
349.459
349.508
349.553
349.596
349.636
400
400
400
400
399.998
399.992
399.973
399.923
399.808
399.577
398.958
398.147
397.044
395.576
393.699
391.396
388.683
385.61
382.255
378.718
375.111
371.547
368.13
364.947
362.063
359.515
357.321
355.474
353.955
352.732
351.767
351.021
350.455
350.032
349.723
349.5
349.342
349.232
349.157
349.106
349.072
349.05
349.035
349.026
349.02
349.017
349.015
349.014
349.013
349.013
349.013
349.013
349.013
349.013
349.014
349.014
349.015
349.016
349.017
349.02
349.135
349.219
349.289
349.351
349.407
349.459
349.508
349.553
349.596
349.636
400
400
400
400
399.998
399.992
399.973
399.923
399.808
399.578
398.958
398.147
397.043
395.575
393.697
391.392
388.678
385.605
382.25
378.713
375.107
371.544
368.128
364.946
362.062
359.515
357.321
355.475
353.956
352.733
351.768
351.021
350.455
350.032
349.723
349.5
349.342
349.232
349.157
349.106
349.072
349.049
349.035
349.026
349.02
349.017
349.015
349.014
349.013
349.013
349.013
349.013
349.013
349.013
349.013
349.014
349.015
349.016
349.017
349.02
349.135
349.219
349.289
349.351
349.407
349.459
349.508
349.553
349.596
349.636
400
400
400
400
399.998
399.992
399.973
399.923
399.809
399.579
398.959
398.148
397.044
395.576
393.698
391.393
388.679
385.605
382.25
378.714
375.109
371.546
368.131
364.949
362.065
359.518
357.323
355.476
353.957
352.734
351.768
351.022
350.455
350.032
349.723
349.5
349.342
349.232
349.156
349.105
349.072
349.049
349.035
349.026
349.02
349.017
349.015
349.013
349.013
349.013
349.013
349.013
349.013
349.013
349.013
349.014
349.015
349.016
349.017
349.02
349.134
349.218
349.289
349.351
349.407
349.459
349.508
349.553
349.596
349.636
400
400
400
400
399.998
399.992
399.974
399.923
399.809
399.58
398.96
398.15
397.046
395.579
393.7
391.396
388.682
385.609
382.254
378.718
375.113
371.55
368.135
364.953
362.069
359.521
357.326
355.479
353.959
352.735
351.77
351.023
350.455
350.033
349.723
349.5
349.342
349.232
349.156
349.105
349.071
349.049
349.035
349.026
349.02
349.016
349.014
349.013
349.013
349.012
349.012
349.012
349.013
349.013
349.013
349.014
349.014
349.016
349.017
349.02
349.134
349.218
349.288
349.35
349.407
349.459
349.508
349.553
349.596
349.636
400
400
400
400
399.998
399.992
399.974
399.924
399.81
399.581
398.962
398.152
397.05
395.583
393.706
391.402
388.689
385.616
382.261
378.725
375.12
371.558
368.142
364.96
362.075
359.527
357.331
355.483
353.962
352.738
351.771
351.024
350.456
350.033
349.723
349.5
349.342
349.232
349.156
349.105
349.071
349.049
349.034
349.025
349.02
349.016
349.014
349.013
349.012
349.012
349.012
349.012
349.012
349.013
349.013
349.013
349.014
349.015
349.017
349.02
349.134
349.218
349.288
349.35
349.407
349.459
349.508
349.553
349.596
349.636
400
400
400
400
399.998
399.992
399.974
399.924
399.811
399.582
398.964
398.155
397.054
395.588
393.712
391.409
388.697
385.625
382.271
378.735
375.13
371.568
368.151
364.968
362.083
359.533
357.336
355.488
353.966
352.741
351.773
351.025
350.457
350.034
349.723
349.5
349.342
349.231
349.156
349.105
349.071
349.048
349.034
349.025
349.019
349.016
349.014
349.013
349.012
349.012
349.012
349.012
349.012
349.012
349.013
349.013
349.014
349.015
349.016
349.02
349.134
349.218
349.288
349.35
349.407
349.459
349.507
349.553
349.596
349.636
400
400
400
400
399.998
399.993
399.974
399.924
399.812
399.583
398.966
398.159
397.059
395.595
393.72
391.419
388.708
385.637
382.284
378.748
375.143
371.58
368.163
364.979
362.092
359.541
357.343
355.493
353.97
352.744
351.776
351.027
350.458
350.034
349.724
349.5
349.342
349.231
349.155
349.104
349.07
349.048
349.034
349.025
349.019
349.016
349.014
349.013
349.012
349.012
349.012
349.012
349.012
349.012
349.013
349.013
349.014
349.015
349.016
349.02
349.134
349.218
349.288
349.35
349.407
349.459
349.507
349.553
349.596
349.636
400
400
400
400
399.998
399.993
399.974
399.925
399.812
399.585
398.969
398.162
397.064
395.602
393.73
391.431
388.721
385.651
382.298
378.763
375.158
371.594
368.176
364.991
362.103
359.55
357.351
355.499
353.975
352.748
351.779
351.029
350.46
350.035
349.725
349.501
349.342
349.232
349.156
349.104
349.07
349.048
349.034
349.025
349.019
349.016
349.014
349.013
349.012
349.012
349.012
349.012
349.012
349.012
349.012
349.013
349.014
349.015
349.016
349.019
349.134
349.218
349.288
349.35
349.407
349.459
349.507
349.553
349.596
349.636
400
400
400
400
399.998
399.993
399.974
399.925
399.813
399.587
398.971
398.167
397.071
395.611
393.741
391.444
388.736
385.668
382.316
378.781
375.175
371.611
368.192
365.005
362.115
359.561
357.359
355.506
353.981
352.752
351.782
351.031
350.461
350.037
349.726
349.502
349.343
349.232
349.156
349.104
349.07
349.048
349.034
349.025
349.019
349.016
349.014
349.013
349.012
349.012
349.012
349.012
349.012
349.012
349.012
349.013
349.014
349.015
349.016
349.019
349.134
349.218
349.288
349.35
349.407
349.459
349.507
349.553
349.596
349.636
400
400
400
400
399.998
399.993
399.974
399.925
399.814
399.588
398.974
398.171
397.078
395.62
393.753
391.458
388.753
385.686
382.335
378.8
375.194
371.629
368.209
365.02
362.128
359.572
357.369
355.514
353.987
352.756
351.785
351.034
350.463
350.038
349.727
349.502
349.344
349.233
349.156
349.105
349.071
349.048
349.034
349.025
349.019
349.016
349.014
349.013
349.012
349.012
349.012
349.012
349.012
349.012
349.012
349.013
349.014
349.015
349.016
349.019
349.134
349.218
349.288
349.35
349.407
349.459
349.507
349.553
349.596
349.636
400
400
400
400
399.998
399.993
399.974
399.926
399.815
399.59
398.977
398.176
397.085
395.63
393.765
391.474
388.771
385.706
382.356
378.822
375.215
371.649
368.227
365.037
362.142
359.584
357.379
355.522
353.993
352.761
351.789
351.037
350.466
350.04
349.728
349.503
349.344
349.233
349.157
349.105
349.071
349.049
349.034
349.025
349.019
349.016
349.014
349.013
349.012
349.012
349.012
349.012
349.012
349.012
349.012
349.013
349.014
349.015
349.016
349.019
349.134
349.218
349.288
349.35
349.407
349.459
349.507
349.553
349.596
349.636
400
400
400
400
399.998
399.993
399.975
399.926
399.816
399.592
398.981
398.181
397.093
395.641
393.779
391.49
388.79
385.727
382.378
378.844
375.237
371.669
368.246
365.054
362.157
359.597
357.389
355.53
354
352.767
351.793
351.04
350.468
350.041
349.729
349.504
349.345
349.234
349.157
349.106
349.071
349.049
349.034
349.025
349.019
349.016
349.014
349.013
349.012
349.012
349.012
349.012
349.012
349.012
349.012
349.013
349.014
349.015
349.016
349.019
349.134
349.218
349.288
349.35
349.407
349.459
349.507
349.553
349.596
349.636
400
400
400
400
399.998
399.993
399.975
399.926
399.816
399.593
398.983
398.186
397.099
395.65
393.791
391.504
388.806
385.744
382.397
378.863
375.255
371.687
368.262
365.068
362.169
359.607
357.398
355.537
354.005
352.771
351.796
351.042
350.47
350.043
349.73
349.505
349.345
349.234
349.157
349.106
349.071
349.049
349.034
349.025
349.019
349.016
349.014
349.013
349.012
349.012
349.012
349.012
349.012
349.012
349.012
349.013
349.014
349.015
349.016
349.019
349.134
349.218
349.288
349.35
349.407
349.459
349.507
349.553
349.596
349.636
400
400
400
400
399.998
399.993
399.975
399.926
399.816
399.593
398.983
398.186
397.099
395.65
393.79
391.504
388.805
385.744
382.396
378.862
375.254
371.686
368.261
365.067
362.168
359.606
357.397
355.537
354.005
352.77
351.796
351.042
350.469
350.043
349.73
349.505
349.345
349.234
349.157
349.106
349.071
349.049
349.034
349.025
349.019
349.016
349.014
349.013
349.012
349.012
349.012
349.012
349.012
349.012
349.012
349.013
349.014
349.015
349.016
349.019
349.134
349.218
349.288
349.35
349.407
349.459
349.507
349.553
349.596
349.636
400
400
400
400
399.998
399.993
399.975
399.926
399.816
399.592
398.98
398.181
397.092
395.64
393.778
391.489
388.788
385.724
382.376
378.841
375.234
371.667
368.243
365.051
362.155
359.595
357.387
355.529
353.999
352.766
351.792
351.039
350.467
350.041
349.729
349.504
349.345
349.234
349.157
349.105
349.071
349.049
349.034
349.025
349.019
349.016
349.014
349.013
349.012
349.012
349.012
349.012
349.012
349.012
349.012
349.013
349.014
349.015
349.016
349.019
349.134
349.218
349.288
349.35
349.407
349.459
349.507
349.553
349.596
349.636
400
400
400
400
399.998
399.993
399.974
399.926
399.815
399.59
398.977
398.176
397.084
395.629
393.764
391.472
388.768
385.702
382.352
378.818
375.211
371.644
368.223
365.033
362.139
359.581
357.376
355.52
353.991
352.76
351.788
351.036
350.465
350.039
349.728
349.503
349.344
349.233
349.157
349.105
349.071
349.049
349.034
349.025
349.019
349.016
349.014
349.013
349.012
349.012
349.012
349.012
349.012
349.012
349.012
349.013
349.014
349.015
349.016
349.019
349.134
349.218
349.288
349.35
349.407
349.459
349.507
349.553
349.596
349.636
400
400
400
400
399.998
399.993
399.974
399.925
399.814
399.588
398.974
398.171
397.077
395.619
393.75
391.455
388.749
385.681
382.33
378.795
375.188
371.623
368.203
365.015
362.123
359.568
357.365
355.511
353.984
352.754
351.784
351.033
350.463
350.038
349.726
349.502
349.343
349.232
349.156
349.105
349.071
349.048
349.034
349.025
349.019
349.016
349.014
349.013
349.012
349.012
349.012
349.012
349.012
349.012
349.012
349.013
349.014
349.015
349.016
349.019
349.134
349.218
349.288
349.35
349.407
349.459
349.507
349.553
349.596
349.636
400
400
400
400
399.998
399.993
399.974
399.925
399.813
399.586
398.971
398.166
397.07
395.609
393.738
391.44
388.732
385.662
382.309
378.774
375.168
371.603
368.184
364.998
362.108
359.555
357.355
355.502
353.977
352.749
351.78
351.03
350.46
350.036
349.725
349.501
349.343
349.232
349.156
349.104
349.07
349.048
349.034
349.025
349.019
349.016
349.014
349.013
349.012
349.012
349.012
349.012
349.012
349.012
349.012
349.013
349.014
349.015
349.016
349.019
349.134
349.218
349.288
349.35
349.407
349.459
349.507
349.553
349.596
349.636
400
400
400
400
399.998
399.993
399.974
399.925
399.812
399.585
398.968
398.162
397.063
395.6
393.727
391.426
388.716
385.644
382.291
378.755
375.149
371.585
368.168
364.983
362.095
359.544
357.345
355.494
353.971
352.745
351.776
351.027
350.458
350.034
349.724
349.5
349.342
349.231
349.155
349.104
349.07
349.048
349.034
349.025
349.019
349.016
349.014
349.013
349.012
349.012
349.012
349.012
349.012
349.012
349.012
349.013
349.014
349.015
349.016
349.019
349.134
349.218
349.288
349.35
349.407
349.459
349.507
349.553
349.596
349.636
400
400
400
400
399.998
399.993
399.974
399.924
399.811
399.583
398.966
398.158
397.057
395.592
393.716
391.414
388.702
385.629
382.274
378.738
375.132
371.569
368.153
364.969
362.083
359.534
357.337
355.487
353.966
352.74
351.773
351.025
350.457
350.033
349.723
349.5
349.342
349.231
349.155
349.104
349.07
349.048
349.034
349.025
349.019
349.016
349.014
349.013
349.012
349.012
349.012
349.012
349.012
349.012
349.013
349.013
349.014
349.015
349.016
349.019
349.134
349.218
349.288
349.35
349.407
349.459
349.507
349.553
349.596
349.636
400
400
400
400
399.998
399.992
399.974
399.924
399.811
399.582
398.963
398.154
397.052
395.585
393.708
391.403
388.689
385.615
382.26
378.724
375.118
371.555
368.14
364.957
362.073
359.525
357.329
355.481
353.961
352.736
351.77
351.023
350.455
350.032
349.722
349.499
349.341
349.231
349.155
349.104
349.071
349.048
349.034
349.025
349.019
349.016
349.014
349.013
349.012
349.012
349.012
349.012
349.012
349.012
349.013
349.013
349.014
349.015
349.016
349.019
349.134
349.218
349.288
349.35
349.407
349.459
349.507
349.553
349.596
349.636
400
400
400
400
399.998
399.992
399.974
399.924
399.81
399.58
398.961
398.151
397.048
395.579
393.7
391.395
388.68
385.605
382.249
378.712
375.107
371.544
368.129
364.948
362.064
359.517
357.322
355.476
353.957
352.733
351.768
351.021
350.454
350.032
349.722
349.499
349.341
349.231
349.156
349.105
349.071
349.049
349.034
349.025
349.02
349.016
349.014
349.013
349.012
349.012
349.012
349.012
349.012
349.013
349.013
349.013
349.014
349.015
349.016
349.02
349.134
349.218
349.288
349.35
349.407
349.459
349.507
349.553
349.596
349.636
400
400
400
400
399.998
399.992
399.973
399.923
399.809
399.579
398.96
398.148
397.044
395.575
393.695
391.388
388.672
385.597
382.24
378.703
375.098
371.535
368.12
364.94
362.056
359.51
357.317
355.471
353.953
352.73
351.766
351.02
350.453
350.031
349.722
349.499
349.341
349.231
349.156
349.105
349.071
349.049
349.035
349.026
349.02
349.016
349.014
349.013
349.013
349.012
349.012
349.012
349.013
349.013
349.013
349.013
349.014
349.015
349.017
349.02
349.134
349.218
349.288
349.35
349.407
349.459
349.508
349.553
349.596
349.636
400
400
400
400
399.998
399.992
399.973
399.923
399.809
399.578
398.958
398.146
397.042
395.572
393.691
391.384
388.668
385.592
382.236
378.699
375.092
371.53
368.115
364.934
362.051
359.506
357.313
355.468
353.95
352.728
351.764
351.019
350.452
350.031
349.722
349.499
349.341
349.232
349.156
349.105
349.071
349.049
349.035
349.026
349.02
349.017
349.014
349.013
349.013
349.013
349.013
349.013
349.013
349.013
349.013
349.014
349.014
349.016
349.017
349.02
349.134
349.218
349.288
349.35
349.407
349.459
349.508
349.553
349.596
349.636
400
400
400
400
399.998
399.992
399.973
399.923
399.808
399.577
398.957
398.145
397.04
395.57
393.689
391.383
388.666
385.591
382.234
378.696
375.089
371.526
368.111
364.93
362.048
359.502
357.31
355.466
353.948
352.727
351.763
351.018
350.452
350.03
349.721
349.499
349.342
349.232
349.156
349.105
349.072
349.049
349.035
349.026
349.02
349.017
349.015
349.014
349.013
349.013
349.013
349.013
349.013
349.013
349.013
349.014
349.015
349.016
349.017
349.02
349.134
349.218
349.289
349.351
349.407
349.459
349.508
349.553
349.596
349.636
400
400
400
400
399.998
399.992
399.973
399.922
399.808
399.577
398.957
398.145
397.04
395.571
393.691
391.385
388.67
385.595
382.238
378.7
375.092
371.528
368.112
364.93
362.047
359.502
357.309
355.465
353.948
352.726
351.763
351.017
350.452
350.03
349.721
349.499
349.342
349.232
349.157
349.106
349.072
349.05
349.035
349.026
349.02
349.017
349.015
349.014
349.013
349.013
349.013
349.013
349.013
349.013
349.014
349.014
349.015
349.016
349.017
349.02
349.135
349.219
349.289
349.351
349.407
349.459
349.508
349.553
349.596
349.636
400
400
400
400
399.998
399.992
399.973
399.922
399.807
399.576
398.957
398.145
397.041
395.573
393.695
391.39
388.676
385.601
382.244
378.705
375.096
371.531
368.114
364.931
362.048
359.502
357.309
355.465
353.947
352.726
351.763
351.017
350.452
350.03
349.722
349.499
349.342
349.232
349.157
349.106
349.072
349.05
349.035
349.026
349.021
349.017
349.015
349.014
349.013
349.013
349.013
349.013
349.013
349.014
349.014
349.014
349.015
349.016
349.017
349.02
349.135
349.219
349.289
349.351
349.407
349.459
349.508
349.553
349.596
349.636
400
400
400
400
399.998
399.992
399.973
399.922
399.807
399.576
398.958
398.148
397.046
395.58
393.704
391.402
388.69
385.617
382.259
378.719
375.108
371.541
368.122
364.938
362.053
359.506
357.312
355.467
353.949
352.727
351.764
351.018
350.452
350.031
349.722
349.5
349.342
349.232
349.157
349.106
349.072
349.05
349.036
349.026
349.021
349.017
349.015
349.014
349.014
349.014
349.014
349.014
349.014
349.014
349.014
349.014
349.015
349.016
349.017
349.02
349.135
349.219
349.289
349.351
349.407
349.459
349.508
349.553
349.597
349.636
400
400
400
400
399.998
399.992
399.973
399.922
399.807
399.577
398.959
398.151
397.051
395.588
393.715
391.416
388.706
385.633
382.274
378.733
375.12
371.551
368.13
364.945
362.058
359.51
357.315
355.469
353.951
352.729
351.765
351.019
350.453
350.031
349.722
349.5
349.343
349.233
349.157
349.106
349.072
349.05
349.036
349.027
349.021
349.017
349.016
349.014
349.014
349.014
349.014
349.014
349.014
349.014
349.014
349.015
349.015
349.016
349.017
349.02
349.135
349.219
349.289
349.351
349.407
349.459
349.508
349.554
349.597
349.636
400
400
400
400
399.998
399.992
399.973
399.922
399.808
399.578
398.963
398.157
397.062
395.603
393.736
391.441
388.735
385.663
382.304
378.76
375.145
371.573
368.149
364.961
362.071
359.521
357.324
355.476
353.956
352.733
351.768
351.021
350.455
350.033
349.723
349.501
349.343
349.233
349.158
349.107
349.073
349.05
349.036
349.027
349.021
349.018
349.016
349.015
349.014
349.014
349.014
349.014
349.014
349.014
349.014
349.015
349.016
349.017
349.018
349.02
349.135
349.219
349.289
349.351
349.407
349.459
349.508
349.554
349.597
349.636
400
400
400
400
399.998
399.992
399.973
399.922
399.808
399.579
398.967
398.164
397.072
395.619
393.756
391.466
388.761
385.689
382.329
378.782
375.164
371.59
368.163
364.972
362.081
359.529
357.331
355.482
353.961
352.736
351.77
351.023
350.456
350.034
349.724
349.501
349.344
349.234
349.158
349.107
349.073
349.051
349.036
349.027
349.021
349.018
349.016
349.015
349.015
349.014
349.014
349.014
349.014
349.014
349.015
349.015
349.016
349.017
349.018
349.021
349.135
349.219
349.289
349.351
349.407
349.459
349.508
349.554
349.597
349.636
400
400
400
400
399.998
399.992
399.973
399.923
399.81
399.582
398.974
398.176
397.091
395.645
393.791
391.508
388.807
385.736
382.375
378.826
375.205
371.626
368.195
365
362.105
359.548
357.346
355.494
353.97
352.743
351.776
351.027
350.459
350.036
349.726
349.502
349.344
349.234
349.158
349.107
349.073
349.051
349.036
349.027
349.022
349.018
349.016
349.015
349.015
349.014
349.014
349.014
349.014
349.015
349.015
349.015
349.016
349.017
349.018
349.021
349.135
349.219
349.289
349.351
349.407
349.459
349.508
349.554
349.597
349.636
400
400
400
400
399.998
399.992
399.973
399.923
399.811
399.585
398.979
398.186
397.106
395.667
393.818
391.537
388.837
385.765
382.401
378.849
375.224
371.643
368.21
365.013
362.116
359.559
357.356
355.502
353.977
352.749
351.78
351.03
350.462
350.038
349.727
349.503
349.345
349.235
349.159
349.108
349.073
349.051
349.037
349.027
349.022
349.018
349.016
349.015
349.015
349.015
349.014
349.014
349.014
349.015
349.015
349.015
349.016
349.017
349.018
349.02
349.135
349.219
349.289
349.351
349.407
349.459
349.508
349.554
349.597
349.636
400
400
400
400
399.998
399.992
399.973
399.924
399.812
399.588
398.986
398.198
397.124
395.693
393.852
391.576
388.878
385.807
382.442
378.888
375.261
371.677
368.241
365.041
362.14
359.579
357.372
355.515
353.987
352.756
351.786
351.035
350.464
350.04
349.728
349.504
349.346
349.235
349.159
349.108
349.073
349.051
349.037
349.027
349.022
349.018
349.016
349.015
349.015
349.014
349.014
349.014
349.014
349.014
349.015
349.015
349.016
349.016
349.017
349.02
349.135
349.219
349.289
349.351
349.407
349.459
349.508
349.554
349.597
349.636
400
400
400
400
399.998
399.992
399.973
399.923
399.81
399.583
398.975
398.179
397.097
395.655
393.801
391.512
388.8
385.716
382.344
378.787
375.161
371.583
368.156
364.967
362.078
359.528
357.331
355.483
353.962
352.737
351.77
351.023
350.456
350.033
349.723
349.5
349.342
349.232
349.157
349.106
349.072
349.05
349.035
349.026
349.021
349.017
349.015
349.014
349.014
349.013
349.013
349.013
349.013
349.013
349.013
349.014
349.014
349.015
349.016
349.019
349.134
349.218
349.288
349.35
349.407
349.459
349.508
349.554
349.597
349.636
400
400
400
400
399.998
399.992
399.972
399.919
399.798
399.555
398.916
398.075
396.933
395.425
393.502
391.146
388.374
385.243
381.838
378.268
374.647
371.088
367.694
364.547
361.705
359.205
357.057
355.254
353.775
352.587
351.652
350.931
350.384
349.978
349.682
349.469
349.318
349.214
349.142
349.094
349.062
349.041
349.027
349.019
349.013
349.01
349.008
349.007
349.007
349.006
349.006
349.006
349.006
349.006
349.006
349.006
349.007
349.008
349.009
349.011
349.128
349.214
349.285
349.348
349.406
349.459
349.508
349.555
349.598
349.638
400
400
400
400
399.998
399.991
399.967
399.902
399.752
399.446
398.678
397.646
396.249
394.425
392.154
389.455
386.38
383.01
379.441
375.789
372.172
368.696
365.45
362.499
359.885
357.625
355.717
354.141
352.869
351.863
351.083
350.49
350.047
349.722
349.488
349.321
349.205
349.125
349.071
349.035
349.012
348.997
348.987
348.981
348.977
348.975
348.974
348.973
348.973
348.972
348.972
348.972
348.972
348.972
348.972
348.973
348.973
348.974
348.974
348.978
349.105
349.199
349.277
349.345
349.407
349.464
349.516
349.565
349.611
349.652
400
400
400
400
399.998
399.988
399.955
399.861
399.637
399.177
398.071
396.575
394.558
391.971
388.843
385.267
381.384
377.356
373.35
369.506
365.935
362.715
359.892
357.483
355.48
353.853
352.562
351.561
350.799
350.231
349.816
349.518
349.307
349.161
349.062
348.994
348.95
348.921
348.902
348.89
348.883
348.879
348.876
348.874
348.873
348.873
348.873
348.873
348.873
348.873
348.873
348.873
348.873
348.873
348.873
348.873
348.874
348.875
348.875
348.881
349.061
349.184
349.282
349.365
349.438
349.502
349.561
349.613
349.662
349.704
400
400
400
400
399.998
399.99
399.961
399.879
399.681
399.268
398.306
396.922
395.023
392.558
389.546
386.07
382.258
378.271
374.272
370.404
366.784
363.495
360.59
358.092
355.998
354.286
352.918
351.849
351.03
350.416
349.964
349.637
349.405
349.243
349.132
349.057
349.007
348.974
348.953
348.939
348.931
348.925
348.922
348.92
348.919
348.919
348.918
348.918
348.918
348.918
348.918
348.918
348.918
348.918
348.919
348.919
348.919
348.92
348.92
348.925
349.066
349.18
349.275
349.357
349.43
349.494
349.552
349.605
349.654
349.697
400
400
400
400
399.998
399.992
399.972
399.917
399.787
399.52
398.883
397.963
396.689
395.005
392.887
390.343
387.417
384.175
380.708
377.118
373.522
370.026
366.723
363.685
360.961
358.579
356.543
354.842
353.453
352.342
351.471
350.8
350.294
349.918
349.644
349.448
349.31
349.213
349.148
349.103
349.074
349.055
349.042
349.035
349.03
349.027
349.025
349.024
349.024
349.023
349.023
349.023
349.023
349.023
349.023
349.023
349.024
349.024
349.025
349.027
349.118
349.2
349.272
349.338
349.398
349.454
349.506
349.554
349.6
349.641
400
400
400
400
399.998
399.993
399.976
399.931
399.827
399.617
399.096
398.352
397.32
395.939
394.164
391.97
389.358
386.374
383.092
379.609
376.035
372.482
369.052
365.834
362.893
360.274
357.998
356.065
354.459
353.154
352.115
351.304
350.683
350.215
349.87
349.62
349.44
349.314
349.227
349.168
349.128
349.102
349.084
349.073
349.067
349.062
349.06
349.058
349.057
349.057
349.057
349.057
349.056
349.056
349.057
349.057
349.057
349.058
349.059
349.061
349.142
349.216
349.283
349.343
349.399
349.451
349.499
349.545
349.588
349.629
400
400
400
400
399.999
399.993
399.977
399.935
399.837
399.641
399.148
398.445
397.467
396.149
394.441
392.309
389.756
386.82
383.572
380.107
376.534
372.965
369.508
366.252
363.268
360.603
358.28
356.302
354.655
353.314
352.242
351.404
350.761
350.275
349.916
349.654
349.467
349.335
349.244
349.181
349.139
349.111
349.093
349.081
349.074
349.069
349.067
349.065
349.064
349.064
349.063
349.063
349.063
349.063
349.063
349.064
349.064
349.065
349.065
349.067
349.147
349.22
349.286
349.345
349.4
349.451
349.499
349.544
349.587
349.627
400
400
400
400
399.999
399.994
399.978
399.935
399.84
399.646
399.157
398.462
397.493
396.185
394.488
392.37
389.831
386.908
383.669
380.208
376.634
373.061
369.595
366.328
363.333
360.656
358.323
356.336
354.682
353.334
352.258
351.417