/*--------------------------------*- C++ -*----------------------------------*\
  =========                 |
  \\      /  F ield         | OpenFOAM: The Open Source CFD Toolbox
   \\    /   O peration     | Website:  https://openfoam.org
    \\  /    A nd           | Version:  12
     \\/     M anipulation  |
\*---------------------------------------------------------------------------*/
FoamFile
{
    format      ascii;
    class       volScalarField;
    location    "350/air";
    object      alphat;
}
// * * * * * * * * * * * * * * * * * * * * * * * * * * * * * * * * * * * * * //

dimensions      [1 -1 -1 0 0 0 0];

internalField   nonuniform List<scalar> 
243000
(
0.000185943
0.000186752
0.000183118
0.000177302
0.000170031
0.000161829
0.000153048
0.000143978
0.000134814
0.00012582
0.000117351
0.000109748
0.000102012
9.35535e-05
8.71178e-05
0.000117502
0.000152828
0.000171424
0.000181458
0.000182663
0.000180071
0.000176241
0.000171386
0.000166124
0.00016089
0.000155794
0.000151714
0.000148457
0.000151474
0.000157825
0.000732971
0.000716046
0.000686353
0.00065298
0.000618775
0.000584518
0.000550629
0.00051759
0.000485644
0.000455521
0.000427904
0.000403957
0.000379756
0.000355373
0.000350563
0.000497069
0.000607964
0.000675414
0.000712749
0.000717243
0.000707211
0.000693498
0.000676274
0.000658819
0.000642095
0.000627057
0.000616371
0.000609423
0.000618773
0.000640234
0.000971634
0.000983734
0.00097705
0.000962623
0.000943928
0.000921776
0.000896502
0.000868659
0.000838527
0.000807454
0.000776526
0.000747697
0.000713664
0.000676298
0.000691662
0.000968775
0.00114758
0.00125331
0.00130426
0.00129508
0.00125548
0.00120649
0.00115021
0.00109292
0.00103686
0.000984168
0.00093829
0.000899011
0.000878649
0.000875746
0.0010419
0.00105264
0.00104527
0.00103033
0.00101097
0.000988078
0.000962001
0.00093333
0.000902414
0.000870735
0.000839266
0.000809517
0.000773152
0.000733253
0.000766759
0.00105447
0.0012266
0.00133037
0.00138241
0.00137668
0.00133841
0.00128982
0.00123377
0.00117655
0.00112065
0.00106832
0.00102267
0.000984309
0.00096293
0.000961713
0.00109398
0.00110315
0.0010958
0.0010812
0.00106208
0.00103925
0.00101309
0.000984243
0.000953107
0.000921223
0.000889341
0.000858497
0.00081969
0.000777468
0.000827336
0.00111438
0.00127824
0.00137881
0.00143028
0.0014282
0.00139215
0.00134518
0.00129072
0.00123494
0.00118053
0.00112977
0.0010855
0.00104892
0.00102759
0.00102805
0.00113453
0.00114223
0.00113512
0.00112114
0.00110259
0.00108017
0.00105427
0.00102556
0.000994507
0.000962597
0.000930282
0.000898103
0.000856741
0.000812346
0.000877159
0.00115668
0.00131185
0.00140873
0.00145889
0.00146027
0.00142688
0.00138219
0.00133006
0.00127647
0.0012243
0.00117579
0.00113353
0.00109916
0.00107859
0.0010804
0.00116722
0.00117367
0.00116683
0.00115353
0.00113562
0.00111371
0.00108818
0.00105975
0.00102889
0.000996977
0.000964129
0.000930363
0.000886351
0.000839987
0.000918076
0.00118615
0.00133281
0.00142568
0.00147455
0.00147893
0.00144849
0.00140649
0.00135711
0.00130618
0.00125667
0.00121078
0.00117092
0.00113897
0.00111965
0.00112255
0.0011943
0.00119971
0.0011931
0.0011804
0.00116309
0.00114164
0.00111648
0.00108834
0.00105768
0.0010257
0.000992159
0.000956563
0.000909786
0.000861897
0.000951217
0.00120588
0.00134434
0.00143309
0.00148081
0.00148792
0.00146078
0.00142181
0.00137543
0.00132734
0.00128073
0.00123771
0.00120049
0.00117108
0.00115333
0.00115713
0.00121722
0.00122174
0.00121527
0.00120305
0.00118618
0.00116509
0.00114022
0.00111233
0.0010818
0.00104964
0.00101521
0.000977574
0.000927859
0.000879956
0.00097772
0.00121799
0.00134883
0.00143458
0.00148092
0.00148981
0.00146619
0.00143052
0.00138742
0.00134246
0.0012987
0.00125859
0.00122418
0.00119739
0.00118142
0.001186
0.00123687
0.00124059
0.00123417
0.00122225
0.00120566
0.00118479
0.00116012
0.00113237
0.00110187
0.00106938
0.00103389
0.000993912
0.000941269
0.000898182
0.000999878
0.00122394
0.00134881
0.00143068
0.00147547
0.00148634
0.00146529
0.0014335
0.0013941
0.00135252
0.00131203
0.00127487
0.00124333
0.00121921
0.00120514
0.00121044
0.00125375
0.00125671
0.00125023
0.00123846
0.00122199
0.0012012
0.00117661
0.0011489
0.00111832
0.00108535
0.00104856
0.00100595
0.000950879
0.000915807
0.00102018
0.00122526
0.00134391
0.0014224
0.00146604
0.00147871
0.00146062
0.00143181
0.00139646
0.00135854
0.00132146
0.00128752
0.00125882
0.0012374
0.00122531
0.00123127
0.00126813
0.00127032
0.00126369
0.00125193
0.00123543
0.0012146
0.00118997
0.00116219
0.00113141
0.00109779
0.00105939
0.001014
0.000959592
0.000932753
0.00103809
0.00122267
0.00133534
0.00141074
0.00145337
0.00146775
0.00145254
0.00142684
0.00139501
0.00136114
0.00132759
0.00129699
0.0012712
0.00125247
0.00124239
0.00124897
0.00128004
0.00128144
0.0012746
0.00126273
0.00124609
0.00122507
0.00120029
0.00117232
0.00114117
0.00110667
0.0010665
0.00101905
0.0009688
0.000949117
0.00105384
0.00122016
0.00132424
0.00139638
0.00143799
0.00145396
0.00144152
0.00141916
0.00139062
0.00136033
0.00133074
0.00130356
0.00128083
0.00126467
0.00125659
0.00126373
0.00128935
0.00128996
0.00128288
0.00127079
0.00125387
0.00123264
0.00120765
0.00117942
0.00114782
0.00111238
0.00107072
0.00102391
0.000978217
0.00096494
0.00106768
0.00121789
0.0013143
0.00138117
0.00142064
0.00143779
0.0014279
0.00140866
0.00138359
0.00135676
0.00133077
0.00130729
0.00128774
0.00127406
0.0012679
0.00127554
0.00129582
0.00129568
0.00128831
0.001276
0.00125884
0.00123739
0.00121217
0.00118365
0.00115156
0.00111536
0.00107377
0.00102924
0.0009877
0.00098019
0.00107978
0.00121565
0.00130523
0.00136762
0.00140487
0.00142113
0.00141231
0.00139583
0.00137399
0.00135044
0.00132789
0.00130789
0.00129175
0.0012806
0.00127622
0.00128426
0.00129918
0.00129835
0.0012908
0.00127832
0.00126096
0.00123932
0.00121391
0.00118515
0.00115276
0.00111696
0.00107721
0.00103486
0.000997073
0.000994794
0.00109024
0.00121336
0.00129676
0.0013553
0.00139055
0.00140616
0.00139866
0.00138347
0.00136334
0.00134174
0.0013223
0.00130532
0.00129238
0.00128411
0.00128136
0.00128966
0.0012991
0.00129797
0.00129039
0.00127782
0.00126031
0.00123852
0.00121299
0.00118435
0.00115321
0.00111885
0.00108079
0.00104057
0.00100623
0.00100854
0.00109914
0.00121091
0.00128875
0.00134372
0.00137729
0.00139239
0.00138615
0.00137229
0.00135387
0.00133421
0.00131611
0.0013002
0.00128971
0.00128391
0.0012829
0.00129171
0.00129549
0.00129403
0.00128659
0.00127411
0.00125658
0.00123553
0.00121109
0.00118372
0.00115379
0.00112078
0.00108434
0.00104621
0.0010151
0.00102122
0.00110654
0.00120816
0.0012809
0.00133264
0.00136473
0.00137945
0.00137435
0.00136192
0.00134516
0.00132729
0.00131051
0.00129578
0.00128576
0.00128036
0.00128057
0.00129004
0.00128842
0.0012875
0.00128098
0.00126934
0.00125278
0.00123263
0.00120922
0.00118305
0.00115428
0.00112258
0.00108772
0.00105164
0.00102357
0.00103276
0.00111247
0.00120497
0.00127299
0.00132181
0.00135253
0.00136697
0.00136289
0.00135189
0.00133678
0.00132059
0.00130511
0.00129153
0.00128199
0.00127664
0.0012759
0.00128447
0.00128182
0.00128117
0.00127536
0.00126448
0.00124882
0.00122955
0.00120716
0.00118213
0.00115451
0.00112411
0.00109082
0.00105677
0.00103153
0.00104304
0.00111696
0.0012012
0.00126481
0.00131094
0.00134041
0.00135463
0.00135147
0.00134186
0.00132835
0.00131371
0.00129949
0.00128699
0.00127794
0.00127269
0.00127125
0.00127779
0.00127507
0.00127452
0.00126933
0.00125916
0.00124443
0.00122608
0.00120471
0.00118082
0.00115441
0.00112527
0.00109357
0.00106153
0.0010389
0.00105198
0.00112002
0.00119669
0.00125614
0.00129977
0.0013281
0.00134213
0.0013398
0.00133151
0.00131953
0.00130634
0.00129332
0.00128178
0.00127322
0.00126808
0.00126615
0.00127108
0.00126768
0.0012672
0.0012626
0.00125316
0.00123938
0.00122201
0.00120171
0.001179
0.00115383
0.001126
0.00109593
0.00106587
0.00104562
0.00105954
0.00112157
0.00119129
0.00124678
0.00128805
0.00131532
0.00132917
0.00132759
0.00132058
0.00131005
0.0012982
0.00128633
0.00127568
0.00126756
0.00126251
0.00126019
0.00126379
0.00125929
0.00125891
0.00125495
0.00124627
0.00123343
0.00121718
0.00119807
0.0011766
0.00115274
0.00112631
0.00109788
0.00106978
0.00105166
0.00106568
0.00112157
0.0011849
0.00123659
0.00127557
0.00130183
0.00131548
0.00131459
0.00130878
0.00129964
0.00128904
0.00127824
0.00126844
0.00126075
0.00125571
0.00125305
0.00125548
0.00124957
0.00124944
0.00124616
0.00123833
0.00122652
0.00121144
0.00119368
0.00117357
0.00115111
0.00112623
0.00109951
0.00107334
0.00105706
0.0010705
0.00112033
0.0011775
0.00122548
0.00126224
0.00128745
0.00130084
0.00130056
0.00129588
0.00128801
0.00127858
0.00126881
0.0012598
0.0012525
0.00124745
0.00124444
0.00124578
0.00123826
0.00123854
0.00123608
0.00122924
0.00121855
0.0012048
0.00118849
0.00116991
0.00114903
0.00112592
0.00110111
0.00107687
0.00106217
0.00107441
0.00111817
0.00116941
0.00121365
0.00124815
0.00127222
0.00128522
0.00128544
0.00128177
0.00127508
0.00126678
0.00125798
0.00124971
0.00124275
0.00123764
0.00123424
0.00123446
0.00122517
0.00122607
0.00122461
0.00121894
0.00120959
0.0011974
0.0011828
0.00116597
0.00114715
0.00112637
0.00110365
0.00108167
0.00106846
0.001079
0.00111664
0.001162
0.00120229
0.00123427
0.00125688
0.00126922
0.00126971
0.00126682
0.00126111
0.00125377
0.00124582
0.00123816
0.00123145
0.00122617
0.00122228
0.0012214
0.00121064
0.00121248
0.00121233
0.00120814
0.00120064
0.00119063
0.00117849
0.00116452
0.00114864
0.00113081
0.00111147
0.00109288
0.00108145
0.00109004
0.00112135
0.00116035
0.00119592
0.00122455
0.00124483
0.00125573
0.00125603
0.00125334
0.00124808
0.00124122
0.00123369
0.00122624
0.00121944
0.0012137
0.00120908
0.00120709
0.00119847
0.00120224
0.00120427
0.00120294
0.00119907
0.00119338
0.00118613
0.00117748
0.00116731
0.00115552
0.00114234
0.00112944
0.00112125
0.00112752
0.00115157
0.00118223
0.00121063
0.00123344
0.00124921
0.00125686
0.00125585
0.00125201
0.00124577
0.00123802
0.00122957
0.00122103
0.00121291
0.00120553
0.00119917
0.00119534
0.0012267
0.00123456
0.00124206
0.00124791
0.00125282
0.00125719
0.00126026
0.00126199
0.00126202
0.00126021
0.00125631
0.00125144
0.00124745
0.00125026
0.00126321
0.00128047
0.00129624
0.00130891
0.00131675
0.00131883
0.00131475
0.00130826
0.00129962
0.00128944
0.00127835
0.00126672
0.00125508
0.00124354
0.00123277
0.00122461
0.00151023
0.00152062
0.00153077
0.00154073
0.00155145
0.00156181
0.00156775
0.00157085
0.00157117
0.0015691
0.0015649
0.00155971
0.0015531
0.00154806
0.00154495
0.00154419
0.00154458
0.00154679
0.001549
0.0015503
0.00155031
0.00155063
0.00155034
0.00154873
0.00154558
0.00154071
0.00153438
0.00152661
0.00151808
0.00150977
0.0002329
0.000233256
0.000227424
0.000218758
0.000208249
0.000196636
0.000184381
0.000171894
0.00015944
0.000147567
0.000137005
0.000128908
0.000123697
0.000130696
0.000155016
0.0001875
0.000214221
0.000236135
0.000248141
0.00024921
0.00024599
0.000241066
0.000235087
0.000228925
0.000223081
0.000217808
0.000213771
0.000210342
0.000210032
0.00021048
0.00111561
0.00113597
0.00105399
0.000962229
0.000882711
0.000814666
0.000755521
0.000704676
0.000660191
0.000624145
0.000586379
0.000558462
0.000543731
0.000595637
0.000705264
0.000849773
0.00099076
0.00112256
0.00118827
0.00116781
0.00112405
0.00107444
0.00102052
0.000972211
0.000929091
0.000891788
0.000862578
0.000833604
0.000804857
0.000794445
0.00194023
0.00207849
0.00201484
0.00188455
0.00174641
0.00161649
0.00149823
0.00139446
0.0013037
0.0012278
0.00114772
0.00108241
0.0010342
0.00111842
0.00130248
0.001575
0.00182834
0.00205209
0.00218053
0.00216357
0.002087
0.00199584
0.00189661
0.00180645
0.00172497
0.00165896
0.00160921
0.00156137
0.00151128
0.00150931
0.00265753
0.00290607
0.00288983
0.00275572
0.00258325
0.00240456
0.00223361
0.00207971
0.00194362
0.00182446
0.00170353
0.0016007
0.00151884
0.00162802
0.00186423
0.00223347
0.0025685
0.00284947
0.00302672
0.00303061
0.00293649
0.00281877
0.00268983
0.00257384
0.00247157
0.00238899
0.00232612
0.00226324
0.00220152
0.00222266
0.0033066
0.00363061
0.00366698
0.00354223
0.00335159
0.00313746
0.00292405
0.00272917
0.00254789
0.00239144
0.00223589
0.00209749
0.00198772
0.00211464
0.00238467
0.00281732
0.00320492
0.0035229
0.00373344
0.00376652
0.00366775
0.00353661
0.00339173
0.00326197
0.00315311
0.00306402
0.0029986
0.00293506
0.00287127
0.00291814
0.00391368
0.00428075
0.00435752
0.00424286
0.00404308
0.00380451
0.00355902
0.00332574
0.00311215
0.00292311
0.00273897
0.00256856
0.00243814
0.002574
0.00286548
0.00333314
0.00374914
0.00409042
0.00432462
0.00438898
0.004297
0.0041634
0.00401385
0.00388027
0.00377364
0.00368574
0.00362336
0.00356812
0.00351122
0.00358312
0.00448727
0.00486614
0.00495826
0.00486057
0.00465787
0.00440379
0.00413512
0.00387324
0.00363265
0.00341701
0.00321008
0.00301195
0.00286817
0.00301508
0.00330795
0.00378823
0.00421473
0.00456541
0.00482282
0.00491542
0.00484114
0.00471479
0.00456952
0.00444019
0.00433968
0.00426047
0.00420484
0.00416124
0.00411637
0.00421018
0.0050283
0.00539378
0.00548821
0.00540063
0.00519949
0.00493604
0.00465088
0.00437001
0.00410848
0.003872
0.00364705
0.00342568
0.00327664
0.00342135
0.0037127
0.00418932
0.00461254
0.00496254
0.00524083
0.00536031
0.00531447
0.0052047
0.00507028
0.00495045
0.00485983
0.00479322
0.00474766
0.00471786
0.00468851
0.00479998
0.00553466
0.00587021
0.00595544
0.00587267
0.00567157
0.00540329
0.00510851
0.00481491
0.00453884
0.00428698
0.00404765
0.00380796
0.00366793
0.00379019
0.00407967
0.00454204
0.00495076
0.00531328
0.00560008
0.00573378
0.00572108
0.00564357
0.00552671
0.00541745
0.00533945
0.00528673
0.00525439
0.00523986
0.0052279
0.00535244
0.00600186
0.00629639
0.00636444
0.00627919
0.0060778
0.00580812
0.00550885
0.00520828
0.00492333
0.00466088
0.0044106
0.00416249
0.00402865
0.00411843
0.00440873
0.00485086
0.00525187
0.00560311
0.0058931
0.0060487
0.00605636
0.00601927
0.00593481
0.00584697
0.00577963
0.00574145
0.00572497
0.0057264
0.00573226
0.00586501
0.00642416
0.00667111
0.00671673
0.00662329
0.00642112
0.00615256
0.00585317
0.00555062
0.00526162
0.00499299
0.00473523
0.00448539
0.00434978
0.00440739
0.00469295
0.00511799
0.00550755
0.00583974
0.00613366
0.00631074
0.00634635
0.00633132
0.00629015
0.00623118
0.00618156
0.00615616
0.00615668
0.00617394
0.00619654
0.00633228
0.00679602
0.00699221
0.00701135
0.00690758
0.00670464
0.00643916
0.00614313
0.00584262
0.00555367
0.0052835
0.00502144
0.00476979
0.00462328
0.00466288
0.00493831
0.00534632
0.00571529
0.00603367
0.00632601
0.00652373
0.00658463
0.00659713
0.00659128
0.00656572
0.00654021
0.00652952
0.00654518
0.00657669
0.0066136
0.00674687
0.00711323
0.00725757
0.00724938
0.00713432
0.00693102
0.00667035
0.00638055
0.00608546
0.00580091
0.00553201
0.00526951
0.00501635
0.00485926
0.00489424
0.0051522
0.00553595
0.00588745
0.0061885
0.00647371
0.00668891
0.00677243
0.00681486
0.00683266
0.0068463
0.00684738
0.00686005
0.00688664
0.00692827
0.00697541
0.00710071
0.00737078
0.00746535
0.00743099
0.00730529
0.00710243
0.00684828
0.00656741
0.00628113
0.00600404
0.00573923
0.0054802
0.00522315
0.00506222
0.00509352
0.00532788
0.00567903
0.00600697
0.00630503
0.00658039
0.00680591
0.00691013
0.00698018
0.00702138
0.00706169
0.00709702
0.007136
0.00717953
0.00722478
0.00727517
0.00738651
0.00756346
0.0076137
0.0075562
0.00742173
0.00722042
0.00697469
0.00670598
0.00643297
0.00616684
0.00591188
0.00565158
0.00539387
0.00523439
0.00525227
0.00545943
0.00577082
0.00606832
0.00635477
0.00662247
0.00687018
0.00699604
0.00708635
0.00715209
0.00721191
0.00727576
0.00734769
0.00741023
0.00746621
0.00751029
0.00759966
0.00768905
0.00770084
0.00762426
0.00748397
0.00728547
0.00705123
0.00679945
0.00654612
0.00629634
0.00604096
0.00577115
0.00551793
0.00536798
0.00537543
0.00554275
0.0058094
0.0060718
0.00633968
0.0065957
0.00685156
0.00699906
0.00712132
0.00721582
0.00729649
0.00738324
0.00747788
0.00756787
0.00763755
0.00768616
0.0077424
0.00775015
0.00772947
0.0076414
0.00750102
0.00731122
0.00709128
0.0068562
0.006618
0.00637052
0.0061109
0.00583975
0.00559518
0.00544641
0.00544326
0.00557482
0.0057942
0.00601436
0.00625469
0.00650261
0.00675846
0.00692876
0.00707847
0.0072034
0.00731013
0.00742148
0.00753505
0.00763663
0.00772589
0.00778803
0.00782852
0.00776041
0.00771273
0.00761647
0.00747934
0.00730037
0.0070869
0.00685858
0.00662563
0.00638319
0.00612508
0.00585929
0.00562561
0.0054766
0.00546027
0.00555517
0.00572691
0.00590798
0.00612085
0.00635038
0.00659591
0.00678842
0.00697899
0.00713047
0.00725998
0.00738792
0.00751503
0.00763407
0.0077345
0.00780176
0.00784308
0.00772597
0.00765043
0.00754044
0.00739703
0.00722051
0.00701725
0.00680022
0.00657621
0.00633961
0.0060876
0.00583238
0.00560967
0.00545849
0.00542668
0.00548531
0.00561074
0.00575382
0.00593803
0.00614582
0.0063748
0.00657592
0.00678499
0.00697201
0.00713747
0.00728767
0.0074283
0.00755953
0.00767112
0.00775157
0.00780149
0.00758092
0.00749175
0.00738291
0.00724522
0.00707779
0.00688934
0.00668615
0.00647247
0.00624506
0.00600281
0.00576178
0.00554821
0.00539326
0.00534423
0.00536816
0.00544988
0.00555686
0.00571294
0.00589618
0.00610722
0.00630884
0.00652987
0.00673268
0.00691797
0.00709059
0.00724832
0.00739204
0.00751363
0.00760384
0.00767409
0.00734178
0.00724879
0.00714939
0.00702639
0.00687964
0.00670846
0.00651933
0.00631878
0.00610451
0.00587436
0.00564894
0.00544138
0.0052829
0.00521527
0.00520716
0.00524957
0.00532248
0.00545155
0.00560934
0.00580181
0.00599991
0.00622523
0.00643831
0.00663632
0.00681792
0.00698395
0.00713471
0.00726358
0.0073631
0.00744893
0.00703102
0.00694504
0.00685785
0.00676085
0.00663159
0.00647685
0.00630584
0.00612264
0.00592143
0.00570431
0.00549179
0.00528864
0.00512745
0.00504143
0.00500517
0.00501394
0.00505569
0.00515944
0.00529226
0.00546581
0.00565788
0.00588288
0.00610171
0.00630448
0.00649124
0.00666223
0.00681717
0.00695008
0.00705377
0.00714035
0.00666581
0.00659602
0.00652976
0.00644776
0.00633795
0.00620557
0.00605369
0.00588463
0.00569472
0.00548912
0.00528516
0.00508593
0.00492344
0.00482192
0.00476303
0.00474528
0.0047675
0.00484094
0.00495043
0.00510447
0.00528976
0.00551025
0.00572904
0.00593157
0.00611932
0.00629161
0.00644772
0.00658132
0.00668689
0.0067689
0.00626234
0.00621765
0.00616728
0.00610213
0.00601063
0.00589589
0.00575859
0.00559949
0.00541672
0.00521854
0.00501862
0.00482355
0.00466203
0.00455218
0.00447851
0.00444309
0.00444927
0.00450373
0.00458774
0.00472191
0.00490013
0.00511163
0.00532054
0.00551849
0.00570456
0.00587559
0.00602837
0.00616074
0.00626688
0.0063462
0.00583244
0.00580796
0.00577678
0.00572531
0.00564418
0.00553904
0.00540835
0.00525213
0.00507104
0.00487497
0.00467677
0.00448771
0.00433081
0.00422644
0.00414834
0.00410693
0.0041058
0.00414168
0.00420739
0.00432343
0.0044893
0.00469004
0.00489317
0.00509002
0.00527556
0.00544597
0.00559619
0.00572326
0.00582109
0.00589014
0.0053701
0.00536341
0.00534245
0.0052951
0.00521674
0.00511184
0.00497936
0.00481982
0.00463836
0.00444481
0.00425295
0.00407753
0.00393682
0.003848
0.00378212
0.00374877
0.00374451
0.00377028
0.00382255
0.00392136
0.00406608
0.00424674
0.00443533
0.0046238
0.00480545
0.0049737
0.00512229
0.00524636
0.00533906
0.00540254
0.00485114
0.0048531
0.00483069
0.00477745
0.00469477
0.00458785
0.00445731
0.00430567
0.00413765
0.00396328
0.00379559
0.00365065
0.0035409
0.00347621
0.00343558
0.00341674
0.00341608
0.00343544
0.00347658
0.00355297
0.00366436
0.00381069
0.00396744
0.00412934
0.00429131
0.00444606
0.00458651
0.00470617
0.00479709
0.00486209
0.0042486
0.0042524
0.00422981
0.00418023
0.00410972
0.00402458
0.00392524
0.0038119
0.00368873
0.00356281
0.00344357
0.00334517
0.00327268
0.0032327
0.00321158
0.00320395
0.00320432
0.0032182
0.00324312
0.00329101
0.00336317
0.00346477
0.00357108
0.00368325
0.00379855
0.00391186
0.0040189
0.00411351
0.00418789
0.00424483
0.00369498
0.00371322
0.00371222
0.00369355
0.0036625
0.00362394
0.00357571
0.00351665
0.00344703
0.00337072
0.00329117
0.00322933
0.00318142
0.00315172
0.0031303
0.00312028
0.00312063
0.00313092
0.00314387
0.00316822
0.00320292
0.00324938
0.00330795
0.00337427
0.00344676
0.00351794
0.00358592
0.00363923
0.00367007
0.00368926
0.00336199
0.00339976
0.00341971
0.00342443
0.00341983
0.00340877
0.00338816
0.00336085
0.00332346
0.00327837
0.00323634
0.00320352
0.00317661
0.00316091
0.00314711
0.00314279
0.00314554
0.00315565
0.00316534
0.00317789
0.00319441
0.00321634
0.00324362
0.0032707
0.00329709
0.00331749
0.00333211
0.00334407
0.00335104
0.00335473
0.00026403
0.000262627
0.000256046
0.000246875
0.000235656
0.000223111
0.000209782
0.000196199
0.00018272
0.000170177
0.000159351
0.000153275
0.00015891
0.000181625
0.000209163
0.000239771
0.000265047
0.000287608
0.000299633
0.000299381
0.000294849
0.000288695
0.000281642
0.000274526
0.000267796
0.000261671
0.000256575
0.000251548
0.000247962
0.000243462
0.00135733
0.00146333
0.00139709
0.00129926
0.00120685
0.00112267
0.0010461
0.000977043
0.000914848
0.000863066
0.000800531
0.000765353
0.000798227
0.000934562
0.00110615
0.00131649
0.001488
0.0016496
0.00173154
0.00168787
0.00161233
0.0015258
0.00143589
0.00135575
0.00128567
0.00122525
0.00117349
0.00111445
0.0010398
0.000977061
0.00246754
0.00275318
0.00274064
0.00261137
0.00244945
0.00228407
0.0021261
0.00198249
0.00185491
0.00174865
0.00162442
0.00154126
0.0015712
0.00180623
0.00210595
0.00247749
0.00276958
0.00303072
0.00319708
0.00314907
0.00301987
0.00286416
0.00269987
0.00255108
0.00242203
0.00231221
0.00221831
0.00211502
0.00199728
0.00192879
0.00346253
0.00391272
0.00397991
0.00385414
0.00364853
0.00341763
0.00318639
0.00297366
0.00278563
0.0026267
0.0024471
0.00232494
0.00234981
0.00264463
0.00302537
0.00349812
0.00386942
0.0041847
0.00441618
0.00438664
0.0042288
0.00402923
0.00381611
0.00362232
0.0034564
0.00331852
0.00320698
0.00308839
0.00295816
0.00292104
0.00440754
0.00498513
0.0051115
0.00499301
0.00475813
0.0044765
0.00418528
0.00391342
0.00367332
0.00346688
0.00324502
0.00308542
0.00311366
0.00343538
0.00386045
0.00438902
0.00480549
0.00515506
0.00543155
0.0054315
0.00526496
0.00504172
0.00480056
0.00458178
0.00439812
0.00425005
0.00413845
0.00402264
0.00389821
0.00390999
0.0053294
0.00597954
0.00614445
0.00602826
0.00577159
0.00545105
0.0051136
0.00479364
0.00451038
0.00426389
0.00400642
0.00382084
0.00385616
0.00417944
0.00462194
0.00517377
0.00561054
0.0059813
0.00629186
0.00632594
0.00616886
0.00593844
0.00568538
0.00545678
0.00527021
0.0051255
0.00502188
0.0049211
0.00481535
0.00488118
0.00623362
0.00689837
0.00708147
0.00696243
0.00668857
0.00633928
0.00596735
0.00561184
0.00529396
0.00501484
0.00473031
0.00452844
0.0045713
0.00487987
0.00531961
0.00587145
0.00631129
0.00669027
0.00703296
0.00710175
0.00697333
0.00675068
0.00649781
0.00626984
0.0060915
0.00595999
0.00586924
0.00579129
0.00571358
0.00582988
0.00711161
0.00774193
0.0079234
0.00779848
0.00751046
0.00714103
0.00674553
0.00636536
0.00602331
0.00572107
0.00541362
0.00520442
0.00525347
0.00553772
0.00596082
0.006496
0.00692535
0.00732485
0.00767955
0.00776661
0.00769401
0.00749769
0.00725857
0.0070354
0.00687244
0.00676098
0.00668764
0.0066379
0.00659449
0.00675175
0.00794858
0.00850421
0.00865964
0.00854382
0.00824258
0.0078564
0.00744763
0.00705329
0.00669658
0.00637915
0.00605305
0.00584586
0.00589699
0.00615182
0.00654942
0.00705732
0.00747873
0.00787313
0.00824339
0.0083572
0.00830637
0.00816133
0.0079569
0.00776212
0.00761575
0.00752815
0.00747798
0.00745899
0.00745341
0.00763992
0.00872938
0.00919829
0.00931897
0.00919424
0.00888881
0.00849717
0.00807805
0.00767522
0.00731258
0.00698597
0.00664592
0.00644752
0.00649573
0.0067195
0.0070865
0.00756037
0.00797653
0.00834974
0.00873436
0.00887356
0.00885833
0.00875877
0.00859624
0.00843883
0.00831799
0.00825498
0.00823379
0.00824632
0.00827827
0.00848451
0.00944017
0.00981905
0.00989435
0.00975109
0.00944084
0.0090491
0.0086324
0.00823167
0.00787001
0.00753606
0.00719003
0.00700379
0.00704244
0.00723678
0.00757026
0.00800568
0.0084004
0.00876107
0.00915485
0.00932044
0.00934768
0.00929307
0.00917867
0.0090621
0.00897315
0.00893438
0.00894441
0.00898825
0.00905218
0.00926727
0.0100675
0.0103573
0.0103838
0.0102191
0.00990842
0.00952176
0.0091121
0.00871841
0.00836221
0.00802796
0.00768328
0.00751097
0.00753142
0.00769751
0.00799539
0.00839014
0.00875992
0.00910649
0.00950257
0.00969697
0.00976968
0.00975738
0.00969811
0.00962551
0.00956995
0.00955787
0.00959762
0.00966697
0.00975516
0.00996719
0.0106076
0.0108089
0.0107874
0.0106026
0.0102945
0.00991739
0.00951975
0.00913802
0.00879122
0.00845961
0.00812231
0.00796517
0.00795809
0.00809617
0.00835528
0.00870342
0.00905061
0.00938104
0.00977237
0.00999655
0.010112
0.0101468
0.0101442
0.0101181
0.0100978
0.0101167
0.010178
0.0102649
0.010367
0.0105664
0.0110483
0.0111703
0.0111062
0.0109059
0.0106018
0.0102381
0.00985655
0.00949053
0.00915678
0.00882697
0.00849885
0.00835713
0.00832813
0.00842556
0.00863992
0.00893472
0.00925062
0.00956685
0.0099533
0.0102084
0.0103642
0.0104501
0.010503
0.0105258
0.0105512
0.010604
0.0106751
0.0107689
0.0108745
0.0110444
0.0113833
0.0114401
0.0113419
0.0111315
0.0108339
0.010486
0.0101238
0.00977583
0.00945652
0.00913058
0.00880173
0.00866637
0.00863713
0.00868474
0.00884067
0.00907646
0.00935309
0.00965467
0.0100271
0.0103093
0.0105114
0.010652
0.0107565
0.0108371
0.0109151
0.011002
0.0110893
0.0111773
0.0112727
0.0113989
0.0116136
0.0116185
0.0114959
0.011281
0.0109934
0.0106629
0.0103222
0.00999193
0.00968134
0.00935976
0.00903391
0.00889201
0.00883832
0.00885374
0.00895169
0.00912259
0.00935444
0.00963823
0.00998806
0.0102911
0.0105369
0.0107347
0.0109018
0.0110496
0.0111747
0.0112942
0.0114033
0.0114997
0.0115709
0.0116494
0.0117426
0.011705
0.0115681
0.0113549
0.0110811
0.0107683
0.0104435
0.0101274
0.0098254
0.00950902
0.00918976
0.00903683
0.00895259
0.00892631
0.00896673
0.00907232
0.00925419
0.0095124
0.00983727
0.0101741
0.010468
0.0107254
0.0109466
0.0111418
0.0113187
0.0114711
0.0116025
0.0117124
0.0117864
0.0118252
0.0117934
0.0117121
0.0115621
0.0113494
0.011087
0.0107902
0.0104816
0.0101793
0.009885
0.00957271
0.00926458
0.0090944
0.0089753
0.0089035
0.00888476
0.00892794
0.00905465
0.00928175
0.00957798
0.00992041
0.0102442
0.0105755
0.0108743
0.011129
0.0113402
0.0115218
0.0116774
0.0118045
0.0118869
0.011917
0.0117587
0.0116344
0.0114727
0.011262
0.011008
0.0107266
0.010434
0.0101441
0.00985592
0.00954693
0.00925109
0.00905931
0.00890264
0.00878292
0.00870522
0.00868372
0.00875999
0.00894805
0.00921652
0.00955529
0.00989574
0.0102652
0.0106055
0.0109261
0.011204
0.0114299
0.0116127
0.0117551
0.0118481
0.0118964
0.0116144
0.0114615
0.0112958
0.0110852
0.0108418
0.0105745
0.0102966
0.0100171
0.00973292
0.00942675
0.00914006
0.00892738
0.00873139
0.00856357
0.00842958
0.00834779
0.00837562
0.00851899
0.00875842
0.00908858
0.00943721
0.00983088
0.0102091
0.0105648
0.0108816
0.0111619
0.0113936
0.0115725
0.0116909
0.0117551
0.0113358
0.0111851
0.0110196
0.0108145
0.0105816
0.0103284
0.0100633
0.00979161
0.00950903
0.00920581
0.00892337
0.00869149
0.00845877
0.00824553
0.00806085
0.00792553
0.00790832
0.0080053
0.00821272
0.00852801
0.00888073
0.00928774
0.00969609
0.010079
0.0104277
0.0107421
0.01101
0.011226
0.01138
0.0114811
0.0109278
0.0107963
0.0106354
0.0104404
0.0102204
0.00998062
0.00972583
0.0094591
0.00917547
0.00887591
0.00859247
0.00834173
0.00808275
0.00782994
0.00760363
0.00742476
0.00736733
0.00741957
0.00759172
0.0078849
0.00823785
0.00864803
0.00907744
0.00947694
0.00984472
0.010185
0.0104874
0.0107439
0.0109384
0.0110713
0.0103909
0.0102871
0.0101359
0.0099548
0.00974916
0.00952104
0.00927358
0.00900863
0.00872387
0.00842566
0.00813846
0.00787106
0.00759969
0.00731993
0.00706489
0.00685614
0.00676427
0.00677682
0.00691213
0.00717568
0.00752054
0.00792597
0.00836206
0.00876245
0.00914993
0.00950702
0.00982816
0.0101099
0.0103408
0.0105041
0.00972351
0.00964574
0.00951211
0.00934911
0.0091564
0.0089372
0.00869415
0.00842924
0.00814311
0.00784584
0.00755652
0.00728149
0.00700665
0.00672472
0.00645709
0.00623431
0.00611533
0.00609679
0.00619721
0.00642222
0.0067444
0.00713897
0.00756252
0.00798439
0.00838324
0.00875419
0.00908698
0.00938093
0.00962617
0.00980469
0.00892504
0.00886834
0.00875729
0.00860918
0.00842629
0.00821408
0.00797521
0.00771288
0.00743017
0.00713957
0.0068568
0.00658829
0.00632633
0.00606331
0.0058055
0.0055857
0.00544815
0.00540619
0.00548414
0.00566885
0.00594319
0.00630604
0.00671113
0.00712667
0.00752302
0.00789494
0.00823062
0.00853325
0.0087865
0.00896994
0.00798389
0.00795006
0.00785756
0.00772347
0.00755104
0.00735058
0.00712445
0.00687708
0.00661268
0.00634404
0.00608518
0.00584283
0.00561207
0.0053879
0.00516048
0.00495443
0.00482524
0.00479551
0.00486188
0.00500485
0.00521198
0.00548683
0.00583487
0.00622072
0.00659311
0.00694651
0.00726971
0.00756354
0.0078087
0.00799256
0.00691534
0.00690105
0.00682888
0.00671689
0.0065689
0.00639869
0.0062079
0.00600043
0.00577899
0.0055552
0.00534186
0.00514496
0.00495839
0.00478173
0.00459616
0.00443025
0.00434634
0.00432896
0.00437919
0.00448528
0.00463235
0.00482467
0.00505658
0.00533329
0.00565918
0.00596942
0.00625278
0.00651073
0.00672602
0.00689778
0.00582571
0.0058322
0.00579333
0.0057219
0.0056227
0.00550804
0.0053774
0.00523236
0.00507212
0.00490635
0.00474831
0.00460171
0.00445495
0.00431757
0.00418924
0.00407406
0.0040178
0.00401244
0.00404989
0.00412014
0.00422031
0.00435116
0.00450005
0.004662
0.00484907
0.00507187
0.00530372
0.00551005
0.00566769
0.00579778
0.00492217
0.00496461
0.00496824
0.00494103
0.00489495
0.00483612
0.00476258
0.00467472
0.00456617
0.00444293
0.00432487
0.00421828
0.00410549
0.00400488
0.00391443
0.00383527
0.00380475
0.00381468
0.00384668
0.00389173
0.00395601
0.00402966
0.00411477
0.00421097
0.00432208
0.00444667
0.0045629
0.00466461
0.0047804
0.00488309
0.00420762
0.00425075
0.00428326
0.00429573
0.0042971
0.00428266
0.00425222
0.00421023
0.00414176
0.00406415
0.00399082
0.003923
0.0038525
0.00379135
0.00374476
0.00372264