/*--------------------------------*- C++ -*----------------------------------*\
  =========                 |
  \\      /  F ield         | OpenFOAM: The Open Source CFD Toolbox
   \\    /   O peration     | Website:  https://openfoam.org
    \\  /    A nd           | Version:  12
     \\/     M anipulation  |
\*---------------------------------------------------------------------------*/
FoamFile
{
    format      ascii;
    class       volScalarField;
    location    "350/air";
    object      epsilon;
}
// * * * * * * * * * * * * * * * * * * * * * * * * * * * * * * * * * * * * * //

dimensions      [0 2 -3 0 0 0 0];

internalField   nonuniform List<scalar> 
243000
(
4.73111
5.58955
6.11492
6.40657
6.48293
6.3688
6.08885
5.67587
5.16111
4.59043
4.01955
3.49692
2.9343
2.32114
1.98942
5.31892
10.6775
14.3862
16.1773
15.429
13.6409
11.6661
9.67837
7.87391
6.33567
5.05753
4.0788
3.31658
3.02965
2.92806
3.57422
3.87827
3.9618
3.93791
3.84572
3.69477
3.49165
3.24769
2.97176
2.68415
2.40263
2.15201
1.87089
1.57693
1.64718
4.77581
8.17785
10.7299
11.9646
11.4021
10.0915
8.6809
7.26285
5.99822
4.9175
4.02486
3.33617
2.79715
2.52262
2.39573
4.28905
4.44982
4.36002
4.16982
3.93199
3.6623
3.36987
3.06606
2.75799
2.46237
2.18905
1.95288
1.69359
1.43863
1.66417
4.51988
7.22405
9.31703
10.4564
10.2015
9.27203
8.21776
7.11703
6.10715
5.21975
4.46982
3.87899
3.41585
3.18834
3.15274
5.28961
5.453
5.33963
5.11441
4.83258
4.51296
4.16615
3.80558
3.44017
3.09036
2.76595
2.4802
2.15501
1.8405
2.28606
5.77794
8.80429
11.1333
12.4391
12.2449
11.2257
10.0339
8.77743
7.61333
6.58408
5.71072
5.01559
4.4763
4.19125
4.17151
6.12434
6.2779
6.1537
5.91187
5.60522
5.25325
4.868
4.46512
4.05524
3.66171
3.29292
2.95931
2.56923
2.20129
2.88454
6.77612
9.95012
12.387
13.7682
13.6663
12.628
11.3783
10.0465
8.8006
7.69319
6.7495
5.99295
5.41147
5.089
5.09226
6.83268
6.97149
6.84279
6.59433
6.27417
5.90111
5.48838
5.05354
4.60896
4.17934
3.77043
3.38895
2.93495
2.51998
3.44214
7.54255
10.7468
13.2074
14.6062
14.6063
13.5959
12.343
10.9933
9.71878
8.58027
7.60649
6.8214
6.22339
5.88203
5.90811
7.4432
7.56671
7.4361
7.18616
6.85855
6.47095
6.03775
5.57819
5.10565
4.645
4.19847
3.76819
3.25147
2.79719
3.94308
8.10871
11.2651
13.6897
15.0808
15.1759
14.2257
13.0086
11.6813
10.4165
9.28135
8.30731
7.51894
6.92357
6.5788
6.62628
7.97772
8.0866
7.95471
7.70491
7.3723
6.9734
6.52392
6.04426
5.5483
5.05969
4.57659
4.0963
3.51822
3.03463
4.37625
8.50413
11.5593
13.9079
15.2777
15.4606
14.5972
13.4444
12.1667
10.9377
9.83032
8.87824
8.1059
7.52753
7.19182
7.25918
8.45164
8.54655
8.41262
8.16236
7.8248
7.4158
6.95218
6.45525
5.9386
5.42376
4.90413
4.37281
3.73441
3.24195
4.73879
8.75395
11.6766
13.9545
15.2869
15.5293
14.7721
13.7032
12.4975
11.3241
10.2578
9.34238
8.60093
8.05067
7.73363
7.81983
8.87468
8.95563
8.81805
8.56547
8.22175
7.80251
7.32575
6.81312
6.27733
5.73696
5.18063
4.59626
3.90127
3.45899
5.04101
8.87895
11.6786
13.8494
15.1292
15.4334
14.7608
13.8058
12.6926
11.5929
10.5877
9.71871
9.01902
8.50548
8.21464
8.31888
9.25169
9.31779
9.17456
8.91742
8.56583
8.13566
7.64605
7.11854
6.5645
5.99907
5.40491
4.76579
4.02551
3.67702
5.31925
8.90606
11.5583
13.6201
14.8534
15.2109
14.6353
13.7749
12.775
11.7633
10.8307
10.0221
9.37048
8.90045
8.64157
8.76316
9.58325
9.63286
9.48211
9.2184
8.85731
8.41547
7.91308
7.37109
6.7997
6.20868
5.57432
4.88188
4.14666
3.89462
5.57168
8.84815
11.3465
13.2994
14.486
14.8903
14.4131
13.6509
12.7547
11.848
10.9971
10.2577
9.66108
9.23963
9.017
9.15518
9.8661
9.89745
9.73804
9.46621
9.09438
8.63984
8.1246
7.56829
6.97891
6.36109
5.6872
4.95651
4.27534
4.1125
5.80004
8.77802
11.073
12.9083
14.046
14.4901
14.1067
13.4504
12.6548
11.848
11.092
10.4286
9.89378
9.52313
9.33945
9.49308
10.0936
10.1057
9.93739
9.65555
9.27158
8.80554
8.27839
7.70903
7.10286
6.46043
5.75547
5.03326
4.40876
4.32997
6.00542
8.7143
10.8254
12.4928
13.5574
14.0273
13.7296
13.1743
12.4824
11.7735
11.112
10.5336
10.0673
9.74806
9.60428
9.77152
10.2567
10.2502
10.0723
9.78152
9.38768
8.91186
8.37477
7.79444
7.17373
6.51332
5.80881
5.1178
4.54537
4.54518
6.18825
8.65558
10.6037
12.1324
13.115
13.5514
13.3012
12.8357
12.2432
11.6274
11.0571
10.5649
10.175
9.90999
9.80473
9.98291
10.3465
10.3225
10.138
9.84078
9.43978
8.95715
8.41337
7.82577
7.19731
6.54456
5.86862
5.20738
4.68329
4.75544
6.34864
8.59878
10.4002
11.8121
12.7235
13.1347
12.9266
12.5062
11.9696
11.4207
10.9332
10.5175
10.2042
10.0024
9.93342
10.1189
10.354
10.3209
10.1348
9.83466
9.42948
8.94328
8.39663
7.81317
7.20909
6.58102
5.93106
5.29889
4.82053
4.95695
6.48638
8.54064
10.2095
11.5186
12.369
12.7609
12.5903
12.2146
11.7315
11.2367
10.7872
10.404
10.1528
10.0097
9.97908
10.1752
10.276
10.234
10.0514
9.75382
9.34974
8.88298
8.36114
7.80402
7.22312
6.6182
5.99308
5.38985
4.9553
5.14646
6.60132
8.47784
10.0257
11.2424
12.0402
12.4166
12.2792
11.9485
11.5161
11.0702
10.6571
10.3052
10.0646
9.93678
9.93474
10.1446
10.1141
10.0849
9.92512
9.64951
9.26994
8.82463
8.32626
7.79379
7.23525
6.65288
6.05237
5.47822
5.08557
5.32126
6.69299
8.40707
9.84313
10.976
11.7275
12.0908
11.9824
11.6952
11.3111
10.9101
10.5319
10.2093
9.98088
9.85431
9.83109
10.021
9.96432
9.94138
9.79934
9.54343
9.18645
8.76242
8.2872
7.77861
7.2423
6.68258
6.10713
5.56239
5.20948
5.47879
6.76089
8.32514
9.65683
10.7126
11.4223
11.7742
11.6913
11.4448
11.1066
10.7466
10.402
10.1063
9.89084
9.76679
9.72842
9.87023
9.81169
9.79148
9.66494
9.42759
9.09358
8.69175
8.24003
7.75535
7.24257
6.70553
6.15591
5.64097
5.32545
5.61674
6.80467
8.22898
9.46196
10.4461
11.1176
11.4587
11.3983
11.1897
10.8939
10.5727
10.2597
9.98799
9.78566
9.66462
9.61564
9.71984
9.64566
9.62701
9.51521
9.29673
8.9868
8.60849
8.18155
7.72195
7.23396
6.72072
6.19785
5.71304
5.43201
5.73319
6.82068
8.11567
9.25436
10.1708
10.8066
11.1369
11.0966
10.9233
10.6671
10.3814
10.0987
9.8498
9.65944
9.54104
9.48413
9.55744
9.45823
9.44213
9.34597
9.14691
8.86079
8.50961
8.10975
7.67696
7.21534
6.7278
6.2327
5.77817
5.52814
5.82704
6.81159
7.98329
9.03131
9.88266
10.484
10.8028
10.7801
10.6395
10.4201
10.1676
9.91354
9.68628
9.5077
9.39072
9.32703
9.37354
9.24308
9.23257
9.15303
8.97534
8.71484
8.39196
8.02301
7.6195
7.18637
6.72769
6.26166
5.83732
5.614
5.89896
6.7792
7.83196
8.79141
9.57971
10.1461
10.4519
10.4445
10.3335
10.1476
9.92629
9.69938
9.49248
9.32502
9.2091
9.13863
9.16074
8.9958
8.99435
8.93389
8.78031
8.54769
8.25611
7.92023
7.54985
7.14853
6.72311
6.28955
5.89558
5.69449
5.95496
6.72989
7.66802
8.53986
9.26527
9.79472
10.0846
10.0892
10.0042
9.849
9.65713
9.45605
9.26837
9.11115
8.9952
8.91699
8.91497
8.71366
8.72591
8.68801
8.56197
8.36125
8.10581
7.80788
7.47451
7.11385
6.73122
6.33294
5.97381
5.79234
6.02018
6.69068
7.51758
8.30069
8.9604
9.4471
9.7155
9.72643
9.66115
9.53142
9.36499
9.18647
9.01529
8.86614
8.74828
8.66062
8.63587
8.40633
8.43823
8.42864
8.3362
8.17685
7.96886
7.72239
7.44602
7.14059
6.80947
6.46613
6.15765
5.99721
6.1899
6.75867
7.47457
8.16241
8.74604
9.17568
9.4075
9.41448
9.35558
9.23875
9.08663
8.92067
8.75725
8.60894
8.48348
8.38226
8.33495
8.15167
8.22279
8.25844
8.22606
8.14174
8.02069
7.86955
7.69244
7.48877
7.25901
7.01151
6.7842
6.66235
6.81836
7.28616
7.87805
8.44536
8.92021
9.25777
9.42128
9.3991
9.31559
9.17862
9.00876
8.82495
8.64052
8.46629
8.30885
8.17362
8.09028
8.72408
8.88755
9.04457
9.16719
9.26885
9.35847
9.4191
9.44921
9.44166
9.39319
9.30081
9.19606
9.12514
9.22305
9.53794
9.93732
10.3036
10.6038
10.7913
10.8388
10.7408
10.5863
10.3808
10.1406
9.88217
9.6153
9.35203
9.0956
8.85888
8.68034
16.1681
16.5038
16.834
17.1616
17.513
17.8595
18.0566
18.1557
18.1593
18.0794
17.9231
17.7451
17.5296
17.3781
17.2904
17.2714
17.2878
17.3655
17.4384
17.4813
17.4836
17.4968
17.4878
17.4339
17.3275
17.1642
16.9541
16.6985
16.4201
16.1514
9.34659
10.933
11.7506
12.0684
11.9469
11.4643
10.6877
9.70302
8.58467
7.45812
6.45715
5.75131
5.37748
6.69169
11.4073
20.0229
29.0628
37.3994
41.2317
39.0452
34.6583
29.7412
24.8655
20.4927
16.7758
13.707
11.3012
9.33552
8.01759
6.93966
6.57965
6.6904
6.96301
7.15601
7.16038
6.97724
6.63661
6.17918
5.65299
5.13128
4.7172
4.49555
4.64217
6.09007
9.73068
14.8211
19.6155
23.7557
25.735
24.8107
22.6115
19.9425
17.1932
14.6168
12.36
10.4478
8.90822
7.61384
6.78848
6.22574
6.4737
6.09081
6.08938
6.17287
6.1967
6.10805
5.90735
5.6161
5.26787
4.92623
4.67979
4.61106
4.93177
6.45748
9.73553
13.7294
17.3758
20.4275
21.9147
21.3569
19.8126
17.8131
15.6785
13.6181
11.7798
10.1627
8.83689
7.70897
7.02381
6.58752
6.53762
5.9205
5.781
5.7967
5.81695
5.77371
5.6496
5.45145
5.2038
4.9709
4.81451
4.82909
5.24412
6.78784
9.73141
13.0621
16.0778
18.5328
19.7442
19.3897
18.2196
16.6177
14.852
13.0992
11.4993
10.0683
8.88416
7.88387
7.24251
6.83061
6.55416
5.85571
5.63514
5.61318
5.62861
5.61147
5.53573
5.39602
5.22822
5.06381
4.96106
5.03035
5.49371
7.01064
9.62078
12.4589
15.0234
17.0648
18.0714
17.8426
16.9292
15.6158
14.1246
12.6118
11.193
9.91589
8.83781
7.92854
7.30428
6.89819
6.51696
5.81813
5.56021
5.51972
5.53026
5.52755
5.48264
5.39251
5.27182
5.1568
5.08848
5.1938
5.67052
7.13544
9.41766
11.8709
14.0741
15.8045
16.6452
16.4947
15.7655
14.6735
13.4016
12.0883
10.827
9.68633
8.70488
7.86908
7.2559
6.8515
6.44944
5.79931
5.54221
5.48285
5.48671
5.48984
5.46363
5.40569
5.31982
5.23773
5.19083
5.31759
5.78834
7.14668
9.15226
11.2952
13.202
14.6892
15.3945
15.2915
14.6972
13.7797
12.6881
11.5439
10.4295
9.40663
8.51547
7.74768
7.1509
6.74978
6.37459
5.79837
5.55493
5.48657
5.48041
5.48354
5.46848
5.42812
5.36564
5.30373
5.26898
5.40469
5.85425
7.0981
8.84996
10.7408
12.403
13.6975
14.2945
14.2189
13.7255
12.9475
12.0065
11.0074
10.0248
9.1089
8.30028
7.59455
7.02053
6.62707
6.30749
5.81053
5.58839
5.51461
5.50058
5.49964
5.48754
5.45657
5.4069
5.35501
5.32574
5.45878
5.86359
7.00062
8.52522
10.2175
11.6784
12.8195
13.3325
13.2714
12.8545
12.1899
11.3755
10.5016
9.63442
8.81707
8.0824
7.43318
6.88727
6.50645
6.25623
5.83482
5.63633
5.56127
5.53913
5.53098
5.51636
5.4875
5.44229
5.39261
5.36319
5.47562
5.83939
6.85757
8.21668
9.734
11.0312
12.0476
12.4972
12.4439
12.0845
11.5128
10.8056
10.0403
9.27415
8.54529
7.87636
7.27886
6.765
6.40115
6.22292
5.86899
5.69372
5.62014
5.58978
5.57216
5.55052
5.51803
5.47101
5.41767
5.38305
5.46332
5.79287
6.69038
7.92558
9.29826
10.4635
11.3759
11.7787
11.7303
11.4143
10.9168
10.3002
9.62864
8.95086
8.29966
7.68948
7.13982
6.6607
6.31733
6.20552
5.90998
5.75716
5.68564
5.64692
5.61818
5.58627
5.54585
5.49276
5.43089
5.38747
5.43614
5.73243
6.5199
7.66206
8.92067
9.97941
10.8022
11.1701
11.124
10.8403
10.4004
9.85843
9.26667
8.66551
8.08104
7.52402
7.01928
6.57648
6.25621
6.19949
5.95429
5.82218
5.75285
5.70592
5.66508
5.62077
5.56964
5.50716
5.43552
5.38022
5.40073
5.67429
6.38182
7.44883
8.62154
9.5922
10.3307
10.6693
10.6213
10.3582
9.96136
9.47761
8.95171
8.41581
7.88753
7.37926
6.91709
6.51122
6.21583
6.2001
5.99869
5.88504
5.81762
5.76285
5.70988
5.65246
5.5895
5.51764
5.43641
5.36915
5.37309
5.63212
6.28355
7.29212
8.40223
9.31152
9.97788
10.2845
10.2247
9.96831
9.59844
9.15651
8.68114
8.19824
7.71656
7.25301
6.83112
6.46202
6.19253
6.20447
6.04043
5.94299
5.87718
5.81535
5.75128
5.68179
5.60803
5.52896
5.44386
5.37288
5.36382
5.61385
6.22609
7.19613
8.26298
9.13166
9.74443
10.0261
9.94988
9.68191
9.31727
8.89829
8.45578
8.01125
7.56656
7.14267
6.75841
6.42506
6.18189
6.21029
6.07808
5.99483
5.93082
5.8635
5.79079
5.7121
5.63145
5.54957
5.46605
5.39654
5.38184
5.62004
6.20609
7.16422
8.20389
9.04672
9.62154
9.88412
9.8
9.51584
9.13939
8.71797
8.28492
7.85671
7.43816
7.04693
6.69609
6.39622
6.17949
6.21676
6.11251
6.04216
5.98118
5.91138
5.83509
5.75339
5.67183
5.59273
5.51312
5.44575
5.43061
5.67182
6.24853
7.20032
8.22509
9.06114
9.6156
9.85301
9.76293
9.45445
9.05751
8.61891
8.17812
7.74848
7.33872
6.96853
6.64331
6.37211
6.17969
6.22673
6.14819
6.09214
6.03766
5.97082
5.89824
5.82055
5.74318
5.66827
5.59348
5.52991
5.52115
5.77288
6.35325
7.30794
8.32666
9.15847
9.69715
9.92455
9.83432
9.49286
9.0478
8.5859
8.13082
7.69474
7.28613
6.92011
6.60532
6.3532
6.17907
6.25147
6.20287
6.16479
6.12146
6.06345
5.99721
5.92594
5.85511
5.78648
5.71818
5.66012
5.66303
5.93188
6.52703
7.49125
8.50962
9.3432
9.87125
10.0938
10.008
9.64567
9.16838
8.65594
8.15877
7.69886
7.28048
6.91095
6.59892
6.35203
6.18483
6.32547
6.30083
6.2788
6.24696
6.19963
6.14298
6.08146
6.02017
5.96064
5.90116
5.85118
5.87002
6.16068
6.77926
7.75654
8.77703
9.61487
10.1353
10.3585
10.2776
9.90122
9.39217
8.84353
8.30754
7.80874
7.36274
6.9759
6.65396
6.40457
6.23535
6.45804
6.45099
6.4447
6.42673
6.39391
6.35138
6.30364
6.25571
6.20935
6.16121
6.12411
6.16316
6.47709
7.12493
8.11535
9.13701
9.97783
10.4918
10.7188
10.6446
10.2583
9.72289
9.13744
8.56122
8.02618
7.5485
7.13597
6.79337
6.52625
6.34541
6.66175
6.66851
6.68034
6.68031
6.66715
6.64425
6.61635
6.58802
6.56099
6.52896
6.51178
6.57562
6.9129
7.59144
8.59158
9.60986
10.4479
10.9532
11.1849
11.1181
10.7262
10.1677
9.54751
8.93051
8.3543
7.83778
7.39112
7.01905
6.72684
6.53114
6.95757
6.97673
7.01083
7.03584
7.0501
7.05617
7.05837
7.06053
7.06375
7.05823
7.07267
7.16745
7.52661
8.23388
9.2382
10.2447
11.0678
11.5575
11.7893
11.7266
11.331
10.7511
10.0965
9.43749
8.81691
8.25561
7.76735
7.35745
7.03269
6.81533
7.37777
7.4111
7.47609
7.53827
7.59551
7.6485
7.70087
7.75505
7.80969
7.85422
7.92134
8.05943
8.43952
9.17045
10.1745
11.1569
11.941
12.4036
12.6191
12.5463
12.141
11.5343
10.8402
10.1334
9.46184
8.84719
8.30714
7.84839
7.48066
7.23205
7.98278
8.03996
8.15554
8.28056
8.41265
8.54962
8.69414
8.84545
8.99686
9.14253
9.30447
9.51513
9.92667
10.6672
11.6742
12.6157
13.3233
13.7265
13.8895
13.7709
13.3314
12.6768
11.9218
11.145
10.4014
9.7128
9.0996
8.57083
8.14063
7.84394
8.91465
9.02596
9.23819
9.48473
9.76351
10.0674
10.3973
10.7436
11.0977
11.4507
11.7978
12.1472
12.6211
13.3604
14.3694
15.2324
15.803
16.0712
16.1062
15.867
15.333
14.5826
13.712
12.8033
11.9242
11.1028
10.3618
9.7121
9.17572
8.79578
10.6087
10.8581
11.2758
11.7841
12.3753
13.0353
13.7532
14.5065
15.2893
16.0586
16.7652
17.3728
17.9547
18.674
19.6026
20.2741
20.5669
20.5753
20.3406
19.8734
19.1481
18.2157
17.1455
15.9976
14.847
13.7486
12.7387
11.8375
11.0835
10.5307
14.3992
15.0082
15.8976
16.9795
18.2329
19.6201
21.1127
22.632
24.1653
25.6173
26.8504
27.7573
28.3352
28.7992
29.2452
29.3229
28.994
28.4809
27.7899
27.0531
26.2172
25.2256
24.0126
22.6191
21.1178
19.5589
18.026
16.5991
15.3618
14.4055
24.2079
25.608
27.3624
29.3474
31.5469
33.8609
36.2048
38.472
40.5558
42.3041
43.3276
43.5959
43.1883
42.3129
40.951
39.2421
37.4751
35.916
34.5753
33.7442
33.4685
33.5593
33.4269
33.0215
32.2685
31.1151
29.6092
27.8079
25.923
24.3089
38.5951
41.2919
43.7553
45.8237
47.6839
49.2741
50.461
51.2583
51.5797
51.3526
50.1148
48.1894
45.7645
42.971
39.5898
36.3236
33.7606
31.8143
30.3381
29.636
29.6946
30.5339
31.857
33.3838
34.9324
36.3695
37.5244
38.0972
38.0473
38.037
13.6032
15.6193
16.7988
17.3834
17.353
16.789
15.784
14.472
12.9679
11.4923
10.2253
9.7677
11.5462
17.7884
27.5849
41.364
54.7055
67.3875
72.4197
67.5554
59.5636
50.9614
42.6373
35.2229
28.9067
23.6617
19.4473
15.8934
13.1429
10.7136
8.28935
8.2472
8.67566
9.0871
9.25377
9.16404
8.85226
8.37821
7.80624
7.23226
6.80858
6.89088
8.52662
12.5573
18.0873
24.672
30.5648
35.5024
37.2699
35.3733
32.0517
28.2499
24.4385
20.8752
17.7181
14.9951
12.7553
10.8351
9.49999
8.30384
7.74641
7.14914
7.18815
7.40496
7.55696
7.5731
7.44586
7.19926
6.87942
6.55949
6.38381
6.68266
8.3038
11.6883
16.0163
20.8242
25.0675
28.4333
29.5313
28.2799
26.0437
23.3751
20.6229
17.9736
15.5655
13.4316
11.6563
10.1121
9.03575
8.12331
7.55051
6.72213
6.58839
6.69736
6.82355
6.88041
6.84461
6.71775
6.53354
6.35558
6.32113
6.73958
8.30545
11.286
14.8981
18.7544
22.1258
24.6915
25.4836
24.5811
22.901
20.8215
18.6231
16.4599
14.4555
12.6431
11.1019
9.75129
8.7795
7.98945
7.33328
6.44475
6.24975
6.30662
6.41408
6.49003
6.50642
6.45518
6.35881
6.27657
6.3288
6.83905
8.31768
10.9536
14.024
17.2117
19.9717
21.9995
22.5965
21.9194
20.6005
18.9156
17.0946
15.2728
13.5567
11.9817
10.61
9.40909
8.49699
7.78254
7.09905
6.25593
6.04065
6.072
6.16582
6.25017
6.29577
6.29339
6.25621
6.23987
6.35631
6.92022
8.30163
10.6244
13.2538
15.9231
18.2096
19.8397
20.2933
19.7695
18.7038
17.3058
15.7662
14.2051
12.715
11.3337
10.111
9.037
8.17848
7.52263
6.87751
6.13229
5.91803
5.93549
6.01772
6.10298
6.16381
6.1901
6.19269
6.22164
6.38276
6.97454
8.25629
10.2948
12.5536
14.8063
16.7134
18.0398
18.3829
17.9667
17.0867
15.9073
14.5881
13.2358
11.9316
10.7141
9.6256
8.66142
7.85967
7.25543
6.69227
6.0624
5.86004
5.86792
5.93898
6.01975
6.08562
6.12698
6.15296
6.20991
6.40481
7.00437
8.18688
9.97335
11.919
13.8301
15.4297
16.5236
16.7817
16.441
15.7036
14.6968
13.556
12.3758
11.2287
10.1517
9.18142
8.31201
7.56924
7.01418
6.55473
6.04065
5.86098
5.84819
5.90881
5.98308
6.04612
6.09231
6.12988
6.20359
6.42282
7.01337
8.10083
9.66611
11.3495
12.9823
14.3316
15.2461
15.4394
15.1531
14.5268
13.6605
12.6682
11.6334
10.6207
9.66539
8.79532
8.00838
7.32356
6.81568
6.46509
6.04811
5.8878
5.86495
5.90948
5.97261
6.03186
6.07819
6.1189
6.20183
6.43771
7.00852
8.00596
9.3798
10.8473
12.2555
13.4028
14.1753
14.3203
14.0737
13.535
12.7847
11.9174
11.0069
10.11
9.26024
8.47369
7.75895
7.12909
6.66346
6.41607
6.07537
5.93482
5.90785
5.93924
5.98867
6.03642
6.0762
6.11587
6.20699
6.45051
6.99698
7.91032
9.12146
10.4164
11.6467
12.6318
13.2895
13.3974
13.1787
12.7091
12.0538
11.2914
10.4869
9.68899
8.93009
8.21411
7.56123
6.98473
6.55719
6.39914
6.11785
5.99521
5.96553
5.98297
6.01819
6.05424
6.0865
6.12354
6.21858
6.46325
6.98287
7.82198
8.89936
10.0643
11.1597
12.0149
12.5758
12.6525
12.4504
12.0315
11.4523
10.7759
10.0597
9.34666
8.66172
8.00724
7.41119
6.8852
6.49256
6.40125
6.16842
6.06107
6.02896
6.03322
6.0546
6.07904
6.10393
6.13986
6.23815
6.48051
6.97176
7.75001
8.73195
9.80576
10.8005
11.5595
12.0328
12.0775
11.8796
11.4907
10.9667
10.358
9.71274
9.07161
8.4437
7.84548
7.30184
6.82362
6.46241
6.41503
6.22094
6.12613
6.09131
6.08521
6.09448
6.10934
6.12908
6.1664
6.27184
6.51355
6.97605
7.70993
8.62999
9.63717
10.5569
11.2441
11.6465
11.6762
11.4687
11.0844
10.5905
10.0282
9.4374
8.84708
8.26753
7.72003
7.22492
6.79097
6.46023
6.43557
6.2709
6.18628
6.14955
6.13659
6.13769
6.14712
6.16628
6.21094
6.32643
6.57767
7.02298
7.70387
8.58781
9.55591
10.4201
11.0542
11.3993
11.4233
11.2093
10.8226
10.3298
9.78629
9.22751
8.66686
8.1266
7.62277
7.17078
6.7775
6.47865
6.45813
6.31618
6.24072
6.20462
6.18952
6.18848
6.19967
6.22572
6.28146
6.40818
6.67161
7.11448
7.7729
8.61654
9.55854
10.3845
10.9796
11.2784
11.3059
11.0886
10.6894
10.186
9.63517
9.07642
8.53166
8.01787
7.54722
7.13085
6.77445
6.50222
6.4808
6.3585
6.29355
6.26275
6.25271
6.25784
6.27684
6.31419
6.38507
6.52591
6.80358
7.2502
7.89992
8.72473
9.65074
10.4473
11.014
11.2797
11.3117
11.0733
10.6483
10.1246
9.55879
8.99108
8.44733
7.94401
7.49197
7.10027
6.77188
6.52146
6.50735
6.40586
6.35668
6.338
6.33832
6.35557
6.38835
6.44258
6.53298
6.69208
6.98451
7.44186
8.09432
8.91401
9.83532
10.6107
11.1556
11.3937
11.4358
11.1997
10.7555
10.1851
9.56801
8.97054
8.41571
7.91125
7.4637
7.08108
6.76832
6.5344
6.55166
6.47681
6.44539
6.4424
6.46008
6.49591
6.54906
6.62609
6.74094
6.92271
7.23205
7.70602
8.37181
9.19797
10.124
10.8829
11.4087
11.6275
11.6771
11.449
10.9913
10.3983
9.74786
9.0917
8.48374
7.9481
7.4841
7.09474
6.78266
6.55409
6.63506
6.58596
6.57512
6.59496
6.63724
6.69886
6.77971
6.88607
7.03149
7.24153
7.573
8.06636
8.75653
9.59908
10.5376
11.2815
11.7874
11.9924
12.0477
11.8276
11.3616
10.7448
10.057
9.35645
8.69741
8.10383
7.59386
7.17257
6.84138
6.60848
6.78243
6.75504
6.77042
6.82141
6.8966
6.99273
7.11012
7.25422
7.4386
7.68485
8.04626
8.56264
9.28711
10.1552
11.1133
11.8394
12.3214
12.5125
12.5711
12.3582
11.8859
11.2437
10.517
9.76551
9.04426
8.39027
7.82569
7.35664
6.98749
6.72756
7.02311
7.01548
7.06678
7.15825
7.27734
7.41948
7.58562
7.78009
8.01628
8.31143
8.71461
9.26272
10.0272
10.9315
11.9159
12.616
13.0648
13.2355
13.2917
13.0824
12.6046
11.9354
11.1657
10.3568
9.56403
8.83414
8.19649
7.66139
7.23755
6.9415
7.40351
7.41838
7.51595
7.6614
7.84064
8.04646
8.28064
8.54654
8.85587
9.2215
9.68603
10.2819
11.0915
12.043
13.0608
13.7183
14.1186
14.2523
14.2929
14.0775
13.5909
12.8907
12.0725
11.1983
10.325
9.50005
8.76763
8.14556
7.6485
7.30282
7.99898
8.04481
8.20436
8.42567
8.692
8.99213
9.32826
9.7023
10.1222
10.5957
11.1558
11.8263
12.696
13.6965
14.7559
15.3441
15.6693
15.7359
15.7333
15.4914
14.9853
14.2413
13.364
12.4118
11.4436
10.5023
9.6452
8.90493
8.30647
7.88836
8.94525
9.04208
9.29448
9.63215
10.0349
10.4851
10.9847
11.5331
12.131
12.7783
13.4921
14.2817
15.2366
16.2798
17.3769
17.8523
18.0479
17.9951
17.8809
17.582
17.0517
16.2428
15.2864
14.2269
13.1359
12.05
11.0247
10.1144
9.36765
8.83718
10.5308
10.7251
11.1347
11.6659
12.2992
13.0023
13.7773
14.6173
15.5088
16.4392
17.3974
18.3676
19.4277
20.4748
21.5461
21.8091
21.6889
21.2627
20.897
20.4955
20.0078
19.3094
18.3021
17.1042
15.8414
14.5581
13.3089
12.1453
11.1649
10.4467
13.4633
13.8518
14.5423
15.4114
16.4427
17.5753
18.8081
20.1183
21.4652
22.8136
24.105
25.2766
26.3666
27.2322
27.9884
27.4888
26.509
25.5016
24.7444
24.2056
23.83
23.4238
22.7943
21.7956
20.4008
18.8933
17.3478
15.8304
14.4856
13.444
19.472
20.2309
21.4051
22.8169
24.4556
26.2112
28.0708
29.9701
31.8272
33.56
35.0236
36.0914
36.7083
36.6489
35.815
33.5512
31.3991
29.6186
28.37
27.713
27.5859
27.7467
27.8716
27.7841
27.3108
26.2175
24.6385
22.8379
21.0856
19.5829
31.041
32.5735
34.4118
36.3687
38.4845
40.6332
42.755
44.7455
46.4842
47.7541
48.224
47.8492
46.4191
43.7867
40.4183
36.2224
32.9381
30.4908
28.8764
28.1857
28.3474
29.2228
30.3905
31.6133
32.6895
33.4344
33.7732
33.4228
32.2886
31.0716
38.932
42.1488
45.0182
47.384
49.3386
50.9168
52.0419
52.6832
52.7817
52.0566
50.262
47.6234
44.1239
39.9278
35.2161
30.4656
27.0583
24.681
23.1043
22.4584
22.6504
23.637
25.1635
27.0304
29.0898
31.2044
33.214
34.9192
36.2819
37.7683
17.5904
19.9036
21.4206
22.3968
22.6246
22.1519
21.08
19.5938
17.8344
16.085
14.455
14.6139
20.0471
31.2652
47.0024
67.0234
85.7799
104.376
110.064
100.636
87.2589
73.9809
61.5628
50.6698
41.4435
33.8167
27.6446
22.3956
18.1055
14.1411
9.78464
9.57176
10.1204
10.7543
11.1009
11.1299
10.881
10.4252
9.8398
9.2185
8.74757
9.2897
12.7696
18.7482
26.2701
34.7986
42.5176
49.1507
50.5741
46.9544
41.7668
36.4352
31.3294
26.6581
22.5713
19.0722
16.1894
13.7106
11.927
10.0926
8.81766
8.03851
8.11902
8.45302
8.7162
8.81737
8.75319
8.54254
8.24023
7.91817
7.7857
8.53872
11.4437
16.0756
21.6474
27.7109
33.2878
37.5954
38.2481
35.8904
32.4622
28.7828
25.1975
21.8542
18.8638
16.2305
14.0151
12.076
10.6921
9.37218
8.35637
7.3998
7.30046
7.48931
7.69368
7.81505
7.83255
7.74251
7.58404
7.43135
7.49442
8.38694
10.9365
14.8141
19.3582
24.1862
28.6118
31.7934
32.17
30.4379
27.8397
24.9565
22.1017
19.4024
16.9516
14.7529
12.87
11.2078
9.9732
8.88257
7.94878
6.9916
6.84001
6.96282
7.13172
7.25922
7.3181
7.30071
7.23432
7.20062
7.40478
8.35553
10.6648
13.9873
17.8168
21.7986
25.3942
27.8356
28.0715
26.7364
24.6539
22.2714
19.8773
17.5919
15.496
13.5966
11.9475
10.4899
9.35301
8.42274
7.57662
6.70236
6.56174
6.65457
6.80105
6.92806
7.00856
7.0351
7.03347
7.08348
7.37836
8.36218
10.4778
13.372
16.6503
19.9784
22.9152
24.8142
24.9599
23.8996
22.177
20.15
18.0823
16.0929
14.2568
12.5861
11.1231
9.8363
8.79392
7.9903
7.26302
6.53327
6.40798
6.48419
6.61392
6.73559
6.82563
6.87891
6.92173
7.03551
7.39483
8.40514
10.3443
12.8953
15.7299
18.5286
20.9273
22.4125
22.4914
21.6302
20.176
18.4198
16.6012
14.8384
13.205
11.7186
10.4121
9.27363
8.32464
7.61926
7.03615
6.46843
6.34744
6.4114
6.52603
6.6382
6.72958
6.79808
6.87123
7.02418
7.45687
8.47532
10.2563
12.5254
14.9954
17.3582
19.3153
20.4808
20.5062
19.7899
18.546
17.0074
15.39
13.8107
12.343
11.0102
9.83862
8.81396
7.95256
7.32989
6.90073
6.47178
6.35408
6.39556
6.49855
6.60532
6.69634
6.772
6.86046
7.06108
7.55411
8.56709
10.2075
12.2464
14.4137
16.414
18.0097
18.9244
18.9074
18.2983
17.224
15.867
14.4189
12.9941
11.6657
10.4636
9.39325
8.46166
7.67838
7.12453
6.84854
6.51396
6.40788
6.44005
6.52741
6.62038
6.70627
6.78804
6.8974
7.14024
7.67968
8.67829
10.1883
12.0472
13.9632
15.6654
16.967
17.6777
17.6264
17.0971
16.162
14.9595
13.6572
12.3644
11.1568
10.051
9.06275
8.20869
7.49464
6.99388
6.85244
6.58595
6.49532
6.51924
6.5914
6.67232
6.75214
6.83772
6.96519
7.24562
7.82289
8.80857
10.2065
11.9207
13.6316
15.0937
16.1586
16.6959
16.6128
16.1394
15.3185
14.2474
13.0707
11.8953
10.7765
9.74712
8.83075
8.04339
7.38907
6.92976
6.89155
6.68094
6.60367
6.61787
6.67497
6.74489
6.82035
6.91176
7.05847
7.37336
7.98183
8.95917
10.2726
11.8524
13.4179
14.6941
15.5719
15.9496
15.833
15.3912
14.6585
13.698
12.6295
11.5428
10.4953
9.53586
8.68281
7.95254
7.34759
6.92428
6.96136
6.79052
6.72098
6.72422
6.76808
6.82995
6.90456
7.00541
7.17412
7.52218
8.15789
9.12727
10.3906
11.8415
13.3009
14.4185
15.1457
15.416
15.2679
14.8321
14.16
13.2845
12.303
11.2789
10.2974
9.40045
8.60415
7.92135
7.37326
6.98709
7.05059
6.90368
6.83687
6.8303
6.86423
6.92274
7.00176
7.11731
7.31246
7.69413
8.35663
9.32159
10.5509
11.9209
13.2623
14.2405
14.8408
15.0214
14.858
14.4487
13.8161
12.9894
12.0585
11.0925
10.1675
9.3247
8.57685
7.95116
7.44907
7.08656
7.14618
7.01138
6.9447
6.93179
6.96123
7.02293
7.11352
7.25094
7.47925
7.89698
8.58512
9.54835
10.7483
12.0496
13.2926
14.1456
14.6358
14.7396
14.5695
14.1848
13.5893
12.7997
11.8953
10.9724
10.0929
9.29182
8.59634
8.01474
7.54482
7.19799
7.23746
7.10859
7.04313
7.02907
7.06251
7.13608
7.24788
7.41355
7.67749
8.13146
8.84569
9.80975
10.9857
12.2282
13.3884
14.1301
14.5211
14.5576
14.3848
14.0179
13.4518
12.6843
11.8097
10.9162
10.062
9.30033
8.63911
8.08643
7.63968
7.3043
7.32049
7.19688
7.13721
7.12976
7.17917
7.27343
7.41132
7.61025
7.91312
8.40338
9.14453
10.1121
11.2697
12.463
13.5542
14.1935
14.4955
14.4728
14.2938
13.9407
13.3844
12.638
11.7864
10.9289
10.1055
9.35357
8.69729
8.15541
7.72203
7.39547
7.40022
7.28681
7.24051
7.25026
7.32297
7.44474
7.6153
7.85269
8.19756
8.72413
9.49341
10.4679
11.6135
12.7679
13.8036
14.35
14.5675
14.4857
14.2867
13.9365
13.4096
12.7083
11.8849
11.0369
10.2155
9.45536
8.78648
8.23049
7.79328
7.47054
7.49212
7.3973
7.36866
7.40609
7.51044
7.66737
7.87774
8.15908
8.54958
9.11357
9.91223
10.8984
12.0398
13.1668
14.1614
14.6213
14.7516
14.6083
14.4013
14.0724
13.582
12.9233
12.1289
11.2645
10.4138
9.62139
8.92146
8.33694
7.87755
7.54602
7.62278
7.54837
7.54406
7.62044
7.76587
7.96675
8.22517
8.55716
8.99851
9.60474
10.4323
11.4378
12.5853
13.6981
14.6663
15.0363
15.0724
14.8566
14.637
14.3261
13.8709
13.251
12.4832
11.6159
10.7396
9.90059
9.14249
8.50296
8.00406
7.65311
7.82091
7.76774
7.80161
7.92744
8.12505
8.38062
8.6972
9.08931
9.59034
10.2473
11.1077
12.1401
13.3078
14.4207
15.3776
15.6447
15.5601
15.2604
15.0177
14.7206
14.3024
13.7257
12.9891
12.1206
11.2034
10.3129
9.4944
8.78685
8.22542
7.82815
8.13093
8.10135
8.18942
8.37787
8.64184
8.96644
9.35543
9.82242
10.3981
11.1199
12.0273
13.091
14.2971
15.4249
16.384
16.5085
16.2627
15.8568
15.5759
15.288
14.9119
14.3865
13.6915
12.8357
11.8726
10.9146
10.0153
9.21843
8.57377
8.1116
8.62474
8.62339
8.78288
9.05175
9.40182
9.81651
10.3002
10.8662
11.5409
12.3511
13.3274
14.4404
15.6936
16.8478
17.8169
17.707
17.2414
16.6902
16.3473
16.0616
15.7369
15.2811
14.6513
13.8302
12.845
11.7966
10.7969
9.89008
9.13303
8.58651
9.41463
9.45865
9.70976
10.0834
10.5494
11.087
11.7021
12.4061
13.2181
14.1535
15.2317
16.4201
17.7316
18.8974
19.8062
19.327
18.5561
17.802
17.3622
17.0681
16.8097
16.4562
15.9359
15.1968
14.2433
13.1102
11.9826
10.9363
10.038
9.37213
10.7008
10.82
11.1956
11.7131
12.3429
13.0558
13.8594
14.7611
15.7682
16.8808
18.103
19.3917
20.7538
21.8862
22.5084
21.4317
20.2246
19.1967
18.6129
18.2968
18.1281
17.9312
17.5954
17.0251
16.1882
15.0982
13.8141
12.5836
11.5016
10.6713
12.8598
13.109
13.6671
14.3935
15.2615
16.227
17.2997
18.4788
19.7498
21.0951
22.4899
23.863
25.1897
25.9649
25.9638
23.9485
22.1301
20.7486
19.9728
19.6214
19.5752
19.6181
19.5855
19.3319
18.7775
17.8898
16.6847
15.2373
13.9189
12.8642
16.6119
17.0853
17.9204
18.9533
20.1541
21.4601
22.8815
24.3985
25.9619
27.524
29.0163
30.2899
31.1593
30.9228
29.8085
26.4438
23.8651
22.0675
21.0871
20.6946
20.7899
21.1573
21.5748
21.8545
21.8566
21.4774
20.6955
19.5195
18.0047
16.6837
23.0708
23.9237
25.1606
26.5884
28.1614
29.8067
31.5307
33.2733
34.9394
36.3992
37.5358
37.9575
37.3608
35.5407
32.6543
27.8108
24.5442
22.3945
21.2428
20.8275
21.03
21.7379
22.6802
23.679
24.5219
25.0767
25.2331
24.9368
24.1958
23.1694
30.8229
32.8371
34.8645
36.7568
38.5657
40.2855
41.8949
43.2957
44.3709
44.8029
44.3594
43.0271
40.503
36.7343
32.1363
26.4683
22.9348
20.7372
19.5489
19.1118
19.3382
20.1804
21.4308
22.9554
24.6356
26.2532
27.7272
28.8632
29.5683
30.1337
30.8918
33.8653
36.7696
39.3012
41.4032
43.0802
44.2502
44.8611
44.8802
44.0453
42.2728
39.6203
35.8993
31.3834
26.459
21.5262
18.5044
16.7308
15.7059
15.2809
15.3673
15.9541
16.9444
18.2708
19.881
21.6952
23.6228
25.5422
27.4349
29.5292
21.3024
24.2604
25.7959
27.1541
27.7248
27.449
26.4038
24.8078
22.7956
20.6458
18.3062
19.1486
28.3125
45.1906
67.9941
97.9954
125.879
151.063
156.031
140.948
120.789
100.822
82.6942
67.2368
54.4529
44.1373
35.8068
28.7562
22.8671
17.2501
11.2176
11.0417
11.5608
12.3431
12.8433
12.9771
12.7823
12.3226
11.6839
10.937
10.2987
11.3192
16.3855
24.3888
34.3236
46.2401
57.5709
66.4968
67.0865
61.2573
53.5659
45.8426
38.7678
32.5728
27.3541
23.0035
19.4525
16.4402
14.2705
11.8193
9.90779
9.07534
9.14269
9.55079
9.88789
10.04
10.0007
9.77852
9.43496
9.03727
8.87057
10.0693
14.0781
20.0949
27.3884
35.843
43.997
49.8357
49.7768
45.812
40.519
35.1742
30.2865
25.963
22.232
19.0209
16.349
14.0281
12.354
10.6208
9.25579
8.22091
8.14753
8.39288
8.64163
8.78911
8.81408
8.70582
8.51266
8.32362
8.43349
9.76932
13.1978
18.1969
24.1875
31.0135
37.5131
41.8293
41.6309
38.6011
34.4324
30.1485
26.205
22.6935
19.6314