/*--------------------------------*- C++ -*----------------------------------*\
  =========                 |
  \\      /  F ield         | OpenFOAM: The Open Source CFD Toolbox
   \\    /   O peration     | Website:  https://openfoam.org
    \\  /    A nd           | Version:  12
     \\/     M anipulation  |
\*---------------------------------------------------------------------------*/
FoamFile
{
    format      ascii;
    class       volScalarField;
    location    "350/air";
    object      k;
}
// * * * * * * * * * * * * * * * * * * * * * * * * * * * * * * * * * * * * * //

dimensions      [0 2 -2 0 0 0 0];

internalField   nonuniform List<scalar> 
243000
(
0.0917995
0.0999848
0.103551
0.104296
0.102745
0.099353
0.0944752
0.0884734
0.0816395
0.0743843
0.0672267
0.060645
0.0535721
0.0456487
0.0407195
0.076847
0.124759
0.15351
0.167525
0.164182
0.153299
0.140262
0.125984
0.111871
0.0987471
0.0868045
0.0769137
0.0685985
0.0662363
0.0664881
0.158379
0.163058
0.161347
0.1569
0.150937
0.143792
0.135672
0.12686
0.117548
0.108196
0.0992164
0.0912382
0.0824962
0.0732888
0.0741844
0.150041
0.217861
0.263219
0.285596
0.279738
0.261358
0.240059
0.216838
0.194493
0.17384
0.155404
0.140259
0.127692
0.122196
0.121144
0.199742
0.204714
0.201945
0.196026
0.188495
0.179767
0.170059
0.159672
0.148788
0.137959
0.127565
0.118235
0.107588
0.0965481
0.104646
0.203937
0.281372
0.33415
0.361198
0.355582
0.333815
0.308093
0.279957
0.252789
0.227616
0.205192
0.186624
0.171411
0.163719
0.162544
0.229696
0.234416
0.231151
0.224599
0.21626
0.206602
0.195866
0.184385
0.17238
0.160488
0.149066
0.138639
0.126314
0.113691
0.129065
0.24068
0.32118
0.376352
0.405609
0.401671
0.379256
0.352014
0.322011
0.292857
0.26578
0.241659
0.221565
0.205337
0.19652
0.195942
0.253253
0.257482
0.254069
0.24736
0.238716
0.228599
0.217266
0.205094
0.192336
0.179683
0.167425
0.155949
0.142008
0.128012
0.150536
0.268046
0.348581
0.404153
0.434068
0.432219
0.410251
0.382822
0.352371
0.322589
0.294878
0.27018
0.249532
0.233075
0.223709
0.223839
0.272406
0.276091
0.272675
0.266023
0.257325
0.247003
0.235332
0.222718
0.209449
0.196223
0.183227
0.170691
0.155169
0.139984
0.169278
0.288204
0.36702
0.42183
0.451542
0.451829
0.430961
0.40417
0.374176
0.344653
0.317137
0.292606
0.272053
0.255872
0.246411
0.247171
0.288375
0.291559
0.288186
0.281679
0.273036
0.262633
0.250762
0.237857
0.22422
0.210523
0.19683
0.18319
0.166118
0.149946
0.185327
0.302676
0.378768
0.432039
0.461278
0.463481
0.444152
0.41855
0.389605
0.360932
0.334165
0.310303
0.290296
0.274728
0.265514
0.266821
0.301985
0.304725
0.301393
0.295037
0.286471
0.276029
0.264024
0.250906
0.23698
0.222859
0.208465
0.193669
0.175064
0.158175
0.198725
0.312586
0.385341
0.436592
0.465257
0.469217
0.451808
0.427803
0.400281
0.372823
0.347171
0.324327
0.30519
0.290467
0.28175
0.283539
0.313782
0.316122
0.312801
0.306558
0.298038
0.287551
0.275429
0.262133
0.24795
0.233411
0.218287
0.202283
0.182141
0.165159
0.209665
0.318767
0.387938
0.437542
0.465405
0.470543
0.45532
0.433205
0.407434
0.381491
0.357104
0.335478
0.317446
0.303737
0.295699
0.297926
0.324108
0.326071
0.322716
0.316521
0.307993
0.297429
0.285181
0.271712
0.257273
0.2423
0.226409
0.209113
0.187501
0.172324
0.218778
0.321837
0.387964
0.435285
0.462129
0.468522
0.454989
0.435243
0.411564
0.387414
0.364638
0.344357
0.327586
0.315017
0.307789
0.310424
0.333156
0.334737
0.331296
0.32508
0.316483
0.3058
0.293405
0.27975
0.265044
0.249615
0.232892
0.21422
0.191427
0.179376
0.227062
0.322514
0.385247
0.430396
0.45641
0.463913
0.452301
0.434472
0.413211
0.391091
0.370096
0.3514
0.335963
0.324626
0.318302
0.321322
0.340993
0.34217
0.338596
0.332301
0.323578
0.312735
0.300168
0.286305
0.271322
0.255387
0.237732
0.217679
0.195152
0.186279
0.234481
0.321136
0.380468
0.423533
0.448753
0.457269
0.447578
0.431728
0.412636
0.392838
0.373765
0.356785
0.342783
0.332742
0.327384
0.330765
0.34759
0.348334
0.344598
0.338175
0.32928
0.318232
0.305463
0.291366
0.276054
0.259545
0.240931
0.21988
0.199084
0.193065
0.241108
0.319586
0.374268
0.415112
0.439515
0.448932
0.441078
0.427358
0.410335
0.392683
0.375788
0.360627
0.348177
0.339428
0.335065
0.33878
0.352831
0.353131
0.349221
0.342615
0.333499
0.322252
0.309279
0.294948
0.279302
0.262237
0.242853
0.22209
0.203126
0.199724
0.247002
0.318168
0.36867
0.406143
0.429166
0.439215
0.43305
0.421345
0.406464
0.390898
0.376095
0.362927
0.352139
0.344664
0.341289
0.345297
0.356541
0.356418
0.352314
0.345537
0.336235
0.324808
0.31165
0.297106
0.281147
0.26366
0.244314
0.224519
0.207231
0.206214
0.252201
0.316833
0.363614
0.398269
0.419749
0.429183
0.423895
0.413964
0.401119
0.387525
0.374725
0.363517
0.35454
0.348385
0.345942
0.350184
0.358547
0.358025
0.35379
0.346887
0.337443
0.32588
0.312587
0.297888
0.281754
0.264474
0.245953
0.22708
0.211331
0.212476
0.256731
0.315517
0.358941
0.391189
0.411315
0.420287
0.415833
0.406787
0.395053
0.382795
0.371805
0.362315
0.355107
0.350463
0.348886
0.353285
0.358647
0.357931
0.353665
0.346702
0.337163
0.325516
0.312153
0.297541
0.282033
0.265428
0.247661
0.229686
0.215371
0.218412
0.260601
0.314147
0.354533
0.384634
0.403595
0.412217
0.40853
0.400373
0.389727
0.378618
0.368435
0.359636
0.353824
0.35054
0.349879
0.354532
0.356783
0.355867
0.351677
0.344764
0.335231
0.324018
0.311241
0.297282
0.282372
0.266401
0.249354
0.232265
0.219305
0.223939
0.263822
0.312648
0.350252
0.378413
0.396361
0.404708
0.401714
0.394471
0.384871
0.374813
0.365413
0.3573
0.351734
0.348759
0.348765
0.353754
0.352985
0.352365
0.348691
0.342265
0.333285
0.322566
0.310344
0.296996
0.282663
0.267306
0.250967
0.234759
0.223081
0.22899
0.266393
0.310939
0.345971
0.37237
0.389412
0.397536
0.395159
0.388811
0.380223
0.371138
0.362499
0.355035
0.349744
0.346797
0.346299
0.35082
0.349455
0.348978
0.345706
0.339719
0.331247
0.321018
0.309345
0.296587
0.282824
0.268079
0.252453
0.237125
0.226647
0.23351
0.268311
0.308944
0.341573
0.366348
0.382572
0.390507
0.388676
0.38318
0.375562
0.367373
0.359468
0.352608
0.347604
0.344711
0.343851
0.347257
0.345845
0.34543
0.342508
0.336932
0.328982
0.319262
0.308144
0.295973
0.282813
0.268673
0.253774
0.239324
0.229964
0.237449
0.269574
0.306584
0.336943
0.360206
0.375683
0.383443
0.382098
0.377407
0.370697
0.363353
0.356142
0.349818
0.345104
0.342275
0.341157
0.343687
0.341905
0.341525
0.338936
0.333781
0.326374
0.317196
0.306662
0.295103
0.28257
0.269061
0.254907
0.241334
0.232997
0.240766
0.270108
0.303785
0.331978
0.353813
0.368591
0.376178
0.375271
0.371338
0.365485
0.358915
0.352371
0.346556
0.342102
0.339326
0.338011
0.339818
0.337439
0.337117
0.334884
0.330164
0.323294
0.314741
0.304845
0.293939
0.282069
0.269236
0.255847
0.243146
0.235723
0.243443
0.269951
0.300493
0.326605
0.347062
0.361167
0.368565
0.368051
0.364829
0.359777
0.353935
0.348017
0.342684
0.338484
0.33573
0.334243
0.335418
0.332285
0.332095
0.330243
0.326007
0.319717
0.311815
0.302652
0.292456
0.2813
0.269223
0.256629
0.244791
0.238154
0.245508
0.269182
0.296707
0.320783
0.339901
0.35332
0.360494
0.360326
0.357757
0.353439
0.34828
0.342958
0.338075
0.334113
0.331368
0.329708
0.330301
0.326321
0.326348
0.324941
0.321256
0.315604
0.308429
0.300049
0.290661
0.280303
0.269092
0.257385
0.246413
0.240436
0.24714
0.267966
0.292582
0.31463
0.332399
0.345078
0.351961
0.352069
0.350078
0.346439
0.341928
0.337174
0.332714
0.328967
0.326203
0.324345
0.324352
0.319461
0.319818
0.318948
0.315904
0.310991
0.304668
0.297199
0.288718
0.279393
0.269308
0.25857
0.248596
0.243218
0.249044
0.267029
0.288791
0.30874
0.325059
0.336843
0.343295
0.343554
0.342003
0.338929
0.334977
0.330719
0.326617
0.323033
0.320199
0.318095
0.317541
0.311912
0.312755
0.312573
0.310329
0.306403
0.301229
0.295028
0.28799
0.280101
0.271406
0.262205
0.253705
0.249002
0.253856
0.268988
0.287783
0.305359
0.319887
0.330378
0.33601
0.336173
0.334755
0.331956
0.328306
0.324307
0.320355
0.316758
0.313709
0.31125
0.310128
0.30561
0.307437
0.308377
0.307612
0.305551
0.302561
0.298798
0.294349
0.289183
0.283281
0.276821
0.270742
0.267275
0.271042
0.2831
0.298279
0.312554
0.324262
0.332463
0.336428
0.335894
0.333878
0.330583
0.326488
0.322037
0.317548
0.313289
0.309427
0.306097
0.304059
0.319893
0.32392
0.327773
0.330775
0.333271
0.335476
0.336986
0.337773
0.337657
0.336561
0.334393
0.331856
0.330016
0.332084
0.339393
0.348778
0.357342
0.364291
0.368607
0.369715
0.367465
0.363902
0.359155
0.353577
0.347536
0.341249
0.334996
0.328854
0.323144
0.318819
0.483343
0.490013
0.496541
0.502981
0.509883
0.51663
0.520469
0.52242
0.522534
0.521052
0.518119
0.514684
0.51045
0.507383
0.505566
0.505152
0.505454
0.506949
0.508378
0.509216
0.509248
0.509489
0.509308
0.50826
0.506192
0.503008
0.498895
0.493863
0.488364
0.483026
0.144362
0.156248
0.159946
0.15898
0.154335
0.146912
0.137357
0.126366
0.114472
0.102643
0.0920202
0.0842272
0.0797513
0.0913453
0.129842
0.189267
0.243877
0.290589
0.31282
0.305134
0.285659
0.261981
0.236568
0.211931
0.189282
0.169052
0.15206
0.137081
0.126936
0.118213
0.264824
0.269498
0.264812
0.256484
0.245714
0.233006
0.218844
0.203942
0.188813
0.17491
0.162545
0.15483
0.15523
0.185964
0.255905
0.346672
0.430914
0.505026
0.540916
0.526701
0.493355
0.452998
0.409917
0.368873
0.331535
0.298568
0.271074
0.246309
0.228462
0.217285
0.346247
0.347683
0.342312
0.33333
0.321494
0.307082
0.290744
0.273501
0.256127
0.240366
0.226496
0.218297
0.220639
0.262373
0.347789
0.45416
0.550928
0.633151
0.676133
0.665094
0.629224
0.583464
0.533583
0.485258
0.440941
0.401551
0.368704
0.339107
0.31836
0.308003
0.407142
0.405235
0.399388
0.390578
0.37883
0.364141
0.347178
0.329086
0.310832
0.294328
0.279872
0.271662
0.275694
0.324537
0.41595
0.527478
0.6281
0.710608
0.756064
0.749957
0.715679
0.669658
0.618387
0.56801
0.521405
0.479551
0.444368
0.412804
0.390116
0.380554
0.454657
0.45038
0.444149
0.435744
0.424463
0.410074
0.393216
0.375073
0.35672
0.340102
0.325459
0.317375
0.322769
0.375881
0.467668
0.578576
0.678164
0.758135
0.80328
0.801927
0.770911
0.727039
0.67708
0.62734
0.580926
0.538877
0.503151
0.471351
0.447347
0.43816
0.493165
0.487446
0.480929
0.472909
0.462115
0.448188
0.431739
0.413917
0.395886
0.379438
0.36479
0.35685
0.363129
0.41834
0.507137
0.614275
0.709871
0.786093
0.829654
0.832193
0.805126
0.764556
0.717342
0.669735
0.624931
0.584045
0.54884
0.517709
0.493027
0.483877
0.525293
0.518894
0.512206
0.504487
0.494062
0.48056
0.464581
0.447233
0.429649
0.413435
0.398846
0.390978
0.397875
0.453084
0.537093
0.638772
0.728891
0.800539
0.842489
0.847818
0.824996
0.788319
0.744602
0.699965
0.657612
0.618697
0.584693
0.554704
0.529922
0.5206
0.55281
0.546265
0.539505
0.53194
0.521704
0.508495
0.49292
0.476033
0.458878
0.442848
0.428291
0.420343
0.42762
0.480995
0.559471
0.65501
0.738984
0.805854
0.846172
0.853564
0.835175
0.802746
0.76286
0.721577
0.682144
0.645671
0.613305
0.584721
0.560343
0.550789
0.576922
0.570495
0.563692
0.556126
0.545887
0.53281
0.517509
0.500984
0.484155
0.468205
0.453604
0.445368
0.452741
0.50272
0.575547
0.66516
0.742828
0.806617
0.844589
0.852756
0.838294
0.810936
0.775156
0.737195
0.700839
0.667052
0.636604
0.609587
0.586031
0.576298
0.598356
0.592097
0.585221
0.577495
0.567091
0.55399
0.538818
0.522519
0.505883
0.489891
0.475147
0.466328
0.47346
0.518594
0.587269
0.670888
0.743541
0.802823
0.838705
0.84795
0.836169
0.813608
0.782713
0.748796
0.715314
0.684269
0.655908
0.630567
0.608159
0.598357
0.617439
0.611272
0.604265
0.596257
0.585562
0.572308
0.557122
0.540915
0.524345
0.508211
0.493218
0.483507
0.489977
0.529848
0.595012
0.673445
0.741463
0.796315
0.830568
0.840791
0.831719
0.812359
0.786558
0.75686
0.726752
0.698234
0.67202
0.648431
0.627407
0.617659
0.634214
0.628026
0.620833
0.612476
0.601414
0.587907
0.572592
0.556355
0.539764
0.52342
0.508103
0.497335
0.502512
0.537982
0.600124
0.674141
0.737573
0.788653
0.8213
0.832357
0.825468
0.809262
0.787472
0.762054
0.735458
0.709554
0.685379
0.663562
0.644072
0.634484
0.648552
0.642262
0.634859
0.626134
0.614681
0.600867
0.585353
0.569012
0.55237
0.535807
0.520147
0.508365
0.512573
0.545294
0.604398
0.674345
0.733896
0.780997
0.811901
0.823466
0.818221
0.804893
0.786037
0.764718
0.741549
0.718495
0.696256
0.676107
0.65819
0.648836
0.660252
0.653848
0.646249
0.637168
0.625344
0.611237
0.595538
0.579119
0.562486
0.545789
0.5299
0.517437
0.521226
0.552007
0.608145
0.674246
0.730293
0.77464
0.803603
0.814907
0.810715
0.799522
0.783142
0.76466
0.745045
0.724779
0.704823
0.686174
0.669688
0.66057
0.669116
0.662641
0.654899
0.645524
0.633391
0.619089
0.603349
0.587046
0.570641
0.554312
0.538327
0.525378
0.529168
0.558022
0.611591
0.674013
0.726839
0.76847
0.795865
0.807575
0.803879
0.793637
0.77914
0.762662
0.745568
0.728225
0.710591
0.69387
0.678556
0.66954
0.675024
0.668526
0.660732
0.651196
0.638884
0.624625
0.609164
0.593432
0.57769
0.561513
0.545218
0.532305
0.53622
0.563662
0.61494
0.673867
0.723647
0.762655
0.788532
0.80033
0.797059
0.787883
0.774613
0.759327
0.743758
0.728307
0.713241
0.698573
0.685011
0.675793
0.67814
0.671705
0.664115
0.654726
0.642642
0.628808
0.613933
0.598849
0.583381
0.567224
0.55098
0.538481
0.542666
0.569229
0.61835
0.673912
0.720772
0.757262
0.781665
0.793306
0.790395
0.781911
0.769463
0.755052
0.740502
0.7262
0.712492
0.699806
0.688246
0.679631
0.679208
0.672979
0.665805
0.65689
0.645413
0.632041
0.617652
0.602994
0.587939
0.572054
0.556189
0.544481
0.549067
0.574966
0.621951
0.674179
0.718224
0.752278
0.775234
0.786551
0.78396
0.77598
0.764047
0.750243
0.736242
0.722636
0.7099
0.698235
0.687841
0.680259
0.679107
0.673274
0.66645
0.657821
0.646872
0.63422
0.620604
0.606614
0.592059
0.576678
0.561455
0.550716
0.55574
0.581084
0.625836
0.674677
0.715944
0.747594
0.769124
0.780046
0.777777
0.77023
0.758659
0.74523
0.731513
0.718245
0.706003
0.695077
0.685628
0.678838
0.676721
0.671516
0.665546
0.657705
0.647637
0.636046
0.623443
0.610281
0.596462
0.581796
0.567444
0.557686
0.563055
0.587799
0.630095
0.675391
0.713799
0.743067
0.763176
0.773723
0.771857
0.764812
0.7536
0.74042
0.726792
0.713597
0.701519
0.690854
0.681938
0.676071
0.672953
0.668405
0.663566
0.65699
0.648474
0.63824
0.626805
0.614732
0.60195
0.588145
0.574884
0.565988
0.571494
0.595397
0.634882
0.676413
0.711725
0.738582
0.757261
0.767501
0.766201
0.759833
0.749138
0.736239
0.722599
0.709307
0.697125
0.686385
0.677429
0.671958
0.668912
0.66524
0.661713
0.657091
0.650176
0.641463
0.631618
0.62104
0.609472
0.596678
0.584574
0.576435
0.581751
0.604363
0.640566
0.678049
0.709895
0.734228
0.751425
0.761379
0.760867
0.755405
0.74553
0.732973
0.719408
0.70599
0.69357
0.682519
0.673199
0.667482
0.665668
0.663188
0.661529
0.658595
0.653674
0.647111
0.639256
0.630366
0.620229
0.608637
0.597735
0.590244
0.594912
0.615666
0.648078
0.681175
0.709615
0.730647
0.746199
0.755706
0.756217
0.751833
0.742954
0.730936
0.717641
0.704185
0.69153
0.680041
0.670243
0.663915
0.664478
0.663678
0.663965
0.663245
0.660793
0.656757
0.651297
0.644492
0.636091
0.626066
0.616484
0.609589
0.613069
0.631386
0.659593
0.687942
0.712144
0.730175
0.743272
0.75188
0.753471
0.750118
0.741954
0.730633
0.717866
0.704546
0.69158
0.679613
0.669251
0.662257
0.667116
0.668183
0.671236
0.673397
0.67396
0.67308
0.670698
0.666659
0.660615
0.652876
0.64501
0.638898
0.640864
0.656182
0.680048
0.70338
0.722692
0.736683
0.746843
0.753824
0.755802
0.75334
0.746259
0.735966
0.723887
0.710784
0.697469
0.684612
0.672964
0.664559
0.676544
0.680416
0.687088
0.693147
0.698058
0.701683
0.703787
0.703832
0.701694
0.697662
0.692599
0.688058
0.688945
0.700687
0.72041
0.738445
0.751696
0.760602
0.76664
0.770696
0.771481
0.768919
0.762034
0.751893
0.739799
0.72632
0.712138
0.69783
0.684327
0.674053
0.701533
0.709949
0.721849
0.733886
0.745535
0.756388
0.765787
0.772954
0.777848
0.780127
0.779946
0.77855
0.779298
0.787348
0.801952
0.813355
0.819126
0.821576
0.821722
0.821109
0.81852
0.814128
0.805967
0.794302
0.780134
0.764214
0.747223
0.729731
0.712978
0.699745
0.764884
0.781298
0.802007
0.823984
0.846615
0.86908
0.89032
0.908374
0.923327
0.934243
0.940236
0.94212
0.941345
0.943072
0.947224
0.947381
0.942127
0.935746
0.927864
0.922225
0.917751
0.913672
0.905015
0.892085
0.875411
0.855022
0.83207
0.80789
0.784284
0.764716
0.92488
0.95364
0.985664
1.01824
1.05127
1.08342
1.11283
1.13764
1.15643
1.16792
1.16784
1.1603
1.14614
1.12907
1.10695
1.08189
1.05728
1.03673
1.01926
1.01082
1.01219
1.02085
1.02799
1.03194
1.03105
1.0229
1.00749
0.983619
0.953784
0.926094
1.1142
1.15894
1.19651
1.22532
1.24911
1.26771
1.279
1.28384
1.28068
1.26911
1.2456
1.21515
1.17911
1.13968
1.09153
1.0448
1.00767
0.979723
0.958157
0.948875
0.95228
0.968961
0.993943
1.02177
1.04941
1.07412
1.0935
1.10389
1.10439
1.10491
0.185449
0.198159
0.202903
0.202672
0.197842
0.189351
0.178026
0.16485
0.150584
0.136792
0.124841
0.119625
0.132357
0.175646
0.234746
0.307845
0.37232
0.430555
0.455634
0.439966
0.41004
0.375338
0.339122
0.304322
0.272292
0.243514
0.218593
0.19565
0.176628
0.157994
0.327685
0.339442
0.340165
0.335717
0.326504
0.31339
0.297344
0.279575
0.26114
0.244134
0.228097
0.224294
0.254762
0.334664
0.437017
0.557013
0.659362
0.748471
0.785798
0.756069
0.703516
0.642548
0.579769
0.520651
0.467043
0.419349
0.378389
0.339733
0.307125
0.27817
0.42697
0.433307
0.433568
0.429605
0.420344
0.40636
0.388772
0.369156
0.349058
0.33092
0.314601
0.313434
0.352688
0.448802
0.567349
0.701954
0.814637
0.90788
0.950422
0.923361
0.867874
0.800776
0.73026
0.662632
0.600738
0.545098
0.49719
0.451987
0.414996
0.386423
0.499149
0.500757
0.500161
0.496342
0.487502
0.473818
0.456341
0.436746
0.416864
0.399214
0.384227
0.386566
0.431365
0.533588
0.655799
0.791535
0.904609
0.994099
1.03761
1.01598
0.962994
0.896343
0.824945
0.755506
0.691452
0.633433
0.583299
0.536244
0.497736
0.471553
0.554899
0.553406
0.552056
0.548218
0.53978
0.526694
0.509936
0.491148
0.47225
0.455765
0.442696
0.448578
0.496896
0.599088
0.718704
0.849329
0.95772
1.04141
1.08352
1.06747
1.01904
0.955577
0.886356
0.818333
0.755179
0.69768
0.647634
0.601057
0.562027
0.538432
0.600296
0.597123
0.595085
0.591093
0.582908
0.570395
0.554481
0.536736
0.519053
0.503949
0.492935
0.502118
0.552467
0.650745
0.764464
0.886895
0.988051
1.06518
1.10507
1.09395
1.05095
0.991861
0.926217
0.861113
0.800409
0.744995
0.696299
0.651415
0.612765
0.591464
0.639006
0.635051
0.632393
0.628109
0.619968
0.607862
0.592694
0.575961
0.559468
0.545712
0.536703
0.54876
0.59988
0.692142
0.798139
0.911006
1.00387
1.07413
1.1119
1.10484
1.06786
1.01379
0.952342
0.890826
0.8334
0.780916
0.734328
0.691729
0.654282
0.634822
0.673313
0.669031
0.665742
0.661017
0.652694
0.640776
0.626168
0.610286
0.594841
0.582301
0.57513
0.589541
0.640378
0.725696
0.823214
0.926048
1.01028
1.07561
1.10999
1.10495
1.07505
1.0268
0.97019
0.912365
0.858569
0.809474
0.76544
0.725398
0.689772
0.671746
0.704564
0.700068
0.696065
0.690733
0.682025
0.670093
0.655837
0.640608
0.626026
0.614546
0.608993
0.625226
0.674893
0.752982
0.842008
0.935125
1.01181
1.07094
1.10297
1.10026
1.07403
1.03259
0.981737
0.929012
0.878867
0.833351
0.792118
0.754736
0.72131
0.704418
0.733405
0.728574
0.723752
0.717642
0.708395
0.696291
0.682216
0.667465
0.653584
0.643022
0.638862
0.656403
0.70417
0.775203
0.856234
0.940349
1.01041
1.06335
1.09332
1.09248
1.07048
1.03463
0.989524
0.942058
0.896092
0.854126
0.815799
0.781084
0.75004
0.734048
0.75992
0.754541
0.748814
0.741823
0.731943
0.719566
0.705557
0.691172
0.677891
0.66816
0.665173
0.683591
0.728823
0.793328
0.867206
0.943272
1.00654
1.05456
1.08255
1.08335
1.06549
1.03452
0.995127
0.95277
0.911106
0.872541
0.837118
0.805019
0.776388
0.761095
0.783862
0.77775
0.771077
0.76318
0.752647
0.739967
0.725983
0.711929
0.699241
0.690299
0.688315
0.70722
0.749493
0.808172
0.876028
0.945232
1.00241
1.04579
1.07173
1.07395
1.05973
1.03315
0.999161
0.961661
0.924164
0.888799
0.856176
0.82659
0.800294
0.785521
0.804825
0.797896
0.790301
0.781547
0.770427
0.757496
0.743588
0.729925
0.717924
0.709777
0.708693
0.727731
0.766896
0.821047
0.883972
0.947072
0.999322
1.0382
1.06178
1.06505
1.05352
1.03092
1.00179
0.968771
0.935235
0.902901
0.872802
0.845562
0.821431
0.807008
0.822386
0.81467
0.806263
0.796785
0.785239
0.772211
0.758542
0.745431
0.734312
0.727022
0.726848
0.745749
0.782525
0.832745
0.891184
0.948695
0.996374
1.03138
1.05352
1.05743
1.04748
1.02808
1.00292
0.973977
0.944034
0.914788
0.886829
0.86164
0.83942
0.82517
0.836244
0.827853
0.818836
0.808872
0.797168
0.784307
0.771167
0.758883
0.748968
0.742672
0.743372
0.762088
0.796702
0.843412
0.897714
0.949995
0.993368
1.02499
1.04583
1.0505
1.0423
1.02506
1.00251
0.977147
0.950322
0.923862
0.898336
0.874716
0.854006
0.839705
0.846289
0.837377
0.828063
0.817975
0.80651
0.794203
0.78205
0.770962
0.762167
0.756837
0.758539
0.777037
0.809653
0.853155
0.903573
0.950811
0.990085
1.01864
1.03836
1.04386
1.03708
1.02178
1.00137
0.978446
0.954015
0.929814
0.906514
0.884933
0.865284
0.850591
0.852604
0.843365
0.834231
0.824536
0.813892
0.802625
0.791559
0.781719
0.774189
0.769897
0.772659
0.790861
0.8216
0.8621
0.908757
0.951127
0.986322
1.01197
1.03072
1.03714
1.03161
1.01818
0.99939
0.977847
0.955339
0.932766
0.911094
0.89125
0.873252
0.85841
0.856322
0.846846
0.838249
0.829334
0.819721
0.809735
0.80007
0.79171
0.785549
0.782325
0.786131
0.803889
0.832809
0.870396
0.913296
0.950933
0.981903
1.00466
1.02255
1.02993
1.02565
1.0142
0.996762
0.97626
0.954518
0.932873
0.912292
0.893547
0.87679
0.862666
0.858062
0.848756
0.840872
0.832966
0.824653
0.816264
0.80829
0.801586
0.796858
0.794706
0.799452
0.816554
0.843641
0.878258
0.917292
0.949856
0.976715
0.996516
1.01356
1.02195
1.01904
1.0096
0.993653
0.974076
0.952851
0.931554
0.911221
0.892711
0.87638
0.863275
0.858285
0.849558
0.842777
0.836178
0.829602
0.823076
0.817029
0.812101
0.80884
0.807756
0.813252
0.829429
0.854584
0.886047
0.921016
0.948279
0.970814
0.987491
1.00358
1.01299
1.01176
1.00432
0.990276
0.971745
0.950914
0.929713
0.909332
0.890719
0.874395
0.861776
0.857358
0.850022
0.844728
0.840022
0.8355
0.831154
0.827236
0.82417
0.822392
0.82239
0.828382
0.843301
0.86636
0.894388
0.925029
0.946638
0.964532
0.977825
0.992693
1.00301
1.00386
0.998591
0.986908
0.969704
0.949305
0.928098
0.907494
0.888524
0.871915
0.859369
0.856669
0.851123
0.847902
0.845556
0.84354
0.841669
0.840073
0.838982
0.838707
0.839881
0.846062
0.859363
0.880092
0.904366
0.930392
0.945901
0.9587
0.968232
0.981412
0.992304
0.995641
0.992793
0.983928
0.968365
0.948556
0.92735
0.906481
0.887098
0.870033
0.857253
0.857738
0.8544
0.853714
0.854244
0.855219
0.856161
0.857139
0.858221
0.859646
0.862015
0.868171
0.879583
0.897611
0.917886
0.939009
0.947916
0.955033
0.960284
0.971119
0.981984
0.987838
0.987764
0.981967
0.968254
0.950188
0.929153
0.907637
0.887357
0.869655
0.856492
0.862547
0.861618
0.864148
0.868226
0.872714
0.876948
0.880927
0.884579
0.887995
0.891711
0.897843
0.907371
0.922155
0.938286
0.954245
0.956033
0.956702
0.957114
0.9648
0.974591
0.982323
0.985355
0.982559
0.973079
0.957537
0.937501
0.915453
0.89381
0.87452
0.860127
0.873952
0.875959
0.882589
0.890876
0.899597
0.907876
0.915607
0.922574
0.928619
0.934157
0.940585
0.948485
0.959918
0.97135
0.981905
0.976139
0.969192
0.963828
0.967503
0.975399
0.983625
0.989059
0.989953
0.984272
0.971859
0.953677
0.931516
0.908567
0.887331
0.870835
0.896917
0.90332
0.915093
0.928651
0.942802
0.956384
0.969168
0.980733
0.990512
0.998761
1.00616
1.01293
1.02087
1.02683
1.03084
1.01616
0.999802
0.986658
0.984735
0.989477
0.997721
1.00581
1.01004
1.00829
0.999131
0.983259
0.961878
0.937356
0.913264
0.893816
0.943848
0.956466
0.97491
0.995352
1.01669
1.03737
1.05697
1.07469
1.08933
1.10096
1.10963
1.11502
1.11787
1.11561
1.10884
1.07874
1.04904
1.02664
1.017
1.01798
1.02652
1.03873
1.04917
1.05391
1.0505
1.03834
1.01844
0.992843
0.965427
0.941972
1.04178
1.06257
1.08933
1.11771
1.14705
1.17531
1.20175
1.22485
1.24271
1.25497
1.26111
1.26016
1.25043
1.22993
1.19759
1.14293
1.09781
1.06533
1.04736
1.04407
1.05428
1.07367
1.09433
1.11239
1.12497
1.12754
1.11787
1.09698
1.06915
1.04223
1.2092
1.24406
1.27905
1.3113
1.34259
1.37126
1.39588
1.41477
1.42518
1.42483
1.41255
1.3895
1.3501
1.29498
1.22995
1.15236
1.09427
1.05398
1.02986
1.02335
1.03474
1.0604
1.09293
1.12777
1.16204
1.1922
1.21385
1.22119
1.21526
1.205
1.25206
1.30959
1.3587
1.39597
1.42466
1.44486
1.45552
1.45718
1.44664
1.42302
1.38549
1.33702
1.27522
1.20326
1.12289
1.04107
0.983144
0.94439
0.920141
0.912674
0.921506
0.944568
0.977184
1.01543
1.05682
1.09876
1.13808
1.17194
1.20069
1.23107
0.220177
0.232924
0.238549
0.239897
0.236029
0.227701
0.215819
0.201671
0.186145
0.171072
0.157157
0.156325
0.191413
0.256166
0.335411
0.425198
0.502895
0.576572
0.602489
0.57403
0.529055
0.481402
0.433418
0.388019
0.346439
0.309205
0.27659
0.246123
0.218853
0.190234
0.37856
0.396334
0.404306
0.405673
0.39949
0.387248
0.37049
0.351131
0.330409
0.310552
0.289993
0.293985
0.361335
0.478679
0.617808
0.768413
0.894551
0.996142
1.02946
0.981517
0.905317
0.82005
0.735799
0.657988
0.587853
0.525617
0.472074
0.421154
0.375838
0.329499
0.488943
0.501141
0.509206
0.511998
0.506368
0.493856
0.476164
0.455562
0.433898
0.413768
0.394983
0.405319
0.484947
0.620654
0.776495
0.941645
1.07858
1.18158
1.21834
1.17136
1.0908
0.997865
0.904267
0.816481
0.736719
0.665218
0.603524
0.545044
0.494746
0.449346
0.568978
0.575135
0.582093
0.58488
0.579667
0.567792
0.550842
0.531069
0.510669
0.492471
0.477792
0.495046
0.580014
0.720277
0.877419
1.04113
1.17657
1.27286
1.30973
1.2682
1.19031
1.09756
1.00252
0.912343
0.830025
0.755897
0.691853
0.631831
0.580796
0.540613
0.629197
0.632301
0.638504
0.640765
0.635758
0.624654
0.608939
0.590747
0.572418
0.557025
0.547196
0.570989
0.658061
0.795495
0.947217
1.10252
1.23006
1.31787
1.3529
1.31788
1.24535
1.15577
1.06243
0.973035
0.891303
0.817763
0.754195
0.695556
0.645389
0.611282
0.678291
0.680027
0.685497
0.686967
0.681996
0.671583
0.657138
0.640695
0.624644
0.612304
0.607511
0.636999
0.724309
0.855207
0.998082
1.14161
1.25821
1.33696
1.36956
1.34092
1.27515
1.19021
1.10002
1.01277
0.932966
0.861608
0.79994
0.744128
0.696024
0.6674
0.720911
0.722151
0.726744
0.727241
0.722128
0.712224
0.698909
0.684138
0.670322
0.660949
0.661132
0.695414
0.781735
0.904383
1.03679
1.16713
1.27169
1.34149
1.3715
1.34897
1.29072
1.21137
1.12528
1.04078
0.963292
0.894924
0.835994
0.783621
0.738427
0.714213
0.759806
0.760827
0.764205
0.763642
0.758179
0.748574
0.73619
0.722922
0.711192
0.704546
0.709622
0.747776
0.832352
0.94606
1.06743
1.18433
1.27665
1.33992
1.36597
1.34657
1.29568
1.22231
1.14132
1.06141
0.987683
0.922896
0.8671
0.818288
0.776431
0.755501
0.796456
0.797083
0.798842
0.797157
0.791172
0.781693
0.770053
0.758113
0.748287
0.744232
0.753909
0.795194
0.877409
0.982245
1.09263
1.19644
1.27786
1.33326
1.35713
1.34155
1.29651
1.22954
1.1541
1.07903
1.00955
0.948715
0.896086
0.850656
0.81216
0.793544
0.831382
0.83112
0.831001
0.828124
0.821517
0.812057
0.801045
0.790306
0.782241
0.780768
0.794616
0.838447
0.917596
1.01404
1.11402
1.20555
1.27723
1.32529
1.34716
1.33527
1.29617
1.23595
1.16637
1.09624
1.03101
0.973824
0.92422
0.881855
0.846475
0.829354
0.864335
0.862679
0.860721
0.856565
0.849299
0.839821
0.829389
0.819808
0.813413
0.814649
0.832132
0.877926
0.953534
1.04222
1.13265
1.21295
1.27552
1.31709
1.33715
1.3283
1.29529
1.24223
1.17872
1.11358
1.0524
0.998486
0.951695
0.912032
0.879377
0.863073
0.894735
0.891427
0.887667
0.882254
0.874376
0.864933
0.855136
0.846766
0.842036
0.846102
0.866722
0.913908
0.985731
1.06734
1.14931
1.21951
1.27408
1.30922
1.32758
1.32102
1.29362
1.24809
1.19078
1.13064
1.07324
1.02231
0.978082
0.940754
0.910373
0.89434
0.92193
0.916885
0.911454
0.904894
0.896544
0.887287
0.878279
0.871272
0.868323
0.875252
0.898602
0.946637
1.01464
1.08989
1.16348
1.22381
1.2705
1.30157
1.31874
1.31358
1.29096
1.25261
1.20186
1.14671
1.09299
1.04466
1.00268
0.967334
0.938785
0.922608
0.945323
0.938609
0.931726
0.92424
0.915665
0.906844
0.89888
0.893441
0.892522
0.902281
0.928057
0.976388
1.04061
1.1095
1.17493
1.22562
1.26483
1.29195
1.30859
1.30587
1.28743
1.25503
1.21096
1.16109
1.11108
1.06497
1.02483
0.991103
0.963972
0.947313
0.964485
0.956278
0.948262
0.940199
0.931754
0.923721
0.917142
0.913493
0.915069
0.927524
0.955309
1.00325
1.06353
1.12607
1.18354
1.22504
1.25685
1.28012
1.29639
1.29598
1.28217
1.25445
1.21742
1.17287
1.12672
1.08303
1.04416
1.0116
0.985431
0.967951
0.979215
0.969785
0.96108
0.952916
0.94507
0.938277
0.933491
0.93174
0.93596
0.95085
0.980398
1.02709
1.08336
1.13954
1.18925
1.22154
1.24642
1.26585
1.2817
1.28375
1.27383
1.251
1.21961
1.18153
1.13907
1.09812
1.06074
1.0287
1.00295
0.984283
0.98959
0.979309
0.970512
0.962852
0.956189
0.950982
0.948037
0.948437
0.955366
0.972401
1.00327
1.04805
1.10016
1.14998
1.19213
1.2154
1.23354
1.249
1.26431
1.26887
1.26238
1.24484
1.21715
1.18454
1.14759
1.10941
1.07355
1.04262
1.01686
0.996649
0.996268
0.985366
0.977302
0.970705
0.965508
0.962167
0.961248
0.964175
0.973607
0.99244
1.024
1.06636
1.11412
1.15759
1.19228
1.20681
1.21834
1.22954
1.24423
1.25125
1.24803
1.23507
1.21191
1.18262
1.15019
1.11583
1.08199
1.0518
1.02638
1.00575
1.00056
0.989255
0.982157
0.977067
0.973745
0.972511
0.97399
0.979512
0.991162
1.01138
1.04288
1.08243
1.12565
1.16279
1.19035
1.1961
1.20098
1.20774
1.2216
1.23083
1.23088
1.22214
1.20421
1.17827
1.14857
1.11691
1.08538
1.05616
1.03094
1.01054
1.00279
0.991934
0.986139
0.982882
0.981775
0.983019
0.987186
0.995165
1.00869
1.02983
1.0605
1.09693
1.1354
1.16623
1.18685
1.18384
1.18184
1.1841
1.19676
1.20771
1.21131
1.20665
1.19344
1.17206
1.14522
1.11542
1.08487
1.05607
1.03097
1.01124
1.00382
0.994325
0.990333
0.989235
0.990835
0.994962
1.00182
1.01207
1.02712
1.04861
1.07788
1.11087
1.14443
1.16895
1.1828
1.17058
1.16159
1.15936
1.17029
1.18244
1.1896
1.18912
1.18061
1.16445
1.14091
1.11317
1.08357
1.0549
1.02968
1.01025
1.00493
0.997547
0.995865
0.997661
1.00253
1.00968
1.01918
1.03151
1.0478
1.06915
1.09647
1.12579
1.15429
1.17246
1.17956
1.15765
1.14102
1.13454
1.14309
1.15585
1.16612
1.17026
1.16664
1.15544
1.13642