/*--------------------------------*- C++ -*----------------------------------*\
  =========                 |
  \\      /  F ield         | OpenFOAM: The Open Source CFD Toolbox
   \\    /   O peration     | Website:  https://openfoam.org
    \\  /    A nd           | Version:  12
     \\/     M anipulation  |
\*---------------------------------------------------------------------------*/
FoamFile
{
    format      ascii;
    class       volScalarField;
    location    "350/air";
    object      nut;
}
// * * * * * * * * * * * * * * * * * * * * * * * * * * * * * * * * * * * * * //

dimensions      [0 2 -1 0 0 0 0];

internalField   nonuniform List<scalar> 
243000
(
0.00016031
0.000160966
0.00015782
0.000152811
0.000146553
0.000139491
0.00013193
0.000124118
0.000116225
0.00010848
0.000101192
9.46557e-05
8.80268e-05
8.07976e-05
7.50102e-05
9.99247e-05
0.000131194
0.000147424
0.000156133
0.000157237
0.000155053
0.000151773
0.000147594
0.00014305
0.000138515
0.000134088
0.000130532
0.000127697
0.000130329
0.000135878
0.000631624
0.000617002
0.00059139
0.000562631
0.000533161
0.000503647
0.000474449
0.000445982
0.000418463
0.000392516
0.000368742
0.000348138
0.000327388
0.000306552
0.000300695
0.000424242
0.00052235
0.000581141
0.000613547
0.000617674
0.000609197
0.000597466
0.00058265
0.000567581
0.000553095
0.000540028
0.000530709
0.00052463
0.000532727
0.000551322
0.000837186
0.000847608
0.000841822
0.000829381
0.000813262
0.000794162
0.000772372
0.000748372
0.000722412
0.000695649
0.000669041
0.000644257
0.000615121
0.000583152
0.000592233
0.000828146
0.000986332
0.00107857
0.00112293
0.00111547
0.00108163
0.00103957
0.000991124
0.000941714
0.000893305
0.000847759
0.000808089
0.00077414
0.000756615
0.000754214
0.000897684
0.000906946
0.00090058
0.00088769
0.000870991
0.00085124
0.00082875
0.00080403
0.00077739
0.000750102
0.000723032
0.00069747
0.000666344
0.000632059
0.000655805
0.000902295
0.0010545
0.00114501
0.00119033
0.00118584
0.00115317
0.00111145
0.00106321
0.00101386
0.000965585
0.000920362
0.000880888
0.000847734
0.000829301
0.000828328
0.000942526
0.000950433
0.000944083
0.000931484
0.000914981
0.000895284
0.000872721
0.000847845
0.000821012
0.000793547
0.000766127
0.000739639
0.000706424
0.000669985
0.000707048
0.000954292
0.00109906
0.00118677
0.00123163
0.00123027
0.00119951
0.0011592
0.00111232
0.00106421
0.00101723
0.000973368
0.000935095
0.000903479
0.000885066
0.000885528
0.000977426
0.000984059
0.000977915
0.000965851
0.00094984
0.000930496
0.000908154
0.000883399
0.000856635
0.000829148
0.000801361
0.000773743
0.000738333
0.000699844
0.000749225
0.000991114
0.00112809
0.00121255
0.00125632
0.00125791
0.00122945
0.0011911
0.00114622
0.00110001
0.00105496
0.00101303
0.000976508
0.000946804
0.000929044
0.000930659
0.00100554
0.00101109
0.00100518
0.000993696
0.000978247
0.000959341
0.000937325
0.00091281
0.000886213
0.00085873
0.00083049
0.00080152
0.000763829
0.000723419
0.000783943
0.00101683
0.00114618
0.00122714
0.00126982
0.00127395
0.00124805
0.00121201
0.0011695
0.00112556
0.00108281
0.00104317
0.00100871
0.000981114
0.000964429
0.000966973
0.00102881
0.00103346
0.00102774
0.00101678
0.00100185
0.000983347
0.000961655
0.000937396
0.000910976
0.00088344
0.000854611
0.000824081
0.000783993
0.000742013
0.000812168
0.00103408
0.00115612
0.00123348
0.00127518
0.00128164
0.00125858
0.00122515
0.00118522
0.00114373
0.00110347
0.00106631
0.00103414
0.00100875
0.000993419
0.000996739
0.00104847
0.00105235
0.00104676
0.00103622
0.00102168
0.00100349
0.000982064
0.000958019
0.00093172
0.000904033
0.000874452
0.000842174
0.000799531
0.000757249
0.000834889
0.00104468
0.00115998
0.00123472
0.00127522
0.00128319
0.00126309
0.00123256
0.00119545
0.00115667
0.00111887
0.00108421
0.00105447
0.00103135
0.00101756
0.00102156
0.0010653
0.00106849
0.00106295
0.00105268
0.00103839
0.00102041
0.000999153
0.000975244
0.000948979
0.000921017
0.000890525
0.000856246
0.000811046
0.000772652
0.00085454
0.00104991
0.00115993
0.00123128
0.00127043
0.00128009
0.00126222
0.00123494
0.00120107
0.0011652
0.00113022
0.00109813
0.00107087
0.00105006
0.00103791
0.00104253
0.00107973
0.00108227
0.00107669
0.00106656
0.00105239
0.00103449
0.00101331
0.000989444
0.000963112
0.000934756
0.000903157
0.000866617
0.000819273
0.000787548
0.000872331
0.00105112
0.00115565
0.00122405
0.00126219
0.00127339
0.00125804
0.00123332
0.00120289
0.00117022
0.0011382
0.00110888
0.00108408
0.00106561
0.00105518
0.00106038
0.001092
0.00109388
0.00108818
0.00107808
0.00106389
0.00104597
0.00102477
0.00100085
0.000974367
0.000945457
0.000912486
0.000873552
0.000826594
0.00080187
0.00088812
0.00104898
0.0011482
0.00121391
0.00125115
0.00126381
0.0012509
0.00122886
0.00120145
0.00117226
0.00114331
0.00111688
0.0010946
0.00107846
0.00106978
0.00107551
0.00110213
0.00110335
0.00109748
0.0010873
0.001073
0.00105493
0.00103361
0.00100954
0.00098275
0.000953094
0.00091861
0.000877889
0.00083434
0.000815726
0.000902056
0.00104718
0.00113852
0.00120144
0.00123777
0.00125179
0.00124122
0.00122205
0.00119747
0.00117134
0.00114583
0.00112236
0.00110276
0.00108882
0.00108188
0.00108811
0.00111002
0.00111057
0.00110451
0.00109415
0.00107963
0.0010614
0.00103991
0.00101562
0.000988453
0.000958006
0.000922247
0.000881964
0.000842283
0.000829124
0.000914322
0.0010455
0.00112999
0.00118834
0.00122269
0.00123772
0.0012293
0.0012128
0.00119121
0.00116805
0.00114563
0.0011254
0.00110855
0.00109677
0.0010915
0.00109816
0.00111547
0.0011154
0.0011091
0.00109857
0.00108385
0.00106544
0.00104377
0.00101925
0.000991666
0.000960572
0.000924807
0.000886471
0.000850322
0.000842027
0.00092506
0.00104377
0.00112219
0.00117666
0.00120908
0.00122333
0.00121582
0.00120156
0.00118275
0.00116241
0.00114295
0.00112571
0.00111184
0.00110227
0.00109853
0.00110555
0.00111826
0.0011176
0.00111117
0.0011005
0.00108563
0.00106706
0.00104524
0.00102052
0.000992688
0.000961897
0.000927704
0.000891209
0.00085826
0.000854423
0.000934367
0.00104196
0.00111493
0.00116597
0.0011967
0.00121036
0.00120391
0.00119084
0.00117348
0.00115473
0.00113796
0.00112332
0.0011122
0.00110516
0.00110283
0.00111009
0.00111807
0.00111717
0.00111074
0.00110001
0.00108502
0.00106633
0.00104441
0.00101979
0.000993028
0.000963479
0.000930734
0.000896038
0.000866012
0.000866128
0.000942306
0.00103996
0.00110803
0.00115595
0.00118522
0.00119843
0.00119304
0.00118112
0.00116523
0.00114817
0.00113254
0.00111884
0.00110976
0.00110484
0.00110405
0.00111176
0.00111488
0.00111371
0.0011074
0.00109676
0.00108176
0.00106371
0.00104273
0.0010192
0.000993483
0.000965101
0.000933736
0.000900811
0.000873516
0.000876984
0.000948929
0.00103769
0.00110126
0.00114635
0.00117433
0.0011872
0.00118279
0.00117208
0.00115762
0.00114213
0.00112764
0.00111493
0.0011063
0.00110166
0.00110192
0.00111023
0.00110874
0.00110804
0.00110252
0.0010926
0.00107844
0.00106116
0.00104107
0.00101858
0.000993864
0.000966609
0.000936593
0.000905418
0.000880698
0.000886871
0.000954265
0.00103502
0.00109443
0.00113697
0.00116374
0.00117637
0.00117285
0.00116336
0.00115031
0.00113628
0.00112292
0.00111119
0.001103
0.00109841
0.00109785
0.00110535
0.001103
0.00110253
0.00109764
0.00108837
0.00107498
0.00105847
0.00103925
0.00101775
0.000994029
0.000967887
0.00093922
0.000909775
0.00088746
0.000895712
0.000958333
0.00103183
0.00108737
0.00112755
0.00115323
0.00116566
0.00116293
0.00115462
0.00114295
0.00113027
0.00111801
0.00110722
0.00109946
0.00109497
0.00109381
0.00109956
0.00109714
0.00109677
0.00109241
0.00108374
0.00107115
0.00105543
0.0010371
0.00101659
0.000993911
0.000968853
0.000941551
0.000913819
0.000893732
0.000903436
0.000961152
0.001028
0.00107988
0.00111787
0.00114255
0.00115481
0.00115279
0.00114563
0.00113527
0.00112386
0.00111264
0.00110268
0.00109535
0.00109096
0.00108936
0.00109373
0.00109074
0.00109043
0.00108657
0.00107854
0.00106677
0.00105189
0.00103449
0.00101499
0.000993384
0.00096946
0.000943548
0.000917512
0.00089946
0.000909989
0.000962697
0.00102341
0.0010718
0.00110773
0.00113147
0.00114357
0.00114221
0.00113613
0.00112703
0.00111679
0.00110656
0.00109739
0.00109044
0.00108613
0.00108419
0.00108741
0.00108349
0.00108327
0.00107996
0.00107257
0.00106161
0.00104771
0.00103132
0.0010129
0.000992419
0.000969698
0.000945206
0.000920846
0.000904621
0.000915351
0.000962859
0.00101796
0.00106301
0.00109694
0.00111978
0.00113171
0.00113093
0.0011259
0.00111799
0.00110884
0.00109955
0.00109112
0.00108454
0.00108025
0.00107801
0.00108022
0.0010751
0.00107509
0.00107237
0.00106572
0.00105564
0.00104273
0.00102752
0.00101027
0.000990999
0.000969617
0.000946593
0.000923887
0.000909255
0.0009196
0.00096196
0.00101165
0.00105343
0.00108541
0.00110734
0.00111903
0.00111879
0.00111473
0.00110792
0.00109979
0.00109139
0.00108365
0.0010774
0.00107311
0.00107058
0.00107184
0.00106535
0.0010657
0.00106368
0.00105788
0.00104876
0.001037
0.00102303
0.00100711
0.000989194
0.000969338
0.000947958
0.00092692
0.000913668
0.000923099
0.000960271
0.00100474
0.00104326
0.00107325
0.00109417
0.00110553
0.00110571
0.00110252
0.00109674
0.00108959
0.00108204
0.00107493
0.00106899
0.00106465
0.00106179
0.00106208
0.00105409
0.00105496
0.00105381
0.00104901
0.00104104
0.00103062
0.00101813
0.00100371
0.000987572
0.000969723
0.000950155
0.000931065
0.000919133
0.000927222
0.000959157
0.00099846
0.00103351
0.00106131
0.00108094
0.00109172
0.00109214
0.00108962
0.00108468
0.00107837
0.00107155
0.00106498
0.00105926
0.00105478
0.0010515
0.00105084
0.0010416
0.00104328
0.00104325
0.00103972
0.00103334
0.0010248
0.00101442
0.00100247
0.000988869
0.000973572
0.000956926
0.000940774
0.000930459
0.000936986
0.000963489
0.000997214
0.00102812
0.00105299
0.0010706
0.00108012
0.00108037
0.00107802
0.00107347
0.00106757
0.00106111
0.00105472
0.00104893
0.00104406
0.00104016
0.00103853
0.00103118
0.00103451
0.00103636
0.00103528
0.00103203
0.00102721
0.00102105
0.00101369
0.00100502
0.000994948
0.000983625
0.00097242
0.000965012
0.000969693
0.00098997
0.00101641
0.00104106
0.00106086
0.00107454
0.00108123
0.00108034
0.00107698
0.00107158
0.00106491
0.00105765
0.00105032
0.00104337
0.00103709
0.00103169
0.00102848
0.00105568
0.00106252
0.00106905
0.00107417
0.00107848
0.00108233
0.00108507
0.00108667
0.00108679
0.00108532
0.00108202
0.0010778
0.00107417
0.00107612
0.00108691
0.00110172
0.00111538
0.00112636
0.00113317
0.00113499
0.00113146
0.00112582
0.00111834
0.00110955
0.0011
0.00108999
0.00107998
0.00107008
0.00106086
0.00105389
0.00130045
0.0013094
0.00131815
0.00132675
0.00133605
0.00134503
0.00135019
0.00135291
0.00135323
0.00135151
0.001348
0.00134352
0.00133775
0.00133325
0.00133043
0.00132972
0.00133005
0.00133194
0.00133385
0.00133498
0.00133496
0.00133522
0.00133496
0.00133358
0.00133087
0.00132669
0.00132125
0.00131456
0.00130723
0.00130009
0.000200675
0.00020097
0.000195944
0.000188486
0.000179439
0.000169437
0.000158878
0.000148115
0.000137378
0.000127137
0.000118023
0.000111015
0.000106448
0.000112222
0.000133012
0.000161015
0.000184182
0.000203206
0.0002136
0.000214613
0.000211899
0.000207694
0.000202561
0.000197256
0.00019221
0.000187646
0.00018414
0.000181157
0.000180872
0.000181231
0.000959301
0.000977017
0.0009064
0.000827356
0.000758867
0.000700314
0.000649482
0.000605795
0.000567583
0.000536597
0.00050409
0.000479918
0.000467166
0.000511067
0.0006057
0.000729793
0.000851969
0.000966278
0.00102324
0.00100631
0.000968794
0.000926094
0.000879586
0.000837807
0.00080036
0.000767895
0.000742383
0.000717135
0.000691986
0.000682513
0.00166672
0.00178622
0.00173186
0.00161996
0.00150117
0.00138947
0.00128787
0.00119874
0.00112078
0.00105554
0.000986591
0.000930121
0.000888388
0.000959443
0.00111819
0.00135209
0.00157213
0.00176621
0.00187746
0.00186411
0.00179851
0.00172001
0.00163434
0.00155623
0.00148547
0.00142796
0.00138452
0.00134251
0.00129869
0.00129607
0.002282
0.0024963
0.0024833
0.00236853
0.00222042
0.00206694
0.00192012
0.00178793
0.00167099
0.00156845
0.00146423
0.00137542
0.00130444
0.0013965
0.00160011
0.00191706
0.00220837
0.00245224
0.00260567
0.00261063
0.00253012
0.00242871
0.00231728
0.00221671
0.00212776
0.00205568
0.00200038
0.00194532
0.00189121
0.00190817
0.00283852
0.00311761
0.00315062
0.00304437
0.00288085
0.00269706
0.0025138
0.00234639
0.0021905
0.00205581
0.00192159
0.00180214
0.00170671
0.00181379
0.00204601
0.00241814
0.00275513
0.00303135
0.00321354
0.00324379
0.00315947
0.00304645
0.00292109
0.00280848
0.00271355
0.00263566
0.00257807
0.00252196
0.00246578
0.0025048
0.00335879
0.00367546
0.0037438
0.00364653
0.00347534
0.00327062
0.00305982
0.00285942
0.00267561
0.00251272
0.00235365
0.00220663
0.00209287
0.0022074
0.00245782
0.0028608
0.0032224
0.00351892
0.00372175
0.00377873
0.00370052
0.00358532
0.00345572
0.0033395
0.00324637
0.0031694
0.00311438
0.00306542
0.00301504
0.00307558
0.00385055
0.00417852
0.00426038
0.00417768
0.00400399
0.00378598
0.00355536
0.00333011
0.003123
0.00293707
0.00275813
0.00258721
0.00246139
0.00258521
0.0028367
0.00325117
0.00362181
0.00392653
0.00414958
0.00423055
0.00416784
0.00405888
0.00393272
0.00381984
0.00373181
0.00366239
0.00361318
0.00357433
0.00353431
0.00361377
0.00431461
0.00463173
0.00471579
0.00464159
0.0044697
0.00424381
0.00399878
0.00375722
0.00353196
0.00332789
0.00313324
0.00294225
0.00281117
0.00293347
0.00318314
0.00359502
0.00396266
0.0042669
0.00450808
0.00461157
0.00457373
0.00447931
0.00436231
0.0042572
0.00417753
0.00411907
0.00407852
0.0040517
0.00402514
0.00411994
0.0047492
0.00504116
0.00511728
0.00504748
0.00487573
0.00464572
0.00439239
0.00413972
0.00390179
0.00368429
0.00347709
0.00327027
0.00314615
0.00324906
0.00349702
0.00389718
0.00425244
0.00456778
0.00481527
0.00493144
0.00492017
0.00485529
0.00475391
0.00465747
0.00458831
0.0045419
0.00451274
0.00449924
0.00448783
0.00459402
0.0051505
0.00540755
0.00546873
0.00539716
0.00522525
0.00499396
0.00473668
0.00447788
0.00423215
0.00400538
0.00378858
0.00357431
0.00345495
0.00352962
0.00377763
0.00416151
0.00451056
0.00481484
0.00506579
0.00520026
0.00520715
0.0051748
0.00510268
0.00502603
0.00496548
0.0049314
0.0049159
0.00491634
0.00492049
0.00503392
0.00551362
0.00572992
0.00577167
0.00569327
0.00552069
0.00529028
0.0050328
0.00477217
0.00452281
0.0042906
0.00406716
0.00385115
0.00372993
0.00377654
0.00402035
0.0043898
0.00472874
0.00501678
0.00527104
0.00542388
0.00545438
0.00544057
0.00540577
0.00535437
0.00531068
0.0052867
0.0052858
0.00530008
0.0053189
0.00543508
0.0058336
0.00600637
0.00602538
0.00593802
0.00576471
0.00553686
0.00528217
0.00502317
0.00477375
0.00454017
0.00431283
0.00409497
0.00396458
0.00399518
0.00423038
0.00458507
0.00490623
0.00518204
0.00543486
0.00560533
0.00565719
0.00566724
0.00566115
0.00564015
0.00561777
0.00560721
0.00561894
0.00564563
0.005677
0.00579125
0.00610627
0.006235
0.00623034
0.0061333
0.0059596
0.00573579
0.00548635
0.00523189
0.00498626
0.00475355
0.00452579
0.00430667
0.00416718
0.00419333
0.00441368
0.00474703
0.00505351
0.00531389
0.00556047
0.00574585
0.00581699
0.00585329
0.00586719
0.00587949
0.00588067
0.00589046
0.00591246
0.00594771
0.00598802
0.00609555
0.00632796
0.00641416
0.00638694
0.00628066
0.00610721
0.00588891
0.00564708
0.00540015
0.00516074
0.0049315
0.0047068
0.00448469
0.00434132
0.00436442
0.0045646
0.0048695
0.00515485
0.00541257
0.00565121
0.00584531
0.00593413
0.0059938
0.00602829
0.00606181
0.00609379
0.00612674
0.00616432
0.00620325
0.00624624
0.0063418
0.00649442
0.00654231
0.00649511
0.00638115
0.00620885
0.00599769
0.00576627
0.00553065
0.00530059
0.00507977
0.00485431
0.0046314
0.00448919
0.00450122
0.00467806
0.00494815
0.00520677
0.00545431
0.00568577
0.00589916
0.00600708
0.00608413
0.00613999
0.00619088
0.00624478
0.00630776
0.00636241
0.00641143
0.00644966
0.0065264
0.00660342
0.00661778
0.00655415
0.00643503
0.00626513
0.00606379
0.00584676
0.00562814
0.00541219
0.00519144
0.00495756
0.00473842
0.00460458
0.00460747
0.0047505
0.00498162
0.0052096
0.00544069
0.00566165
0.0058824
0.00600865
0.00611292
0.00619436
0.00626342
0.00633673
0.00641809
0.00649703
0.00655912
0.00660259
0.00665146
0.00665759
0.00664324
0.00656957
0.00645023
0.00628769
0.00609862
0.00589604
0.00569054
0.00547675
0.00525235
0.00501714
0.00480547
0.00467289
0.004667
0.00477925
0.00496944
0.00516007
0.00536734
0.00558103
0.00580154
0.00594696
0.00607503
0.00618252
0.00627397
0.00636911
0.00646748
0.00655635
0.00663457
0.00669031
0.00672701
0.00666788
0.00662976
0.00654887
0.00643219
0.0062789
0.00609553
0.00589884
0.00569792
0.00548853
0.00526544
0.00503466
0.00483257
0.00470004
0.00468307
0.00476387
0.00491272
0.00506921
0.00525236
0.00545001
0.00566176
0.00582684
0.00598963
0.00611922
0.00623035
0.00634001
0.00645038
0.00655426
0.00664281
0.00670234
0.00674013
0.00663952
0.00657709
0.00648424
0.00636213
0.00621096
0.00603634
0.00584944
0.00565629
0.00545203
0.00523421
0.00501241
0.00482003
0.00468591
0.00465592
0.00470554
0.0048142
0.00493748
0.00509568
0.0052745
0.00547185
0.00564443
0.00582359
0.00598442
0.00612631
0.00625547
0.00637717
0.00649109
0.00658923
0.00666051
0.00670574
0.00651581
0.00644107
0.00634925
0.00623211
0.00608893
0.00592707
0.00575213
0.00556793
0.00537175
0.00516235
0.00495273
0.0047685
0.00463144
0.00458688
0.00460667
0.00467741
0.00476926
0.00490301
0.00506055
0.00524229
0.00541536
0.00560514
0.00577961
0.00593917
0.00608809
0.00622457
0.00634924
0.00645558
0.00653496
0.0065973
0.00631119
0.00623298
0.00614906
0.00604463
0.00591918
0.00577221
0.00560939
0.00543672
0.00525191
0.00505296
0.00485691
0.00467793
0.00453823
0.0044779
0.00447014
0.00450673
0.0045691
0.00467941
0.00481488
0.00498048
0.00515056
0.0053442
0.00552767
0.00569829
0.00585501
0.00599861
0.0061293
0.00624155
0.00632858
0.00640422
0.00604495
0.00597269
0.00589907
0.00581697
0.00570642
0.00557364
0.00542666
0.00526899
0.00509543
0.00490771
0.00472305
0.00454785
0.00440612
0.00433027
0.0042983
0.00430573
0.00434112
0.00442957
0.00454339
0.00469259
0.00485753
0.00505099
0.00523942
0.00541429
0.00557548
0.0057233
0.00585751
0.00597302
0.00606343
0.00613949
0.00573192
0.00567367
0.00561787
0.00554834
0.00545468
0.0053411
0.0052106
0.00506513
0.00490129
0.0047235
0.0045465
0.00437462
0.00423203
0.00414313
0.00409175
0.00407626
0.00409475
0.00415713
0.00425073
0.00438305
0.00454221
0.00473188
0.00492034
0.005095
0.00525703
0.00540589
0.00554105
0.00565699
0.00574891
0.00582077
0.00538616
0.00534903
0.00530711
0.00525194
0.00517388
0.00507547
0.00495747
0.0048205
0.0046628
0.00449138
0.00431805
0.00414967
0.00400815
0.00391239
0.00384842
0.00381769
0.0038224
0.00386857
0.00394013
0.00405531
0.00420845
0.00439045
0.00457046
0.00474118
0.00490177
0.00504958
0.00518174
0.00529645
0.00538866
0.00545801
0.00501754
0.00499781
0.00497211
0.00492862
0.00485935
0.00476902
0.00465662
0.004522
0.00436564
0.00419601
0.00402424
0.00386092
0.00372366
0.0036328
0.00356528
0.0035295
0.00352807
0.00355832
0.00361421
0.00371382
0.00385641
0.00402916
0.00420418
0.00437398
0.00453413
0.00468138
0.00481138
0.00492162
0.00500689
0.00506728
0.00462094
0.00461634
0.00459918
0.00455899
0.00449179
0.00440156
0.00428752
0.00414982
0.00399307
0.00382561
0.00365935
0.00350765
0.00338466
0.0033073
0.0032506
0.00322189
0.00321801
0.00323973
0.00328422
0.00336911
0.00349353
0.00364895
0.00381145
0.00397403
0.00413085
0.00427627
0.00440491
0.00451261
0.00459335
0.00464897
0.00417521
0.00417775
0.00415901
0.00411344
0.00404226
0.00395013
0.00383757
0.0037067
0.00356161
0.00341087
0.00326559
0.00314011
0.00304419
0.00298771
0.00295275
0.00293671
0.00293613
0.00295252
0.00298764
0.00305332
0.00314903
0.00327479
0.00340978
0.00354943
0.00368928
0.00382309
0.00394473
0.00404862
0.0041278
0.00418471
0.00365675
0.00366056
0.00364139
0.00359877
0.00353801
0.00346466
0.00337902
0.00328132
0.00317513
0.00306641
0.00296322
0.00287791
0.00281458
0.00277941
0.00276117
0.00275476
0.0027552
0.00276696
0.00278821
0.00282943
0.00289138
0.00297839
0.00306983
0.0031665
0.00326601
0.00336397
0.00345671
0.00353886
0.00360369
0.00365354
0.00318021
0.00319621
0.00319555
0.00317961
0.00315295
0.00311988
0.00307844
0.00302764
0.00296775
0.00290193
0.00283299
0.0027793
0.0027375
0.0027115
0.00269301
0.00268444
0.00268462
0.00269328
0.00270423
0.00272515
0.00275504
0.00279481
0.00284529
0.00290238
0.00296501
0.00302647
0.00308531
0.00313133
0.00315833
0.00317532
0.00289491
0.00292753
0.00294474
0.00294885
0.00294489
0.00293539
0.00291763
0.00289403
0.00286182
0.00282277
0.00278634
0.00275771
0.00273415
0.00272039
0.0027085
0.00270472
0.00270688
0.00271535
0.0027235
0.00273427
0.00274849
0.0027674
0.00279101
0.00281455
0.00283731
0.00285505
0.0028679
0.00287872
0.0028851
0.00288864
0.000227535
0.000226262
0.000220569
0.000212665
0.000203004
0.000192199
0.000180713
0.000169001
0.000157374
0.00014654
0.000137176
0.000131854
0.000136552
0.000156092
0.000179791
0.000206198
0.000228058
0.000247583
0.000257999
0.000257882
0.000254048
0.000248798
0.000242753
0.000236638
0.000230841
0.000225551
0.000221134
0.000216764
0.000213635
0.000209697
0.00116583
0.00125738
0.00120038
0.00111626
0.00103681
0.00096455
0.000898889
0.000839632
0.000786224
0.000741693
0.000687743
0.000657055
0.000685068
0.000802722
0.00095031
0.0011318
0.00128017
0.00142015
0.0014911
0.00145442
0.00138976
0.00131533
0.00123788
0.0011687
0.001108
0.00105547
0.00101025
0.000958708
0.000893616
0.000838658
0.00211805
0.00236363
0.00235364
0.00224315
0.00210428
0.00196241
0.00182692
0.00170363
0.00159399
0.00150251
0.00139535
0.00132308
0.00134818
0.00155096
0.00180876
0.00212957
0.00238265
0.00260899
0.00275292
0.00271335
0.00260287
0.00246894
0.00232728
0.00219863
0.00208665
0.00199096
0.00190865
0.00181826
0.0017154
0.00165438
0.0029698
0.0033573
0.0034173
0.00331055
0.00313461
0.00293665
0.00273825
0.00255551
0.00239377
0.00225683
0.00210196
0.00199552
0.00201637
0.00227047
0.00259808
0.00300662
0.00332863
0.00360208
0.0038023
0.00377928
0.00364448
0.00347279
0.00328883
0.00312097
0.00297668
0.00285622
0.00275821
0.00265403
0.00253964
0.00250488
0.00377897
0.00427685
0.00438881
0.00428896
0.00408829
0.00384692
0.00359693
0.00336325
0.00315653
0.00297853
0.00278697
0.00264803
0.0026716
0.00294893
0.00331489
0.00377199
0.00413338
0.0044368
0.00467597
0.00467873
0.00453677
0.00434463
0.00413618
0.00394625
0.00378607
0.00365626
0.00355786
0.00345562
0.00334574
0.00335261
0.0045685
0.00512954
0.00527615
0.00517873
0.00495965
0.00468492
0.00439509
0.00411984
0.00387574
0.00366302
0.00344046
0.00327895
0.00330896
0.00358723
0.0039684
0.00444589
0.00482505
0.00514704
0.00541586
0.00544805
0.00531464
0.00511626
0.00489711
0.00469805
0.00453472
0.00440733
0.00431558
0.00422604
0.00413197
0.00418532
0.00534345
0.00591885
0.0060819
0.00598213
0.00574844
0.00544892
0.00512925
0.00482316
0.00454897
0.00430789
0.00406165
0.00388591
0.00392271
0.00418809
0.00456702
0.00504474
0.00542663
0.00575604
0.00605288
0.00611463
0.00600639
0.00581491
0.00559538
0.00539608
0.00523904
0.00512268
0.0050419
0.00497193
0.00490194
0.004999
0.00609682
0.00664494
0.00680697
0.00670167
0.00645581
0.0061387
0.00579856
0.00547095
0.00517559
0.0049142
0.00464802
0.00446582
0.00450813
0.00475237
0.00511715
0.00558065
0.00595347
0.0063015
0.00660761
0.00668349
0.00662366
0.00645638
0.0062492
0.00605348
0.00590833
0.00580908
0.00574321
0.00569756
0.00565719
0.00578997
0.00681598
0.00730195
0.00743997
0.00734246
0.00708506
0.00675441
0.00640261
0.00606241
0.00575408
0.00547909
0.00519687
0.00501637
0.00506038
0.00527911
0.00562207
0.00606218
0.00642904
0.00677044
0.00709157
0.00718999
0.00714668
0.00702469
0.0068473
0.00667695
0.00654538
0.00646665
0.00642052
0.00640159
0.00639387
0.00655231
0.00748781
0.00789897
0.00800698
0.00790303
0.00764265
0.00730567
0.0069444
0.00659668
0.00628308
0.00600033
0.00570591
0.00553296
0.00557423
0.00576608
0.00608281
0.00649365
0.00685551
0.00717901
0.00751249
0.0076324
0.00761973
0.00753563
0.0073946
0.00725661
0.0071482
0.0070903
0.00706865
0.00707678
0.00710195
0.00727765
0.00810045
0.00843403
0.00850321
0.00838329
0.00811831
0.00778133
0.00742211
0.00707592
0.00676246
0.00647326
0.0061733
0.0060107
0.00604355
0.00620989
0.00649786
0.00687563
0.00721843
0.00753134
0.00787263
0.00801502
0.00803945
0.00799099
0.00789318
0.00779065
0.00771084
0.00767287
0.00767813
0.00771369
0.00776696
0.00795064
0.00864172
0.00889864
0.00892553
0.00878714
0.00852135
0.00818844
0.00783494
0.00749459
0.00718611
0.00689645
0.0065973
0.0064464
0.0064634
0.00660529
0.0068627
0.00720556
0.00752686
0.00782704
0.00817024
0.00833742
0.0084007
0.00838833
0.00833795
0.00827374
0.00822402
0.00820815
0.00823921
0.00829725
0.00837192
0.00855348
0.0091071
0.00928883
0.00927425
0.00911823
0.00885434
0.00852938
0.00818602
0.00785577
0.00755511
0.00726826
0.00697508
0.00683663
0.00682988
0.00694811
0.00717197
0.00747421
0.00777524
0.00806185
0.00840099
0.00859376
0.00869327
0.00872204
0.00872002
0.00869648
0.00867759
0.00868941
0.00873887
0.00881254
0.00889959
0.00906992
0.00948844
0.00960174
0.00955014
0.00938024
0.00911951
0.008806
0.00847632
0.00815948
0.00786996
0.00758478
0.00729981
0.00717495
0.00714806
0.00723196
0.00741698
0.00767288
0.00794628
0.00822028
0.00855512
0.00877474
0.00890875
0.00898204
0.00902714
0.00904665
0.00906605
0.00910978
0.00916861
0.00924829
0.00933832
0.00948597
0.00977962
0.009836
0.00975455
0.00957545
0.00931998
0.00902008
0.00870698
0.00840561
0.00812854
0.00784654
0.00756105
0.00744271
0.00741525
0.00745486
0.00759009
0.00779492
0.00803403
0.00829481
0.00861735
0.00886051
0.00903431
0.00915491
0.00924268
0.00931274
0.00937826
0.00945254
0.00952813
0.00960309
0.00968489
0.00979517
0.00998098
0.00999148
0.0098886
0.00970526
0.00945813
0.00917322
0.00887858
0.00859248
0.00832305
0.00804475
0.00776188
0.00763804
0.00759027
0.00760265
0.00768736
0.00783513
0.00803526
0.00828021
0.00858279
0.00884403
0.00905546
0.00922479
0.00936632
0.00949296
0.00960107
0.00970455
0.00979952
0.00988375
0.00994685
0.0100144
0.010095
0.0100674
0.00995221
0.00977005
0.00953472
0.00926496
0.00898397
0.00871017
0.00844833
0.00817461
0.00789734
0.00776413
0.00769026
0.00766665
0.00770154
0.00779323
0.00794938
0.0081711
0.00845266
0.0087425
0.0089948
0.00921543
0.00940393
0.00957134
0.00972384
0.00985707
0.00997179
0.0100685
0.0101347
0.0101692
0.0101417
0.0100757
0.00994851
0.00976674
0.00954116
0.00928484
0.009018
0.00875617
0.00850115
0.00823107
0.00796337
0.00781543
0.00771176
0.00764896
0.00763268
0.00767007
0.00777834
0.00797296
0.0082289
0.00852417
0.00880259
0.00908928
0.00934552
0.00956214
0.00974361
0.00990016
0.0100359
0.0101479
0.0102224
0.01025
0.0101141
0.0100103
0.00987308
0.00969281
0.00947429
0.00923133
0.00897837
0.00872742
0.00847782
0.00821068
0.00795363
0.00778722
0.00765136
0.00754735
0.00748009
0.0074613
0.00752565
0.00768646
0.00791773
0.00820979
0.00850316
0.00882222
0.00911596
0.00939254
0.00963175
0.00982641
0.00998505
0.0101094
0.0101912
0.0102336
0.00999219
0.009863
0.0097222
0.00954174
0.00933242
0.00910168
0.00886149
0.00861967
0.00837377
0.0081091
0.00786005
0.00767579
0.0075062
0.00736083
0.00724491
0.00717379
0.00719609
0.00731816
0.00752385
0.00780831
0.00810886
0.00844876
0.00877581
0.00908314
0.00935697
0.00959952
0.00979997
0.00995518
0.0100581
0.0101142
0.00975397
0.00962664
0.00948552
0.00931
0.00910962
0.00889117
0.00866212
0.00842724
0.00818293
0.0079207
0.00767556
0.00747482
0.00727376
0.00708932
0.00692962
0.00681211
0.00679542
0.00687733
0.00705502
0.00732647
0.00763055
0.00798193
0.00833501
0.00866614
0.0089677
0.00923962
0.00947126
0.00965833
0.00979196
0.00987971
0.00940458
0.0092933
0.00915613
0.0089892
0.00879997
0.00859314
0.0083731
0.00814261
0.00789751
0.0076384
0.00739262
0.00717559
0.00695213
0.00673365
0.00653803
0.00638284
0.0063315
0.00637474
0.00652175
0.00677398
0.00707816
0.00743227
0.00780335
0.00814882
0.00846696
0.00876124
0.0090226
0.00924438
0.00941288
0.00952811
0.00894363
0.00885637
0.00872737
0.00857232
0.00839548
0.00819877
0.00798511
0.00775623
0.00751018
0.00725221
0.00700338
0.00677208
0.00653777
0.0062963
0.00607591
0.00589496
0.00581416
0.00582316
0.00593837
0.00616489
0.006462
0.00681196
0.00718849
0.00753473
0.00786993
0.00817883
0.00845638
0.00869997
0.00889939
0.00904062
0.00837093
0.00830531
0.00819171
0.008052
0.00788618
0.00769711
0.00748724
0.00725841
0.00701115
0.00675397
0.00650344
0.00626559
0.00602816
0.005785
0.00555386
0.00536101
0.00525711
0.00523936
0.00532472
0.00551818
0.00579545
0.00613588
0.00650163
0.00686601
0.0072109
0.00753187
0.00781994
0.00807426
0.00828638
0.00844075
0.00768468
0.00763733
0.00754283
0.00741573
0.00725814
0.00707498
0.00686867
0.00664202
0.00639766
0.00614625
0.00590145
0.00566923
0.00544282
0.00521607
0.00499356
0.00480366
0.00468419
0.00464608
0.00471149
0.0048701
0.00510663
0.00542033
0.00576988
0.00612862
0.00647127
0.00679297
0.00708361
0.00734542
0.00756455
0.00772326
0.00687519
0.00684741
0.00676851
0.00665321
0.00650437
0.00633123
0.00613587
0.00592211
0.00569357
0.00546116
0.00523708
0.00502743
0.00482792
0.00463466
0.00443871
0.00426121
0.00414794
0.00412058
0.00417636
0.00429927
0.00447776
0.00471526
0.00501666
0.00534949
0.00567143
0.00597686
0.00625661
0.00651096
0.00672328
0.0068827
0.00595516
0.00594396
0.00588218
0.00578567
0.00565779
0.00551075
0.00534594
0.00516671
0.00497538
0.00478182
0.00459715
0.00442678
0.00426548
0.00411324
0.0039537
0.00380996
0.00373622
0.00371974
0.00376192
0.00385306
0.0039797
0.00414567
0.00434619
0.00458646
0.00486837
0.00513591
0.00538104
0.00560419
0.00579088
0.00594004
0.00501628
0.00502274
0.00498934
0.00492773
0.00484203
0.00474309
0.00463039
0.00450526
0.00436699
0.00422366
0.00408685
0.00395998
0.00383349
0.00371488
0.00360407
0.0035041
0.00345448
0.00344862
0.00347993
0.0035401
0.00362636
0.00373913
0.00386701
0.0040083
0.00417052
0.00436432
0.00456472
0.00474222
0.00487899
0.00499217
0.00423941
0.00427619
0.0042787
0.00425519
0.00421545
0.00416489
0.0041016
0.00402594
0.00393257
0.00382611
0.00372383
0.0036315
0.00353409
0.00344691
0.00336852