/*--------------------------------*- C++ -*----------------------------------*\
  =========                 |
  \\      /  F ield         | OpenFOAM: The Open Source CFD Toolbox
   \\    /   O peration     | Website:  https://openfoam.org
    \\  /    A nd           | Version:  12
     \\/     M anipulation  |
\*---------------------------------------------------------------------------*/
FoamFile
{
    format      ascii;
    class       volScalarField;
    location    "350/air";
    object      p_rgh;
}
// * * * * * * * * * * * * * * * * * * * * * * * * * * * * * * * * * * * * * //

dimensions      [1 -1 -2 0 0 0 0];

internalField   nonuniform List<scalar> 
243000
(
30.958
30.7414
30.5739
30.3463
30.1237
29.9147
29.7231
29.5546
29.4027
29.2719
29.1425
29.0092
28.8268
28.7811
28.8407
28.8974
28.8733
28.99
29.1309
29.3349
29.4889
29.67
29.8287
29.9911
30.1431
30.2827
30.4252
30.5344
30.6854
30.7396
30.949
30.733
30.5811
30.3586
30.1405
29.9333
29.742
29.5732
29.4204
29.2884
29.1574
29.0235
28.8423
28.8022
28.8576
28.93
28.908
29.0231
29.1592
29.3642
29.5178
29.6987
29.8559
30.0172
30.1677
30.3057
30.4475
30.5553
30.7105
30.7713
30.8785
30.6472
30.5168
30.3052
30.1003
29.904
29.7225
29.5632
29.4174
29.2894
29.1582
29.0245
28.8443
28.8101
28.8584
28.9291
28.8908
28.9973
29.1178
29.3175
29.4662
29.6478
29.8059
29.9715
30.129
30.2736
30.4245
30.5366
30.7029
30.7653
30.7501
30.516
30.3992
30.1974
30.0101
29.8304
29.6644
29.5183
29.3825
29.2616
29.1317
28.9992
28.8271
28.8017
28.8351
28.8831
28.8166
28.9008
28.9979
29.1869
29.3337
29.5205
29.686
29.8603
30.0265
30.1787
30.3372
30.454
30.623
30.6884
30.5899
30.3635
30.2599
30.0717
29.9041
29.7419
29.5924
29.4604
29.3354
29.2223
29.0934
28.9622
28.7989
28.7804
28.7954
28.8127
28.7151
28.7697
28.8401
29.0141
29.159
29.3513
29.5266
29.7119
29.8893
30.0518
30.2192
30.3432
30.5111
30.5824
30.4056
30.1966
30.1061
29.9348
29.788
29.6443
29.5122
29.3949
29.2813
29.1757
29.0485
28.9191
28.7651
28.751
28.7467
28.7328
28.6058
28.6302
28.672
28.8268
28.9666
29.1629
29.3462
29.5416
29.7295
29.9021
30.0776
30.2092
30.3729
30.4523
30.2032
30.0178
29.9401
29.7879
29.6626
29.5381
29.424
29.3217
29.2197
29.1215
28.9965
28.8701
28.7257
28.7142
28.6894
28.644
28.4906
28.485
28.4983
28.6305
28.7616
28.9589
29.1485
29.3526
29.55
29.7321
29.9145
30.0541
30.2114
30.301
29.9884
29.8302
29.7648
29.6335
29.5298
29.4248
29.3289
29.2419
29.1514
29.0604
28.9384
28.8164
28.6822
28.6714
28.6261
28.5502
28.3729
28.3398
28.3257
28.433
28.5519
28.7464
28.9397
29.1505
29.3557
29.5461
29.734
29.8814
30.0311
30.132
29.7664
29.6366
29.5833
29.4742
29.3917
29.3064
29.229
29.157
29.078
28.9941
28.876
28.7599
28.6361
28.6242
28.5598
28.4561
28.2579
28.1992
28.1602
28.2412
28.3453
28.5336
28.7273
28.9415
29.1519
29.3485
29.5401
29.6949
29.8371
29.9496
29.5408
29.4394
29.3982
29.3121
29.2504
29.185
29.1258
29.0686
29.0008
28.924
28.8108
28.7022
28.5894
28.5746
28.4928
28.3654
28.1493
28.0673
28.0064
28.0606
28.148
28.3263
28.5167
28.7312
28.9436
29.1441
29.337
29.4984
29.6333
29.7573
29.315
29.2412
29.2124
29.1497
29.1083
29.0628
29.0214
28.9785
28.9215
28.8516
28.7444
28.6454
28.5433
28.5251
28.4271
28.2813
28.0524
27.9492
27.8685
27.8959
27.9652
28.13
28.3134
28.5244
28.7355
28.9372
29.129
29.2955
29.4237
29.5586
29.0922
29.0447
29.0288
28.9896
28.968
28.9421
28.9177
28.8884
28.8421
28.7796
28.6803
28.5924
28.4998
28.4772
28.3652
28.2072
27.9716
27.8497
27.751
27.7524
27.8011
27.9497
28.1223
28.326
28.5322
28.7321
28.9202
29.09
29.212
29.357
28.8761
28.8531
28.8507
28.8346
28.8321
28.8253
28.8168
28.8008
28.7656
28.7117
28.6224
28.5447
28.4604
28.4331
28.3101
28.1443
27.9073
27.7701
27.6557
27.6352
27.6613
27.7903
27.9484
28.1408
28.3384
28.5333
28.715
28.8859
29.0023
29.1564
28.6706
28.6706
28.6814
28.6881
28.7033
28.7147
28.7218
28.7192
28.6959
28.651
28.5715
28.5033
28.4261
28.3937
28.2622
28.0921
27.8589
27.7106
27.5831
27.5443
27.5505
27.6564
27.7964
27.974
28.1591
28.3456
28.5182
28.6877
28.7987
28.9611
28.4811
28.4993
28.525
28.5524
28.586
28.6152
28.6376
28.6478
28.6355
28.5991
28.5289
28.4696
28.3982
28.359
28.2224
28.052
27.825
27.6704
27.5328
27.4785
27.4699
27.5524
27.6714
27.8305
27.9995
28.1742
28.3352
28.5004
28.6058
28.7749
28.3097
28.3443
28.3854
28.4333
28.4854
28.5324
28.5682
28.5896
28.5862
28.5573
28.4963
28.445
28.3781
28.3321
28.1946
28.0255
27.8051
27.6483
27.5028
27.4355
27.4159
27.4787
27.5766
27.7156
27.8654
28.0247
28.1715
28.3293
28.4289
28.6015
28.1605
28.2115
28.2686
28.337
28.4062
28.4695
28.5169
28.5475
28.5506
28.5277
28.476
28.4302
28.3671
28.3168
28.1802
28.0135
27.7982
27.6399
27.4909
27.4138
27.3844
27.4315
27.5104
27.6303
27.7604
27.9033
28.0336
28.1804
28.2734
28.4455
28.0391
28.1062
28.1796
28.2673
28.3521
28.4299
28.4868
28.5242
28.5308
28.5127
28.4687
28.4291
28.3688
28.3161
28.1803
28.016
27.8091
27.6484
27.4936
27.4109
27.3749
27.4095
27.4712
27.5722
27.6844
27.8118
27.9266
28.0606
28.1455
28.3133
27.9491
28.032
28.1207
28.2262
28.323
28.4121
28.477
28.5211
28.5293
28.5154
28.475
28.4379
28.3801
28.3258
28.1927
28.0342
27.8368
27.6788
27.5235
27.4328
27.3896
27.4168
27.4707
27.5498
27.6399
27.7499
27.8518
27.9733
28.0521
28.2082
27.8903
27.9889
28.0891
28.2063
28.3138
28.4146
28.4958
28.5418
28.547
28.5325
28.4954
28.4597
28.4033
28.3476
28.2184
28.0669
27.8797
27.7261
27.5728
27.4765
27.4285
27.4487
27.4921
27.5631
27.6444
27.7361
27.818
27.9216
27.9926
28.1325
27.8613
27.9704
28.082
28.2172
28.3485
28.4614
28.5421
28.5828
28.5842
28.5679
28.5313
28.4946
28.4385
28.3811
28.2568
28.1128
27.9365
27.7889
27.6396
27.5413
27.4909
27.5061
27.5421
27.6025
27.6724
27.7562
27.8313
27.9259
27.9887
28.0999
27.8641
27.9965
28.1343
28.2875
28.4259
28.5387
28.6127
28.6456
28.6419
28.622
28.5829
28.5427
28.4852
28.426
28.3069
28.1704
28.0052
27.865
27.7218
27.6259
27.5754
27.5878
27.6187
27.6721
27.734
27.8083
27.8749
27.9581
28.016
28.1137
27.9332
28.0854
28.2371
28.3996
28.5379
28.645
28.7087
28.7311
28.7206
28.6942
28.6496
28.6035
28.5425
28.4811
28.3669
28.2378
28.084
27.9522
27.8174
27.7271
27.6793
27.6913
27.7203
27.7703
27.8277
27.8969
27.9586
28.0349
28.0883
28.171
28.0563
28.2228
28.3849
28.5511
28.6837
28.7803
28.8298
28.8391
28.8192
28.7835
28.7301
28.6759
28.609
28.5449
28.4347
28.3133
28.1706
28.0483
27.9237
27.8417
27.7991
27.8134
27.8438
27.8944
27.9518
28.0201
28.0811
28.1554
28.2074
28.2841
28.2316
28.4073
28.5754
28.7393
28.8619
28.9432
28.9748
28.9692
28.9368
28.8882
28.823
28.7581
28.6834
28.6159
28.5089
28.3954
28.2632
28.1509
28.0381
27.9664
27.9311
27.9502
27.9853
28.0406
28.1025
28.1748
28.2403
28.3167
28.3721
28.448
28.4512
28.6321
28.8027
28.9602
29.0688
29.1304
29.1412
29.1196
29.0712
29.0061
28.9263
28.8487
28.765
28.6935
28.5898
28.4836
28.3609
28.2589
28.1588
28.0994
28.0721
28.098
28.1404
28.2037
28.2743
28.3548
28.4291
28.5117
28.5748
28.654
28.7203
28.9014
29.0701
29.2171
29.3072
29.3449
29.3339
29.2922
29.2236
29.1381
29.04
28.9466
28.8525
28.7779
28.6776
28.5777
28.4637
28.3727
28.2865
28.24
28.2208
28.2558
28.309
28.3847
28.469
28.563
28.6512
28.7452
28.8207
28.9084
28.9744
29.1657
29.3383
29.474
29.5432
29.5561
29.5242
29.4601
29.3689
29.2621
29.1449
29.0357
28.9326
28.8565
28.761
28.6677
28.5629
28.4832
28.412
28.3758
28.3645
28.4082
28.4706
28.556
28.6513
28.7555
28.8549
28.9579
29.0441
29.141
29.4829
29.6515
29.7899
29.8898
29.9264
29.9073
29.8402
29.74
29.6136
29.4745
29.3279
29.1954
29.0786
28.997
28.9053
28.8196
28.7283
28.6669
28.6172
28.5994
28.6016
28.6678
28.7603
28.8802
29.0101
29.1475
29.279
29.41
29.5221
29.6423
28.9572
29.2162
29.444
29.5863
29.6223
29.5927
29.5128
29.3992
29.2596
29.1091
28.9554
28.8191
28.7034
28.6253
28.5379
28.4521
28.3542
28.2883
28.2307
28.1995
28.1789
28.2195
28.2943
28.3989
28.5139
28.6348
28.7495
28.865
28.965
29.0764
30.4506
29.9745
29.7914
29.5914
29.4332
29.2987
29.1848
29.0928
29.0096
28.9406
28.8598
28.76
28.599
28.4832
28.4047
28.1455
27.8312
27.6843
27.6615
27.8354
28.0689
28.3847
28.6997
29.0178
29.3104
29.5679
29.8017
29.9692
30.1483
30.1728
30.3555
29.9347
29.7938
29.6049
29.454
29.3218
29.2087
29.1169
29.0358
28.9667
28.8838
28.7833
28.6227
28.5108
28.4417
28.183
27.8704
27.7147
27.6817
27.8553
28.0912
28.4087
28.7241
29.0421
29.3341
29.5908
29.8243
29.9912
30.174
30.2064
30.2422
29.866
29.7508
29.5744
29.4344
29.3103
29.205
29.1184
29.0393
28.9718
28.8881
28.7877
28.6274
28.5149
28.4463
28.1776
27.8625
27.6995
27.65
27.8084
28.0333
28.3537
28.6724
28.9957
29.2915
29.5516
29.7893
29.9549
30.1386
30.1778
30.0931
29.76
29.6669
29.5056
29.383
29.272
29.1778
29.1011
29.0279
28.964
28.8748
28.7708
28.611
28.4974
28.4229
28.141
27.8261
27.6546
27.589
27.728
27.94
28.2537
28.5693
28.8931
29.193
29.4585
29.699
29.8691
30.0558
30.1079
29.9268
29.6367
29.5647
29.4195
29.3141
29.2165
29.1342
29.067
29.0005
28.9399
28.847
28.7404
28.581
28.466
28.3819
28.0858
27.7705
27.5908
27.5097
27.6264
27.8237
28.1292
28.4414
28.765
29.0677
29.3367
29.5825
29.7577
29.942
30.0109
29.7478
29.5048
29.4481
29.3196
29.2312
29.1476
29.0781
29.021
28.9616
28.9041
28.8082
28.6991
28.5398
28.4243
28.3283
28.0191
27.7034
27.5153
27.4203
27.513
27.6934
27.9888
28.2963
28.6188
28.9232
29.1951
29.445
29.6259
29.8042
29.8917
29.5607
29.3652
29.3198
29.2089
29.1372
29.0683
29.0122
28.9654
28.9134
28.8588
28.7606
28.6497
28.4904
28.3758
28.2666
27.9467
27.6308
27.4351
27.3275
27.3952
27.5568
27.8398
28.1407
28.4605
28.7653
29.0392
29.2914
29.4783
29.6482
29.7547
29.3689
29.2185
29.1822
29.0896
29.0347
28.981
28.9386
28.9024
28.8578
28.8062
28.7063
28.5948
28.4359
28.3232
28.1996
27.8736
27.5576
27.3562
27.2366
27.279
27.4202
27.6882
27.9803
28.2951
28.5983
28.873
29.1257
29.3186
29.479
29.6037
29.1751
29.0658
29.0377
28.9642
28.9261
28.888
28.8592
28.8337
28.7967
28.7482
28.6476
28.5368
28.3792
28.2695
28.1311
27.8038
27.4885
27.2821
27.1515
27.1693
27.2886
27.5391
27.8197
28.1269
28.4262
28.7
28.9513
29.1498
29.3008
29.4422
28.9805
28.9083
28.8885
28.8351
28.8136
28.7914
28.7763
28.7613
28.7321
28.6868
28.5868
28.4778
28.3228
28.2182
28.0676
27.7408
27.4279
27.2164
27.0753
27.0703
27.1664
27.3963
27.6628
27.9598
28.2526
28.5235
28.7711
28.9746
29.1166
29.2732
28.7867
28.7479
28.7371
28.7047
28.6998
28.6936
28.6918
28.6874
28.6661
28.6244
28.5263
28.4201
28.2702
28.1718
28.0116
27.6875
27.3787
27.1626
27.011
26.9857
27.0581
27.264
27.5133
27.7972
28.0807
28.3465
28.5883
28.7955
28.9295
29.0996
28.5964
28.5874
28.5865
28.5762
28.5873
28.5969
28.6079
28.6139
28.601
28.5634
28.4688
28.3666
28.2254
28.1315
27.9635
27.6469
27.3434
27.124
26.9622
26.9181
26.967
27.1468
27.3753
27.6428
27.914
28.1723
28.406
28.6151
28.7422
28.9245
28.4135
28.4295
28.4398
28.4517
28.4788
28.5039
28.5278
28.5438
28.5393
28.5057
28.4162
28.3199
28.1891
28.1001
27.9244
27.6188
27.3211
27.1036
26.932
26.8699
26.8965
27.0484
27.253
27.5005
27.7563
28.0046
28.2278
28.4366
28.5577
28.7508
28.2408
28.2782
28.3009
28.334
28.3774
28.4183
28.4549
28.4807
28.484
28.4549
28.3699
28.2809
28.1608
28.0801
27.8959
27.6029
27.3097
27.0934
26.9178
26.8433
26.8499
26.9725
27.1505
27.3747
27.6117
27.8472
28.0579
28.2638
28.3795
28.5816
28.0811
28.1379
28.1737
28.2278
28.2873
28.3438
28.3929
28.4284
28.4387
28.4147
28.3354
28.254
28.145
28.0708
27.8807
27.6003
27.3091
27.0919
26.9129
26.8336
26.8252
26.9231
27.0724
27.27
27.485
27.7048
27.9009
28.1012
28.2121
28.4206
27.938
28.0133
28.0629
28.1376
28.2127
28.285
28.3461
28.39
28.4046
28.3847
28.3154
28.2454
28.1483
28.0749
27.8825
27.6155
27.333
27.118
26.9326
26.8395
26.8234
26.902
27.0213
27.1913
27.3817
27.5827
27.7623
27.954
28.0602
28.2719
27.816
27.9095
27.9735
28.0685
28.1588
28.2453
28.3165
28.3663
28.3838
28.3679
28.3131
28.2526
28.1634
28.0911
27.8998
27.6481
27.3753
27.1641
26.9745
26.8714
26.8446
26.9111
27.0114
27.1476
27.3074
27.4864
27.6484
27.8282
27.9292
28.1395
27.7203
27.8325
27.9095
28.0231
28.1251
28.2225
28.3025
28.3598
28.3824
28.3718
28.3239
28.2731
28.1935
28.1237
27.9354
27.6991
27.4368
27.23
27.0381
26.9279
26.8911
26.943
27.0289
27.1514
27.2797
27.4247
27.565
27.7301
27.8266
28.027
27.6521
27.783
27.8702
27.9954
28.108
28.2161
28.3093
28.3801
28.4037
28.3959
28.3552
28.3119
28.2413
28.1735
27.9899
27.769
27.5178
27.3162
27.1236
27.0097
26.9638
27.0032
27.0725
27.1779
27.293
27.4202
27.5311
27.6671
27.7548
27.9398
27.6144
27.7541
27.8534
27.9901
28.1211
28.2527
28.3555
28.4267
28.4493
28.4438
28.4084
28.3711
28.3069
28.2409
28.0635
27.8574
27.6178
27.4223
27.2312
27.1163
27.0633
27.0921
27.1473
27.235
27.3319
27.4456
27.5454
27.6646
27.7357
27.8839
27.6067
27.7546
27.8827
28.044
28.1911
28.3292
28.4316
28.5004
28.5211
28.5165
28.4851
28.4517
28.3911
28.3264
28.1559
27.9638
27.7359
27.5473
27.36
27.2466
27.1895
27.2101
27.2539
27.327
27.4088
27.505
27.5898
27.695
27.7589
27.8863
27.6639
27.8315
27.9776
28.1506
28.3029
28.4399
28.5391
28.6029
28.6205
28.6154
28.5862
28.5546
28.4945
28.43
28.2665
28.0869
27.8704
27.6896
27.5079
27.3989
27.341
27.3562
27.3921
27.4544
27.5245
27.6074
27.6804
27.7694
27.8256
27.9299
27.782
27.9649
28.1235
28.3021
28.4547
28.5871
28.6795
28.7357
28.7484
28.7412
28.7117
28.6796
28.6175
28.5513
28.394
28.2252
28.0191
27.8467
27.6726
27.5706
27.5155
27.5285
27.5605
27.6166
27.6794
27.7536
27.8185
27.8968
27.9466
28.0365
27.9625
28.1551
28.3207
28.4987
28.6473
28.7712
28.8532
28.8988
28.9048
28.8939
28.8613
28.8261
28.7598
28.6898
28.5371
28.3769
28.1801
28.0163
27.8513
27.7594
27.7102
27.7241
27.7562
27.8109
27.8718
27.9424
28.0044
28.0767
28.1241
28.2049
28.2041
28.4001
28.5682
28.7404
28.8804
28.9915
29.0596
29.0922
29.0899
29.073
29.0347
28.9938
28.9211
28.8454
28.695
28.5413
28.352
28.196
28.0415
27.9618
27.9213
27.9398
27.9759
28.0336
28.0978
28.1705
28.2354
28.3075
28.3574
28.434
28.5015
28.696
28.8627
29.0251
29.1525
29.2472
29.2984
29.3165
29.3049
29.2788
29.2319
29.1826
29.1015
29.0188
28.8678
28.7176
28.5339
28.3862
28.2449
28.1775
28.1476
28.1718
28.216
28.2818
28.3538
28.4335
28.5064
28.584
28.6409
28.7177
28.8606
29.0498
29.2093
29.357
29.4675
29.5422
29.5738
29.5748
29.5505
29.5109
29.4514
29.3895
29.2985
29.2085
29.0543
28.9064
28.7291
28.5911
28.4633
28.4083
28.3908
28.4227
28.4764
28.5539
28.6415
28.735
28.8219
28.9109
28.9805
29.0623
29.244
29.4278
29.5795
29.711
29.8022
29.8548
29.8655
29.8494
29.8078
29.7517
29.6806
29.6097
29.5109
29.4133
29.2579
29.1159
28.9444
28.8127
28.6956
28.651
28.648
28.6918
28.7549
28.8412
28.938
29.0446
29.1477
29.2518
29.337
29.4269
29.7958
29.9623
30.0924
30.1997
30.2657
30.2919
30.2816
30.2472
30.1884
30.116
30.0279
29.9431
29.8358
29.7337
29.5781
29.4403
29.2734
29.1506
29.045
29.0103
29.0179
29.0724
29.1492
29.2515
29.367
29.493
29.6173
29.741
29.8506
29.9562
30.5702
30.6926
30.8029
30.8853
30.9246
30.9241
30.8915
30.8323
30.7479
30.6511
30.5431
30.4398
30.3199
30.2107
30.0571
29.9328
29.7844
29.6845
29.6011
29.5908
29.6182
29.6869
29.781
29.9031
30.0398
30.1868
30.3325
30.4751
30.6053
30.7294
30.2297
29.644
29.4773
29.2651
29.1133
28.9892
28.8881
28.809
28.7413
28.6835
28.6083
28.5049
28.2933
28.113
27.8465
27.5506
27.2754
27.1444
27.1051
27.2485
27.4398
27.7474
28.0661
28.4067
28.7311
29.0238
29.2966
29.4965
29.736
29.7811
30.1073
29.601
29.4794
29.2802
29.1368
29.0161
28.9166
28.8424
28.7777
28.7213
28.6454
28.5391
28.327
28.152
27.8849
27.5877
27.3038
27.1573
27.1089
27.258
27.4556
27.768
28.09
28.4327
28.7582
29.0513
29.3251
29.5253
29.7702
29.8225
29.9816
29.5534
29.4557
29.2731
29.139
29.0214
28.9244
28.8522
28.789
28.734
28.6558
28.549
28.3371
28.1637
27.8947
27.5976
27.3007
27.1438
27.0805
27.2204
27.4176
27.7407
28.0693
28.4177
28.7463
29.0412
29.3166
29.516
29.7578
29.8247
29.8169
29.462
29.3865
29.2275
29.1109
29.0054
28.9175
28.8524
28.7912
28.7371
28.6535
28.5399
28.3249
28.1487
27.8738
27.5757
27.271
27.1057
27.0289
27.1531
27.3392
27.6565
27.9878
28.3446
28.6797
28.98
29.2596
29.4616
29.6938
29.7847
29.6418
29.3511
29.2987
29.1545
29.0545
28.9614
28.8848
28.828
28.7715
28.719
28.6279
28.508
28.2933
28.1138
27.8314
27.5324
27.2207
27.0498
26.9603
27.066
27.2392
27.5491
27.8755
28.2301
28.5687
28.8747
29.1554
29.3642
29.5869
29.7049
29.4587
29.2332
29.1946
29.0659
28.9823
28.9022
28.8374
28.7891
28.7376
28.6862
28.5882
28.4624
28.2477
28.0636
27.7741
27.4748
27.1573
26.9821
26.8804
26.9662
27.1248
27.4257
27.7467
28.0982
28.4367
28.7447
29.0288
29.2434
29.456
29.6032
29.2709
29.1071
29.076
28.9641
28.8968
28.8302
28.7775
28.7381
28.6914
28.6408
28.5365
28.4064
28.1913
28.0022
27.7069
27.4083
27.0863
26.9078
26.7946
26.8598
27.002
27.2922
27.6065
27.9539
28.2912
28.6004
28.8861
29.1074
29.3072
29.4833
29.0815
28.9719
28.9449
28.8513
28.7999
28.7473
28.7071
28.6765
28.6346
28.5851
28.4754
28.3424
28.1266
27.9332
27.634
27.3378
27.0127
26.8317
26.7072
26.7517
26.8758
27.1533
27.4592
27.8011
28.1358
28.4452
28.7308
28.9593
29.1451
29.3478
28.8917
28.8276
28.8032
28.7295
28.6939
28.6556
28.6278
28.6061
28.5693
28.521
28.4071
28.2728
28.0563
27.86
27.5582
27.2675
26.9409
26.7579
26.6222
26.6466
26.7505
27.0127
27.3084
27.643
27.9733
28.2816
28.5653
28.8012
28.9732
29.1995
28.7005
28.6747
28.6534
28.6009
28.5808
28.5573
28.5418
28.5288
28.4974
28.4507
28.3341
28.1998
27.9829
27.7859
27.4831
27.2005
26.8744
26.6902
26.5429
26.5484
26.6309
26.8747
27.1573
27.4825
27.8064
28.1121
28.392
28.6347
28.7941
29.0407
28.5085
28.5145
28.4979
28.4678
28.4628
28.4542
28.4508
28.4467
28.421
28.3765
28.2588
28.126
27.9092
27.7142
27.4128
27.1405
26.8164
26.6322
26.4726
26.461
26.5212
26.7435
27.0099
27.3227
27.6377
27.9389
28.2132
28.4617
28.6102
28.8738
28.3183
28.3484
28.3397
28.333
28.3423
28.3489
28.3571
28.3617
28.3425
28.301
28.1837
28.0537
27.8381
27.6482
27.3508
27.0902
26.7714
26.5882
26.4152
26.3879
26.4249
26.623
26.87
27.1672
27.4703
27.7648
28.0313
28.2838
28.4234
28.7008
28.1303
28.1816
28.1834
28.1988
28.2223
28.2438
28.2635
28.2767
28.2644
28.2268
28.1119
27.986
27.7737
27.5879
27.2961
27.0483
26.7361
26.5565
26.3758
26.3338
26.3465
26.5172
26.7415
27.0198
27.3079
27.5931
27.8497
28.1039
28.2364
28.5245
27.9477
28.0189
28.0317
28.068
28.106
28.1426
28.1735
28.1952
28.1902
28.1571
28.0453
27.9245
27.7156
27.5332
27.248
27.0143
26.7081
26.5349
26.3488
26.2952
26.2912
26.432
26.6287
26.8847
27.1547
27.4278
27.6723
27.9253
28.0524
28.3481
27.7737
27.8635
27.8887
27.9451
27.9976
28.049
28.0912
28.1216
28.1223
28.0929
27.9841
27.8685
27.6618
27.488
27.2096
26.992
26.6929
26.524
26.3321
26.2694
26.2547
26.3682
26.5379
26.767
27.0155
27.2733
27.5039
27.7528
27.8756
28.1756
27.6123
27.7203
27.7588
27.8348
27.9019
27.9681
28.0197
28.0571
28.0616
28.0356
27.9308
27.82
27.6168
27.455
27.1838
26.9834
26.6888
26.5242
26.3274
26.2613
26.2336
26.3251
26.4696
26.671
26.8958
27.1353
27.3498
27.5916
27.7111
28.011
27.4687
27.5948
27.6478
27.7428
27.8226
27.9012
27.9607
28.0039
28.0113
27.9882
27.8895
27.7844
27.586
27.4355
27.1726
26.9906
26.7055
26.5497
26.3472
26.2746
26.2362
26.3103
26.4241
26.5992
26.7989
27.0186
27.2165
27.4478
27.5646
27.858
27.3501
27.4935
27.5592
27.6707
27.7617
27.8511
27.9182
27.9667
27.9754
27.9542
27.8617
27.7634
27.5719
27.4371
27.1778
27.0147
26.7399
26.5934
26.3874
26.3095
26.2613
26.3228
26.4217
26.5649
26.7312
26.9273
27.1085
27.326
27.4402
27.7234
27.2577
27.4198
27.4944
27.622
27.7238
27.823
27.8976
27.9499
27.9573
27.9372
27.8536
27.7663
27.5783
27.4504
27.2005
27.0568
26.793
26.656
26.4481
26.3674
26.3102
26.3586
26.4415
26.5726
26.7143
26.8772
27.032
27.2305
27.3411
27.6099
27.1965
27.3685
27.4556
27.5928
27.7046
27.812
27.8935
27.9516
27.9596
27.9427
27.8636
27.781
27.5977
27.4817
27.2414
27.1177
26.865
26.7377
26.53
26.4487
26.3842
26.4214
26.4876
26.6022
26.732
26.8817
27.0136
27.1785
27.2811
27.521
27.1664
27.3404
27.4407
27.5861
27.7104
27.8341
27.9247
27.9816
27.9849
27.9666
27.8912
27.8131
27.6363
27.5316
27.3008
27.197
26.9555
26.8383
26.633
26.5532
26.4838
26.5118
26.5647
26.6608
26.774
26.9117
27.0344
27.1845
27.2781
27.4715
27.1668
27.343
27.4713
27.6333
27.7707
27.897
27.9843
28.0355
28.0344
28.0141
27.9406
27.8656
27.6945
27.6002
27.3783
27.2943
27.064
26.957
26.7566
26.6803
26.6086
26.6296
26.6719
26.7534
26.8531
26.973
27.0835
27.2198
27.3077
27.4777
27.2338
27.4196
27.5618
27.7288
27.8688
27.9911
28.0714
28.1151
28.1097
28.0868
28.013
27.9395
27.7732
27.6873
27.4732
27.4087
27.1895
27.0931
26.8999
26.8293
26.758
26.7739
26.809
26.8798
26.9676
27.0762
27.1773
27.2961
27.3757
27.5222
27.3556
27.5453
27.6975
27.8654
28.0013
28.1157
28.1869
28.2218
28.2118
28.1851
28.1096
28.0358
27.8729
27.7925
27.5861
27.5395
27.3317
27.2479
27.0633
27.0002
26.9326
26.9442
26.9745
27.0381
27.1175
27.2183
27.3135
27.4226
27.4987
27.6234
27.5327
27.7209
27.8776
28.0396
28.1681
28.2716
28.3315
28.3563
28.341
28.309
28.2304
28.1545
27.9936
27.914
27.716
27.6872
27.4897
27.4141
27.2371
27.1823
27.1244
27.141
27.169
27.2269
27.302
27.3962
27.4911
27.5952
27.6708
27.7829
27.7605
27.9427
28.0984
28.25
28.3678
28.4578
28.5043
28.5176
28.4953
28.4561
28.3726
28.2926
28.1314
28.0513
27.8627
27.8469
27.6531
27.584
27.415
27.3688
27.3226
27.3483
27.3866
27.4489
27.5203
27.6112
27.7049
27.8106
27.8895
27.994
28.0373
28.2073
28.3564
28.4938
28.597
28.67
28.7006
28.7
28.6683
28.6193
28.5287
28.442
28.2797
28.2032
28.0161
28.0068
27.8168
27.7584
27.6002
27.5626
27.526
27.557
27.6088
27.6865
27.773
27.8676
27.9594
28.0609
28.15
28.253
28.3439
28.4959
28.6336
28.7533
28.8379
28.8903
28.9019
28.887
28.8428
28.7819
28.683
28.5916
28.4298
28.3498
28.1617
28.1672
27.9896
27.9471
27.8021
27.7736
27.7438
27.7749
27.8287
27.9145
28.0174
28.129
28.2391
28.3507
28.4415
28.5407
28.6528
28.7874
28.9063
29.006
29.0693
29.0986
29.0909
29.0602
29.0025
28.9296
28.8242
28.7288
28.5677
28.494
28.3234
28.3628
28.2054
28.1856
28.0606
28.045
28.0254
28.0581
28.1056
28.1808
28.2726
28.3829
28.4992
28.62
28.7253
28.8325
29.0156
29.1123
29.1977
29.2666
29.303
29.3074
29.2836
29.2388
29.1697
29.0873
28.97
28.8694
28.7175
28.6662
28.5227
28.6064
28.48
28.4925
28.3984
28.4016
28.3954
28.4337
28.4853
28.5627
28.655
28.7627
28.8747
28.9883
29.0942
29.1987
30.0847
29.3954
29.234
28.9923
28.8349
28.7124
28.6169
28.5475
28.4897
28.4413
28.3795
28.2648
27.994
27.7163
27.3935
27.1538
26.9946
26.9662
26.9287
27.0205
27.113
27.3724
27.6418
27.9608
28.2823
28.5859
28.8805
29.1028
29.3993
29.4673
29.9071
29.3073
29.2046
28.9951
28.8492
28.7324
28.6405
28.5779
28.526
28.4815
28.4192
28.2985
28.0243
27.7437
27.4084
27.1396
26.9459
26.8804
26.8342
26.9374
27.0443
27.324
27.6263
27.9643
28.2928
28.6014
28.9007
29.1263
29.4297
29.5035
29.7465
29.2502
29.1668
28.9808
28.8499
28.7373
28.6487
28.5889
28.5398
28.4985
28.4319
28.3101
28.0352
27.7518
27.4037
27.11
26.8845
26.7872
26.7274
26.8373
26.9571
27.2429
27.5645
27.9241
28.2681
28.5862
28.892
29.1196
29.4163
29.504
29.5431
29.1503
29.0929
28.9306
28.8194
28.7206
28.6427
28.59
28.5433
28.5032
28.4313
28.3
28.0189
27.7278
27.3686
27.0525
26.8
26.6815
26.6103
26.7157
26.8437
27.1341
27.4582
27.832
28.192
28.5224
28.8358
29.0712
29.357
29.4781
29.3409
29.0386
29.0055
28.8587
28.7655
28.6793
28.613
28.5688
28.5263
28.4871
28.4041
28.263
27.9782
27.6824
27.3124
26.9777
26.7024
26.5682
26.4867
26.5831
26.7152
27.0078
27.3338
27.7096
28.0808
28.4221
28.741
28.9843
29.2459
29.4098
29.1418
28.925
28.9032
28.7731
28.6971
28.6237
28.5688
28.5327
28.494
28.4546
28.3611
28.2105
27.9214
27.6206
27.2407
26.8912
26.5962
26.4493
26.3579
26.4423
26.575
26.8678
27.195
27.5722
27.946
28.2949
28.6162
28.8688
29.1132
29.3146
28.9464
28.8056
28.7868
28.6749
28.6152
28.5548
28.5114
28.483
28.4476
28.4076
28.3039
28.145
27.8516
27.546
27.1577
26.7973
26.4855
26.3283
26.2269
26.2976
26.4274
26.7179
27.0451
27.423
27.7986
28.1509
28.4754
28.7364
28.965
29.2018
28.7538
28.6775
28.6574
28.5653
28.5212
28.4739
28.4417
28.421
28.3886
28.3478
28.2344
28.0685
27.7712
27.4624
27.0675
26.7
26.3745
26.2087
26.0973
26.1529
26.2761
26.5614
26.8865
27.264
27.6407
27.9961
28.3225
28.593
28.8052
29.0741
28.5643
28.539
28.5161
28.4457
28.4163
28.3824
28.3612
28.3477
28.3185
28.2767
28.1546
27.9833
27.6824
27.3727
26.9732
26.6033
26.2668
26.0939
25.9724
26.0124
26.1256
26.4022
26.7224
27.0975
27.4739
27.8319
28.1589
28.4397
28.6363
28.9328
28.3769
28.3888
28.3645
28.3172
28.3018
28.2817
28.2712
28.2646
28.2386
28.1962
28.0666
27.8916
27.5873
27.2798
26.8778
26.5111
26.1665
25.9879
25.8555
25.8797
25.98
26.2442
26.5561
26.926
27.3001
27.6598
27.986
28.2769
28.46
28.7794
28.1885
28.227
28.2048
28.1815
28.1794
28.1733
28.1732
28.1734
28.1509
28.1086
27.9728
27.7956
27.4887
27.1868
26.7852
26.428
26.0785
25.8949
25.7506
25.7586
25.8431
26.0915
26.391
26.7525
27.1212
27.4812
27.805
28.1051
28.2774
28.6146
27.9974
28.057
28.0404
28.041
28.0512
28.0591
28.0689
28.0759
28.0577
28.0164
27.8754
27.6978
27.3896
27.0973
26.6952
26.3501
25.9976
25.8197
25.6631
25.6539
25.7192
25.9477
26.2312
26.5801
26.9401
27.2979
27.6175
27.9251
28.0897
28.4397
27.8044
27.8823
27.8754
27.8967
27.9196
27.9413
27.961
27.9747
27.9615
27.9218
27.7771
27.6009
27.2931
27.012
26.608
26.2758
25.92
25.7517
25.5849
25.5709
25.6152
25.8178
26.0801
26.4128
26.7598
27.1124
27.4259
27.7386
27.8982
28.2569
27.6115
27.7065
27.7113
27.752
27.7875
27.8231
27.8524
27.8733
27.8655
27.8278
27.6801
27.5072
27.2007
26.9316
26.528
26.2125
25.8545
25.6892
25.5128
25.4992
25.5278
25.7101
25.9435
26.2544
26.5847
26.9281
27.2333
27.5481
27.7053
28.0696
27.4219
27.5336
27.5507
27.6102
27.6587
27.7082
27.7473
27.7746
27.7711
27.7356
27.5861
27.4184
27.1146
26.8597
26.4582
26.1626
25.8045
25.6445
25.4577
25.4372
25.4541
25.6187
25.8265
26.1115
26.4191
26.7496
27.0441
27.358
27.5146
27.8817
27.2396
27.3679
27.3984
27.4762
27.538
27.6005
27.6472
27.6802
27.68
27.6465
27.4977
27.3374
27.0377
26.7991
26.4012
26.1289
25.7722
25.6191
25.4228
25.3979
25.4026
25.5424
25.727
25.9848
26.2701
26.5826
26.8639
27.1737
27.3316
27.696
27.0703
27.2151
27.2601
27.3548
27.4279
27.5015
27.5547
27.5932
27.596
27.5645
27.418
27.2671
26.973
26.7521
26.3597
26.1141
25.7592
25.6112
25.4097
25.3821
25.3774
25.493
25.6494
25.8774
26.1384
26.4298
26.6992
27.0008
27.1593
27.5181
26.9211
27.0808
27.1391
27.2484
27.3312
27.415
27.4749
27.5181
27.5225
27.4923
27.3506
27.2101
26.9228
26.7211
26.336
26.1193
25.7631
25.6305
25.417
25.3919
25.3829
25.4833
25.609
25.7996
26.0288
26.2969
26.5523
26.8432
27.0032
27.3536
26.7949
26.9685
27.0386
27.1607
27.2536
27.3465
27.4121
27.4586
27.463
27.4337
27.298
27.1692
26.8895
26.7114
26.3338
26.1475
25.7958
25.6743
25.4548
25.4296
25.4144
25.5017
25.6162
25.7758
25.9618
26.1949
26.427
26.7042
26.8652
27.2055
26.6944
26.8831
26.9633
27.0987
27.2002
27.3013
27.3705
27.4182
27.4209
27.3922
27.2634
27.1494
26.8801
26.7222
26.3529
26.1987
25.8526
25.7437
25.5198
25.4957
25.4748
25.5489
25.6464
25.7935
25.9578
26.1504
26.3457
26.5943
26.7525
27.0759
26.6292
26.8237
26.9179
27.0605
27.1706
27.2783
27.3529
27.4008
27.3994
27.3715
27.2538
27.1564
26.8913
26.7522
26.3965
26.2743
25.9339
25.8389
25.6126
25.5907
25.5648
25.6281
25.7112
25.8379
25.985
26.161
26.3322
26.5403
26.6846
26.9735
26.5981
26.7904
26.8981
27.0455
27.1624
27.275
27.3537
27.4068
27.4021
27.3785
27.2663
27.1784
26.9203
26.8058
26.4659
26.3747
26.0395
25.96
25.733
25.7147
25.6854
25.74
25.8113
25.9217
26.0458
26.2013
26.3585
26.5469
26.6797
26.912
26.6007
26.7886
26.9179
27.0732
27.2012
27.3166
27.3931
27.4402
27.4306
27.4065
27.3011
27.2237
26.9734
26.8855
26.5566
26.4986
26.1684
26.1057
25.8803
25.8667
25.8364
25.8846
25.9467
26.0441
26.1552
26.284
26.4182
26.5857
26.7111
26.9145
26.6718
26.8609
26.9998
27.1537
27.2801
27.3916
27.4604
27.5001
27.4868
27.4623
27.3634
27.2947
27.054
26.993
26.667
26.6433
26.3198
26.2747
26.0536
26.046
26.0169
26.0609
26.1166
26.2051
26.3052
26.4224
26.5336
26.6715
26.7787
26.9562
26.8004
26.9833
27.1263
27.2746
27.395
27.4968
27.5567
27.5884
27.5719
27.5469
27.4527
27.3904
27.1638
27.1218
26.7982
26.8071
26.4909
26.467
26.2524
26.2525
26.227
26.2681
26.3192
26.4015
26.4944
26.6046
26.706
26.818
26.9112
27.0571
26.984
27.1559
27.2978
27.4346
27.5436
27.6328
27.6818
27.7045
27.6845
27.6576
27.5657
27.5105
27.2977
27.2648
26.9506
26.9926
26.682
26.6799
26.4745
26.4831
26.4649
26.5077
26.5546
26.6308
26.7188
26.823
26.926
27.0305
27.1075
27.2204
27.2283
27.3745
27.5027
27.6232
27.719
27.7936
27.8301
27.842
27.8171
27.7868
27.6988
27.649
27.4403
27.4196
27.1249
27.2017
26.8975
26.9152
26.7232
26.7421
26.7327
26.7784
26.8265
26.8986
26.9782
27.076
27.1768
27.2846
27.3654
27.457
27.527
27.6518
27.76
27.8513
27.9229
27.9751
27.9948
27.9945
27.9641
27.9292
27.8379
27.7868
27.5864
27.5888
27.316
27.4283
27.1397
27.1814
27.0075
27.0368
27.0369
27.0865
27.1365
27.2085
27.2859
27.3726
27.4609
27.5589
27.6484
27.7371
27.8189
27.9165
28.0054
28.0747
28.1255
28.1558
28.1567
28.1431
28.103
28.0611
27.9691
27.9241
27.7423
27.7702
27.5192
27.6745
27.4065
27.479
27.3334
27.3802
27.3923
27.4481
27.5003
27.5715
27.645
27.7262
27.8067
27.8884
27.9564
28.0253
28.2273
28.2783
28.3169
28.3451
28.3587
28.3566
28.3363
28.3048
28.2521
28.2014
28.107
28.0671
27.9031
27.9664
27.741
27.9474
27.6955
27.8099
27.7024
27.7782
27.8084
27.8801
27.9419
28.0191
28.0959
28.1769
28.2543
28.3301
28.3931
28.4486
30.2762
29.483
29.3364
29.0697
28.8827
28.7388
28.6237
28.5412
28.4732
28.4285
28.3909
28.3045
28.0004
27.8087
27.6218
27.7857
27.9783
28.2444
28.1798
28.0863
27.8714
27.8314
27.884
28.0886
28.3134
28.5525
28.8163
29.0258
29.355
29.444
30.0311
29.3353
29.2708
29.0463
28.8861
28.7493
28.639
28.5606
28.5017
28.4634
28.4279
28.3322
28.0208
27.8178
27.5932
27.6925
27.8135
28.0158
27.9481
27.8974
27.735
27.7335
27.8061
28.0275
28.2869
28.5517
28.8252
29.0412
29.3797
29.4743
29.8296
29.2602
29.2103
29.0178
28.8758
28.7499
28.6438
28.5692
28.5124
28.48
28.4408
28.3445
28.0294
27.8183
27.5575
27.6053
27.6581
27.8074
27.735
27.7241
27.6046
27.6344
27.7245
27.9562
28.2388
28.5219
28.8112
29.0358
29.367
29.4736
29.58
29.1496
29.1272
28.9518
28.8311
28.7187
28.6244
28.5606
28.5089
28.4809
28.4291
28.3283
28.004
27.7858
27.4971
27.5044
27.4976
27.6109
27.5321
27.542
27.454
27.5116
27.6184
27.8568
28.1472
28.4465
28.75
28.9875
29.3031
29.4531
29.3399
29.0355
29.0307