/*--------------------------------*- C++ -*----------------------------------*\
  =========                 |
  \\      /  F ield         | OpenFOAM: The Open Source CFD Toolbox
   \\    /   O peration     | Website:  https://openfoam.org
    \\  /    A nd           | Version:  12
     \\/     M anipulation  |
\*---------------------------------------------------------------------------*/
FoamFile
{
    format      ascii;
    class       volScalarField;
    location    "1150/porous";
    object      rho;
}
// * * * * * * * * * * * * * * * * * * * * * * * * * * * * * * * * * * * * * //

dimensions      [1 -3 0 0 0 0 0];

internalField   nonuniform List<scalar> 
140000
(
933.891
933.891
933.891
933.891
933.891
933.891
933.891
933.891
933.892
933.898
934.184
934.408
934.607
934.794
934.973
935.147
935.316
935.483
935.647
935.808
935.968
936.126
936.283
936.437
936.591
936.743
936.893
937.042
937.189
937.335
937.479
937.621
937.762
937.901
938.038
938.173
938.308
938.44
938.571
938.702
938.831
938.959
939.087
939.213
939.338
939.461
939.584
939.704
939.823
939.941
940.057
940.171
940.283
940.394
940.501
940.607
940.71
940.808
940.902
940.968
940.573
940.321
940.126
939.964
939.825
939.702
939.592
939.492
939.4
939.321
933.891
933.891
933.891
933.891
933.891
933.891
933.891
933.891
933.891
933.896
934.115
934.292
934.451
934.602
934.747
934.888
935.026
935.162
935.297
935.43
935.561
935.692
935.822
935.951
936.079
936.206
936.333
936.458
936.583
936.708
936.831
936.954
937.076
937.197
937.317
937.436
937.555
937.673
937.791
937.908
938.025
938.141
938.257
938.372
938.487
938.601
938.714
938.826
938.937
939.047
939.156
939.264
939.37
939.474
939.578
939.678
939.778
939.874
939.967
940.042
939.805
939.65
939.528
939.424
939.332
939.25
939.174
939.105
939.04
938.982
933.891
933.891
933.891
933.891
933.891
933.891
933.891
933.891
933.891
933.895
934.096
934.256
934.398
934.53
934.656
934.778
934.897
935.013
935.128
935.24
935.351
935.461
935.57
935.678
935.785
935.892
935.997
936.102
936.206
936.31
936.413
936.515
936.617
936.718
936.819
936.919
937.019
937.119
937.218
937.317
937.416
937.515
937.613
937.712
937.81
937.908
938.005
938.102
938.198
938.293
938.387
938.481
938.574
938.665
938.755
938.844
938.931
939.016
939.098
939.169
938.979
938.86
938.77
938.695
938.63
938.573
938.522
938.475
938.432
938.393
933.891
933.891
933.891
933.891
933.891
933.891
933.891
933.891
933.891
933.895
934.091
934.247
934.383
934.51
934.629
934.744
934.855
934.964
935.069
935.173
935.275
935.375
935.474
935.572
935.669
935.764
935.859
935.953
936.046
936.138
936.229
936.32
936.41
936.5
936.588
936.677
936.764
936.852
936.938
937.025
937.112
937.198
937.285
937.371
937.457
937.542
937.627
937.711
937.795
937.878
937.961
938.042
938.123
938.202
938.281
938.358
938.433
938.507
938.578
938.639
938.461
938.349
938.265
938.196
938.137
938.086
938.04
937.998
937.96
937.926
933.891
933.891
933.891
933.891
933.891
933.891
933.891
933.891
933.891
933.895
934.09
934.244
934.38
934.504
934.622
934.735
934.844
934.949
935.052
935.152
935.251
935.347
935.442
935.536
935.629
935.72
935.81
935.899
935.987
936.074
936.16
936.246
936.33
936.414
936.497
936.579
936.661
936.742
936.823
936.903
936.984
937.064
937.143
937.223
937.302
937.381
937.459
937.536
937.613
937.689
937.764
937.839
937.912
937.984
938.055
938.125
938.192
938.259
938.322
938.376
938.201
938.09
938.006
937.936
937.877
937.824
937.778
937.736
937.697
937.663
933.891
933.891
933.891
933.891
933.891
933.891
933.891
933.891
933.891
933.895
934.091
934.244
934.379
934.504
934.622
934.734
934.842
934.947
935.049
935.148
935.246
935.341
935.435
935.527
935.618
935.708
935.796
935.883
935.97
936.055
936.139
936.222
936.304
936.386
936.466
936.546
936.625
936.703
936.781
936.858
936.936
937.013
937.09
937.166
937.242
937.317
937.392
937.466
937.539
937.612
937.683
937.754
937.824
937.892
937.959
938.024
938.088
938.15
938.209
938.26
938.086
937.974
937.889
937.818
937.757
937.704
937.656
937.613
937.573
937.537
933.891
933.891
933.891
933.891
933.891
933.891
933.891
933.891
933.891
933.895
934.09
934.245
934.38
934.505
934.622
934.735
934.843
934.948
935.05
935.149
935.246
935.342
935.435
935.527
935.617
935.707
935.794
935.881
935.966
936.051
936.134
936.216
936.298
936.378
936.458
936.536
936.614
936.691
936.768
936.844
936.92
936.996
937.071
937.146
937.221
937.295
937.368
937.441
937.512
937.583
937.653
937.722
937.79
937.856
937.921
937.985
938.047
938.106
938.164
938.212
938.038
937.926
937.84
937.769
937.708
937.653
937.605
937.56
937.52
937.483
933.891
933.891
933.891
933.891
933.891
933.891
933.891
933.891
933.891
933.895
934.091
934.245
934.381
934.506
934.623
934.736
934.845
934.95
935.052
935.151
935.249
935.344
935.438
935.53
935.62
935.709
935.797
935.883
935.969
936.053
936.136
936.218
936.299
936.379
936.458
936.536
936.613
936.69
936.766
936.842
936.917
936.993
937.068
937.142
937.216
937.29
937.362
937.434
937.505
937.575
937.645
937.713
937.78
937.845
937.909
937.972
938.033
938.091
938.147
938.195
938.021
937.909
937.822
937.751
937.689
937.635
937.586
937.541
937.5
937.463
933.891
933.891
933.891
933.891
933.891
933.891
933.891
933.891
933.891
933.895
934.091
934.245
934.381
934.506
934.624
934.737
934.846
934.951
935.054
935.154
935.251
935.347
935.44
935.532
935.623
935.712
935.8
935.886
935.972
936.056
936.139
936.221
936.302
936.382
936.46
936.538
936.615
936.692
936.768
936.844
936.919
936.994
937.069
937.144
937.217
937.29
937.363
937.434
937.505
937.575
937.644
937.712
937.779
937.844
937.907
937.969
938.03
938.088
938.143
938.191
938.017
937.904
937.818
937.746
937.684
937.629
937.58
937.535
937.494
937.456
933.891
933.891
933.891
933.891
933.891
933.891
933.891
933.891
933.891
933.895
934.091
934.245
934.381
934.507
934.625
934.738
934.847
934.953
935.055
935.155
935.253
935.349
935.443
935.535
935.626
935.715
935.803
935.89
935.975
936.059
936.142
936.224
936.305
936.385
936.463
936.541
936.618
936.695
936.771
936.846
936.922
936.997
937.072
937.146
937.22
937.293
937.366
937.437
937.508
937.578
937.647
937.714
937.781
937.846
937.909
937.971
938.031
938.089
938.144
938.191
938.017
937.904
937.818
937.746
937.684
937.629
937.58
937.535
937.493
937.456
933.891
933.891
933.891
933.891
933.891
933.891
933.891
933.891
933.891
933.895
934.091
934.245
934.381
934.507
934.625
934.739
934.848
934.954
935.056
935.157
935.255
935.351
935.445
935.537
935.628
935.717
935.805
935.892
935.978
936.062
936.145
936.227
936.308
936.387
936.466
936.544
936.621
936.697
936.773
936.849
936.925
937
937.075
937.149
937.223
937.296
937.369
937.44
937.511
937.581
937.65
937.717
937.784
937.849
937.912
937.974
938.034
938.091
938.146
938.193
938.019
937.906
937.82
937.748
937.686
937.631
937.582
937.536
937.495
937.457
933.891
933.891
933.891
933.891
933.891
933.891
933.891
933.891
933.891
933.895
934.091
934.246
934.381
934.507
934.626
934.739
934.848
934.954
935.057
935.158
935.256
935.352
935.446
935.539
935.63
935.719
935.807
935.894
935.98
936.064
936.147
936.229
936.31
936.389
936.468
936.546
936.623
936.699
936.775
936.851
936.927
937.002
937.077
937.152
937.226
937.299
937.371
937.443
937.513
937.583
937.652
937.72
937.786
937.851
937.915
937.977
938.036
938.094
938.149
938.195
938.021
937.909
937.822
937.75
937.688
937.633
937.583
937.538
937.497
937.459
933.891
933.891
933.891
933.891
933.891
933.891
933.891
933.891
933.891
933.895
934.091
934.245
934.381
934.507
934.625
934.739
934.848
934.954
935.058
935.158
935.256
935.353
935.447
935.54
935.631
935.72
935.808
935.895
935.981
936.065
936.148
936.23
936.311
936.39
936.469
936.547
936.624
936.7
936.776
936.852
936.928
937.004
937.079
937.153
937.227
937.3
937.373
937.444
937.515
937.585
937.654
937.722
937.788
937.853
937.917
937.978
938.038
938.096
938.151
938.197
938.023
937.91
937.824
937.752
937.69
937.635
937.585
937.54
937.498
937.461
933.891
933.891
933.891
933.891
933.891
933.891
933.891
933.891
933.891
933.895
934.091
934.245
934.381
934.506
934.625
934.739
934.848
934.954
935.058
935.158
935.257
935.353
935.447
935.54
935.631
935.721
935.809
935.896
935.982
936.066
936.149
936.231
936.311
936.391
936.469
936.547
936.624
936.701
936.777
936.853
936.929
937.004
937.08
937.154
937.228
937.301
937.374
937.445
937.516
937.586
937.655
937.723
937.79
937.855
937.918
937.98
938.039
938.097
938.152
938.198
938.024
937.911
937.825
937.753
937.691
937.636
937.586
937.541
937.499
937.461
933.891
933.891
933.891
933.891
933.891
933.891
933.891
933.891
933.891
933.895
934.091
934.245
934.38
934.506
934.624
934.738
934.848
934.954
935.057
935.158
935.257
935.353
935.447
935.54
935.631
935.721
935.809
935.896
935.982
936.066
936.149
936.231
936.311
936.39
936.469
936.547
936.624
936.7
936.777
936.853
936.929
937.004
937.08
937.154
937.228
937.301
937.374
937.446
937.517
937.587
937.656
937.723
937.79
937.855
937.919
937.98
938.04
938.097
938.152
938.198
938.024
937.911
937.825
937.753
937.691
937.636
937.586
937.541
937.499
937.462
933.891
933.891
933.891
933.891
933.891
933.891
933.891
933.891
933.891
933.895
934.091
934.244
934.379
934.505
934.624
934.737
934.847
934.953
935.057
935.158
935.256
935.352
935.447
935.54
935.631
935.721
935.809
935.896
935.981
936.065
936.148
936.23
936.31
936.389
936.468
936.546
936.623
936.699
936.776
936.852
936.928
937.004
937.079
937.153
937.227
937.301
937.373
937.445
937.516
937.586
937.655
937.723
937.79
937.855
937.918
937.98
938.04
938.097
938.152
938.197
938.024
937.911
937.824
937.752
937.69
937.635
937.586
937.54
937.499
937.461
933.891
933.891
933.891
933.891
933.891
933.891
933.891
933.891
933.891
933.895
934.091
934.244
934.379
934.504
934.623
934.737
934.846
934.953
935.056
935.157
935.255
935.352
935.446
935.539
935.63
935.72
935.808
935.895
935.98
936.064
936.147
936.228
936.309
936.388
936.467
936.544
936.622
936.698
936.775
936.851
936.927
937.002
937.077
937.152
937.226
937.299
937.372
937.444
937.515
937.585
937.654
937.722
937.789
937.854
937.917
937.979
938.039
938.096
938.151
938.197
938.023
937.91
937.823
937.752
937.689
937.634
937.585
937.539
937.498
937.46
933.891
933.891
933.891
933.891
933.891
933.891
933.891
933.891
933.891
933.895
934.09
934.243
934.378
934.504
934.622
934.736
934.845
934.952
935.055
935.156
935.255
935.351
935.446
935.538
935.629
935.719
935.807
935.894
935.979
936.063
936.146
936.227
936.307
936.386
936.465
936.543
936.62
936.697
936.773
936.849
936.925
937.001
937.076
937.15
937.224
937.298
937.37
937.442
937.513
937.583
937.652
937.72
937.787
937.852
937.916
937.978
938.037
938.095
938.149
938.195
938.021
937.909
937.822
937.75
937.688
937.633
937.583
937.538
937.497
937.459
933.891
933.891
933.891
933.891
933.891
933.891
933.891
933.891
933.891
933.895
934.09
934.243
934.378
934.502
934.621
934.735
934.844
934.951
935.054
935.155
935.254
935.35
935.445
935.538
935.629
935.718
935.806
935.893
935.978
936.062
936.144
936.225
936.305
936.384
936.464
936.542
936.62
936.696
936.772
936.848
936.923
936.999
937.074
937.149
937.223
937.296
937.369
937.441
937.512
937.582
937.651
937.719
937.786
937.851
937.915
937.976
938.036
938.093
938.148
938.194
938.02
937.907
937.821
937.749
937.687
937.632
937.582
937.537
937.495
937.458
933.891
933.891
933.891
933.891
933.891
933.891
933.891
933.891
933.891
933.895
934.09
934.243
934.377
934.502
934.62
934.734
934.843
934.95
935.053
935.154
935.253
935.35
935.444
935.537
935.628
935.717
935.805
935.892
935.977
936.06
936.142
936.223
936.304
936.384
936.463
936.542
936.619
936.696
936.771
936.847
936.923
936.998
937.073
937.148
937.221
937.295
937.367
937.439
937.51
937.581
937.65
937.718
937.785
937.85
937.913
937.975
938.035
938.092
938.147
938.193
938.019
937.906
937.82
937.748
937.686
937.631
937.581
937.536
937.494
937.456
933.891
933.891
933.891
933.891
933.891
933.891
933.891
933.891
933.891
933.895
934.089
934.242
934.376
934.501
934.619
934.733
934.843
934.949
935.052
935.153
935.252
935.349
935.443
935.536
935.627
935.716
935.804
935.891
935.976
936.059
936.141
936.222
936.303
936.383
936.463
936.542
936.619
936.696
936.772
936.847
936.922
936.998
937.073
937.147
937.221
937.294
937.367
937.439
937.51
937.58
937.649
937.717
937.784
937.849
937.913
937.974
938.034
938.092
938.146
938.192
938.018
937.905
937.819
937.747
937.685
937.63
937.58
937.535
937.493
937.456
933.891
933.891
933.891
933.891
933.891
933.891
933.891
933.891
933.891
933.895
934.089
934.242
934.376
934.501
934.619
934.732
934.842
934.948
935.052
935.153
935.252
935.348
935.443
935.536
935.627
935.716
935.804
935.89
935.975
936.058
936.141
936.222
936.303
936.384
936.463
936.542
936.62
936.697
936.773
936.848
936.923
936.998
937.073
937.147
937.221
937.294
937.366
937.438
937.509
937.579
937.648
937.716
937.783
937.849
937.912
937.974
938.034
938.091
938.146
938.192
938.018
937.905
937.818
937.747
937.684
937.629
937.58
937.534
937.493
937.455
933.891
933.891
933.891
933.891
933.891
933.891
933.891
933.891
933.891
933.895
934.089
934.241
934.376
934.5
934.618
934.732
934.841
934.948
935.051
935.152
935.251
935.348
935.442
935.535
935.626
935.716
935.803
935.89
935.974
936.058
936.14
936.222
936.303
936.384
936.464
936.542
936.62
936.697
936.773
936.849
936.923
936.998
937.073
937.147
937.22
937.294
937.366
937.438
937.509
937.579
937.648
937.716
937.783
937.848
937.912
937.974
938.034
938.091
938.146
938.192
938.018
937.905
937.818
937.746
937.684
937.629
937.579
937.534
937.493
937.455
933.891
933.891
933.891
933.891
933.891
933.891
933.891
933.891
933.891
933.895
934.089
934.241
934.375
934.499
934.617
934.731
934.84
934.947
935.05
935.152
935.251
935.347
935.442
935.535
935.626
935.715
935.803
935.889
935.974
936.058
936.14
936.222
936.304
936.384
936.464
936.543
936.621
936.698
936.774
936.849
936.924
936.999
937.073
937.147
937.22
937.293
937.366
937.437
937.508
937.578
937.648
937.716
937.782
937.848
937.912
937.974
938.033
938.091
938.146
938.192
938.018
937.905
937.818
937.746
937.684
937.629
937.579
937.534
937.492
937.455
933.891
933.891
933.891
933.891
933.891
933.891
933.891
933.891
933.891
933.895
934.089
934.241
934.375
934.499
934.617
934.73
934.84
934.946
935.05
935.151
935.25
935.347
935.442
935.535
935.626
935.715
935.803
935.89
935.974
936.058
936.141
936.223
936.304
936.385
936.464
936.543
936.621
936.698
936.774
936.85
936.924
936.999
937.073
937.147
937.22
937.293
937.365
937.437
937.508
937.578
937.647
937.715
937.782
937.847
937.911
937.973
938.033
938.091
938.146
938.192
938.018
937.905
937.818
937.746
937.684
937.629
937.579
937.534
937.492
937.455
933.891
933.891
933.891
933.891
933.891
933.891
933.891
933.891
933.891
933.895
934.088
934.24
934.374
934.498
934.616
934.729
934.839
934.946
935.049
935.151
935.25
935.347
935.441
935.535
935.626
935.715
935.803
935.89
935.975
936.058
936.141
936.223
936.304
936.385
936.464
936.543
936.621
936.698
936.774
936.85
936.924
936.999
937.073
937.146
937.22
937.293
937.365
937.436
937.507
937.577
937.647
937.715
937.782
937.847
937.911
937.973
938.033
938.091
938.146
938.193
938.018
937.905
937.819
937.747
937.684
937.629
937.579
937.534
937.493
937.455
933.891
933.891
933.891
933.891
933.891
933.891
933.891
933.891
933.891
933.895
934.088
934.24
934.374
934.498
934.616
934.729
934.839
934.945
935.049
935.15
935.249
935.346
935.441
935.534
935.626
935.715
935.804
935.89
935.975
936.058
936.141
936.223
936.304
936.385
936.464
936.543
936.621
936.698
936.774
936.849
936.924
936.998
937.072
937.146
937.219
937.292
937.364
937.436
937.507
937.577
937.646
937.714
937.781
937.847
937.911
937.973
938.033
938.091
938.146
938.193
938.018
937.905
937.819
937.747
937.684
937.629
937.58
937.534
937.493
937.455
933.891
933.891
933.891
933.891
933.891
933.891
933.891
933.891
933.891
933.895
934.088
934.24
934.373
934.498
934.615
934.729
934.838
934.945
935.049
935.15
935.249
935.346
935.441
935.534
935.626
935.716
935.804
935.89
935.975
936.059
936.141
936.223
936.304
936.385
936.464
936.543
936.621
936.698
936.773
936.848
936.923
936.998
937.072
937.145
937.219
937.291
937.364
937.435
937.506
937.576
937.645
937.714
937.781
937.846
937.911
937.973
938.033
938.092
938.147
938.193
938.019
937.906
937.819
937.747
937.685
937.63
937.58
937.535
937.493
937.455
933.891
933.891
933.891
933.891
933.891
933.891
933.891
933.891
933.891
933.895
934.088
934.239
934.373
934.497
934.615
934.728
934.838
934.944
935.048
935.15
935.249
935.346
935.441
935.534
935.626
935.716
935.804
935.89
935.975
936.059
936.141
936.223
936.304
936.384
936.464
936.542
936.62
936.697
936.772
936.847
936.922
936.997
937.071
937.145
937.218
937.291
937.363
937.434
937.505
937.575
937.645
937.713
937.78
937.846
937.91
937.973
938.033
938.092
938.147
938.194
938.02
937.906
937.82
937.748
937.685
937.63
937.58
937.535
937.493
937.456
933.891
933.891
933.891
933.891
933.891
933.891
933.891
933.891
933.891
933.895
934.088
934.239
934.373
934.497
934.615
934.728
934.837
934.944
935.048
935.149
935.248
935.345
935.441
935.534
935.626
935.715
935.804
935.891
935.976
936.059
936.141
936.222
936.303
936.384
936.463
936.542
936.619
936.696
936.771
936.846
936.921
936.996
937.07
937.144
937.217
937.29
937.362
937.434
937.505
937.575
937.644
937.713
937.78
937.846
937.91
937.973
938.034
938.092
938.148
938.195
938.02
937.907
937.82
937.748
937.686
937.631
937.581
937.536
937.494
937.456
933.891
933.891
933.891
933.891
933.891
933.891
933.891
933.891
933.891
933.895
934.088
934.239
934.373
934.497
934.614
934.727
934.837
934.944
935.047
935.149
935.248
935.345
935.44
935.534
935.625
935.715
935.804
935.891
935.976
936.059
936.142
936.222
936.303
936.383
936.462
936.541
936.618
936.694
936.769
936.845
936.92
936.995
937.07
937.144
937.217
937.29
937.362
937.434
937.505
937.575
937.644
937.713
937.78
937.846
937.911
937.974
938.035
938.094
938.15
938.197
938.022
937.909
937.822
937.75
937.687
937.632
937.582
937.537
937.495
937.458
933.891
933.891
933.891
933.891
933.891
933.891
933.891
933.891
933.891
933.895
934.088
934.239
934.372
934.496
934.614
934.727
934.836
934.943
935.047
935.148
935.247
935.344
935.44
935.533
935.625
935.715
935.803
935.89
935.976
936.059
936.142
936.222
936.303
936.382
936.462
936.54
936.617
936.693
936.769
936.844
936.92
936.995
937.07
937.144
937.217
937.29
937.362
937.434
937.505
937.575
937.645
937.713
937.781
937.847
937.912
937.975
938.036
938.095
938.151
938.199
938.024
937.91
937.823
937.751
937.689
937.633
937.584
937.538
937.497
937.459
933.891
933.891
933.891
933.891
933.891
933.891
933.891
933.891
933.891
933.895
934.087
934.239
934.372
934.496
934.614
934.727
934.836
934.942
935.046
935.148
935.247
935.344
935.439
935.532
935.624
935.714
935.803
935.89
935.975
936.059
936.142
936.223
936.303
936.382
936.461
936.539
936.616
936.693
936.769
936.845
936.92
936.996
937.07
937.144
937.218
937.291
937.363
937.435
937.506
937.576
937.646
937.714
937.782
937.848
937.913
937.977
938.038
938.098
938.154
938.201
938.026
937.912
937.825
937.753
937.691
937.635
937.586
937.54
937.499
937.461
933.891
933.891
933.891
933.891
933.891
933.891
933.891
933.891
933.891
933.895
934.087
934.239
934.372
934.496
934.613
934.726
934.835
934.942
935.045
935.147
935.246
935.343
935.438
935.532
935.623
935.713
935.802
935.889
935.975
936.059
936.141
936.222
936.302
936.382
936.46
936.538
936.616
936.692
936.769
936.845
936.921
936.996
937.071
937.145
937.219
937.292
937.364
937.436
937.507
937.577
937.646
937.715
937.783
937.849
937.915
937.978
938.04
938.099
938.156
938.204
938.028
937.915
937.827
937.755
937.693
937.637
937.587
937.542
937.5
937.463
933.891
933.891
933.891
933.891
933.891
933.891
933.891
933.891
933.891
933.895
934.087
934.238
934.372
934.495
934.613
934.725
934.835
934.941
935.045
935.146
935.245
935.342
935.437
935.53
935.622
935.712
935.801
935.888
935.974
936.058
936.14
936.222
936.302
936.381
936.46
936.538
936.615
936.692
936.769
936.845
936.921
936.996
937.071
937.145
937.219
937.292
937.364
937.436
937.507
937.578
937.647
937.716
937.784
937.85
937.916
937.98
938.042
938.101
938.158
938.206
938.03
937.916
937.829
937.757
937.694
937.639
937.589
937.544
937.502
937.464
933.891
933.891
933.891
933.891
933.891
933.891
933.891
933.891
933.891
933.895
934.087
934.238
934.371
934.495
934.612
934.725
934.834
934.94
935.044
935.145
935.244
935.341
935.436
935.529
935.621
935.711
935.8
935.887
935.972
936.056
936.139
936.22
936.3
936.38
936.458
936.537
936.614
936.691
936.768
936.845
936.921
936.996
937.071
937.145
937.219
937.292
937.364
937.436
937.507
937.578
937.647
937.716
937.784
937.851
937.916
937.98
938.042
938.103
938.16
938.208
938.032
937.918
937.83
937.758
937.695
937.64
937.59
937.545
937.503
937.465
933.891
933.891
933.891
933.891
933.891
933.891
933.891
933.891
933.891
933.895
934.087
934.238
934.371
934.494
934.611
934.724
934.833
934.939
935.043
935.144
935.242
935.339
935.434
935.528
935.619
935.709
935.798
935.885
935.971
936.055
936.137
936.219
936.299
936.378
936.457
936.535
936.613
936.69
936.767
936.844
936.92
936.995
937.07
937.145
937.218
937.291
937.364
937.435
937.506
937.577
937.647
937.715
937.783
937.85
937.916
937.981
938.043
938.103
938.16
938.209
938.033
937.919
937.831
937.759
937.696
937.64
937.591
937.545
937.503
937.465
933.891
933.891
933.891
933.891
933.891
933.891
933.891
933.891
933.891
933.895
934.087
934.238
934.371
934.494
934.611
934.723
934.832
934.938
935.041
935.142
935.241
935.338
935.433
935.526
935.617
935.707
935.796
935.883
935.968
936.053
936.135
936.216
936.297
936.376
936.455
936.533
936.611
936.689
936.766
936.842
936.918
936.994
937.069
937.143
937.217
937.29
937.362
937.434
937.505
937.575
937.645
937.714
937.782
937.849
937.915
937.98
938.042
938.103
938.16
938.209
938.032
937.918
937.831
937.758
937.696
937.64
937.59
937.545
937.503
937.465
933.891
933.891
933.891
933.891
933.891
933.891
933.891
933.891
933.891
933.895
934.087
934.237
934.37
934.493
934.61
934.722
934.831
934.937
935.04
935.141
935.239
935.336
935.431
935.524
935.615
935.705
935.794
935.881
935.966
936.05
936.133
936.214
936.294
936.374
936.453
936.531
936.609
936.687
936.764
936.84
936.916
936.992
937.067
937.141
937.215
937.288
937.36
937.432
937.503
937.573
937.643
937.712
937.78
937.847
937.913
937.978
938.041
938.102
938.16
938.209
938.032
937.918
937.83
937.757
937.695
937.639
937.589
937.544
937.502
937.464
933.891
933.891
933.891
933.891
933.891
933.891
933.891
933.891
933.891
933.895
934.087
934.237
934.37
934.492
934.609
934.721
934.83
934.935
935.038
935.139
935.237
935.334
935.428
935.521
935.613
935.703
935.791
935.878
935.963
936.047
936.13
936.211
936.291
936.371
936.45
936.528
936.606
936.684
936.761
936.838
936.914
936.989
937.064
937.138
937.212
937.285
937.357
937.429
937.5
937.571
937.64
937.709
937.778
937.845
937.911
937.976
938.039
938.1
938.158
938.207
938.03
937.916
937.829
937.756
937.693
937.638
937.588
937.542
937.501
937.463
933.891
933.891
933.891
933.891
933.891
933.891
933.891
933.891
933.891
933.895
934.086
934.237
934.369
934.492
934.608
934.72
934.828
934.934
935.036
935.137
935.235
935.332
935.426
935.519
935.61
935.7
935.788
935.875
935.96
936.044
936.126
936.208
936.288
936.368
936.447
936.525
936.604
936.681
936.758
936.835
936.911
936.986
937.061
937.135
937.209
937.282
937.354
937.426
937.497
937.568
937.637
937.706
937.775
937.842
937.908
937.974
938.037
938.098
938.157
938.206
938.029
937.915
937.827
937.755
937.692
937.636
937.587
937.541
937.499
937.462
933.891
933.891
933.891
933.891
933.891
933.891
933.891
933.891
933.891
933.895
934.086
934.236
934.368
934.491
934.607
934.719
934.827
934.932
935.034
935.135
935.233
935.329
935.423
935.516
935.607
935.697
935.785
935.872
935.957
936.041
936.123
936.204
936.285
936.365
936.444
936.522
936.601
936.678
936.755
936.832
936.908
936.983
937.058
937.132
937.206
937.279
937.351
937.423
937.494
937.565
937.635
937.704
937.773
937.84
937.907
937.972
938.036
938.097
938.156
938.206
938.029
937.915
937.827
937.755
937.692
937.637
937.587
937.542
937.5
937.462
933.891
933.891
933.891
933.891
933.891
933.891
933.891
933.891
933.891
933.895
934.086
934.236
934.368
934.49
934.606
934.718
934.825
934.93
935.033
935.133
935.231
935.327
935.421
935.514
935.605
935.694
935.782
935.869
935.954
936.038
936.12
936.202
936.282
936.362
936.442
936.52
936.599
936.677
936.754
936.831
936.907
936.982
937.057
937.131
937.205
937.278
937.351
937.423
937.494
937.565
937.635
937.705
937.774
937.842
937.909
937.975
938.039
938.101
938.161
938.211
938.034
937.92
937.832
937.76
937.698
937.643
937.593
937.548
937.506
937.469
933.891
933.891
933.891
933.891
933.891
933.891
933.891
933.891
933.891
933.895
934.085
934.235
934.367
934.489
934.605
934.716
934.824
934.929
935.031
935.131
935.229
935.325
935.419
935.512
935.603
935.692
935.78
935.867
935.952
936.036
936.119
936.201
936.282
936.362
936.442
936.521
936.6
936.678
936.756
936.833
936.91
936.986
937.061
937.136
937.21
937.284
937.357
937.43
937.502
937.573
937.644
937.715
937.784
937.853
937.921
937.988
938.053
938.116
938.177
938.229
938.051
937.937
937.85
937.778
937.716
937.662
937.612
937.568
937.527
937.49
933.891
933.891
933.891
933.891
933.891
933.891
933.891
933.891
933.891
933.895
934.086
934.235
934.367
934.489
934.605
934.716
934.824
934.929
935.031
935.131
935.229
935.325
935.42
935.513
935.605
935.695
935.783
935.871
935.957
936.041
936.125
936.208
936.29
936.371
936.452
936.532
936.612
936.691
936.77
936.848
936.926
937.003
937.08
937.156
937.232
937.307
937.381
937.456
937.529
937.602
937.675
937.747
937.818
937.888
937.958
938.027
938.095
938.16
938.223
938.277
938.099
937.985
937.899
937.828
937.766
937.712
937.664
937.62
937.58
937.544
933.891
933.891
933.891
933.891
933.891
933.891
933.891
933.891
933.891
933.895
934.085
934.235
934.368
934.49
934.606
934.718
934.826
934.932
935.035
935.136
935.235
935.333
935.429
935.523
935.616
935.708
935.798
935.888
935.976
936.062
936.148
936.233
936.317
936.401
936.485
936.567
936.65
936.732
936.813
936.894
936.975
937.055
937.135
937.214
937.293
937.371
937.449
937.526
937.603
937.68
937.756
937.831
937.906
937.981
938.054
938.127
938.199
938.268
938.335
938.393
938.215
938.102
938.016
937.946
937.886
937.833
937.786
937.743
937.705
937.67
933.891
933.891
933.891
933.891
933.891
933.891
933.891
933.891
933.891
933.895
934.086
934.238
934.371
934.496
934.614
934.728
934.839
934.948
935.054
935.158
935.261
935.362
935.462
935.561
935.658
935.754
935.849
935.943
936.036
936.128
936.219
936.309
936.399
936.489
936.578
936.666
936.755
936.843
936.93
937.018
937.105
937.191
937.277
937.363
937.448
937.533
937.618
937.702
937.786
937.87
937.953
938.035
938.117
938.199
938.28
938.36
938.439
938.516
938.591
938.655
938.474
938.361
938.275
938.206
938.146
938.094
938.048
938.006
937.968
937.934
933.891
933.891
933.891
933.891
933.891
933.891
933.891
933.891
933.891
933.895
934.091
934.247
934.387
934.517
934.642
934.763
934.882
934.999
935.114
935.227
935.339
935.45
935.56
935.669
935.776
935.883
935.989
936.094
936.199
936.302
936.405
936.507
936.608
936.71
936.811
936.911
937.012
937.112
937.212
937.311
937.41
937.509
937.607
937.705
937.803
937.9
937.997
938.093
938.189
938.284
938.38
938.474
938.568
938.661
938.754
938.846
938.936
939.025
939.111
939.186
938.993
938.872
938.78
938.705
938.64
938.582
938.531
938.483
938.44
938.401
933.891
933.891
933.891
933.891
933.891
933.891
933.891
933.891
933.891
933.896
934.109
934.284
934.441
934.59
934.733
934.874
935.012
935.149
935.284
935.418
935.551
935.682
935.813
935.943
936.072
936.2
936.328
936.454
936.579
936.703
936.826
936.948
937.069
937.19
937.311
937.431
937.55
937.668
937.787
937.904
938.021
938.137
938.252
938.366
938.48
938.593
938.706
938.817
938.928
939.038
939.147
939.256
939.363
939.47
939.576
939.68
939.783
939.883
939.98
940.06
939.82
939.663
939.54
939.435
939.343
939.26
939.184
939.114
939.049
938.991
933.891
933.891
933.891
933.891
933.891
933.891
933.891
933.891
933.892
933.898
934.179
934.399
934.596
934.781
934.959
935.132
935.302
935.47
935.634
935.798
935.959
936.118
936.276
936.433
936.587
936.74
936.891
937.04
937.187
937.333
937.476
937.618
937.758
937.896
938.033
938.169
938.304
938.437
938.569
938.699
938.828
938.956
939.082
939.207
939.331
939.453
939.574
939.694
939.812
939.93
940.047
940.162
940.275
940.388
940.499
940.609
940.716
940.82
940.919
940.99
940.591
940.336
940.14
939.977
939.837
939.713
939.603
939.502
939.41
939.33
933.891
933.891
933.891
933.891
933.891
933.891
933.891
933.891
933.891
933.896
934.112
934.316
934.507
934.69
934.867
935.039
935.208
935.375
935.538
935.701
935.861
936.019
936.176
936.332
936.486
936.638
936.789
936.939
937.087
937.233
937.378
937.521
937.663
937.802
937.94
938.077
938.211
938.345
938.477
938.607
938.737
938.866
938.993
939.12
939.245
939.37
939.492
939.613
939.733
939.851
939.968
940.082
940.195
940.307
940.415
940.521
940.624
940.724
940.82
940.891
940.565
940.324
940.133
939.972
939.833
939.71
939.599
939.499
939.407
939.327
933.891
933.891
933.891
933.891
933.891
933.891
933.891
933.891
933.891
933.894
934.048
934.202
934.35
934.494
934.635
934.772
934.908
935.042
935.175
935.307
935.437
935.567
935.696
935.824
935.952
936.078
936.205
936.33
936.455
936.579
936.702
936.825
936.946
937.068
937.188
937.307
937.426
937.544
937.662
937.779
937.896
938.012
938.128
938.244
938.358
938.472
938.586
938.698
938.81
938.92
939.029
939.138
939.244
939.35
939.454
939.555
939.656
939.753
939.848
939.928
939.762
939.625
939.511
939.412
939.324
939.244
939.171
939.103
939.039
938.982
933.891
933.891
933.891
933.891
933.891
933.891
933.891
933.891
933.891
933.894
934.033
934.169
934.3
934.426
934.548
934.666
934.782
934.897
935.009
935.12
935.23
935.339
935.447
935.554
935.66
935.765
935.87
935.974
936.078
936.181
936.283
936.385
936.486
936.587
936.688
936.788
936.887
936.986
937.085
937.184
937.282
937.381
937.479
937.577
937.675
937.773
937.87
937.966
938.062
938.158
938.252
938.346
938.439
938.531
938.621
938.711
938.798
938.885
938.967
939.042
938.919
938.819
938.737
938.667
938.606
938.552
938.503