/*--------------------------------*- C++ -*----------------------------------*\
  =========                 |
  \\      /  F ield         | OpenFOAM: The Open Source CFD Toolbox
   \\    /   O peration     | Website:  https://openfoam.org
    \\  /    A nd           | Version:  12
     \\/     M anipulation  |
\*---------------------------------------------------------------------------*/
FoamFile
{
    format      ascii;
    class       volScalarField;
    location    "1150/porous";
    object      T;
}
// * * * * * * * * * * * * * * * * * * * * * * * * * * * * * * * * * * * * * //

dimensions      [0 0 0 1 0 0 0];

internalField   nonuniform List<scalar> 
140000
(
400
400
400
400
400
400
400
400
400
399.992
399.686
399.445
399.231
399.03
398.837
398.65
398.466
398.286
398.109
397.933
397.76
397.589
397.419
397.25
397.083
396.918
396.754
396.591
396.43
396.271
396.113
395.957
395.803
395.65
395.5
395.351
395.203
395.057
394.912
394.769
394.626
394.484
394.343
394.203
394.065
393.928
393.792
393.658
393.526
393.395
393.266
393.139
393.014
392.89
392.77
392.652
392.538
392.427
392.322
392.249
392.69
392.972
393.189
393.369
393.524
393.661
393.783
393.894
393.995
394.084
400
400
400
400
400
400
400
400
400
399.995
399.761
399.57
399.399
399.237
399.081
398.929
398.78
398.633
398.487
398.344
398.201
398.059
397.919
397.779
397.64
397.502
397.364
397.227
397.091
396.956
396.821
396.687
396.554
396.422
396.29
396.16
396.029
395.9
395.771
395.642
395.514
395.386
395.259
395.132
395.006
394.88
394.755
394.631
394.509
394.387
394.267
394.147
394.029
393.913
393.799
393.687
393.577
393.47
393.366
393.283
393.546
393.719
393.855
393.97
394.071
394.163
394.246
394.323
394.394
394.458
400
400
400
400
400
400
400
400
400
399.996
399.78
399.609
399.457
399.314
399.178
399.047
398.919
398.793
398.67
398.548
398.428
398.309
398.191
398.075
397.959
397.843
397.729
397.615
397.502
397.389
397.277
397.166
397.055
396.944
396.834
396.725
396.616
396.507
396.399
396.29
396.182
396.074
395.966
395.858
395.75
395.643
395.536
395.43
395.324
395.219
395.115
395.012
394.91
394.809
394.709
394.611
394.515
394.421
394.331
394.252
394.462
394.594
394.694
394.776
394.847
394.91
394.967
395.019
395.066
395.109
400
400
400
400
400
400
400
400
400
399.996
399.786
399.619
399.472
399.336
399.207
399.084
398.964
398.847
398.733
398.621
398.511
398.402
398.295
398.19
398.085
397.981
397.879
397.777
397.676
397.576
397.476
397.378
397.28
397.182
397.086
396.99
396.894
396.799
396.704
396.609
396.515
396.42
396.326
396.231
396.137
396.044
395.951
395.858
395.766
395.675
395.584
395.495
395.406
395.319
395.232
395.148
395.064
394.984
394.905
394.838
395.034
395.157
395.25
395.326
395.391
395.447
395.498
395.544
395.585
395.622
400
400
400
400
400
400
400
400
400
399.996
399.787
399.622
399.476
399.342
399.215
399.094
398.976
398.863
398.752
398.643
398.537
398.433
398.33
398.228
398.128
398.03
397.932
397.835
397.74
397.645
397.552
397.459
397.367
397.276
397.185
397.096
397.007
396.918
396.83
396.742
396.655
396.567
396.48
396.393
396.307
396.221
396.135
396.05
395.966
395.883
395.8
395.719
395.638
395.559
395.481
395.404
395.33
395.257
395.187
395.127
395.32
395.442
395.535
395.612
395.677
395.734
395.785
395.832
395.874
395.912
400
400
400
400
400
400
400
400
400
399.996
399.786
399.621
399.476
399.342
399.215
399.094
398.978
398.865
398.755
398.648
398.542
398.439
398.338
398.238
398.139
398.042
397.947
397.852
397.759
397.666
397.575
397.485
397.395
397.307
397.219
397.132
397.046
396.961
396.876
396.791
396.707
396.623
396.539
396.456
396.373
396.29
396.208
396.127
396.047
395.968
395.889
395.811
395.735
395.66
395.587
395.515
395.444
395.376
395.311
395.255
395.447
395.57
395.664
395.741
395.808
395.866
395.919
395.967
396.01
396.049
400
400
400
400
400
400
400
400
400
399.996
399.787
399.621
399.476
399.342
399.215
399.094
398.977
398.864
398.754
398.647
398.542
398.439
398.338
398.238
398.14
398.044
397.949
397.855
397.762
397.67
397.58
397.491
397.402
397.315
397.228
397.143
397.058
396.974
396.89
396.807
396.724
396.641
396.559
396.477
396.395
396.315
396.234
396.155
396.076
395.999
395.922
395.846
395.772
395.699
395.628
395.558
395.49
395.424
395.361
395.308
395.499
395.623
395.717
395.795
395.862
395.922
395.975
396.024
396.068
396.108
400
400
400
400
400
400
400
400
400
399.996
399.786
399.621
399.475
399.341
399.214
399.092
398.975
398.862
398.752
398.644
398.539
398.436
398.335
398.235
398.138
398.041
397.946
397.852
397.76
397.668
397.578
397.489
397.401
397.314
397.228
397.143
397.059
396.975
396.892
396.809
396.727
396.645
396.563
396.481
396.401
396.32
396.241
396.162
396.084
396.007
395.932
395.857
395.783
395.711
395.641
395.572
395.506
395.441
395.379
395.327
395.518
395.642
395.736
395.815
395.883
395.942
395.996
396.045
396.09
396.131
400
400
400
400
400
400
400
400
400
399.996
399.786
399.62
399.475
399.34
399.213
399.091
398.974
398.86
398.75
398.642
398.537
398.433
398.332
398.232
398.134
398.038
397.943
397.849
397.756
397.665
397.575
397.486
397.398
397.311
397.225
397.14
397.056
396.973
396.89
396.808
396.725
396.643
396.561
396.48
396.399
396.319
396.24
396.162
396.084
396.008
395.932
395.858
395.785
395.713
395.643
395.575
395.509
395.445
395.384
395.332
395.523
395.647
395.742
395.82
395.888
395.948
396.002
396.052
396.097
396.138
400
400
400
400
400
400
400
400
400
399.996
399.786
399.62
399.474
399.339
399.212
399.09
398.973
398.859
398.748
398.64
398.534
398.431
398.329
398.23
398.131
398.035
397.939
397.845
397.753
397.661
397.571
397.482
397.394
397.307
397.222
397.137
397.053
396.97
396.887
396.804
396.722
396.64
396.558
396.477
396.396
396.316
396.237
396.159
396.081
396.005
395.929
395.855
395.782
395.711
395.641
395.573
395.507
395.443
395.383
395.332
395.523
395.646
395.741
395.82
395.888
395.948
396.003
396.052
396.097
396.138
400
400
400
400
400
400
400
400
400
399.996
399.786
399.62
399.474
399.339
399.212
399.089
398.972
398.858
398.747
398.639
398.533
398.429
398.327
398.227
398.129
398.032
397.937
397.843
397.75
397.658
397.568
397.479
397.391
397.305
397.219
397.134
397.051
396.967
396.884
396.802
396.719
396.637
396.555
396.474
396.393
396.313
396.234
396.156
396.078
396.002
395.926
395.852
395.779
395.707
395.638
395.57
395.504
395.441
395.38
395.329
395.52
395.644
395.739
395.818
395.886
395.946
396.001
396.05
396.096
396.137
400
400
400
400
400
400
400
400
400
399.996
399.786
399.62
399.474
399.339
399.211
399.089
398.971
398.857
398.746
398.638
398.531
398.428
398.326
398.226
398.127
398.03
397.935
397.841
397.748
397.656
397.566
397.477
397.389
397.303
397.217
397.132
397.049
396.965
396.882
396.799
396.717
396.634
396.552
396.471
396.39
396.31
396.231
396.153
396.075
395.999
395.923
395.849
395.776
395.704
395.635
395.567
395.502
395.438
395.378
395.327
395.518
395.642
395.737
395.816
395.884
395.944
395.998
396.048
396.094
396.135
400
400
400
400
400
400
400
400
400
399.996
399.786
399.621
399.474
399.339
399.212
399.089
398.971
398.857
398.746
398.637
398.531
398.427
398.325
398.225
398.126
398.029
397.933
397.839
397.746
397.655
397.565
397.476
397.388
397.301
397.216
397.131
397.047
396.964
396.881
396.798
396.715
396.633
396.551
396.469
396.389
396.309
396.229
396.151
396.073
395.997
395.921
395.847
395.774
395.702
395.633
395.565
395.499
395.436
395.376
395.325
395.516
395.64
395.735
395.814
395.882
395.942
395.997
396.046
396.092
396.133
400
400
400
400
400
400
400
400
400
399.996
399.786
399.62
399.475
399.34
399.212
399.09
398.971
398.857
398.746
398.637
398.531
398.426
398.324
398.224
398.125
398.028
397.933
397.839
397.746
397.654
397.564
397.475
397.387
397.301
397.215
397.131
397.047
396.964
396.88
396.797
396.714
396.632
396.55
396.468
396.388
396.308
396.228
396.15
396.072
395.995
395.92
395.845
395.772
395.701
395.631
395.564
395.498
395.435
395.375
395.324
395.515
395.639
395.734
395.813
395.881
395.941
395.996
396.045
396.091
396.132
400
400
400
400
400
400
400
400
400
399.996
399.786
399.621
399.475
399.34
399.213
399.09
398.972
398.857
398.746
398.637
398.531
398.427
398.324
398.224
398.125
398.028
397.933
397.838
397.746
397.654
397.564
397.475
397.388
397.301
397.216
397.131
397.047
396.964
396.881
396.798
396.715
396.632
396.55
396.468
396.388
396.307
396.228
396.15
396.072
395.995
395.92
395.845
395.772
395.701
395.631
395.563
395.498
395.434
395.374
395.324
395.515
395.639
395.734
395.813
395.881
395.941
395.996
396.045
396.091
396.132
400
400
400
400
400
400
400
400
400
399.996
399.786
399.622
399.476
399.341
399.213
399.091
398.973
398.858
398.747
398.638
398.531
398.427
398.325
398.224
398.126
398.029
397.933
397.839
397.746
397.655
397.565
397.476
397.389
397.302
397.217
397.132
397.048
396.965
396.881
396.798
396.715
396.633
396.551
396.469
396.388
396.308
396.229
396.15
396.072
395.996
395.92
395.846
395.772
395.701
395.631
395.563
395.498
395.435
395.375
395.324
395.515
395.639
395.734
395.813
395.881
395.942
395.996
396.046
396.091
396.132
400
400
400
400
400
400
400
400
400
399.996
399.786
399.621
399.476
399.342
399.214
399.092
398.974
398.859
398.747
398.638
398.532
398.428
398.325
398.225
398.126
398.029
397.934
397.84
397.747
397.656
397.566
397.478
397.39
397.304
397.219
397.134
397.05
396.966
396.883
396.8
396.717
396.634
396.552
396.471
396.39
396.31
396.23
396.152
396.074
395.997
395.921
395.847
395.774
395.702
395.632
395.564
395.499
395.436
395.376
395.325
395.516
395.64
395.735
395.814
395.882
395.943
395.997
396.047
396.092
396.134
400
400
400
400
400
400
400
400
400
399.996
399.787
399.623
399.477
399.343
399.215
399.093
398.975
398.86
398.748
398.639
398.533
398.429
398.326
398.226
398.127
398.03
397.935
397.841
397.748
397.657
397.568
397.48
397.393
397.306
397.22
397.135
397.051
396.968
396.885
396.802
396.719
396.636
396.554
396.473
396.392
396.311
396.232
396.153
396.076
395.999
395.923
395.848
395.775
395.703
395.634
395.566
395.5
395.437
395.377
395.327
395.518
395.642
395.737
395.816
395.884
395.944
395.999
396.048
396.094
396.135
400
400
400
400
400
400
400
400
400
399.996
399.787
399.623
399.478
399.344
399.216
399.094
398.976
398.861
398.749
398.64
398.534
398.429
398.327
398.227
398.128
398.031
397.936
397.842
397.75
397.659
397.569
397.482
397.395
397.308
397.222
397.136
397.052
396.969
396.886
396.803
396.721
396.638
396.556
396.474
396.394
396.313
396.234
396.155
396.077
396
395.925
395.85
395.777
395.705
395.635
395.567
395.502
395.439
395.379
395.328
395.519
395.643
395.738
395.817
395.885
395.946
396
396.05
396.095
396.136
400
400
400
400
400
400
400
400
400
399.996
399.787
399.623
399.478
399.344
399.217
399.095
398.977
398.862
398.75
398.641
398.535
398.43
398.328
398.228
398.129
398.032
397.937
397.843
397.751
397.66
397.571
397.483
397.396
397.309
397.222
397.137
397.052
396.969
396.886
396.804
396.721
396.639
396.557
396.476
396.395
396.315
396.235
396.156
396.079
396.002
395.926
395.851
395.778
395.706
395.636
395.569
395.503
395.44
395.38
395.329
395.521
395.644
395.739
395.818
395.887
395.947
396.001
396.051
396.096
396.138
400
400
400
400
400
400
400
400
400
399.996
399.788
399.624
399.48
399.345
399.218
399.096
398.978
398.863
398.751
398.642
398.535
398.431
398.329
398.228
398.13
398.033
397.938
397.844
397.752
397.661
397.572
397.484
397.396
397.309
397.222
397.137
397.052
396.968
396.886
396.804
396.722
396.639
396.558
396.476
396.396
396.315
396.236
396.157
396.079
396.003
395.927
395.852
395.779
395.707
395.637
395.569
395.504
395.441
395.381
395.33
395.521
395.645
395.74
395.819
395.887
395.948
396.002
396.052
396.097
396.139
400
400
400
400
400
400
400
400
400
399.996
399.788
399.624
399.48
399.346
399.219
399.097
398.979
398.864
398.752
398.643
398.536
398.432
398.329
398.229
398.13
398.034
397.939
397.845
397.753
397.662
397.573
397.484
397.396
397.309
397.222
397.136
397.052
396.968
396.885
396.803
396.721
396.639
396.558
396.476
396.396
396.316
396.236
396.158
396.08
396.003
395.927
395.853
395.779
395.708
395.638
395.57
395.504
395.441
395.381
395.331
395.522
395.646
395.741
395.82
395.888
395.948
396.003
396.052
396.098
396.139
400
400
400
400
400
400
400
400
400
399.996
399.788
399.625
399.48
399.346
399.219
399.097
398.979
398.864
398.753
398.643
398.537
398.432
398.33
398.229
398.131
398.034
397.939
397.845
397.753
397.663
397.573
397.484
397.396
397.308
397.222
397.136
397.051
396.967
396.884
396.802
396.72
396.639
396.557
396.476
396.396
396.316
396.237
396.158
396.08
396.004
395.928
395.853
395.78
395.708
395.638
395.57
395.504
395.441
395.381
395.331
395.522
395.646
395.741
395.82
395.888
395.949
396.003
396.053
396.098
396.139
400
400
400
400
400
400
400
400
400
399.996
399.788
399.625
399.481
399.347
399.22
399.098
398.98
398.865
398.753
398.644
398.537
398.433
398.33
398.23
398.131
398.034
397.939
397.846
397.753
397.663
397.573
397.484
397.396
397.308
397.221
397.135
397.05
396.967
396.884
396.802
396.72
396.638
396.557
396.476
396.396
396.316
396.237
396.158
396.081
396.004
395.928
395.854
395.78
395.708
395.638
395.57
395.505
395.441
395.381
395.33
395.522
395.646
395.741
395.82
395.888
395.949
396.003
396.053
396.098
396.14
400
400
400
400
400
400
400
400
400
399.996
399.788
399.625
399.481
399.347
399.22
399.098
398.98
398.866
398.754
398.644
398.538
398.433
398.33
398.23
398.131
398.034
397.939
397.845
397.753
397.663
397.573
397.484
397.395
397.308
397.221
397.135
397.05
396.966
396.883
396.801
396.72
396.638
396.557
396.477
396.396
396.317
396.237
396.159
396.081
396.004
395.929
395.854
395.781
395.709
395.639
395.571
395.505
395.442
395.381
395.331
395.522
395.646
395.741
395.82
395.888
395.949
396.003
396.053
396.098
396.14
400
400
400
400
400
400
400
400
400
399.996
399.789
399.626
399.482
399.348
399.222
399.1
398.981
398.867
398.755
398.645
398.538
398.433
398.331
398.23
398.131
398.034
397.939
397.845
397.753
397.662
397.573
397.484
397.395
397.308
397.221
397.135
397.05
396.966
396.883
396.801
396.72
396.638
396.558
396.477
396.397
396.317
396.238
396.16
396.082
396.005
395.929
395.855
395.781
395.709
395.639
395.571
395.505
395.441
395.38
395.329
395.521
395.645
395.741
395.82
395.888
395.948
396.003
396.053
396.098
396.139
400
400
400
400
400
400
400
400
400
399.996
399.789
399.626
399.482
399.349
399.222
399.1
398.982
398.867
398.755
398.646
398.539
398.434
398.331
398.23
398.131
398.034
397.939
397.845
397.753
397.662
397.572
397.483
397.395
397.308
397.221
397.135
397.05
396.966
396.883
396.801
396.72
396.639
396.558
396.477
396.397
396.318
396.239
396.16
396.083
396.006
395.93
395.855
395.782
395.71
395.64
395.571
395.505
395.441
395.38
395.329
395.521
395.645
395.74
395.82
395.888
395.948
396.003
396.052
396.098
396.139
400
400
400
400
400
400
400
400
400
399.996
399.789
399.626
399.483
399.349
399.222
399.1
398.982
398.867
398.755
398.646
398.539
398.434
398.331
398.23
398.131
398.034
397.939
397.845
397.753
397.662
397.572
397.484
397.395
397.308
397.221
397.135
397.051
396.967
396.884
396.802
396.721
396.64
396.559
396.478
396.398
396.318
396.239
396.161
396.083
396.007
395.931
395.856
395.782
395.71
395.64
395.571
395.505
395.441
395.38
395.329
395.521
395.645
395.74
395.819
395.887
395.948
396.002
396.052
396.098
396.139
400
400
400
400
400
400
400
400
400
399.996
399.789
399.627
399.483
399.35
399.223
399.101
398.983
398.868
398.756
398.646
398.539
398.434
398.332
398.231
398.131
398.034
397.938
397.845
397.752
397.662
397.572
397.484
397.396
397.308
397.222
397.136
397.051
396.968
396.885
396.804
396.722
396.64
396.559
396.479
396.399
396.319
396.24
396.162
396.084
396.007
395.931
395.856
395.783
395.711
395.64
395.571
395.505
395.44
395.379
395.328
395.52
395.644
395.74
395.819
395.887
395.947
396.002
396.052
396.097
396.139
400
400
400
400
400
400
400
400
400
399.996
399.79
399.627
399.483
399.35
399.223
399.101
398.983
398.868
398.756
398.647
398.54
398.435
398.332
398.231
398.132
398.034
397.938
397.844
397.752
397.661
397.572
397.484
397.396
397.309
397.222
397.137
397.052
396.969
396.887
396.805
396.723
396.641
396.56
396.48
396.4
396.32
396.241
396.162
396.085
396.008
395.932
395.857
395.783
395.711
395.64
395.571
395.504
395.44
395.379
395.327
395.519
395.643
395.739
395.818
395.886
395.947
396.001
396.051
396.096
396.138
400
400
400
400
400
400
400
400
400
399.996
399.79
399.627
399.483
399.35
399.224
399.102
398.984
398.869
398.757
398.647
398.54
398.435
398.332
398.231
398.132
398.034
397.939
397.844
397.752
397.661
397.572
397.484
397.397
397.309
397.223
397.138
397.054
396.97
396.888
396.806
396.724
396.642
396.561
396.48
396.4
396.32
396.241
396.163
396.085
396.008
395.932
395.857
395.783
395.71
395.639
395.57
395.503
395.438
395.376
395.325
395.517
395.642
395.737
395.816
395.885
395.945
396
396.049
396.095
396.136
400
400
400
400
400
400
400
400
400
399.996
399.79
399.627
399.484
399.351
399.224
399.102
398.984
398.869
398.757
398.648
398.541
398.436
398.333
398.232
398.132
398.035
397.939
397.845
397.752
397.661
397.572
397.484
397.397
397.31
397.224
397.139
397.055
396.972
396.889
396.807
396.724
396.642
396.561
396.48
396.4
396.32
396.241
396.162
396.085
396.008
395.931
395.856
395.782
395.71
395.638
395.569
395.502
395.437
395.375
395.323
395.516
395.64
395.736
395.815
395.883
395.944
395.998
396.048
396.094
396.135
400
400
400
400
400
400
400
400
400
399.996
399.79
399.627
399.484
399.351
399.224
399.103
398.985
398.87
398.758
398.649
398.541
398.437
398.334
398.232
398.133
398.035
397.94
397.845
397.752
397.661
397.572
397.484
397.397
397.31
397.224
397.139
397.055
396.972
396.889
396.806
396.724
396.642
396.56
396.479
396.399
396.319
396.24
396.161
396.084
396.007
395.93
395.855
395.781
395.708
395.637
395.567
395.499
395.434
395.372
395.32
395.513
395.638
395.733
395.813
395.881
395.942
395.996
396.046
396.092
396.133
400
400
400
400
400
400
400
400
400
399.996
399.79
399.627
399.484
399.351
399.225
399.103
398.985
398.871
398.759
398.649
398.542
398.437
398.334
398.233
398.134
398.036
397.94
397.846
397.753
397.662
397.572
397.484
397.397
397.311
397.225
397.14
397.056
396.972
396.889
396.806
396.723
396.641
396.559
396.478
396.398
396.318
396.239
396.161
396.083
396.006
395.929
395.854
395.78
395.707
395.635
395.565
395.498
395.432
395.37
395.317
395.51
395.635
395.731
395.81
395.879
395.939
395.994
396.044
396.09
396.131
400
400
400
400
400
400
400
400
400
399.996
399.79
399.628
399.485
399.352
399.225
399.104
398.986
398.871
398.76
398.65
398.543
398.439
398.336
398.235
398.135
398.038
397.942
397.847
397.754
397.663
397.573
397.485
397.398
397.312
397.226
397.141
397.057
396.973
396.889
396.806
396.723
396.641
396.559
396.478
396.397
396.318
396.239
396.16
396.082
396.005
395.929
395.853
395.779
395.706
395.634
395.564
395.495
395.43
395.368
395.315
395.508
395.633
395.729
395.809
395.877
395.938
395.992
396.042
396.088
396.129
400
400
400
400
400
400
400
400
400
399.996
399.79
399.628
399.485
399.352
399.226
399.105
398.987
398.872
398.761
398.652
398.545
398.44
398.337
398.236
398.137
398.039
397.943
397.849
397.756
397.664
397.575
397.486
397.399
397.313
397.227
397.142
397.058
396.974
396.89
396.806
396.723
396.641
396.559
396.478
396.398
396.318
396.239
396.16
396.082
396.005
395.929
395.853
395.779
395.705
395.633
395.563
395.495
395.429
395.366
395.313
395.507
395.632
395.728
395.807
395.876
395.937
395.991
396.041
396.087
396.128
400
400
400
400
400
400
400
400
400
399.996
399.79
399.628
399.485
399.353
399.227
399.105
398.988
398.874
398.762
398.653
398.546
398.441
398.339
398.238
398.138
398.041
397.945
397.85
397.757
397.666
397.576
397.488
397.401
397.315
397.229
397.144
397.059
396.975
396.891
396.807
396.724
396.642
396.56
396.479
396.398
396.319
396.239
396.161
396.083
396.006
395.929
395.854
395.779
395.706
395.634
395.563
395.494
395.428
395.365
395.312
395.506
395.631
395.727
395.806
395.875
395.936
395.991
396.041
396.086
396.128
400
400
400
400
400
400
400
400
400
399.996
399.79
399.629
399.486
399.353
399.227
399.106
398.989
398.875
398.763
398.654
398.548
398.443
398.34
398.24
398.14
398.043
397.947
397.853
397.76
397.669
397.579
397.491
397.403
397.317
397.231
397.146
397.061
396.977
396.892
396.809
396.726
396.643
396.562
396.481
396.4
396.32
396.241
396.162
396.084
396.007
395.931
395.855
395.78
395.707
395.634
395.564
395.495
395.428
395.365
395.312
395.506
395.631
395.727
395.807
395.876
395.936
395.991
396.041
396.087
396.128
400
400
400
400
400
400
400
400
400
399.996
399.791
399.629
399.486
399.354
399.228
399.107
398.99
398.876
398.765
398.656
398.549
398.445
398.342
398.242
398.143
398.045
397.949
397.855
397.762
397.671
397.582
397.493
397.406
397.32
397.234
397.148
397.063
396.979
396.895
396.811
396.728
396.646
396.564
396.483
396.402
396.322
396.243
396.165
396.087
396.01
395.933
395.857
395.783
395.709
395.636
395.565
395.496
395.43
395.366
395.312
395.506
395.632
395.728
395.808
395.877
395.937
395.992
396.042
396.088
396.129
400
400
400
400
400
400
400
400
400
399.996
399.791
399.629
399.487
399.355
399.229
399.108
398.992
398.878
398.767
398.658
398.552
398.447
398.345
398.244
398.145
398.048
397.952
397.858
397.766
397.674
397.585
397.497
397.409
397.323
397.237
397.151
397.066
396.982
396.898
396.814
396.731
396.649
396.567
396.486
396.405
396.326
396.246
396.168
396.09
396.013
395.936
395.86
395.786
395.712
395.639
395.568
395.498
395.431
395.368
395.313
395.508
395.634
395.73
395.809
395.878
395.939
395.994
396.044
396.089
396.131
400
400
400
400
400
400
400
400
400
399.996
399.791
399.63
399.487
399.355
399.23
399.11
398.993
398.879
398.768
398.66
398.554
398.45
398.347
398.247
398.148
398.051
397.955
397.861
397.769
397.678
397.588
397.5
397.413
397.326
397.24
397.154
397.069
396.985
396.901
396.817
396.734
396.652
396.57
396.489
396.409
396.329
396.25
396.171
396.093
396.016
395.939
395.864
395.789
395.715
395.642
395.57
395.501
395.433
395.369
395.315
395.51
395.635
395.731
395.811
395.88
395.94
395.995
396.045
396.091
396.132
400
400
400
400
400
400
400
400
400
399.996
399.791
399.63
399.488
399.356
399.231
399.111
398.995
398.881
398.771
398.662
398.556
398.452
398.35
398.25
398.151
398.054
397.959
397.865
397.773
397.682
397.592
397.504
397.416
397.33
397.243
397.158
397.073
396.988
396.904
396.82
396.737
396.655
396.573
396.492
396.412
396.332
396.253
396.174
396.096
396.019
395.942
395.866
395.791
395.717
395.644
395.572
395.502
395.434
395.369
395.314
395.509
395.635
395.731
395.811
395.879
395.94
395.995
396.044
396.09
396.131
400
400
400
400
400
400
400
400
400
399.996
399.792
399.631
399.488
399.357
399.232
399.112
398.996
398.883
398.773
398.665
398.559
398.455
398.353
398.253
398.154
398.057
397.962
397.868
397.776
397.685
397.595
397.507
397.419
397.332
397.246
397.16
397.075
396.99
396.906
396.822
396.739
396.656
396.575
396.493
396.413
396.333
396.253
396.174
396.096
396.019
395.942
395.865
395.79
395.715
395.642
395.569
395.499
395.43
395.365
395.309
395.504
395.63
395.725
395.805
395.873
395.934
395.988
396.038
396.083
396.124
400
400
400
400
400
400
400
400
400
399.996
399.792
399.631
399.489
399.358
399.233
399.114
398.998
398.885
398.774
398.667
398.561
398.457
398.355
398.255
398.156
398.059
397.964
397.87
397.777
397.686
397.596
397.507
397.419
397.332
397.245
397.159
397.073
396.988
396.903
396.819
396.735
396.652
396.57
396.488
396.407
396.326
396.246
396.167
396.088
396.01
395.932
395.855
395.778
395.703
395.628
395.555
395.483
395.413
395.346
395.29
395.485
395.61
395.706
395.785
395.853
395.913
395.967
396.016
396.061
396.101
400
400
400
400
400
400
400
400
400
399.996
399.792
399.631
399.489
399.358
399.234
399.114
398.998
398.885
398.774
398.666
398.56
398.456
398.354
398.253
398.154
398.057
397.961
397.866
397.773
397.681
397.59
397.5
397.411
397.322
397.234
397.147
397.06
396.974
396.888
396.802
396.718
396.633
396.55
396.466
396.384
396.301
396.22
396.139
396.058
395.978
395.899
395.82
395.741
395.664
395.587
395.512
395.437
395.365
395.296
395.237
395.432
395.557
395.652
395.731
395.798
395.857
395.91
395.958
396.002
396.042
400
400
400
400
400
400
400
400
400
399.996
399.792
399.631
399.489
399.357
399.232
399.112
398.995
398.881
398.77
398.661
398.554
398.449
398.345
398.243
398.142
398.042
397.944
397.848
397.752
397.658
397.565
397.472
397.381
397.29
397.199
397.109
397.019
396.93
396.841
396.752
396.664
396.577
396.49
396.403
396.317
396.231
396.146
396.061
395.977
395.893
395.809
395.726
395.644
395.562
395.482
395.401
395.323
395.246
395.172
395.109
395.305
395.43
395.524
395.601
395.667
395.725
395.777
395.823
395.866
395.904
400
400
400
400
400
400
400
400
400
399.996
399.791
399.628
399.485
399.351
399.224
399.101
398.981
398.864
398.75
398.637
398.526
398.417
398.309
398.202
398.097
397.992
397.889
397.787
397.686
397.587
397.488
397.389
397.292
397.194
397.097
397.001
396.905
396.809
396.713
396.618
396.523
396.428
396.334
396.24
396.147
396.053
395.961
395.868
395.776
395.685
395.593
395.503
395.412
395.322
395.233
395.145
395.058
394.973
394.891
394.82
395.019
395.144
395.238
395.315
395.381
395.438
395.489
395.535
395.577
395.614
400
400
400
400
400
400
400
400
400
399.996
399.786
399.618
399.468
399.328
399.193
399.063
398.935
398.809
398.685
398.563
398.442
398.322
398.203
398.085
397.968
397.852
397.737
397.623
397.51
397.397
397.286
397.175
397.064
396.954
396.844
396.734
396.624
396.515
396.406
396.297
396.189
396.08
395.973
395.865
395.758
395.651
395.545
395.439
395.334
395.228
395.124
395.02
394.916
394.813
394.711
394.609
394.509
394.411
394.317
394.234
394.447
394.58
394.682
394.765
394.837
394.9
394.957
395.009
395.057
395.1
400
400
400
400
400
400
400
400
400
399.995
399.766
399.579
399.41
399.25
399.096
398.944
398.795
398.647
398.501
398.356
398.213
398.07
397.928
397.787
397.647
397.508
397.37
397.232
397.096
396.961
396.827
396.694
396.561
396.429
396.297
396.166
396.035
395.905
395.776
395.647
395.519
395.391
395.264
395.138
395.013
394.888
394.764
394.641
394.519
394.397
394.276
394.156
394.037
393.918
393.801
393.685
393.571
393.46
393.351
393.262
393.53
393.704
393.841
393.957
394.059
394.151
394.235
394.313
394.384
394.449
400
400
400
400
400
400
400
400
400
399.993
399.692
399.455
399.243
399.044
398.852
398.665
398.481
398.301
398.122
397.945
397.77
397.597
397.425
397.255
397.087
396.92
396.756
396.593
396.432
396.273
396.116
395.961
395.807
395.655
395.505
395.355
395.207
395.061
394.915
394.771
394.629
394.488
394.348
394.21
394.073
393.937
393.803
393.67
393.538
393.407
393.278
393.149
393.022
392.896
392.773
392.65
392.53
392.414
392.303
392.224
392.67
392.954
393.173
393.355
393.511
393.648
393.771
393.883
393.984
394.073
400
400
400
400
400
400
400
400
400
399.995
399.763
399.544
399.339
399.142
398.951
398.765
398.583
398.403
398.226
398.05
397.877
397.705
397.534
397.365
397.198
397.031
396.867
396.704
396.542
396.382
396.223
396.067
395.912
395.758
395.607
395.457
395.309
395.162
395.017
394.873
394.73
394.587
394.446
394.306
394.167
394.03
393.894
393.759
393.626
393.495
393.365
393.238
393.112
392.988
392.867
392.749
392.633
392.521
392.415
392.335
392.699
392.968
393.182
393.361
393.515
393.652
393.775
393.886
393.988
394.077
400
400
400
400
400
400
400
400
400
399.997
399.832
399.667
399.507
399.353
399.202
399.053
398.907
398.762
398.619
398.476
398.335
398.195
398.055
397.916
397.778
397.64
397.503
397.367
397.231
397.096
396.962
396.828
396.695
396.563
396.432
396.301
396.171
396.041
395.912
395.784
395.656
395.528
395.4
395.273
395.147
395.021
394.897
394.773
394.649
394.528
394.407
394.287
394.168
394.052
393.936
393.824
393.712
393.604
393.499
393.409
393.594
393.746
393.873
393.982
394.08
394.169
394.25
394.326
394.396
394.459
400
400
400
400
400
400
400
400
400
399.998
399.849
399.702
399.561
399.426
399.295
399.168
399.042
398.919
398.798
398.678
398.559
398.442
398.325
398.209
398.095
397.98
397.867
397.754
397.641
397.529
397.418
397.307
397.197
397.087
396.977
396.868
396.76
396.652
396.544
396.436
396.328
396.22
396.113
396.005
395.898
395.791
395.684
395.578
395.473
395.368
395.264
395.161
395.058
394.957
394.857
394.759
394.662
394.567
394.475
394.392
394.528
394.639
394.73
394.807
394.874
394.934
394.988
395.038
395.084
395.125
400
400
400
400
400
400
400
400
400
399.998
399.853
399.711
399.576
399.447
399.323
399.202
399.085
398.971
398.858
398.748
398.639
398.532
398.426
398.321
398.218
398.115
398.013
397.912
397.812
397.712
397.613
397.515
397.418
397.321
397.225
397.129
397.034
396.939
396.845
396.75
396.656
396.562
396.468
396.374
396.281
396.188
396.095
396.003
395.911
395.82
395.729
395.64
395.551
395.463
395.377
395.292
395.208
395.126
395.046
394.975
395.1
395.202
395.286
395.357
395.419
395.473
395.522
395.566
395.606
395.642
400
400
400
400
400
400
400
400
400
399.998
399.854
399.713
399.579
399.452
399.33
399.212
399.097
398.986
398.877
398.77
398.665
398.561
398.459
398.359
398.26
398.162
398.065
397.969
397.874
397.78
397.686
397.594
397.502
397.412
397.321
397.232
397.143
397.055
396.968
396.88
396.793
396.706
396.619
396.533
396.447
396.361
396.276
396.191
396.107
396.024
395.941
395.859
395.779
395.699
395.621
395.544
395.468
395.395
395.324
395.26
395.382
395.484
395.568
395.64
395.702
395.757
395.806
395.851
395.892
395.929
400
400
400
400
400
400
400
400
400
399.998
399.853
399.712
399.579
399.452
399.33
399.212
399.099
398.988
398.879
398.773
398.67
398.567
398.467
398.368
398.27
398.174
398.079
397.985
397.892
397.8
397.709
397.619
397.53
397.442
397.354
397.268
397.182
397.097
397.012
396.928
396.844
396.76
396.677
396.593
396.511
396.429
396.347
396.266
396.186
396.106
396.028
395.95
395.873
395.798
395.724
395.651
395.58
395.511
395.445
395.385
395.507
395.609
395.694
395.767
395.83
395.886
395.937
395.984
396.026
396.064
400
400
400
400
400
400
400
400
400
399.998
399.853
399.712
399.579
399.451
399.329
399.212
399.098
398.987
398.879
398.773
398.669
398.567
398.467
398.368
398.271
398.175
398.081
397.987
397.895
397.804
397.714
397.625
397.536
397.449
397.363
397.278
397.193
397.109
397.026
396.943
396.86
396.778
396.696
396.614
396.533
396.452
396.372
396.293
396.214