/*--------------------------------*- C++ -*----------------------------------*\
  =========                 |
  \\      /  F ield         | OpenFOAM: The Open Source CFD Toolbox
   \\    /   O peration     | Website:  https://openfoam.org
    \\  /    A nd           | Version:  12
     \\/     M anipulation  |
\*---------------------------------------------------------------------------*/
FoamFile
{
    format      ascii;
    class       volScalarField;
    location    "2000/air";
    object      alphat;
}
// * * * * * * * * * * * * * * * * * * * * * * * * * * * * * * * * * * * * * //

dimensions      [1 -1 -1 0 0 0 0];

internalField   nonuniform List<scalar> 
243000
(
0.000129651
0.000138295
0.000141329
0.000141422
0.000139625
0.00013656
0.000132701
0.000128408
0.000123955
0.000119556
0.000115343
0.000111419
0.000107829
0.000104633
0.000101828
9.93679e-05
9.71543e-05
9.5111e-05
9.31611e-05
9.12123e-05
8.91605e-05
8.66616e-05
0.000377884
0.000379397
0.000359902
0.000343576
0.000296156
0.000213012
0.000200678
0.000258386
0.000489558
0.000516015
0.000516847
0.000505396
0.000488277
0.000468726
0.000448379
0.000428264
0.000409034
0.000391091
0.000374646
0.000359891
0.000346884
0.0003357
0.000326289
0.000318526
0.000312195
0.000307226
0.000303434
0.000300673
0.000298674
0.000297634
0.000297276
0.000293778
0.000291002
0.000280442
0.00026324
0.000232772
0.000213607
0.000229746
0.000610095
0.000674325
0.000704637
0.000716631
0.000718086
0.000712933
0.000703513
0.000691385
0.000677573
0.000662813
0.00064757
0.000632265
0.000617146
0.000602545
0.000588571
0.000575236
0.000562406
0.000550259
0.000538612
0.000527317
0.000516056
0.000504405
0.000491802
0.00047666
0.000457524
0.000431395
0.00039648
0.000348753
0.000307807
0.0002891
0.000614005
0.000672802
0.000709762
0.00072889
0.000735844
0.000734434
0.000727659
0.000717392
0.000704875
0.000691015
0.000676421
0.000661596
0.000646836
0.000632518
0.000618842
0.000605883
0.000593565
0.000582132
0.000571349
0.000560953
0.000550498
0.000539496
0.00052724
0.000512584
0.000493931
0.000468979
0.000436111
0.000392214
0.000349968
0.000316369
0.000613114
0.000655831
0.000693109
0.000717848
0.000731372
0.000735994
0.000734086
0.000727741
0.000718282
0.000706846
0.000694195
0.00068094
0.000667462
0.00065421
0.000641472
0.000629417
0.000618035
0.000607603
0.000597841
0.000588352
0.000578563
0.000567947
0.000555857
0.000541398
0.000523236
0.000499476
0.000468673
0.000428452
0.000387085
0.000347494
0.000620927
0.000637232
0.00066506
0.000691358
0.000710729
0.000721983
0.000726303
0.000725269
0.000720203
0.000712382
0.00070274
0.000691993
0.000680577
0.000669051
0.000657774
0.000647058
0.000636947
0.000627736
0.000619098
0.000610533
0.00060138
0.000591076
0.00057907
0.000564681
0.000546877
0.000524156
0.000495232
0.000458308
0.000418745
0.00037765
0.000638766
0.00063549
0.000647173
0.000665333
0.00068337
0.000697915
0.000707829
0.00071244
0.000712649
0.000709367
0.000703559
0.000695961
0.000687257
0.00067802
0.000668669
0.000659665
0.00065111
0.000643289
0.000635858
0.000628245
0.000619744
0.000609771
0.000597855
0.000583499
0.00056596
0.000544088
0.000516806
0.000482744
0.000445359
0.000404837
0.000666657
0.000651694
0.000646524
0.000652315
0.000663805
0.000676377
0.000686958
0.000693912
0.000698201
0.000699358
0.000697733
0.000693881
0.000688351
0.000681852
0.000674837
0.000667868
0.000661118
0.000654834
0.000648685
0.000642073
0.000634265
0.000624687
0.000612924
0.000598633
0.000581314
0.000560141
0.000534272
0.000502659
0.000467604
0.00042854
0.00069608
0.000675833
0.000660022
0.000652797
0.000654213
0.000660979
0.000669416
0.000676755
0.000682248
0.000685332
0.000687067
0.000686817
0.000684699
0.000681215
0.000676834
0.000672165
0.000667424
0.000662816
0.000658035
0.000652483
0.000645433
0.000636333
0.000624825
0.000610675
0.000593587
0.000573013
0.000548394
0.000518935
0.000486055
0.000448834
0.000725703
0.000704457
0.000682673
0.000665791
0.000656366
0.000654362
0.000657426
0.000662539
0.000667727
0.00067175
0.000674595
0.000676517
0.000677314
0.000676822
0.000675192
0.000672985
0.000670406
0.000667597
0.000664273
0.000659854
0.000653643
0.000645126
0.000633992
0.000620091
0.00060329
0.000583306
0.00055976
0.000532035
0.00050116
0.000465975
0.000754973
0.000733237
0.000709597
0.000687524
0.000669789
0.000658489
0.000653708
0.000653694
0.000656311
0.000659668
0.000662825
0.000665458
0.000667719
0.000669585
0.000670534
0.000670782
0.000670401
0.000669488
0.000667707
0.000664508
0.00065923
0.000651405
0.000640776
0.000627259
0.000610873
0.000591427
0.000568759
0.000542519
0.000513437
0.000480406
0.00078358
0.000761792
0.000738122
0.000714147
0.000691717
0.000673118
0.000660099
0.000652923
0.000650435
0.000650926
0.000652884
0.000655356
0.000657936
0.000660807
0.000663667
0.000666096
0.000667836
0.000668799
0.000668614
0.000666742
0.00066248
0.00065546
0.000645484
0.000632521
0.000616598
0.000597691
0.000575826
0.000550859
0.000523356
0.000492352
0.000811281
0.000789717
0.000767133
0.000742788
0.00071847
0.000695649
0.000676228
0.000661688
0.000652455
0.000647873
0.000646566
0.000647406
0.000649384
0.000652129
0.000655684
0.000659638
0.000663186
0.000665906
0.000667286
0.000666717
0.000663616
0.000657587
0.000648379
0.000636035
0.000620678
0.000602383
0.000581301
0.000557474
0.00053137
0.000502231
0.0008379
0.000816663
0.000794675
0.000771108
0.000746819
0.000722502
0.00069946
0.000679314
0.000663452
0.000652492
0.000646119
0.000643398
0.000643288
0.000644971
0.000647964
0.00065235
0.000657079
0.000661243
0.000664068
0.000664813
0.000662855
0.000657768
0.000649507
0.000637982
0.000623336
0.000605768
0.000585574
0.000563092
0.000538453
0.000511315
0.000863196
0.000842375
0.000821025
0.000798519
0.000775089
0.000750919
0.000726641
0.000703363
0.000682532
0.000665508
0.000653062
0.000645191
0.0006413
0.000640502
0.000642013
0.000645415
0.000650351
0.00065539
0.000659363
0.000661317
0.000660494
0.000656477
0.000649119
0.000638541
0.000624798
0.000608467
0.000589637
0.00056851
0.000545288
0.0005199
0.000886951
0.000866626
0.000846018
0.000824696
0.000802459
0.000779245
0.000755226
0.000730926
0.000707351
0.000685866
0.000667812
0.000654111
0.000645037
0.000640238
0.000638938
0.000640435
0.000644149
0.000649134
0.000653716
0.000656609
0.000656827
0.00065389
0.000647593
0.000638179
0.00062588
0.000610899
0.000593426
0.000573653
0.000551815
0.000528021
0.00090894
0.000889209
0.000869446
0.000849382
0.000828491
0.000806591
0.000783596
0.000759639
0.000735226
0.000711318
0.000689207
0.000670259
0.000655541
0.00064556
0.00064007
0.000638459
0.000639946
0.00064355
0.00064789
0.000651221
0.00065226
0.00065037
0.000645478
0.00063748
0.000626607
0.000613005
0.000596896
0.000578473
0.000557993
0.000535678
0.000928976
0.000909944
0.00089113
0.000872358
0.000852885
0.000832442
0.000810828
0.000787963
0.000763984
0.000739399
0.000715119
0.000692424
0.000672726
0.000657273
0.000646607
0.000640667
0.000638828
0.000640082
0.000643073
0.000646088
0.000647635
0.000646751
0.000643096
0.000636455
0.000626973
0.000614751
0.000600004
0.000582928
0.000563787
0.000542874
0.000946869
0.000928651
0.000910967
0.000893455
0.000875389
0.000856454
0.00083639
0.000814995
0.00079219
0.000768129
0.000743305
0.000718627
0.000695408
0.000675186
0.000659176
0.000648091
0.000641848
0.000639704
0.000640392
0.000642259
0.000643649
0.00064331
0.000640617
0.000635191
0.000627002
0.000616129
0.000602727
0.000586986
0.00056917
0.000549609
0.000962432
0.000945177
0.000928863
0.000912521
0.000895818
0.000878401
0.000859959
0.000840221
0.000818983
0.00079618
0.000771967
0.000746848
0.000721789
0.000698193
0.000677557
0.000661251
0.000649927
0.00064339
0.000640746
0.00064048
0.000640881
0.000640475
0.000638336
0.000633867
0.000626818
0.000617191
0.000605086
0.00059065
0.000574139
0.000555888
0.000975775
0.000959837
0.000944483
0.000929308
0.000913971
0.000898094
0.000881324
0.000863348
0.000843901
0.000822788
0.000799939
0.000775525
0.000750119
0.000724756
0.000700824
0.000679998
0.000663564
0.000652026
0.000645106
0.00064167
0.000640114
0.000638855
0.000636712
0.000632796
0.000626631
0.000618089
0.00060718
0.000593987
0.000578733
0.000561739
0.000986567
0.000971625
0.000957411
0.000943543
0.000929663
0.0009154
0.000900382
0.000884289
0.000866843
0.00084777
0.00082684
0.00080397
0.000779379
0.000753716
0.000728008
0.000703857
0.000682879
0.000666251
0.000654423
0.00064687
0.000642331
0.000639271
0.000636303
0.000632368
0.000626732
0.000619049
0.000609182
0.000597129
0.000583056
0.00056725
0.000994648
0.00098093
0.00096795
0.000955442
0.000943061
0.00093048
0.000917364
0.000903437
0.000888557
0.000872192
0.000853885
0.000833361
0.000810508
0.000785743
0.000759525
0.000733206
0.000708207
0.000686638
0.00066962
0.000657236
0.000648731
0.000642837
0.00063816
0.000633436
0.000627734
0.000620486
0.00061139
0.000600301
0.000587286
0.000572571
0.00100053
0.000988193
0.000976563
0.000965437
0.000954605
0.00094412
0.000933622
0.00092253
0.00091043
0.000896871
0.000881361
0.000863523
0.000843003
0.00082
0.000794458
0.000767326
0.000739658
0.000713783
0.000691781
0.000674218
0.000660941
0.000651148
0.000643658
0.000637194
0.000630638
0.000623214
0.000614413
0.000603949
0.000591757
0.00057799
0.00100461
0.000993838
0.000983726
0.000974148
0.000965138
0.000956928
0.000948914
0.000940518
0.000931257
0.00092066
0.000908191
0.000893408
0.000875756
0.000855276
0.000831453
0.000804857
0.00077665
0.000748678
0.000722775
0.000700245
0.000681692
0.000666981
0.000655391
0.00064586
0.000637272
0.000628691
0.000619419
0.000609007
0.000597216
0.000584053
0.0010074
0.000998547
0.000990333
0.000982758
0.000975736
0.000969316
0.000963333
0.000957437
0.000951184
0.000944051
0.000935441
0.000924753
0.000911344
0.000894863
0.000874888
0.000851302
0.000824578
0.000796024
0.00076749
0.000740601
0.000716573
0.000695993
0.0006788
0.000664408
0.000651965
0.000640568
0.000629417
0.000617871
0.000605539
0.000592287
0.00101147
0.00100568
0.00100056
0.000996173
0.000992536
0.000989682
0.000987536
0.000985829
0.000984158
0.000981944
0.0009785
0.00097307
0.000964877
0.00095331
0.000937949
0.000918228
0.000893906
0.000866086
0.000836248
0.000806022
0.000776886
0.000749949
0.00072578
0.000704453
0.000685659
0.000668819
0.000653259
0.000638338
0.000623516
0.000608563
0.0010296
0.00102931
0.0010297
0.00103093
0.00103319
0.00103658
0.00104104
0.00104619
0.00105155
0.00105636
0.00105984
0.00106103
0.00105906
0.0010532
0.00104296
0.00102758
0.00100633
0.000980324
0.000950718
0.000918951
0.000886348
0.000854084
0.000823033
0.000793804
0.000766713
0.000741688
0.000718458
0.000696662
0.000675854
0.00065632
0.00112346
0.00113128
0.00113862
0.00114707
0.00115752
0.00116999
0.00118376
0.00119771
0.00121116
0.0012235
0.00123393
0.00124128
0.00124481
0.00124406
0.00123861
0.00122759
0.00120991
0.00118734
0.00116102
0.00113202
0.00110117
0.0010693
0.0010372
0.00100553
0.000974877
0.000944904
0.000915703
0.000887422
0.000860054
0.000835348
0.00151123
0.00151214
0.00151387
0.00152136
0.00153308
0.0015464
0.00155786
0.0015671
0.00157542
0.00158307
0.00158928
0.00159228
0.0015933
0.00159271
0.00158945
0.00158309
0.00157163
0.00155942
0.00154674
0.00153432
0.001522
0.0015102
0.00149907
0.0014888
0.00147945
0.00146748
0.00145367
0.00143941
0.00142518
0.00141318
0.00018136
0.000186069
0.000184797
0.000180825
0.000175171
0.000168504
0.000161331
0.000154049
0.000146956
0.000140289
0.000134173
0.000128723
0.000123968
0.000119974
0.000116711
0.000114145
0.000112172
0.000110766
0.000109974
0.000109848
0.000110188
0.000110452
0.000109959
0.000107935
0.000104062
9.743e-05
8.83608e-05
7.89054e-05
0.000364461
0.000369839
0.000789748
0.000886719
0.000864789
0.000799408
0.000722106
0.000647034
0.000580039
0.000522424
0.000473781
0.000433019
0.000398499
0.000369788
0.000345826
0.00032647
0.000310397
0.000297042
0.000285296
0.000275427
0.000267107
0.000260897
0.000257581
0.00025794
0.000261218
0.000264524
0.000264616
0.000258329
0.000247893
0.000243339
0.000291429
0.000327178
0.0012386
0.00141551
0.00142779
0.00136552
0.00127093
0.00116639
0.0010649
0.000972631
0.000891612
0.000822107
0.000762817
0.000712628
0.000670241
0.000635522
0.000606802
0.000582421
0.000559889
0.000539131
0.000517838
0.000495774
0.000475734
0.000461993
0.000455712
0.000453272
0.000448642
0.000435794
0.000414718
0.000391932
0.000389445
0.000404595
0.00154566
0.00175254
0.00179212
0.0017494
0.00166228
0.00155574
0.00144548
0.00134039
0.00124426
0.00115955
0.00108615
0.00102348
0.000970405
0.000927073
0.000892043
0.000862617
0.000835297
0.000809252
0.000779108
0.000743281
0.000705711
0.000674027
0.000652587
0.000638653
0.000624899
0.000603645
0.000572965
0.000533963
0.000506923
0.000504143
0.00173571
0.00195239
0.00200961
0.00198643
0.00191226
0.00181681
0.00171337
0.00161062
0.00151144
0.00142263
0.00134471
0.00127736
0.00122036
0.00117437
0.00113813
0.00110872
0.00108188
0.00105567
0.00102163
0.000977468
0.000926518
0.000878535
0.000841315
0.000813863
0.000789556
0.000759745
0.000720963
0.000670905
0.000627626
0.000609644
0.00185709
0.0020409
0.00211616
0.00211367
0.00206785
0.00198826
0.00189264
0.00179298
0.00169661
0.00161387
0.00153998
0.00147413
0.00141889
0.00137502
0.00134173
0.00131609
0.00129361
0.00127071
0.00123673
0.0011876
0.00112795
0.00106794
0.0010173
0.000977571
0.000942056
0.000903984
0.000858102
0.000800778
0.000746919
0.000716196
0.00192604
0.00206886
0.00213093
0.00213634
0.00210889
0.00205444
0.00198118
0.00190281
0.00182561
0.00174815
0.00167858
0.00161764
0.00156958
0.0015319
0.00150493
0.00148614
0.00147105
0.00145391
0.00142266
0.00137218
0.0013081
0.00123994
0.00117853
0.00112805
0.00108338
0.00103671
0.000984667
0.000922284
0.000861242
0.000819515
0.0019856
0.00206006
0.00208811
0.00208643
0.00206784
0.00203467
0.00198921
0.00193771
0.00188013
0.00182149
0.00176569
0.00171831
0.00167778
0.00164858
0.00163095
0.00162165
0.00161632
0.00160638
0.0015799
0.00153162
0.00146639
0.00139352
0.00132427
0.00126448
0.00121174
0.00115928
0.00110129
0.00103544
0.000969599
0.000918987
0.00202846
0.00204159
0.00203746
0.00202082
0.00199961
0.00197456
0.00194466
0.00191143
0.00187576
0.00184231
0.00180552
0.00177339
0.00174673
0.00172986
0.00172322
0.00172578
0.00173134
0.00173022
0.00171034
0.00166646
0.00160292
0.00152868
0.00145455
0.00138765
0.00132776
0.00127017
0.00120931
0.00114112
0.00107223
0.00101356
0.00208174
0.00205764
0.00200808
0.00196749
0.00193199
0.0019038
0.0018794
0.0018572
0.00183609
0.00181783
0.00180191
0.00178961
0.00178023
0.00177823
0.00178494
0.00180091
0.00181849
0.0018276
0.00181579
0.0017782
0.00171876
0.00164595
0.00156974
0.0014982
0.0014324
0.00137106
0.00130796
0.00123805
0.00116711
0.00110246
0.00214422
0.00209145
0.00201804
0.00194188
0.00188301
0.00184309
0.00181369
0.00179385
0.00177993
0.00177165
0.00176831
0.00177151
0.00178201
0.00179761
0.00181944
0.00184983
0.00188004
0.00190015
0.00189828
0.0018684
0.00181527
0.00174608
0.0016704
0.00159713
0.00152792
0.00146234
0.0013958
0.00132597
0.00125379
0.00118589
0.00222846
0.00215036
0.00205238
0.00195515
0.0018725
0.00180915
0.00176516
0.00173978
0.00172441
0.00171918
0.00172225
0.00173443
0.00175751
0.00179205
0.0018302
0.00187565
0.00191883
0.00195039
0.00195934
0.00194058
0.00189446
0.00182976
0.00175719
0.00168432
0.00161241
0.00154313
0.00147413
0.00140409
0.00133239
0.00126404
0.00233118
0.00223149
0.0021139
0.00199884
0.00189762
0.00181616
0.00175674
0.00171298
0.00168598
0.00167674
0.0016785
0.00169306
0.00172193
0.0017676
0.00182196
0.00188206
0.00193807
0.00198108
0.00200123
0.00199338
0.00195696
0.00189792
0.00182756
0.00175473
0.00168378
0.00161436
0.00154418
0.00147541
0.00140655
0.00133919
0.00244648
0.00233558
0.00220999
0.0020818
0.00196363
0.00186303
0.00178391
0.00172327
0.00168241
0.00165806
0.00165202
0.00166152
0.00168944
0.00173707
0.00180099
0.00187389
0.00194162
0.00199543
0.00202677
0.00202998
0.00200396
0.0019528
0.00188758
0.00181702
0.00174647
0.00167867
0.00161065
0.00154251
0.00147518
0.00140807
0.00257345
0.00246384
0.00233594
0.00220173
0.00207294
0.00195732
0.00185996
0.00178026
0.00171974
0.00167854
0.00165731
0.00165557
0.00167458
0.00171601
0.00177728
0.00185773
0.00193429
0.00199724
0.00203867
0.00205264
0.00203737
0.00199572
0.00193725
0.0018725
0.00180475
0.0017366
0.0016693
0.00160176
0.00153549
0.00146941
0.00271196
0.00260843
0.00248598
0.00235321
0.0022209
0.00209646
0.00198507
0.00188757
0.00180733
0.00174625
0.00170563
0.0016862
0.00168969
0.00171728
0.00176778
0.00184136
0.00192199
0.00199124
0.00204045
0.00206417
0.00205973
0.00202903
0.0019796
0.00192106
0.00185587
0.00178822
0.00172083
0.00165364
0.00158799
0.00152344
0.00285675
0.00276428
0.00265327
0.00252854
0.00239942
0.00227279
0.00215265
0.00204216
0.00194531
0.00186512
0.00180367
0.00176303
0.00174506
0.00175196
0.00178402
0.001841
0.00191231
0.00198294
0.0020367
0.00206806
0.00207477
0.00205586
0.00201385
0.00196048
0.00189971
0.00183392
0.00176641
0.00169899
0.00163344
0.00157015
0.00300117
0.0029242
0.0028292
0.00271783
0.0025977
0.00247444
0.00235242
0.00223552
0.00212753
0.00203197
0.00195138
0.00188863
0.00184613
0.00182708
0.00183414
0.00186604
0.00191893
0.00197894
0.00203241
0.00206839
0.0020827
0.0020726
0.00203896
0.00199193
0.00193667
0.00187378
0.00180645
0.00173869
0.00167297
0.00161058
0.00314003
0.00308054
0.00300395
0.00290939
0.00280281
0.00268907
0.00257226
0.00245571
0.00234283
0.002237
0.00214093
0.00205766
0.00199022
0.00194234
0.00191978
0.00192111
0.00194512
0.00198637
0.00203096
0.00206627
0.00208354
0.00208048
0.00205573
0.00201647
0.00196659
0.00190711
0.00184038
0.00177336
0.00170789
0.00164628
0.00326485
0.00322328
0.00316654
0.00309225
0.00300402
0.0029052
0.00279912
0.00268847
0.00257597
0.00246454
0.00235668
0.00225532
0.00216402
0.00208808
0.00203228
0.00200001
0.00199002
0.0020038
0.00203113
0.00205933
0.00207685
0.0020788
0.00206379
0.00203144
0.00198626
0.00193065
0.00186851
0.0018041
0.00174012
0.00167955
0.00337378
0.00334855
0.00331135
0.00325847
0.003191
0.00311026
0.00301816
0.00291661
0.00280732
0.00269256
0.00257457
0.00245641
0.00234244
0.00223931
0.00215068
0.00208424
0.0020401
0.00202223
0.00202629
0.00204158
0.00205613
0.00206273
0.00205695
0.00203534
0.00199939
0.0019516
0.00189577
0.00183511
0.00177268
0.00171253
0.00346508
0.00345279
0.00343253
0.00339946
0.00335212
0.00328937
0.00321106
0.00311786
0.00301032
0.00289024
0.00276026
0.0026244
0.00248837
0.00235977
0.00224373
0.00214536
0.00207043
0.00202215
0.00200059
0.00199916
0.00200773
0.00201824
0.00202306
0.00201537
0.00199327
0.00195811
0.00191169
0.00185829
0.00180097
0.00174451
0.00353285
0.00352914
0.00352115
0.00350316
0.00347128
0.00342155
0.00335153
0.00326024
0.00314712
0.00301516
0.00286884
0.00271413
0.00255883
0.00241043
0.00227678
0.002158
0.00205777
0.00198442
0.00193779
0.0019165
0.00191486
0.0019262
0.00194153
0.00195108
0.00194843
0.00193245
0.00190354
0.00186359
0.00181643
0.0017681
0.00356373
0.0035624
0.00355923
0.00354764
0.00352141
0.00347315
0.00339947
0.00329966
0.00317458
0.00302841
0.00286848
0.00270292
0.00254084
0.00238815
0.00225183
0.00212744
0.00201457
0.00192195
0.00185095
0.00180447
0.00178256
0.0017829
0.00179924
0.00182157
0.00183959
0.00184829
0.00184489
0.00182885
0.00180172
0.00176821
0.00352599
0.00351784
0.00350879
0.00349133
0.00345755
0.00339955
0.00331569
0.00320647
0.00307559
0.00293012
0.00277901
0.00262897
0.0024867
0.00235461
0.00223723
0.00212686
0.0020156
0.00191017
0.00181613
0.00173869
0.00168219
0.00164951
0.0016405
0.00164995
0.00166977
0.00169272
0.00171236
0.00172408
0.00172564
0.00171807
0.00335712
0.00333358
0.00330957
0.00327964
0.00323845
0.00318145
0.00310694
0.00301686
0.00291605
0.00281052
0.00270589
0.00260556
0.00251063
0.00241928
0.00233229
0.00224746
0.00215033
0.00204608
0.00193933
0.00183617
0.00174207
0.00166253
0.00160198
0.00156236
0.00154261
0.00153957
0.00154833
0.00156333
0.00157939
0.00159477
0.00300203
0.00298062
0.00296826
0.00296189
0.00295572
0.00294445
0.00292461
0.00289568
0.0028596
0.00281757
0.00277179
0.00272399
0.00267417
0.00262149
0.00256329
0.00250273
0.00242487
0.00233365
0.00223188
0.00212428
0.00201456
0.00190701
0.00180605
0.00171586
0.00163982
0.00157945
0.00153492
0.00150479
0.0014867
0.00148521
0.00267294
0.00272038
0.00278267
0.00284744
0.00290385
0.00294744
0.00297677
0.00299231
0.00299689
0.00298714
0.00296761
0.00294165
0.00290989
0.00287351
0.00283105
0.00278521
0.00272735
0.0026595
0.00258198
0.00249789
0.00240733
0.00231291
0.00221658
0.00211985
0.00202627
0.00193748
0.00185576
0.00178193
0.00171688
0.00167858
0.00276355
0.00283918
0.00291803
0.00299266
0.00305394
0.00309784
0.00312877
0.00314331
0.00314494
0.00313549
0.00311804
0.00309488
0.00306462
0.00303124
0.00299581
0.00295536
0.00291294
0.0028671
0.00281725
0.00276702
0.00271569
0.00266546
0.0026163
0.0025657
0.00251736
0.00246665
0.00241476
0.00236217
0.00231079
0.00227943
0.00301363
0.00305869
0.00310232
0.003143
0.00317071
0.00318433
0.0031894
0.00318573
0.00317552
0.00316055
0.00314152
0.00311898
0.00309128
0.00306388
0.00303354
0.00300344
0.00297759
0.00295237
0.00292871
0.00290914
0.00289627
0.00289072
0.00289195
0.00289936
0.00290577
0.00291217
0.00291818
0.00292099
0.00292167
0.00291342
0.000219982
0.000221969
0.000216302
0.000209004
0.000200734
0.000191757
0.000182457
0.000173224
0.000164362
0.000156128
0.000148647
0.000142041
0.000136346
0.000131675
0.000127998
0.000125338
0.000123626
0.000123058
0.000124155
0.000127234
0.00013146
0.000135266
0.000137395
0.000137073
0.000133908
0.000127517
0.000118035
0.000104825
9.29246e-05
0.000448446
0.00103852
0.00115792
0.00114445
0.00107334
0.00097701
0.000880169
0.000792935
0.000717616
0.000654
0.000600751
0.000555722
0.00051845
0.000486804
0.000461154
0.000439329
0.000420416
0.000401608
0.000385126
0.000372045
0.000365562
0.000367948
0.000378203
0.000392083
0.000402831
0.0004034
0.00039034
0.00036602
0.000333053
0.000306085
0.000303808
0.00165665
0.00189352
0.0019259
0.00185748
0.00174179
0.00160936
0.0014784
0.00135809
0.00125209
0.00116098
0.00108284
0.0010178
0.000963331
0.000919216
0.000882587
0.000850425
0.000816759
0.000783534
0.000747785
0.000714396
0.000693254
0.000688933
0.000696986
0.000706141
0.000701324
0.000678605
0.000636405
0.000576603
0.000521507
0.00048852
0.00209946
0.00237724
0.00244383
0.00239917
0.00229362
0.00215849
0.00201479
0.00187598
0.0017491
0.00163689
0.00153921
0.00145701
0.0013884
0.00133364
0.00128994
0.00125287
0.00121418
0.00117315
0.0011213
0.00106428
0.00101616
0.000989232
0.000982162
0.000982377
0.000971161
0.000938289
0.000882727
0.000804752
0.000726657
0.000674266
0.00242056
0.00269591
0.00278109
0.00275933
0.00267169
0.00254736
0.00240667
0.00226609
0.00213384
0.00201338
0.00190707
0.00181682
0.0017419
0.00168276
0.00163767
0.00160116
0.00156343
0.00151933
0.00145604
0.00138214
0.00131259
0.0012628
0.00123772
0.00122591
0.00120774
0.00116701
0.00110312
0.00101364
0.000920511
0.000849979
0.00265356
0.00289836
0.00299529
0.00299455
0.00292544
0.00281077
0.00267646
0.0025463
0.00242054
0.00230104
0.00219489
0.00210416
0.0020293
0.00197131
0.00192936
0.00189725
0.00186381
0.00181925
0.00174791
0.00165945
0.00157385
0.00150586
0.00146364
0.00143872
0.00141279
0.00136898
0.00129954
0.00120429
0.00110138
0.00101634
0.00282171
0.0030282
0.00311793
0.00312592
0.00307617
0.00299119
0.00288148
0.00275676
0.0026305
0.00251064
0.00241283
0.00232803
0.0022584
0.00220649
0.00217125
0.00214668
0.00212009
0.00207621
0.00199937
0.00189975
0.00180215
0.00171984
0.00166254
0.00162435
0.00158988
0.00154352
0.00147488
0.00137802
0.00127047
0.00117293
0.00294247
0.0031061
0.00317197
0.00317658
0.00313776
0.00306921
0.00297977
0.00287705
0.0027729
0.00267413
0.00257863
0.00249743
0.00243656
0.00239422
0.00236903
0.00235481
0.0023365
0.00229198
0.00221155
0.00210668
0.00200175
0.00190834
0.0018378
0.00178698
0.0017434
0.00169477
0.00162999
0.00153697
0.00142835
0.00131973
0.00304912
0.00314733
0.00317454
0.00316575
0.00313221
0.00307921
0.00301109
0.00293239
0.0028496
0.00276751
0.00268904
0.00262328
0.00257165
0.00254057
0.00252809
0.00252655
0.0025167
0.00247498
0.00239343
0.00228705
0.00217578
0.00207462
0.00199307
0.00193075
0.00187922
0.00182789
0.00176247
0.00167551
0.00156804
0.00145559
0.00314802
0.00317078
0.00315852
0.00313559
0.00310085
0.00305597
0.00300196
0.00294106
0.00287693
0.00281438
0.00275594
0.00270663
0.00266957
0.0026527
0.00265346
0.00266556
0.00266461
0.00262714
0.00254798
0.00244178
0.00232802
0.00222166
0.00213162
0.00206029
0.00199937
0.00194097
0.00187452
0.00179229
0.00169217
0.00158245
0.00324108
0.0032132
0.00316297
0.00311258
0.00306709
0.00302129
0.00297355
0.00292485
0.00287604
0.00282945
0.00278757
0.00275706
0.00273706
0.0027353
0.00275007
0.00277543
0.00278357
0.00275237
0.00267771
0.00257461
0.00246171
0.00235242
0.00225701
0.00217458
0.00210326
0.00203877
0.0019713
0.0018923
0.00180039
0.00169778
0.00333008
0.00328105
0.00320841
0.00312723
0.00305021
0.00299523
0.00294457
0.00290107
0.00286211
0.00282759
0.00279984
0.00278283
0.00278047
0.00279499
0.00282304
0.00286078
0.00287811
0.00285417
0.00278683
0.00268989
0.00257916
0.00246706
0.00236482
0.0022754
0.0021967
0.00212545
0.00205691
0.00198276
0.00190044
0.00180548
0.00341404
0.00334659
0.003257
0.00316005
0.00307429
0.00299442
0.00293158
0.00288691
0.00285126
0.00282251
0.00280479
0.00279885
0.00280787
0.00283745
0.00287784
0.00292638
0.00295206
0.00293642
0.00287815
0.00279031
0.00268318
0.00257207
0.00246687
0.00237176
0.00228729
0.00221062
0.00214014
0.00206781
0.0019903
0.00190223
0.00351681
0.00343614
0.00333306
0.00322039
0.0031153
0.00302408
0.00295531
0.00289797
0.00285943
0.00282716
0.00281519
0.00281593
0.00283282
0.00286928
0.00292039
0.00297707
0.00300986
0.00300263
0.00295519
0.00287748
0.00277621
0.00266782
0.00256343
0.00246532
0.00237673
0.00229512
0.00221908
0.00214574
0.00207035
0.0019875
0.00363436
0.00354726
0.0034342
0.00331056
0.00319571
0.00309222
0.00300777
0.00293922
0.00288869
0.0028603
0.00284384
0.00284486
0.00286374
0.00290076
0.00295588
0.00301703
0.00305491
0.0030557
0.00301943
0.0029528
0.00285951
0.00275601
0.0026539
0.00255591
0.00246399
0.00237803
0.00229712
0.0022198
0.00214361
0.00206378
0.00376427
0.00367491
0.00356535
0.00344241
0.00331968
0.0032052
0.00310623
0.00302447
0.00296197
0.00292099
0.00289754
0.00289272
0.00290606
0.0029382
0.00298816
0.00304863
0.00308863
0.00309641
0.00307079
0.00301627
0.00293307
0.00283661
0.00273802
0.00264174
0.00254839
0.00245928
0.00237414
0.00229135
0.00221245
0.00213356
0.00390265
0.00382415
0.00372318
0.00360513
0.00348133
0.00336044
0.00325006
0.00315457
0.00307718
0.00302024
0.00298273
0.00296465
0.00296536
0.00298504
0.00302109
0.00307079
0.00310874
0.00312133
0.00310624
0.00306474
0.00299327
0.00290564
0.00281349
0.00272131
0.00262844
0.00253757
0.00244903
0.00236073
0.00227826
0.00219882
0.00405325
0.00398677
0.00389778
0.00378944
0.00367055
0.00354886
0.00343168
0.00332459
0.00323182
0.00315642
0.00309909
0.00306011
0.00303919
0.00303677
0.00305104
0.0030805
0.00310756
0.00312136
0.00311578
0.003088
0.00303218
0.00295903
0.00287704
0.00278989
0.00269949
0.00260881
0.00251773
0.00242625
0.00234102
0.00226043
0.00420844
0.00415286
0.00407842
0.00398344
0.00387419
0.00375677
0.00363752
0.00352201
0.00341487
0.00331953
0.00323779
0.00317067
0.00311902
0.00308435
0.0030676
0.00306728
0.00307532
0.00308396
0.00308476
0.00307179
0.00303635
0.00297881
0.00291046
0.00283329
0.00274874
0.00266195
0.00257341
0.00248485
0.00239947
0.00231845
0.00435482
0.00431238
0.00425343
0.00417367
0.0040769
0.00396712
0.00384914
0.00372761
0.0036068
0.00349009
0.00337994
0.00327842
0.00318822
0.00311276
0.00305683
0.00301913
0.00299855
0.00299329
0.00299538
0.00299581
0.00298333
0.00295285
0.00290815
0.00285102
0.00278286
0.00270642
0.00262414
0.0025389
0.00245454
0.00237388
0.00448457
0.00445478
0.00441014
0.00434514
0.00426107
0.0041596
0.00404344
0.00391577
0.00378004
0.00363939
0.00349708
0.00335697
0.00322439
0.00310508
0.00300733
0.0029299
0.00287524
0.00284708
0.00284037
0.00284656
0.0028536
0.00285195
0.0028384
0.00281133
0.00277035
0.00271581
0.00264934
0.00257732
0.00250237
0.00242625
0.0045893
0.00456813
0.0045338
0.00447992
0.00440527
0.00430891
0.00419125
0.00405387
0.00389978
0.00373227
0.00355646
0.00337937
0.0032096
0.00305459
0.00292367
0.00281577
0.00273128
0.00267585
0.00264781
0.00264293
0.00265293
0.00266857
0.00268265
0.00268893
0.00268294
0.00266197
0.00262508
0.00257363
0.0025147
0.00245273
0.00465267
0.00463384
0.00460288
0.00455285
0.00448029
0.00438178
0.00425595
0.00410374
0.00392954
0.00373737
0.00353615
0.00333708
0.00315064
0.00298391
0.00284235
0.00272743
0.00262908
0.00255132
0.00249435
0.00245927
0.0024449
0.00244828
0.00246487
0.00248783
0.00250949
0.00252289
0.00252274
0.00250639
0.00247407
0.00243553
0.00464665
0.0046207
0.00458269
0.00452615
0.00444641
0.00433804
0.0042002
0.00403499
0.00384863
0.00364945
0.00345115
0.00326431
0.0030978
0.00295461
0.00283391
0.00273602
0.00264309
0.00255522
0.00247282
0.00239992
0.0023411
0.00230041
0.00228054
0.00228062
0.00229591
0.00231914
0.00234209
0.00235752
0.00236047
0.00234999
0.00452005
0.00447803
0.00442277
0.00435151
0.00426098
0.00414834
0.00401378
0.00386118
0.0036983
0.00353484
0.0033814
0.00324443
0.00312867
0.00303286
0.0029525
0.00288153
0.00280451
0.00271749
0.00262172
0.00252108
0.00242157
0.00232958
0.00225216
0.00219524
0.00216123
0.00214872
0.00215296
0.00216702
0.00218341
0.00219641
0.00421264
0.00415329
0.00409119
0.00402672
0.00395792
0.00388059
0.00379338
0.0036983
0.00360041
0.00350586
0.00342021
0.00334534
0.00328335
0.00323163
0.00318491
0.00313387
0.00306904
0.00298858
0.00289358
0.00278576
0.00266937
0.00254872
0.0024293
0.0023189
0.00222414
0.00214923
0.00209584
0.00206234
0.00204517
0.002046
0.0037626
0.00372989
0.00371718
0.0037199
0.00372645
0.00372519
0.003713
0.00368992
0.00365896
0.00362416
0.00358903
0.00355342
0.00351977
0.00348725
0.00345079
0.0034039