/*--------------------------------*- C++ -*----------------------------------*\
  =========                 |
  \\      /  F ield         | OpenFOAM: The Open Source CFD Toolbox
   \\    /   O peration     | Website:  https://openfoam.org
    \\  /    A nd           | Version:  12
     \\/     M anipulation  |
\*---------------------------------------------------------------------------*/
FoamFile
{
    format      ascii;
    class       volScalarField;
    location    "2000/air";
    object      epsilon;
}
// * * * * * * * * * * * * * * * * * * * * * * * * * * * * * * * * * * * * * //

dimensions      [0 2 -3 0 0 0 0];

internalField   nonuniform List<scalar> 
243000
(
1.66256
2.31709
2.86453
3.31196
3.6575
3.89984
4.04504
4.10411
4.09037
4.01769
3.898
3.74311
3.56074
3.36068
3.14865
2.92542
2.68908
2.44165
2.18578
1.92521
1.66408
1.45331
1.31756
1.17482
0.233886
0.198389
0.148709
0.09253
0.0748127
0.082614
1.09078
1.47957
1.72157
1.85651
1.92038
1.93545
1.91456
1.86766
1.80226
1.72423
1.63741
1.54604
1.4526
1.36001
1.26928
1.18065
1.09339
1.00845
0.925702
0.845395
0.766937
0.689579
0.616084
0.538608
0.456157
0.363342
0.262042
0.157197
0.104089
0.110573
1.08608
1.46198
1.66522
1.74964
1.75891
1.72031
1.65228
1.56773
1.47519
1.38052
1.28716
1.19778
1.11369
1.03632
0.965724
0.901432
0.842343
0.788857
0.739767
0.694185
0.650661
0.607536
0.562915
0.512841
0.453312
0.380439
0.295577
0.201419
0.13819
0.113918
1.10784
1.45383
1.7035
1.84247
1.89386
1.88163
1.82901
1.7519
1.66119
1.56465
1.46722
1.37254
1.28246
1.19895
1.12266
1.05345
0.990371
0.934147
0.883138
0.835777
0.789912
0.743508
0.69404
0.637854
0.570769
0.488753
0.393253
0.2863
0.203257
0.149693
1.10398
1.34817
1.58832
1.76185
1.86112
1.89488
1.87886
1.82954
1.75835
1.6751
1.58628
1.49675
1.4093
1.32676
1.25054
1.18118
1.11811
1.06233
1.01188
0.964423
0.917075
0.867523
0.813365
0.751606
0.678549
0.590395
0.48797
0.373043
0.275055
0.198669
1.14758
1.23817
1.40507
1.57591
1.70977
1.79027
1.82097
1.81193
1.77326
1.71534
1.64602
1.57117
1.4943
1.41934
1.34852
1.28347
1.22407
1.17161
1.12382
1.07777
1.03
0.977959
0.919614
0.852813
0.774741
0.682264
0.575622
0.456442
0.348184
0.255205
1.25109
1.23021
1.29717
1.40702
1.52216
1.61903
1.68708
1.71872
1.71901
1.6944
1.65237
1.59881
1.53909
1.47748
1.41688
1.36016
1.30773
1.26102
1.21772
1.17444
1.12736
1.07379
1.01209
0.940962
0.858703
0.763059
0.654097
0.533299
0.418824
0.314491
1.42312
1.32827
1.29518
1.32819
1.39733
1.47589
1.54413
1.58971
1.6178
1.62465
1.61241
1.58511
1.54691
1.50304
1.45675
1.41178
1.36917
1.33032
1.29307
1.25383
1.20858
1.15461
1.09061
1.01611
0.930504
0.832586
0.72262
0.601969
0.484709
0.373076
1.6208
1.48274
1.37976
1.33317
1.33977
1.37952
1.43085
1.47646
1.51097
1.53011
1.54055
1.53793
1.52301
1.49929
1.47008
1.4395
1.40898
1.37978
1.34997
1.31596
1.27366
1.22048
1.15543
1.0787
0.990696
0.891291
0.781399
0.662281
0.544322
0.428641
1.83761
1.68037
1.52829
1.41629
1.35517
1.3407
1.35745
1.3873
1.41824
1.44238
1.45938
1.47071
1.47498
1.47104
1.45986
1.44515
1.42824
1.4101
1.38893
1.36123
1.32302
1.27188
1.20709
1.12941
1.04009
0.940175
0.830965
0.713655
0.596609
0.479642
2.07013
1.89603
1.71779
1.56137
1.44214
1.3685
1.33681
1.33459
1.34865
1.3676
1.38572
1.40092
1.41409
1.42506
1.43041
1.43145
1.42857
1.4224
1.41082
1.39043
1.35738
1.30949
1.24634
1.16907
1.07982
0.979994
0.87166
0.756631
0.641489
0.525578
2.31566
2.1275
1.93493
1.75159
1.5905
1.46403
1.37879
1.33221
1.3149
1.31586
1.32593
1.33945
1.35397
1.37063
1.3876
1.4022
1.41267
1.41837
1.41686
1.40472
1.37774
1.33423
1.2741
1.1988
1.1105
1.01147
0.904541
0.792027
0.67935
0.565745
2.57128
2.37137
2.17333
1.97232
1.78402
1.61813
1.48472
1.38903
1.32956
1.29959
1.28971
1.29291
1.30319
1.31843
1.33898
1.36247
1.38389
1.40046
1.40877
1.40483
1.38504
1.34741
1.29144
1.21896
1.13273
1.03549
0.930577
0.82087
0.710994
0.600448
2.83405
2.6237
2.41709
2.2079
2.00513
1.81466
1.64523
1.50544
1.40042
1.32998
1.28921
1.27093
1.26842
1.27678
1.29329
1.31862
1.34665
1.37175
1.38888
1.39314
1.38053
1.34871
1.29832
1.23028
1.1474
1.05306
0.951201
0.845843
0.739684
0.633492
3.09975
2.88053
2.6667
2.45298
2.24284
2.03883
1.84643
1.67326
1.5272
1.41368
1.33361
1.28373
1.25854
1.25198
1.25923
1.278
1.30648
1.33625
1.36004
1.37165
1.36612
1.34101
1.29616
1.23362
1.15555
1.0672
0.971107
0.870424
0.768113
0.665829
3.36386
3.13758
2.91871
2.70323
2.49002
2.27961
2.07453
1.87963
1.70213
1.54986
1.42852
1.34008
1.28279
1.25223
1.24272
1.24986
1.2704
1.29908
1.32596
1.34301
1.34383
1.32548
1.28723
1.23165
1.16163
1.08006
0.989939
0.894221
0.795955
0.697424
3.62127
3.39021
3.16884
2.9542
2.74122
2.52913
2.3184
2.11142
1.91322
1.73105
1.57266
1.44424
1.34879
1.28577
1.25107
1.23975
1.24684
1.26673
1.29152
1.31075
1.31642
1.3045
1.27489
1.22777
1.16578
1.09133
1.00742
0.91693
0.822936
0.728133
3.86681
3.63366
3.41258
3.20118
2.99128
2.78097
2.56952
2.35763
2.14803
1.94604
1.75891
1.59465
1.46005
1.35926
1.29177
1.25432
1.24168
1.24746
1.26379
1.28067
1.28913
1.28324
1.26112
1.22207
1.16796
1.10077
1.02328
0.938285
0.848812
0.757816
4.0951
3.86288
3.64593
3.43949
3.23482
3.02916
2.82089
2.60947
2.39583
2.18315
1.97691
1.78469
1.61504
1.47575
1.37072
1.30032
1.26096
1.24655
1.24908
1.25885
1.2661
1.26335
1.24697
1.21508
1.16832
1.10832
1.03736
0.958051
0.873356
0.786336
4.30054
4.07291
3.8654
3.66473
3.46693
3.26839
3.06654
2.85983
2.64789
2.43208
2.2158
2.00497
1.80791
1.63402
1.49082
1.3832
1.31097
1.26972
1.25238
1.2494
1.25061
1.24733
1.23416
1.20786
1.16756
1.11425
1.04971
0.976176
0.896457
0.813584
4.48159
4.2653
4.06362
3.87066
3.68196
3.4932
3.30091
3.10274
2.89735
2.68471
2.46636
2.24615
2.0309
1.82968
1.65189
1.50634
1.39719
1.32324
1.27955
1.25754
1.24706
1.23864
1.22535
1.2022
1.16687
1.11938
1.06083
0.992931
0.918213
0.839564
4.63139
4.42385
4.23233
4.05087
3.87455
3.69878
3.51954
3.33397
3.14022
2.93703
2.72417
2.50334
2.27921
2.05955
1.85363
1.67262
1.52483
1.41362
1.33742
1.28972
1.26118
1.24196
1.22372
1.20035
1.16788
1.12495
1.07161
1.00895
0.939055
0.864576
4.74495
4.55112
4.3727
4.20525
4.04379
3.88404
3.72201
3.5551
3.38218
3.1984
3.00067
2.78864
2.56427
2.33469
2.1066
1.89262
1.70287
1.54937
1.43457
1.35428
1.30056
1.26394
1.23534
1.20714
1.17406
1.13324
1.08364
1.02536
0.95981
0.889244
4.82791
4.65138
4.48905
4.33737
4.19305
4.05665
3.92296
3.78487
3.63784
3.47751
3.29978
3.10278
2.88579
2.65451
2.41219
2.17105
1.94192
1.74251
1.5837
1.46374
1.3769
1.31487
1.2686
1.22962
1.19112
1.1488
1.10022
1.04449
0.982139
0.914895
4.88484
4.72943
4.58667
4.45416
4.33213
4.22288
4.11796
4.00981
3.89259
3.76114
3.61012
3.43615
3.23563
3.01266
2.76616
2.50693
2.24997
2.0128
1.80829
1.64182
1.51243
1.41463
1.3405
1.28151
1.22997
1.18005
1.12789
1.07139
1.0099
0.944235
4.92265
4.79428
4.6773
4.57116
4.47432
4.38704
4.30674
4.22851
4.14645
4.05396
3.94396
3.80996
3.64597
3.45069
3.22326
2.96756
2.69435
2.42128
2.16723
1.94449
1.75868
1.60915
1.49085
1.39639
1.31806
1.24906
1.18409
1.11941
1.05315
0.985071
4.97888
4.89442
4.82071
4.75815
4.70685
4.66698
4.63725
4.61373
4.59066
4.55992
4.51208
4.4371
4.32539
4.17076
3.97105
3.72396
3.43347
3.12
2.80543
2.5089
2.24348
2.0153
1.82422
1.66602
1.53451
1.42281
1.32469
1.23509
1.15032
1.06898
5.24615
5.24257
5.24941
5.26904
5.30454
5.35757
5.42742
5.50876
5.59397
5.67109
5.72704
5.74569
5.71289
5.61754
5.45398
5.21448
4.89543
4.52288
4.12213
3.71901
3.33339
2.97889
2.66239
2.38583
2.14738
1.9419
1.76347
1.6065
1.46579
1.34154
6.79894
6.94236
7.07875
7.23797
7.43789
7.68085
7.95472
8.23832
8.51757
8.77895
9.00317
9.16291
9.23888
9.22014
9.09775
8.85563
8.47696
8.00925
7.48586
6.93556
6.37986
5.83761
5.32326
4.84625
4.41256
4.01452
3.65075
3.32035
3.02051
2.76603
16.3598
16.3864
16.4442
16.6913
17.0803
17.5281
17.9178
18.2348
18.5229
18.7895
19.007
19.1104
19.1429
19.1183
18.9987
18.7703
18.3654
17.9403
17.5055
17.0855
16.6749
16.2877
15.9272
15.5991
15.3035
14.9309
14.5091
14.0822
13.6651
13.3196
4.47444
5.62585
6.39165
6.91309
7.21359
7.3192
7.26238
7.08089
6.81143
6.48751
6.13234
5.76911
5.40834
5.06421
4.73914
4.43282
4.13757
3.85569
3.59487
3.36218
3.14047
2.88759
2.56994
2.17356
1.71888
1.2394
0.806418
0.15405
0.136349
0.11692
3.12171
3.47498
3.65876
3.75435
3.76736
3.70776
3.58686
3.42101
3.22674
3.01833
2.80622
2.60917
2.43088
2.27392
2.13907
2.02678
1.93729
1.87323
1.84089
1.84154
1.85577
1.84394
1.76996
1.61762
1.3916
1.1133
0.817513
0.528144
0.332976
0.227945
2.95807
3.17371
3.23334
3.22282
3.15798
3.05368
2.91718
2.75712
2.5831
2.4049
2.23047
2.06803
1.92313
1.79794
1.6942
1.6144
1.55991
1.53461
1.54461
1.59085
1.6544
1.69821
1.68592
1.59764
1.43324
1.20749
0.950522
0.687826
0.481673
0.337792
2.89281
3.03123
3.03737
2.98437
2.89247
2.77585
2.64021
2.49087
2.33374
2.17578
2.02319
1.88153
1.75489
1.64637
1.55769
1.49241
1.45281
1.44309
1.46869
1.52907
1.60683
1.66878
1.68091
1.62311
1.49254
1.29826
1.0655
0.813727
0.602062
0.437482
2.82338
2.88949
2.85819
2.78512
2.68594
2.57146
2.44543
2.31109
2.17195
2.0332
1.89968
1.77585
1.66513
1.57068
1.49483
1.44115
1.41268
1.41365
1.44846
1.51371
1.59452
1.66188
1.68469
1.64453
1.53629
1.36609
1.1548
0.91663
0.706081
0.529748
2.73683
2.7202
2.65602
2.57177
2.47711
2.37406
2.2636
2.14756
2.02819
1.90944
1.79508
1.68886
1.59378
1.51328
1.44987
1.40741
1.38906
1.39924
1.44057
1.50877
1.58855
1.65484
1.68102
1.65023
1.55925
1.40955
1.21842
0.996544
0.792287
0.612908
2.63147
2.51566
2.41404
2.32803
2.24703
2.16375
2.0745
1.98053
1.88324
1.78543
1.69063
1.60225
1.52332
1.45682
1.40599
1.37484
1.36623
1.38473
1.43115
1.50049
1.57713
1.63993
1.66636
1.64108
1.56144
1.43068
1.25866
1.05517
0.861254
0.685468
2.51953
2.31427
2.16979
2.0731
2.00262
1.94044
1.87634
1.80724
1.73282
1.65635
1.58125
1.51088
1.44808
1.39578
1.35755
1.33768
1.33849
1.36455
1.41507
1.48395
1.55688
1.61551
1.64067
1.61946
1.54886
1.43203
1.27884
1.09437
0.913536
0.745166
2.43461
2.1544
1.98124
1.86827
1.79508
1.74108
1.69162
1.63943
1.58304
1.5255
1.46844
1.41488
1.36751
1.32909
1.30314
1.29414
1.30399
1.33661
1.39027
1.45824
1.52732
1.58156
1.60494
1.58673
1.52428
1.42004
1.28213
1.11681
0.950516
0.791942
2.39364
2.09502
1.8744
1.73475
1.64361
1.58356
1.53784
1.49541
1.45119
1.40471
1.35892
1.31827
1.28392
1.25782
1.24304
1.2444
1.26262
1.30081
1.35668
1.42334
1.48868
1.53888
1.56062
1.54502
1.49022
1.3975
1.27369
1.12558
0.974091
0.826523
2.41804
2.10951
1.86089
1.67894
1.55645
1.47968
1.42472
1.38155
1.34213
1.30282
1.26366
1.22824
1.20185
1.18497
1.17971
1.18997
1.21537
1.25795
1.31513
1.38014
1.44196
1.4887
1.50926
1.49628
1.44851
1.3665
1.25629
1.12338
0.986455
0.850334
2.49202
2.17376
1.90824
1.70198
1.54935
1.43966
1.36321
1.30809
1.26344
1.22391
1.18727
1.1542
1.12858
1.11565
1.11699
1.13346
1.16412
1.20958
1.26707
1.33008
1.38863
1.43249
1.45243
1.44227
1.40118
1.32966
1.23219
1.11403
0.990292
0.865253
2.6075
2.28332
2.00671
1.7821
1.60467
1.46833
1.36776
1.28704
1.22574
1.17582
1.13489
1.09985
1.07254
1.0575
1.06012
1.07873
1.1117
1.15809
1.21458
1.27505
1.33047
1.37193
1.39174
1.38455
1.34995
1.2884
1.2036
1.10045
0.989848
0.876149
2.75634
2.43114
2.15069
1.91482
1.7183
1.55735
1.42913
1.32354
1.23867
1.17078
1.1157
1.07199
1.03875
1.01803
1.01522
1.03075
1.06206
1.10669
1.16047
1.21752
1.26963
1.30897
1.32905
1.32508
1.29695
1.246
1.17458
1.08521
0.986684
0.883002
2.9308
2.60992
2.33317
2.09295
1.88451
1.70469
1.5524
1.42014
1.30744
1.21431
1.13867
1.07871
1.03364
1.00335
0.989455
0.995756
1.02038
1.05964
1.10834
1.16059
1.20881
1.24601
1.2667
1.26674
1.24637
1.20528
1.14526
1.06815
0.980637
0.886393
3.12308
2.81428
2.54706
2.30858
2.09492
1.90313
1.73209
1.57463
1.43419
1.31294
1.21142
1.12835
1.0647
1.01864
0.99005
0.981437
0.993379
1.02249
1.06289
1.10826
1.15158
1.18647
1.20888
1.21355
1.19957
1.1668
1.11667
1.05014
0.972475
0.886899
3.32411
3.03572
2.78452
2.55404
2.3413
2.14382
1.95694
1.77927
1.61471
1.46666
1.33757
1.22828
1.13954
1.07165
1.02346
0.995696
0.989179
1.00256
1.03035
1.06599
1.10357
1.13611
1.15877
1.16663
1.15766
1.13165
1.08975
1.03219
0.96316
0.885661
3.52848
3.26722
3.03754
2.81997
2.61289
2.41158
2.21456
2.02319
1.84062
1.67052
1.51639
1.38053
1.26452
1.17027
1.09774
1.04648
1.01686
1.00959
1.02007
1.0425
1.07094
1.09791
1.11854
1.12782
1.12221
1.10134
1.06599
1.01573
0.954016
0.883787
3.72622
3.49702
3.29164
3.08896
2.88889
2.68991
2.49155
2.29469
2.10206
1.91728
1.74421
1.58574
1.4445
1.3215
1.22221
1.14359
1.08618
1.05281
1.04096
1.04532
1.05905
1.07632
1.09228
1.10012
1.09572
1.07807
1.04761
1.0027
0.946777
0.882512
3.89042
3.69358
3.5157
3.33683
3.15506
2.96895
2.77866
2.58547
2.39216
2.20232
2.01963
1.84658
1.686
1.53986
1.41064
1.30202
1.21179
1.14651
1.10532
1.08404
1.07713
1.07954
1.08603
1.08858
1.08236
1.06552
1.03695
0.995246
0.943206
0.883272
4.02691
3.86342
3.71658
3.56717
3.41141
3.24711
3.07452
2.89568
2.71365
2.53185
2.35309
2.17846
2.00968
1.84692
1.69056
1.55017
1.42267
1.31734
1.23688
1.17962
1.14211
1.12115
1.11124
1.10279
1.08979
1.06842
1.03736
0.995706
0.945589
0.888634
4.14375
4.01598
3.90354
3.78884
3.66682
3.53459
3.39236
3.24326
3.0909
2.93794
2.78541
2.63128
2.47389
2.30958
2.13704
1.95904
1.78796
1.62933
1.49135
1.37855
1.29203
1.23173
1.19183
1.16152
1.13266
1.10049
1.06222
1.01575
0.962557
0.904679
4.25755
4.17072
4.09886
4.02728
3.95079
3.86694
3.77708
3.68592
3.59758
3.51294
3.42895
3.33732
3.22941
3.09442
2.92622
2.72188
2.4842
2.24074
2.00463
1.79382
1.61902
1.48438
1.38499
1.30919
1.24517
1.18664
1.12892
1.06865
1.00564
0.940856
4.40718
4.37245
4.35572
4.34633
4.34129
4.34087
4.35077
4.37851
4.42853
4.49759
4.57388
4.6368
4.66263
4.62473
4.50635
4.28595
3.95693
3.55727
3.13125
2.72446
2.36744
2.07372
1.84255
1.66178
1.5149
1.39261
1.28657
1.19035
1.10066
1.01714
4.68959
4.73501
4.81148
4.91468
5.04834
5.22167
5.44906
5.74248
6.10495
6.52234
6.96506
7.38897
7.74181
7.96205
7.9988
7.80743
7.33302
6.62874
5.81434
4.98959
4.22435
3.55742
3.00316
2.55389
2.19337
1.9056
1.67362
1.48304
1.32291
1.1899
5.37678
5.58586
5.86644
6.22698
6.6876
7.27426
8.01415
8.92036
9.98711
11.1683
12.3928
13.5739
14.6054
15.3697
15.763
15.6694
14.9881
13.8037
12.2924
10.6432
8.99965
7.46734
6.11539
4.97582
4.04755
3.30924
2.72937
2.27585
1.91866
1.64724
7.43144
8.06997
8.88879
9.90893
11.1722
12.7132
14.5665
16.7256
19.1518
21.7074
24.2468
26.6174
28.6619
30.2163
31.125
31.1712
30.2288
28.4077
25.9378
23.0716
20.0187
16.9626
14.0687
11.4682
9.23372
7.38212
5.89297
4.71937
3.80243
3.13293
14.3996
16.2033
18.2408
20.5899
23.3325
26.4459
29.9845
33.8638
37.9896
41.9997
45.7096
48.9524
51.5788
53.4511
54.4475
54.297
53.0643
50.8567
47.8359
44.1642
39.962
35.4139
30.7534
26.2115
21.994
18.2468
15.044
12.3675
10.1625
8.53291
33.5712
35.8269
38.5462
41.7643
45.361
49.2437
53.6613
58.0602
62.1794
65.7086
68.5307
70.664
71.9886
72.4694
72.1383
70.715
68.8488
66.6369
64.1806
61.3911
57.9517
54.145
50.1152
46.0136
41.9019
37.9106
34.0955
30.509
27.1783
24.5152
50.5179
49.2951
49.7544
51.4367
53.8548
56.5064
59.0902
61.3269
63.1678
64.6418
65.5761
65.9272
65.7927
65.2216
63.8341
61.3305
59.0598
56.7268
54.4809
52.2689
50.2428
48.4684
47.058
46.0541
45.4831
45.1194
44.826
44.5066
44.0262
43.1458
7.98372
9.54671
10.2457
10.6712
10.8518
10.7836
10.5026
10.0654
9.52777
8.94046
8.33703
7.75023
7.19449
6.6942
6.25051
5.86809
5.5381
5.28636
5.17184
5.22382
5.3315
5.3038
5.01448
4.44481
3.66441
2.77516
1.91658
1.16309
0.695595
0.576428
4.73988
5.19196
5.33247
5.38304
5.3505
5.22764
5.02054
4.75082
4.44199
4.11696
3.79651
3.49053
3.20608
2.96096
2.76133
2.60859
2.51264
2.49024
2.58208
2.80604
3.08159
3.26877
3.26723
3.05918
2.68639
2.20582
1.68186
1.16198
0.772096
0.523906
4.40845
4.61655
4.64129
4.59199
4.48106
4.32017
4.11351
3.87109
3.60659
3.33419
3.06775
2.8168
2.58844
2.39017
2.22859
2.10999
2.04384
2.04905
2.1631
2.39963
2.69256
2.92246
2.99573
2.88678
2.62639
2.24412
1.8016
1.33764
0.954328
0.670391
4.35982
4.42164
4.3707
4.27101
4.1316
3.96139
3.76239
3.53993
3.30267
3.06076
2.82447
2.60209
2.40017
2.22475
2.08274
1.98132
1.93043
1.94878
2.06586
2.28956
2.56816
2.79897
2.89788
2.83558
2.63062
2.31188
1.92188
1.49376
1.11788
0.81242
4.35754
4.2831
4.16259
4.02793
3.87693
3.70993
3.52497
3.32391
3.112
2.89679
2.68633
2.48766
2.30684
2.15054
2.02536
1.93938
1.90286
1.93413
2.054
2.26081
2.5129
2.72826
2.83133
2.7925
2.62289
2.35104
2.00588
1.614
1.25254
0.939528
4.34052
4.13419
3.94713
3.7832
3.62792
3.47068
3.3044
3.12765
2.94256
2.7543
2.56947
2.3942
2.23427
2.09671
1.98841
1.91844
1.89717
1.94108
2.06308
2.25654
2.48018
2.67023
2.76546
2.73747
2.59297
2.35358
2.05005
1.69569
1.35703
1.04966
4.28827
3.96414
3.71243
3.52007
3.36274
3.21903
3.07498
2.92468
2.76777
2.60732
2.44909
2.2981
2.16005
2.04179
1.95108
1.89801
1.89262
1.94846
2.07195
2.25264
2.449
2.61179
2.69298
2.6685
2.54257
2.33073
2.05935
1.74305
1.43118
1.13719
4.197
3.77307
3.46158
3.23966
3.07915
2.94929
2.82898
2.70721
2.58033
2.44899
2.31798
2.19194
2.07668
1.97857
1.9061
1.87039
1.88106
1.94978
2.07428
2.24023
2.41006
2.54697
2.61201
2.58688
2.47531
2.28684
2.04394
1.76165
1.4782
1.20254
4.08384
3.57624
3.20184
2.94818
2.78233
2.66517
2.56886
2.47693
2.38126
2.27901
2.1755
2.07477
1.98254
1.90527
1.85133
1.83288
1.85898
1.93735
2.0614
2.21251
2.36062
2.47359
2.52263
2.49491
2.394
2.22608
2.00993
1.75668
1.50173
1.24745
3.96576
3.38658
2.97179
2.69915
2.52436
2.40947
2.32499
2.25145
2.17808
2.102
2.02526
1.94909
1.8793
1.82255
1.78707
1.78512
1.82516
1.91133
2.03279
2.1709
2.29918
2.391
2.42562
2.395
2.30262
2.15364
1.9615
1.73621
1.50601
1.27472
3.8512
3.25684
2.8169
2.51767
2.32444
2.19987
2.11526
2.05032
1.99168
1.93324
1.87462
1.82027
1.77091
1.73314
1.71507
1.72812
1.77996
1.87156
1.9893
2.11505
2.2255
2.29952
2.32217
2.28926
2.20435
2.07227
1.90231
1.70409
1.49849
1.28995
3.78516
3.20458
2.7552
2.4215
2.19766
2.05346
1.9556
1.88737
1.83318
1.78458
1.73865
1.69647
1.6634
1.64165
1.63851
1.66415
1.72477
1.81883
1.93159
2.04547
2.14056
2.20013
2.21355
2.17968
2.1022
1.98562
1.83692
1.66596
1.48552
1.29748
3.7879
3.22569
2.77705
2.42817
2.16919
1.98466
1.8603
1.77765
1.71592
1.66731
1.62634
1.59121
1.56497
1.55462
1.56218
1.59698
1.66267
1.75591
1.86211
1.96454
2.04651
2.09483
2.10187
2.06879
1.99955
1.89866
1.77241
1.62433
1.46522
1.29483
3.83574
3.29794
2.85654
2.49737
2.21681
2.00451
1.84917
1.73529
1.65297
1.59424
1.54894
1.51359
1.48891
1.48039
1.49306
1.53222
1.59849
1.68733
1.78496
1.87612
1.94675
1.98658
1.99012
1.96001
1.90186
1.81619
1.70717
1.57848
1.4382
1.28497
3.93336
3.42196
2.99213
2.62653
2.3264
2.08828
1.90394
1.76331
1.65854
1.57814
1.51863
1.47455
1.44444
1.43113
1.44052
1.47784
1.53937
1.61959
1.70626
1.78575
1.84619
1.87994
1.88352
1.86014
1.81085
1.73736
1.64297
1.53061
1.40672
1.26942
4.07875
3.59482
3.1791
2.81524
2.50513
2.24624
2.03474
1.86455
1.73033
1.62509
1.54479
1.48472
1.44293
1.41888
1.41642
1.44459
1.49531
1.5621
1.63461
1.70132
1.75211
1.78321
1.78825
1.76924
1.72747
1.66418
1.58203
1.48338
1.37335
1.25029
4.26507
3.80985
3.41517
3.0597
2.74575
2.47215
2.23768
2.03975
1.8759
1.74254
1.63686
1.55515
1.49521
1.4554
1.43713
1.44691
1.48037
1.52853
1.58263
1.63502
1.67724
1.70284
1.70705
1.69073
1.6546
1.59934
1.52701
1.4396
1.34086
1.22995
4.48178
4.06002
3.69073
3.34922
3.03791
2.75637
2.50519
2.28448
2.09438
1.93406
1.80254
1.69719
1.61614
1.557
1.51983
1.50666
1.51517
1.53901
1.57124
1.60487
1.63273
1.64833
1.64763
1.63063
1.59714
1.54692
1.48171
1.40236
1.31219
1.21086
4.71398
4.33261
3.99266
3.67081
3.36909
3.08761
2.8282
2.59292
2.38411
2.20319
2.05099
1.92574
1.82597
1.74843
1.69234
1.65571
1.6357
1.62887
1.63061
1.63598
1.63937
1.63642
1.62365
1.5996
1.5641
1.51425
1.4513
1.37546
1.29042
1.19581
4.94981
4.61085
4.30525
4.01023
3.72719
3.45641
3.20059
2.96331
2.7489
2.56069
2.40095
2.26817
2.16078
2.07386
2.00527
1.94883
1.89833
1.85236
1.80988
1.77102
1.73404
1.69768
1.65978
1.61749
1.56699
1.50764
1.43963
1.36278
1.27891
1.1877
5.17591
4.88313
4.6183
4.35954
4.10739
3.86224
3.62747
3.40815
3.21035
3.03911
2.89767
2.78376
2.69473
2.62216
2.56056
2.49705
2.41736
2.32004
2.2101
2.09789
1.9903
1.89197
1.80296
1.72037
1.63954
1.55718
1.47114
1.37955
1.28607
1.19163
5.39306
5.15269
4.93743
4.72819
4.52489
4.32818
4.14245
3.97454
3.83222
3.722
3.6478
3.60508
3.58846
3.583
3.57567
3.53838
3.43908
3.27155
3.0508
2.80767
2.56745
2.3473
2.15332
1.98473
1.83598
1.70082
1.57465
1.45393
1.33793
1.22738
5.63139
5.45276
5.30214
5.1647
5.04042
4.93128
4.8437
4.78751
4.77185
4.80598
4.89368
5.0256
5.19202
5.36518
5.51884
5.58171
5.49138
5.22486
4.81227
4.32438
3.82262
3.35144
2.93492
2.58011
2.2821
2.03035
1.81497
1.62794
1.46321
1.31755
5.97478
5.87934
5.82536
5.80399
5.81669
5.87039
5.97574
6.14807
6.4009
6.74325
7.17564
7.68143
8.24161
8.80335
9.31994
9.62423
9.59965
9.19343
8.4559
7.52096
6.51595
5.53742
4.65188
3.89344
3.26595
2.75547
2.34304
2.0096
1.73757
1.5177
6.63363
6.67262
6.79322
6.9921
7.27264
7.64801
8.13938
8.77044
9.55857
10.5083
11.608
12.8236
14.1139
15.3764
16.53
17.2564
17.3468
16.7335
15.4936
13.8492
12.0024
10.1152
8.32952
6.75503
5.435
4.36585
3.52103
2.86388
2.35494
1.97374
8.1633
8.49854
8.99585
9.65051
10.4689
11.481
12.7197
14.2118
15.9645
17.9584
20.1462
22.4597
24.8116
27.0184
28.9542
30.1411
30.2626
29.3085
27.4121
24.8983
21.9614
18.7907
15.6011
12.6535
10.0814
7.93411
6.21504
4.87825
3.85548
3.12174
12.2378
13.2917
14.5948
16.119
17.8935
19.9946
22.4354
25.2228
28.3188
31.6426
35.094
38.5607
41.8655
44.741
47.0128
47.8408
47.4996
46.1194
43.8369
40.713
36.9347
32.6304
27.9949
23.4775
19.2448
15.473
12.3295
9.7904
7.78582
6.35446
22.9714
25.1447
27.5862
30.3239
33.3462
36.6283
40.2472
44.1619
48.2423
52.3169
56.1892
59.5463
62.3243
64.2274
65.2463
64.6115
63.0386
60.7656
58.1363
55.1984
51.8552
48.1415
44.0026
39.2747
34.3576
29.4756
25.0813
21.2294
17.9517
15.517
43.9964
45.5496
47.7565
50.6077
53.9635
57.6277
61.4468
65.1532
68.5581
71.5137
73.9368
75.7193
76.732
76.6716
75.62
72.8201
69.7357
66.4985
63.5142
60.7441
58.0668
55.4673
53.0209
50.7356
48.5619
46.4292
43.7315
40.8523
37.9115
35.3166
56.98
56.0417
56.6687
58.4519
60.9956
63.8424
66.6307
69.0598
70.9967
72.3731
73.1079
73.1741
72.4474
70.7509
67.8786
63.5909
59.6096
55.8573
52.7077
50.1192
48.1431
46.7254
45.9289
45.769
46.2264
47.0772
48.1594
49.1612
49.7913
49.7767
11.9547
14.075
14.7024
14.8378
14.8025
14.508
13.9666
13.241
12.4029
11.5206
10.6384
9.80031
9.02173
8.33463
7.73905
7.25254
6.87684
6.73094
7.05906
7.91318
8.84185
9.28526
9.01958
8.12078
6.80883
5.30188
3.82258
2.49123
1.57783
0.992226
6.57954
7.13819
7.23445
7.16114
7.04155
6.83445
6.53125
6.1491
5.71675
5.26511
4.82141
4.40144
4.02059
3.68138
3.40381
3.19289
3.08229
3.1385
3.51051
4.22659
5.00248
5.48247
5.51339
5.15234
4.5291
3.77194
2.96789
2.15894
1.50245
1.04588
6.04183
6.23406
6.19218
6.05692
5.87085
5.63743
5.35342
5.02484
4.66667
4.29645
3.93299
3.58891
3.27585
2.99968
2.77353
2.60768
2.52769
2.59628
2.93765
3.56757
4.2673
4.75053
4.87362
4.66533
4.22628
3.64815
2.98441
2.29144
1.69532
1.2302
5.99289
5.96478
5.82711
5.64429
5.4321
5.19336
4.92406
4.62574
4.30698
3.97919
3.65675
3.35011
3.0697
2.82291
2.62255
2.47958
2.41994
2.50456
2.82555
3.37698
4.00037
4.45328
4.60537
4.46823
4.11941
3.62942
3.05766
2.43597
1.87468
1.41066
6.02837
5.81343
5.58885
5.36348
5.13737
4.9032
4.65221
4.38181
4.09617
3.803
3.51358
3.23623
2.98263
2.76021
2.58193
2.4606
2.4245
2.53118
2.8485
3.34016
3.87407
4.27669
4.42488
4.32224
4.02758
3.60062
3.09665
2.53755
2.01242
1.5566
6.05317
5.67199
5.36011
5.09388
4.85908
4.63521
4.4067
4.16615
3.91387
3.65468
3.39746
3.14906
2.92189
2.72375
2.56861
2.47126
2.4623
2.59479
2.90608
3.3512
3.80485
4.14414
4.26916
4.18005
3.92218
3.54374
3.08988
2.59015
2.10485
1.66577
6.04068
5.51398
5.11436
4.8078
4.56589
4.3546
4.15054
3.94119
3.72368
3.49963
3.27579
3.05816
2.85856
2.68617
2.55628
2.48604
2.50728
2.66655
2.97324
3.37059
3.75489
4.02831
4.11976
4.03161
3.79994
3.45947
3.05114
2.598
2.15623
1.74003
5.96781
5.32499
4.84655
4.50079
4.25158
4.05338
3.87496
3.69814
3.51593
3.32747
3.13803
2.95301
2.78295
2.63792
2.53544
2.49471
2.54798
2.73248
3.03263
3.38493
3.7042
3.91495
3.9692
3.87498
3.66104
3.35229
2.98509
2.5756
2.17244
1.78418
5.8479
5.11136
4.56392
4.18179
3.92432
3.73742
3.5831
3.43758
3.29033
3.13774
2.98319
2.83144
2.69274
2.57642
2.50291
2.49308
2.57811
2.78386
3.07293
3.38714
3.64278
3.79603
3.81406
3.71118
3.50985
3.22929
2.8984
2.53089
2.16406
1.80478
5.70155
4.89356
4.27825
3.86621
3.60016
3.4209
3.28614
3.16782
3.05302
2.93557
2.81485
2.69605
2.5888
2.50238
2.45846
2.47962
2.59371
2.814
3.09156
3.3634
3.56421
3.66678
3.65331
3.54223
3.35136
3.09631
2.798
2.47124
2.1448
1.81514
5.54212
4.6764
4.03322
3.59938
3.3189
3.13759
3.01243
2.91273
2.82135
2.73046
2.63987
2.55196
2.47481
2.41814
2.40369
2.4541
2.59553
2.82397
3.08432
3.31119
3.46599
3.52532
3.48723
3.3707
3.19027
2.95857
2.69293
2.40782
2.1166
1.81219
5.38166
4.51761
3.86444
3.39787
3.09866
2.90545
2.77798
2.68599
2.60957
2.53819
2.46991
2.40665
2.35711
2.32857
2.34117
2.41784
2.57752
2.8047
3.03952
3.231
3.34631
3.37201
3.31713
3.19949
3.03159
2.82485
2.59273
2.3395
2.0772
1.79764
5.28156
4.43343
3.78048
3.29046
2.95644
2.74223
2.5995
2.50319
2.43093
2.37039
2.31791
2.27238
2.24413
2.24004
2.27565
2.37396
2.54371
2.75984
2.9676
3.12525
3.20827
3.21029
3.14659
3.03368
2.88444
2.7026
2.49457
2.26736
2.03039
1.77424
5.24428
4.4352
3.79227
3.29352
2.92457
2.66327
2.49191
2.38016
2.3
2.24048
2.19572
2.16172
2.1475
2.16058
2.21477
2.32847
2.49926
2.69696
2.87533
3.00161
3.05939
3.04798
2.98398
2.88603
2.75235
2.58807
2.40089
2.19528
1.97995
1.74512
5.26717
4.49205
3.86445
3.36136
2.97333
2.68504
2.47877
2.33147
2.23067
2.16224
2.11624
2.08679
2.08093
2.10157
2.16927
2.29153
2.4549
2.62864
2.77611
2.87437
2.91435
2.90057
2.84615
2.75603
2.63385
2.48418
2.31457
2.12664
1.92931
1.7131
5.34324
4.60766
4
3.49653
3.09013
2.77391
2.53637
2.3618
2.23834
2.14996
2.09349
2.06132
2.05726
2.0817
2.15488
2.27929
2.4287
2.57484
2.69122
2.76608
2.79886
2.78562
2.73312
2.64782
2.53374
2.39497
2.23884
2.06446
1.88136
1.68073
5.47801
4.78283
4.19758
3.69577
3.28046
2.94296
2.67664
2.47196
2.32027
2.21088
2.13981
2.10001
2.09374
2.12003
2.19428
2.31657
2.4486
2.56781
2.65466
2.71504
2.73632
2.71494
2.6574
2.57141
2.46048
2.32769
2.1775
2.01188
1.8388
1.65048
5.66672
5.01207
4.44958
3.96224
3.54392
3.19109
2.90087
2.66862
2.48977
2.35806
2.27098
2.22234
2.21416
2.24381
2.32506
2.44232
2.55832
2.654
2.72362
2.76042
2.75642
2.71006
2.63651
2.54136
2.42393
2.28708
2.13542
1.97265
1.80472
1.62496
5.89677
5.2832
4.75347
4.28415
3.87073
3.5115
3.20631
2.95438
2.7553
2.60685
2.50923
2.45745
2.455
2.4981
2.59939
2.72507
2.83685
2.9199
2.96255
2.95857
2.90303
2.81378
2.71501
2.59044
2.44181
2.28098
2.11835
1.95153
1.78302
1.60725
6.15088
5.58148
5.09265
4.64932
4.25179
3.8993
3.5937
3.33727
3.13354
2.98417
2.89263
2.8553
2.88067
2.96188
3.1134
3.27827
3.40885
3.48446
3.48232
3.40443
3.26976
3.11414
2.95013
2.76288
2.56295
2.35904
2.15497
1.96073
1.77887
1.60062
6.41479
5.90098
5.458
5.05295
4.68744
4.36145
4.0785
3.84368
3.66425
3.5455
3.49512
3.51208
3.61269
3.78452
4.04897
4.31068
4.49489
4.56632
4.49346
4.30171
4.04155
3.7613
3.45923
3.14538
2.83956
2.55193
2.28483
2.03847
1.81737
1.61899
6.69604
6.24997
5.863
5.51406
5.20474
4.93591
4.71297
4.54353
4.43926
4.40859
4.46808
4.62077
4.88764
5.25282
5.75203
6.21257
6.5042
6.5869
6.40542
6.03722
5.56928
5.03808
4.46107
3.89994
3.38855
2.93984
2.5525
2.2193
1.93384
1.69094
7.05635
6.68218
6.36831
6.1037
5.88993
5.72902
5.6292
5.59969
5.66014
5.82761
6.12422
6.55671
7.15683
7.89836
8.84375
9.65884
10.1582
10.2834
9.94867
9.32198
8.45975
7.41842
6.33997
5.32133
4.4269
3.67733
3.0653
2.57108
2.17141
1.85074
7.61219
7.32944
7.1265
7.00107
6.95435
6.99138
7.12774
7.37814
7.76625
8.31705
9.06367
10.0136
11.2116
12.6031
14.2881
15.6239
16.4558
16.6942
16.1316
15.0065
13.4468
11.5951
9.69481
7.90587
6.34347
5.05669
4.03726
3.24707
2.63862
2.17968
8.64874
8.51253
8.49929
8.62714
8.89437
9.30562
9.87825
10.6364
11.6101
12.8264
14.3242
16.0995
18.2094
20.5373
23.2026
25.0472
25.9638
26.039
25.2252
23.5281
21.1632
18.2776
15.2808
12.3676
9.78253
7.61911
5.90289
4.58644
3.59575
2.88645
10.8442
11.0111
11.3844
11.9951
12.8226
13.878
15.1803
16.7545
18.6236
20.8028
23.3178
26.1309
29.3096
32.5494
35.6845
36.9523
37.2362
36.6075
35.254
33.244
30.6418
27.4626
23.6168
19.4886
15.6776
12.3147
9.54974
7.37301
5.71534
4.56082
15.8274
16.6392
17.7698
19.1555
20.7976
22.7526
25.0089
27.5785
30.4514
33.6091
37.0443
40.67
44.2221
47.277
49.894
49.5723
48.4738
46.7092
44.6904
42.377
39.7205
36.6565
33.1669
29.3172
24.9162
20.5005
16.6092
13.3112
10.6795
8.83899
26.6927
28.2283
30.1248
32.3558
34.8653
37.5656
40.5185
43.7183
47.0889
50.5629
53.959
56.9846
59.716
61.5578
62.4441
59.663
56.613
53.461
50.7484
48.3085
45.9826
43.6458
41.218
38.601
35.7737
32.5588
28.7502
24.9306
21.5871
19.1022
44.0289
44.9956
46.635
48.8503
51.4833
54.3661
57.347
60.2746
63.0275
65.5192
67.6667
69.3037
70.2843
69.9021
68.2295
62.6639
57.8233
53.468
50.1816
47.681
45.8002
44.444
43.515
42.9642
42.6414
42.3849
41.8135
40.7228
38.9038
37.0363
52.2426
52.1775
53.1569
54.9974
57.4204
60.0668
62.6527
64.9565
66.8567
68.2659
69.1001
69.26
68.4735
66.1485
62.1817
54.9
49.26
44.5216
41.0487
38.4933
36.9315
36.2087
36.2539
37.092
38.614
40.5969
42.7951
44.8733
46.4753
47.2874
16.4816
19.2196
19.6804
19.5837
19.194
18.6061
17.7563
16.6989
15.5158
14.2942
13.0818
11.9304
10.8517
9.89719
9.07217
8.42264
7.98433
8.11988
9.55398
12.1972
14.6414
15.7025
15.2359
13.661
11.4933
9.10836
6.79238
4.66829
3.093
1.94483
8.61431
9.30859
9.34582
9.17613
8.90285
8.58289
8.16765
7.66139
7.09644
6.50735
5.92759
5.3704
4.85922
4.39521
4.01266
3.71472
3.5677
3.77136
4.74644
6.41038
7.95801
8.72417
8.62942
7.9429
6.94496
5.82657
4.70653
3.59116
2.64412
1.90509
7.81748
8.02053
7.90102
7.67271
7.38113
7.05614
6.68248
6.25966
5.80197
5.32888
4.86203
4.41286
3.99832
3.62411
3.31404
3.08023
2.97828
3.17905
4.00824
5.3728
6.66778
7.38053
7.41469
6.96328
6.23824
5.40652
4.52437
3.59275
2.78561
2.13116