/*--------------------------------*- C++ -*----------------------------------*\
  =========                 |
  \\      /  F ield         | OpenFOAM: The Open Source CFD Toolbox
   \\    /   O peration     | Website:  https://openfoam.org
    \\  /    A nd           | Version:  12
     \\/     M anipulation  |
\*---------------------------------------------------------------------------*/
FoamFile
{
    format      ascii;
    class       volScalarField;
    location    "2000/air";
    object      k;
}
// * * * * * * * * * * * * * * * * * * * * * * * * * * * * * * * * * * * * * //

dimensions      [0 2 -2 0 0 0 0];

internalField   nonuniform List<scalar> 
243000
(
0.0456572
0.0555109
0.0623826
0.0670948
0.0700549
0.0715372
0.0718174
0.0711581
0.0697944
0.0679313
0.065721
0.0632954
0.0607303
0.0581171
0.0554936
0.0528388
0.0500907
0.0472246
0.0442199
0.0410626
0.0377431
0.0347834
0.0328626
0.0305937
0.0285751
0.0255997
0.0205451
0.0136972
0.0120048
0.0143321
0.0717377
0.0857098
0.0925037
0.094976
0.0949367
0.0933744
0.0908264
0.087668
0.0841605
0.08049
0.0767684
0.07311
0.0695721
0.0662223
0.0630705
0.0600991
0.057256
0.054546
0.0519349
0.0494027
0.0468956
0.0443714
0.0417287
0.0388785
0.0355579
0.0312614
0.0257191
0.0187238
0.0146029
0.0156189
0.0799105
0.0974227
0.106249
0.109809
0.110197
0.108578
0.105697
0.102059
0.0980031
0.0937642
0.0894876
0.085296
0.0812555
0.077447
0.0738884
0.0705711
0.0674516
0.0645641
0.0618553
0.0592853
0.0567779
0.054238
0.0515347
0.048425
0.0446002
0.0396792
0.0335262
0.0259523
0.0201967
0.017775
0.0809912
0.0970708
0.107882
0.113667
0.115768
0.115268
0.113108
0.109906
0.106078
0.101927
0.0976508
0.093403
0.0892698
0.0853509
0.0816903
0.0782965
0.0751381
0.0722652
0.0696079
0.0670938
0.064613
0.0620527
0.0592633
0.056015
0.0520099
0.0468946
0.0405597
0.0328159
0.0261176
0.0213113
0.0808129
0.0923226
0.102975
0.110336
0.114437
0.115813
0.115158
0.113132
0.110177
0.106671
0.102865
0.0989571
0.0950637
0.0913137
0.0877814
0.0845037
0.0814669
0.0787329
0.0762173
0.0738123
0.0713727
0.0687737
0.0658758
0.0624923
0.0583686
0.0531911
0.0468387
0.0391529
0.0319534
0.0257297
0.0829322
0.0872416
0.0949068
0.102441
0.108155
0.111518
0.112785
0.112409
0.110802
0.108375
0.105434
0.102212
0.0988495
0.0955143
0.0923088
0.0893146
0.0865357
0.0840429
0.0817393
0.0794874
0.0771172
0.0744931
0.0714951
0.0679843
0.0637636
0.0585769
0.0522948
0.044794
0.0373935
0.0304008
0.0878325
0.0868577
0.0899805
0.0949866
0.100094
0.104294
0.107192
0.108524
0.108534
0.107493
0.105707
0.103409
0.100816
0.098106
0.095403
0.0928382
0.0904347
0.088266
0.0862307
0.0841716
0.0819031
0.0792834
0.0762116
0.0725929
0.0682926
0.0631166
0.0569485
0.0496943
0.0422961
0.0349419
0.0957042
0.0914069
0.0898853
0.0914053
0.094547
0.0980549
0.101051
0.103026
0.104234
0.104526
0.103998
0.102819
0.101158
0.0992351
0.0971852
0.0951728
0.0932457
0.0914709
0.089752
0.0879236
0.0857913
0.0832137
0.0801049
0.0764093
0.0720498
0.0668964
0.0608618
0.0538765
0.0466254
0.0391568
0.104369
0.0983552
0.0937505
0.0916307
0.0919326
0.0937407
0.0960486
0.0980756
0.0995954
0.100432
0.100887
0.10077
0.100115
0.0990711
0.0977781
0.0964153
0.0950448
0.0937241
0.0923661
0.0908044
0.0888445
0.08635
0.0832493
0.0795168
0.0751259
0.070007
0.0641213
0.0574203
0.0503763
0.0429551
0.113475
0.106906
0.100357
0.0953954
0.0926329
0.091973
0.0927364
0.0940883
0.0954797
0.0965576
0.0973127
0.0978138
0.098001
0.0978241
0.0973255
0.0966678
0.0959097
0.0950924
0.094135
0.0928756
0.0911256
0.088758
0.0857137
0.0819908
0.0776041
0.0725458
0.0668072
0.0603552
0.0535552
0.0462996
0.122851
0.115862
0.108483
0.101796
0.096549
0.0932364
0.0917928
0.0916905
0.0923317
0.0931925
0.0940116
0.0946957
0.0952863
0.0957764
0.0960134
0.0960567
0.0959251
0.0956454
0.095122
0.0941994
0.0926973
0.0905001
0.0875625
0.0839008
0.0795698
0.0745818
0.0689731
0.062757
0.0562107
0.0492122
0.132377
0.125104
0.117434
0.109896
0.103054
0.0975195
0.0936996
0.091579
0.0907843
0.0908273
0.0912887
0.0919062
0.092567
0.0933228
0.0940892
0.0947449
0.0952128
0.0954653
0.0953936
0.0948444
0.0936222
0.0916372
0.0888592
0.0853183
0.0810713
0.0761719
0.070699
0.0647016
0.0584037
0.0516906
0.141943
0.134485
0.126888
0.118939
0.111245
0.10424
0.0984322
0.0941596
0.0914544
0.0900761
0.0896183
0.0897652
0.0902387
0.0909388
0.0918793
0.0929478
0.0939162
0.0946605
0.0950309
0.0948498
0.0939535
0.0922406
0.0896644
0.0862738
0.0821512
0.077375
0.0720514
0.0662655
0.060206
0.0537857
0.15145
0.143859
0.136202
0.128226
0.12025
0.112511
0.105396
0.0993419
0.0946699
0.0914709
0.0895933
0.0887442
0.0886265
0.0890141
0.0897774
0.0909436
0.0922245
0.0933633
0.0941352
0.094324
0.0937504
0.0923008
0.0899838
0.0868084
0.0828607
0.0782501
0.073115
0.0676063
0.0618189
0.0557455
0.160769
0.153095
0.14542
0.137542
0.12957
0.121589
0.113816
0.106586
0.100293
0.0952631
0.0916342
0.089337
0.088165
0.0878572
0.088195
0.089067
0.0903823
0.0917465
0.0928287
0.0933525
0.0930976
0.0919502
0.0898851
0.0869669
0.0832545
0.0789512
0.0741343
0.0689131
0.0633965
0.0576306
0.169771
0.162068
0.15444
0.14674
0.138919
0.130978
0.123
0.115172
0.107805
0.101279
0.0959256
0.0919281
0.0892912
0.0878679
0.0874219
0.0877549
0.0887114
0.0900384
0.0912728
0.0920494
0.0920837
0.09124
0.0894733
0.0868759
0.083548
0.0795869
0.0750922
0.0701664
0.0649227
0.0594432
0.178321
0.170651
0.163138
0.155684
0.148107
0.140364
0.132454
0.12445
0.116536
0.109019
0.102267
0.0966258
0.0923241
0.0894275
0.0878123
0.0872811
0.0876119
0.0885387
0.0896867
0.0905711
0.0908283
0.0902763
0.0889019
0.0866949
0.0837489
0.0801413
0.0759759
0.071352
0.0663847
0.0611789
0.186289
0.178722
0.171396
0.16424
0.156978
0.14953
0.14185
0.13394
0.125881
0.117862
0.110184
0.103217
0.0973283
0.0927999
0.0897045
0.087963
0.0873701
0.0876391
0.0883992
0.0891812
0.08957
0.0892939
0.0882623
0.0864281
0.0838554
0.0806049
0.0767737
0.0724581
0.0677719
0.0628337
0.193546
0.186157
0.179121
0.172291
0.165385
0.158297
0.150954
0.143313
0.135381
0.127247
0.119104
0.111256
0.104094
0.0980242
0.0933199
0.0900988
0.0882719
0.0875968
0.0877132
0.0881666
0.0885016
0.0883707
0.0876021
0.0860999
0.0838745
0.0809751
0.0774783
0.0734746
0.0690749
0.0644034
0.199962
0.192843
0.186234
0.179729
0.173201
0.166522
0.159592
0.152336
0.144714
0.136741
0.128511
0.120228
0.11222
0.104908
0.0986907
0.0938855
0.0905896
0.0886795
0.0878684
0.0877264
0.0877802
0.0876237
0.087003
0.0857601
0.0838398
0.0812656
0.0780941
0.0744007
0.0702902
0.0658857
0.205533
0.198864
0.192543
0.186397
0.180287
0.17407
0.167621
0.160842
0.153664
0.146051
0.138022
0.129682
0.121263
0.11312
0.105673
0.0993753
0.0945179
0.0911541
0.0891356
0.0881086
0.0876158
0.0872179
0.0865902
0.0854937
0.0838083
0.0815167
0.0786466
0.0752518
0.0714254
0.0672837
0.210082
0.203757
0.197832
0.192135
0.186518
0.180832
0.174941
0.168736
0.162133
0.155062
0.147478
0.139399
0.130953
0.122402
0.114107
0.106557
0.100188
0.0952582
0.0918037
0.0896069
0.0882776
0.0873758
0.0865154
0.0854078
0.0838586
0.0817885
0.0791806
0.0760612
0.0725046
0.0686161
0.213498
0.207643
0.202179
0.196983
0.191908
0.186818
0.181585
0.176113
0.170354
0.164125
0.157291
0.149794
0.141652
0.133071
0.124262
0.115704
0.107841
0.101262
0.0961977
0.092574
0.0901081
0.088406
0.0870648
0.085732
0.0841562
0.0821922
0.0797743
0.0768858
0.0735714
0.0699177
0.215976
0.210679
0.205747
0.201085
0.196599
0.192309
0.188058
0.183617
0.178829
0.173536
0.167573
0.160839
0.153254
0.144958
0.136003
0.126788
0.117709
0.10951
0.102754
0.0974985
0.0936026
0.0907681
0.0886236
0.0867959
0.0849724
0.0829456
0.0805884
0.0778418
0.0747105
0.0712585
0.217667
0.213025
0.208716
0.204676
0.200918
0.197523
0.194236
0.190818
0.18708
0.182845
0.177919
0.172159
0.165399
0.157717
0.148999
0.139546
0.129846
0.120559
0.112252
0.105255
0.0996504
0.095306
0.0919448
0.0892246
0.0868133
0.084446
0.0819368
0.0791752
0.0761145
0.0727766
0.218785
0.214965
0.211454
0.208243
0.20529
0.20261
0.200129
0.197697
0.19513
0.192218
0.188726
0.18443
0.179103
0.172655
0.164989
0.156152
0.146422
0.136361
0.126653
0.117823
0.110194
0.103857
0.0987008
0.0944846
0.0909148
0.087711
0.08464
0.0815271
0.0782755
0.0748628
0.220442
0.217943
0.21575
0.21388
0.21234
0.211138
0.210241
0.209529
0.20883
0.207897
0.206443
0.204152
0.200716
0.195909
0.189611
0.181669
0.172103
0.161469
0.150431
0.139641
0.129614
0.120671
0.112918
0.10629
0.100619
0.0956724
0.091219
0.0870553
0.083023
0.0790591
0.228256
0.228153
0.228353
0.228924
0.229952
0.231484
0.233492
0.235821
0.238248
0.240435
0.242017
0.242546
0.241627
0.238937
0.234283
0.227381
0.218016
0.206818
0.194421
0.181536
0.168765
0.156581
0.145286
0.135043
0.125887
0.11772
0.110392
0.103737
0.0975848
0.0919863
0.271326
0.275133
0.278729
0.282897
0.288086
0.294329
0.301287
0.308409
0.315343
0.321765
0.327225
0.331089
0.332922
0.332477
0.329534
0.323666
0.314379
0.302712
0.289383
0.275027
0.260138
0.245185
0.230565
0.216578
0.203456
0.191028
0.179304
0.168314
0.158019
0.14901
0.487279
0.48781
0.488959
0.493846
0.50149
0.510219
0.517756
0.523846
0.529352
0.534423
0.538543
0.540497
0.541114
0.540653
0.538398
0.534074
0.526367
0.518215
0.50981
0.501626
0.493557
0.485887
0.47869
0.472092
0.466107
0.458511
0.449833
0.440965
0.43221
0.424889
0.0882948
0.100289
0.106528
0.109588
0.110177
0.108846
0.106087
0.102359
0.0980524
0.0934947
0.0888942
0.0844501
0.0802409
0.0763833
0.0728778
0.069702
0.0667543
0.0640328
0.0616049
0.0595403
0.0576287
0.0553221
0.0520498
0.0474342
0.0414014
0.0340272
0.0261448
0.0234428
0.0218733
0.0204499
0.153937
0.172085
0.17437
0.169817
0.161671
0.151815
0.141373
0.131025
0.121178
0.112041
0.103634
0.096259
0.0898486
0.0844301
0.0798446
0.0760278
0.072843
0.0703758
0.0687005
0.0679054
0.067728
0.067554
0.0665982
0.0640647
0.059426
0.0525139
0.04408
0.0358395
0.0305576
0.0269339
0.187676
0.207802
0.21064
0.205648
0.196383
0.184992
0.172758
0.160505
0.148741
0.137807
0.127835
0.11897
0.111258
0.104749
0.0993547
0.0950143
0.091569
0.0891195
0.0876216
0.0870035
0.0869069
0.0867628
0.0858516
0.0833427
0.0785285
0.0710347
0.0614816
0.050864
0.0424162
0.0362745
0.207346
0.225992
0.228744
0.224007
0.214958
0.203711
0.191494
0.179103
0.167022
0.155679
0.145286
0.136001
0.127888
0.121069
0.115512
0.11118
0.107939
0.105882
0.104803
0.104443
0.104318
0.103888
0.102585
0.0997158
0.0945784
0.0866899
0.0765112
0.0645452
0.0541014
0.0460067
0.217094
0.232912
0.234998
0.230616
0.222191
0.211899
0.200662
0.189123
0.177599
0.166701
0.156653
0.147613
0.139706
0.133098
0.12782
0.123866
0.121137
0.119695
0.119184
0.11917
0.119072
0.118363
0.116612
0.113309
0.107861
0.0997656
0.0893508
0.0767898
0.0651893
0.0556548
0.221119
0.231081
0.232495
0.228629
0.221921
0.213017
0.202926
0.19237
0.181843
0.172076
0.162971
0.154651
0.147386
0.141371
0.136685
0.133369
0.131352
0.130654
0.130777
0.131145
0.131137
0.130226
0.128093
0.124402
0.118698
0.110545
0.10013
0.0874756
0.0753296
0.0648806
0.220838
0.223781
0.222466
0.218729
0.213488
0.206752
0.198784
0.190336
0.181785
0.173194
0.165135
0.157807
0.151559
0.146415
0.142558
0.140079
0.13892
0.139032
0.139807
0.140584
0.140716
0.139693
0.137272
0.133267
0.127384
0.119271
0.10902
0.0966013
0.0843362
0.0733948
0.219439
0.214221
0.208828
0.204027
0.199615
0.194888
0.189469
0.183507
0.176982
0.170299
0.163812
0.157951
0.152788
0.148682
0.145835
0.144341
0.144137
0.145075
0.146505
0.14771
0.14803
0.146988
0.14439
0.140168
0.13418
0.126187
0.116219
0.104242
0.092161
0.0810348
0.218061
0.205798
0.197152
0.190657
0.185886
0.181897
0.177911
0.173622
0.168992
0.164389
0.159651
0.155297
0.151511
0.148631
0.146878
0.146467
0.147249
0.14902
0.151096
0.152738
0.153296
0.15233
0.149674
0.14535
0.139342
0.131535
0.121946
0.110552
0.0988596
0.0877331
0.219071
0.203769
0.190409
0.181313
0.174875
0.170375
0.166797
0.163485
0.16011
0.156721
0.153451
0.150605
0.148224
0.146613
0.146009
0.146728
0.148504
0.151098
0.153798
0.155882
0.156723
0.155922
0.153331
0.149035
0.143108
0.135575
0.126408
0.115605
0.104414
0.0934772
0.223494
0.206175
0.19022
0.177239
0.168037
0.16208
0.157749
0.154467
0.151635
0.149028
0.146614
0.144656
0.143499
0.143092
0.143623
0.14543
0.148154
0.151517
0.154833
0.157349
0.158521
0.15796
0.155552
0.151436
0.145724
0.138459
0.129693
0.119527
0.10891
0.0983378
0.231329
0.212245
0.194283
0.179086
0.167212
0.158425
0.15226
0.148054
0.14484
0.142318
0.140276
0.138776
0.138118
0.138647
0.140181
0.142935
0.146496
0.150537
0.154411
0.157432
0.158925
0.158624
0.156515
0.152688
0.147239
0.140307
0.132003
0.122489
0.112493
0.102415
0.24205
0.221619
0.20222
0.185311
0.171332
0.16033
0.152177
0.145752
0.141093
0.13779
0.13542
0.133868
0.133297
0.134082
0.136276
0.139696
0.14389
0.148464
0.152797
0.156233
0.158114
0.158107
0.156254
0.152703
0.147692
0.14127
0.133532
0.124799
0.11556
0.106081
0.254974
0.233977
0.214074
0.196052
0.180371
0.167256
0.156775
0.148272
0.141712
0.136754
0.133233
0.13095
0.129961
0.130436
0.132609
0.136274
0.140785
0.14567
0.150317
0.154073
0.15631
0.156661
0.155189
0.152022
0.147441
0.141673
0.134727
0.126723
0.11816
0.109202
0.269685
0.249019
0.229257
0.210806
0.194095
0.179379
0.166861
0.156127
0.147222
0.140155
0.134839
0.13115
0.129093
0.128728
0.130073
0.133382
0.137752
0.142621
0.147347
0.151277
0.153797
0.154527
0.153493
0.150897
0.146936
0.14173
0.135442
0.128121
0.120186
0.111773
0.285814
0.266088
0.247127
0.228905
0.211836
0.196166
0.182099
0.169298
0.158089
0.148667
0.141115
0.135393
0.131633
0.129777
0.129786
0.131857
0.135505
0.139907
0.144373
0.148257
0.150946
0.152054
0.151589
0.149607
0.146186
0.141513
0.135796
0.129083
0.121719
0.113846
0.302666
0.284518
0.266962
0.24959
0.232786
0.216791
0.201573
0.1872
0.174044
0.162407
0.152503
0.144466
0.138418
0.134473
0.132587
0.132822
0.1349
0.138268
0.142034
0.145556
0.14832
0.149785
0.149703
0.148193
0.145305
0.141143
0.135922
0.129725
0.122862
0.115503
0.319641
0.303605
0.28794
0.271915
0.255888
0.239925
0.22417
0.208867
0.194341
0.180928
0.168914
0.15854
0.149997
0.14353
0.139255
0.137116
0.137036
0.138636
0.141197
0.143974
0.146406
0.147859
0.148009
0.146883
0.144457
0.140753
0.135954
0.130188
0.123755
0.116863
0.336008
0.322406
0.308874
0.294459
0.279493
0.264161
0.248647
0.233147
0.21795
0.203386
0.189768
0.177374
0.166476
0.157283
0.150355
0.145463
0.142619
0.141863
0.142608
0.144117
0.14564
0.146693
0.146876
0.145973
0.143852
0.140501
0.136046
0.130641
0.124572
0.118073
0.3501
0.338942
0.327748
0.315525
0.302395
0.288468
0.273923
0.258947
0.243805
0.228808
0.214255
0.200405
0.187562
0.176057
0.166219
0.158393
0.152396
0.148717
0.146983
0.146539
0.146664
0.146873
0.146759
0.145757
0.143698
0.140552
0.136393
0.131288
0.125513
0.119319
0.362086
0.353322
0.344603
0.334891
0.324081
0.312148
0.299202
0.285436
0.271087
0.256435
0.241732
0.227179
0.213066
0.199693
0.187213
0.176456
0.167217
0.160172
0.155327
0.152229
0.150293
0.14912
0.148228
0.146865
0.144683
0.141519
0.137424
0.132453
0.126851
0.120858
0.372232
0.365789
0.359564
0.352523
0.344369
0.334917
0.324174
0.312331
0.299597
0.2862
0.272327
0.258081
0.243661
0.229251
0.215013
0.201277
0.188874
0.178157
0.169503
0.162876
0.157988
0.154632
0.152262
0.150004
0.147294
0.143883
0.139659
0.134634
0.129012
0.123087
0.380961
0.376851
0.37316
0.368935
0.363742
0.357269
0.349458
0.340478
0.330483
0.319649
0.308041
0.295582
0.282313
0.268203
0.253461
0.237968
0.221973
0.206996
0.193441
0.181946
0.172746
0.165864
0.160823
0.156718
0.152711
0.148446
0.143685
0.138307
0.132446
0.126381
0.389256
0.387641
0.386722
0.385672
0.384017
0.381357
0.377719
0.373316
0.368255
0.362468
0.355741
0.347683
0.338025
0.326364
0.312814
0.296503
0.277211
0.256698
0.236316
0.217613
0.201582
0.188647
0.178601
0.170632
0.163695
0.157296
0.151029
0.144621
0.138015
0.131422
0.399356
0.40082
0.403523
0.40681
0.410307
0.413777
0.417444
0.421418
0.425551
0.429325
0.43206
0.432828
0.430877
0.425187
0.415393
0.400125
0.377478
0.349356
0.319006
0.289113
0.261624
0.237703
0.217766
0.201359
0.187691
0.176116
0.165978
0.156754
0.148098
0.140131
0.41719
0.423733
0.432679
0.443757
0.456981
0.472391
0.489991
0.509401
0.529914
0.550136
0.568614
0.58395
0.594584
0.598735
0.595329
0.582648
0.557374
0.521748
0.479314
0.433944
0.388636
0.345788
0.307129
0.273548
0.245112
0.221376
0.201586
0.18494
0.170654
0.158871
0.463713
0.4815
0.504289
0.531868
0.564164
0.600663
0.640785
0.683226
0.726528
0.767772
0.804805
0.835915
0.85944
0.873687
0.876812
0.867016
0.840409
0.799214
0.746822
0.687134
0.623271
0.558157
0.494631
0.435236
0.381738
0.334936
0.294961
0.26132
0.233117
0.211467
0.608891
0.6516
0.699221
0.751471
0.807837
0.866478
0.927204
0.98792
1.04716
1.09922
1.14295
1.17758
1.20218
1.21609
1.21824
1.20664
1.1804
1.14112
1.09045
1.03055
0.962341
0.887939
0.809988
0.731229
0.654811
0.583155
0.518163
0.460322
0.409539
0.371018
0.9448
0.989236
1.04021
1.09651
1.1544
1.2114
1.27086
1.32496
1.37147
1.40768
1.43353
1.4502
1.4565
1.45332
1.44145
1.41746
1.38854
1.35525
1.31841
1.27788
1.22999
1.17784
1.12263
1.06522
1.00686
0.947964
0.889445
0.832102
0.776728
0.732613
1.20882
1.20296
1.21714
1.24565
1.28023
1.31419
1.34498
1.36939
1.38755
1.4003
1.4061
1.40476
1.39704
1.38474
1.3631
1.32942
1.29893
1.2676
1.23725
1.20779
1.18151
1.15932
1.14254
1.13171
1.12588
1.12257
1.12003
1.11652
1.11056
1.09781
0.129902
0.142683
0.14591
0.14637
0.14465
0.140929
0.135663
0.129402
0.122634
0.115777
0.109088
0.102813
0.0970499
0.0919951
0.0876421
0.0840292
0.0810702
0.0790209
0.0785034
0.0798638
0.0820053
0.082961
0.081293
0.0764419
0.068598
0.0582526
0.0465739
0.0342134
0.024897
0.0224682
0.217493
0.240344
0.242139
0.235595
0.224087
0.210228
0.195539
0.180949
0.167029
0.154112
0.142335
0.131818
0.122413
0.114496
0.107917
0.102604
0.0984179
0.0959423
0.0960168
0.0992116
0.104299
0.108898
0.110843
0.108709
0.101938
0.0908613
0.0768265
0.0609182
0.0476038
0.038255
0.264928
0.289824
0.293057
0.28626
0.273823
0.25843
0.241687
0.224709
0.208253
0.192806
0.178604
0.165919
0.154732
0.145239
0.137416
0.131246
0.126585
0.124136
0.124594
0.128258
0.133825
0.138974
0.141514
0.139817
0.1329
0.120838
0.104848
0.0859964
0.0690798
0.0560429
0.296602
0.317823
0.320364
0.313769
0.301729
0.286602
0.269844
0.25256
0.235548
0.219357
0.204329
0.190806
0.178881
0.168784
0.160604
0.154372
0.149998
0.148134
0.149104
0.152916
0.158238
0.162979
0.165227
0.163448
0.15652
0.144221
0.12754
0.10736
0.088256
0.0724894
0.318408
0.333126
0.333536
0.326797
0.315467
0.301321
0.285478
0.268989
0.252556
0.236682
0.221816
0.208337
0.196436
0.186409
0.178455
0.172661
0.168993
0.167948
0.169423
0.173168
0.177902
0.181805
0.183345
0.1812
0.174295
0.162202
0.14566
0.125246
0.105146
0.0875133
0.332744
0.339371
0.337086
0.329957
0.31935
0.306158
0.291501
0.276607
0.261578
0.246737
0.232744
0.219965
0.208668
0.199225
0.191928
0.186936
0.184242
0.184111
0.186041
0.189571
0.193536
0.196415
0.19705
0.194361
0.187438
0.175777
0.159831
0.139931
0.119713
0.101144
0.341075
0.339703
0.333563
0.32521
0.31531
0.304196
0.291794
0.278335
0.26448
0.250775
0.238255
0.226692
0.216456
0.208005
0.201691
0.19779
0.196271
0.197063
0.199406
0.202662
0.205798
0.207603
0.207249
0.203908
0.196903
0.185743
0.170662
0.151763
0.132041
0.113095
0.344599
0.335684
0.324911
0.314541
0.304759
0.294975
0.284641
0.273593
0.262214
0.25085
0.239638
0.229322
0.220463
0.213303
0.208244
0.205652
0.205421
0.207126
0.209844
0.212831
0.21517
0.215961
0.214605
0.210583
0.203452
0.192796
0.178744
0.161132
0.142288
0.123362
0.34606
0.329013
0.312651
0.299587
0.289482
0.280902
0.272697
0.264236
0.255384
0.246201
0.237096
0.228681
0.221315
0.215631
0.21202
0.210882
0.21195
0.214557
0.217631
0.220385
0.222023
0.221913
0.219637
0.214972
0.207737
0.197553
0.184318
0.168004
0.150267
0.131953
0.346545
0.321403
0.300492
0.28533
0.274394
0.266117
0.259075
0.252329
0.245446
0.238469
0.231616
0.225161
0.219558
0.215519
0.213425
0.213778
0.216107
0.219575
0.222992
0.225576
0.226659
0.225784
0.222742
0.217582
0.210154
0.20024
0.187789
0.17275
0.156327
0.13908
0.346562
0.31733
0.292805
0.2746
0.261909
0.252873
0.245981
0.240167
0.234707
0.229339
0.224139
0.219636
0.215832
0.213431
0.21287
0.214643
0.21814
0.222409
0.226151
0.228641
0.22932
0.227855
0.224268
0.218555
0.210905
0.201317
0.189655
0.17586
0.160849
0.144919
0.34831
0.318124
0.291695
0.269978
0.254005
0.243298
0.235399
0.229526
0.224664
0.220306
0.216363
0.213052
0.210855
0.209998
0.210827
0.213865
0.218364
0.223286
0.227355
0.22984
0.230215
0.228253
0.224138
0.218157
0.210494
0.201217
0.190378
0.177995
0.164546
0.149883
0.352848
0.322386
0.2951
0.271805
0.253387
0.239193
0.229123
0.222247
0.216983
0.212787
0.209475
0.206959
0.205554
0.205927
0.207868
0.211913
0.217153
0.222546
0.226872
0.229427
0.229608
0.227426
0.223084
0.216999
0.20949
0.200674
0.19076
0.179494
0.167242
0.153693
0.360423
0.330353
0.302809
0.278309
0.257893
0.24161
0.229395
0.220039
0.213305
0.208277
0.204841
0.202494
0.201415
0.202102
0.204741
0.209386
0.215017
0.220622
0.225094
0.227696
0.227806
0.22557
0.221294
0.215354
0.208275
0.199992
0.190646
0.180253
0.168998
0.156505
0.371079
0.341949
0.314621
0.289419
0.267613
0.249403
0.234858
0.223414
0.214789
0.208468
0.203889
0.200921
0.199494
0.199828
0.202352
0.207039
0.212601
0.218073
0.222476
0.225052
0.225166
0.223045
0.219066
0.213628
0.206939
0.199115
0.190296
0.180544
0.170076
0.158518
0.384618
0.356776
0.330474
0.305579
0.283071
0.263378
0.246763
0.233077
0.222185
0.21381
0.207603
0.203335
0.200889
0.200281
0.201775
0.205795
0.210717
0.215616
0.219623
0.222038
0.222177
0.220403
0.216826
0.211827
0.205564
0.19819
0.189848
0.180588
0.170732
0.159963
0.400517
0.374717
0.350062
0.326047
0.303514
0.282946
0.264728
0.248998
0.235828
0.225163
0.21685
0.210704
0.206605
0.204485
0.204393
0.206738
0.210373
0.214171
0.217373
0.219435
0.219619
0.218004
0.214764
0.210185
0.204332
0.197371
0.189447
0.180585
0.1712
0.161073
0.418456
0.395002
0.372382
0.349768
0.327845
0.307058
0.287853
0.270548
0.255395
0.242531
0.231985
0.223663
0.217487
0.21336
0.211265
0.21133
0.212823
0.214936
0.216951
0.218252
0.218114
0.216471
0.213383
0.209019
0.203463
0.196829
0.189227
0.180702
0.171686
0.16205
0.437334
0.416494
0.39622
0.37546
0.354728
0.334394
0.314911
0.296693
0.280124
0.265486
0.252963
0.242544
0.234223
0.227893
0.22357
0.221095
0.22001
0.219825
0.21994
0.219808
0.218734
0.21643
0.213072
0.208644
0.203194
0.196729
0.18935
0.181122
0.172379
0.163103
0.455899
0.437862
0.420198
0.401721
0.382763
0.363595
0.344631
0.326325
0.309152
0.293502
0.279664
0.26769
0.257635
0.24937
0.24297
0.238013
0.234074
0.230985
0.228367
0.225885
0.223018
0.219509
0.21537
0.210486
0.204661
0.197952
0.190455
0.182251
0.173581
0.164493
0.473108
0.458001
0.443169
0.427385
0.410804
0.393578
0.376059
0.358704
0.342043
0.326535
0.312536
0.300115
0.289367
0.280089
0.27236
0.265445
0.258692
0.252151
0.245778
0.239682
0.23371
0.227766
0.221787
0.215586
0.208897
0.201548
0.193468
0.184768
0.175769
0.166586
0.48854
0.476425
0.46461
0.451946
0.43842
0.424065
0.409157
0.394149
0.379593
0.365962
0.353647
0.342689
0.333179
0.324763
0.317374
0.309803
0.300773
0.290326
0.278848
0.26722
0.255978
0.245443
0.235669
0.226491
0.217569
0.208564
0.199262
0.189567
0.179736
0.170001
0.50264
0.493602
0.485109
0.476171
0.466642
0.456457
0.445839
0.435242
0.425199
0.416142
0.408448
0.402081
0.397083
0.3928
0.388792
0.382983
0.372925
0.358306
0.339967
0.319956
0.299898
0.280961
0.263774
0.248431
0.234627
0.22187
0.209742
0.197974
0.186457
0.175533
0.51737
0.51179
0.507339
0.503276
0.49937
0.495518
0.491936
0.489062
0.487348
0.487084
0.488602
0.491636
0.496067
0.500678
0.504497
0.5037
0.494406
0.475684
0.448749
0.416887
0.383204
0.350131
0.319482
0.292243
0.268516
0.247851
0.229649
0.213354
0.19849
0.185076
0.53762
0.536693
0.538176
0.541584
0.546569
0.553038
0.561195
0.571356
0.583749
0.598368
0.615082
0.633233
0.652344
0.670355
0.685742
0.692133
0.68457
0.66181
0.62546
0.579839
0.528992
0.476266
0.424898
0.377724
0.336132
0.300347
0.269955
0.244225
0.222271
0.204069
0.575672
0.58323
0.595555
0.611967
0.631918
0.655258
0.681902
0.711691
0.744236
0.778894
0.814811
0.850824
0.8859
0.917103
0.942445
0.953774
0.945714
0.918368
0.873903
0.817177
0.751235
0.678972
0.603958
0.53137
0.464457
0.404989
0.353914
0.310994
0.275288
0.247731
0.665983
0.691046
0.722892
0.759977
0.801417
0.847014
0.895747
0.946796
0.998985
1.05092
1.10134
1.14866
1.19112
1.22557
1.24963
1.25191
1.23586
1.20409
1.15855
1.09969
1.02967
0.949586
0.861201
0.770792
0.681449
0.596777
0.521062
0.455107
0.398916
0.356957
0.879901
0.926977
0.979956
1.0376
1.09763
1.15782
1.21821
1.27764
1.33439
1.38666
1.43284
1.46952
1.49671
1.5119
1.51431
1.49493
1.46246
1.42098
1.37504
1.32526
1.27021
1.21007
1.14304
1.06527
0.982021
0.895491
0.81229
0.734372
0.663847
0.61099
1.23679
1.27156
1.31622
1.36871
1.42479
1.48025
1.5325
1.57836
1.61643
1.64607
1.66744
1.67942
1.6804
1.66928
1.64454
1.59786
1.5478
1.49626
1.44862
1.40504
1.36458
1.32702
1.29274
1.26139
1.23292
1.20432
1.16571
1.12258
1.07676
1.03774
1.42196
1.42403
1.44368
1.47642
1.51544
1.55441
1.58909
1.6162
1.63482
1.64479
1.6463
1.63796
1.61897
1.58783
1.54127
1.4766
1.41569
1.35834
1.30961
1.27
1.24097
1.22203
1.2138
1.21657
1.22969
1.24892
1.27158
1.29265
1.3072
1.31212
0.170024
0.184829
0.18563
0.182342
0.17791
0.171747
0.164052
0.155354
0.146201
0.137095
0.128333
0.120222
0.112851
0.106465
0.101052
0.0967701
0.0936545
0.0928253
0.0965888
0.105332
0.114891
0.120507
0.120239
0.114252
0.103691
0.0897031
0.0738077
0.0568333
0.0429781
0.0323492
0.282924
0.309746
0.307722
0.297739
0.282569
0.264857
0.246174
0.227644
0.209936
0.193446
0.178345
0.164861
0.152905
0.142533
0.133666
0.126419
0.121014
0.119892
0.126025
0.139991
0.156381
0.168829
0.173823
0.170469
0.159558
0.142597
0.121635
0.0979895
0.0771492
0.0611496
0.346027
0.373044
0.372251
0.362294
0.346127
0.326697
0.305694
0.284369
0.263602
0.243979
0.225814
0.209441
0.194872
0.182327
0.171815
0.163473
0.157534
0.156718
0.16388
0.179179
0.197148
0.211316
0.217848
0.215458
0.204377
0.185943
0.162246
0.134536
0.108681
0.0875507
0.389738
0.41015
0.408847
0.398905
0.383073
0.363891
0.342857
0.321115
0.299588
0.278946
0.259633
0.242058
0.22637
0.212889
0.201834
0.193361
0.187844
0.187825
0.195408
0.210372
0.227678
0.241432
0.248036
0.246138
0.235529
0.21722
0.192906
0.163767
0.135276
0.110935
0.421345
0.432421
0.429009
0.418509
0.403315
0.385172
0.36517
0.344234
0.323226
0.302825
0.283547
0.265847
0.250024
0.236491
0.225664
0.217711
0.213152
0.214068
0.221698
0.235388
0.250859
0.263002
0.268753
0.266849
0.256855
0.239418
0.215799
0.186893
0.157485
0.131038
0.443442
0.444384
0.437498
0.425955
0.411393
0.39468
0.37634
0.356984
0.337384
0.318123
0.299726
0.282706
0.267497
0.254596
0.244605
0.237699
0.234441
0.236313
0.24373
0.255665
0.268636
0.278495
0.282793
0.280427
0.270923
0.254667
0.232484
0.204856
0.175796
0.148129
0.457505
0.449165
0.439301
0.42686
0.412606
0.396939
0.379835
0.361673
0.343839
0.326397
0.309524
0.293825
0.279827
0.268123
0.259452
0.254024
0.25232
0.255084
0.262103
0.272091
0.282277
0.289518
0.291998
0.288806
0.279587
0.264609
0.244247
0.218566
0.190621
0.162434
0.465618
0.450234
0.434718
0.419125
0.404799
0.390638
0.376214
0.361135
0.345301
0.329214
0.313935
0.300082
0.287772
0.277725
0.270761
0.267153
0.267114
0.270681
0.277172
0.285185
0.292581
0.29713
0.297609
0.293344
0.284269
0.270164
0.251323
0.227734
0.20155
0.174162
0.470776
0.447342
0.425035
0.406549
0.391811
0.378881
0.366496
0.353861
0.340738
0.327488
0.314606
0.302356
0.292011
0.28393
0.278988
0.277441
0.279023
0.28328
0.289157
0.29528
0.300062
0.302071
0.300502
0.294968
0.28537
0.271884
0.254587
0.233179
0.209175
0.183257
0.473405
0.441467
0.412616
0.39119
0.375699
0.36358
0.352974
0.342654
0.332207
0.321657
0.311209
0.301441
0.293195
0.287282
0.284549
0.285151
0.288245
0.293015
0.298223
0.302639
0.30508
0.304817
0.301236
0.294392
0.284448
0.2713
0.255183
0.235946
0.214675
0.190746
0.473837
0.43403
0.401157
0.377004
0.360145
0.348007
0.338442
0.329875
0.321531
0.313229
0.305229
0.297891
0.291947
0.288325
0.287854
0.290525
0.294973
0.300047
0.304567
0.307506
0.308069
0.305761
0.300458
0.292731
0.282533
0.269761
0.254681
0.237617
0.21858
0.196481
0.471845
0.429008
0.393399
0.365943
0.347294
0.334264
0.324818
0.317197
0.310371
0.303881
0.297848
0.292641
0.289036
0.287655
0.289362
0.293886
0.299431
0.304619
0.308458
0.310165
0.309166
0.305178
0.298771
0.290419
0.280141
0.267916
0.253984
0.238199
0.220759
0.200389
0.472005
0.428433
0.391257
0.361142
0.339068
0.324335
0.314031
0.306395
0.300285
0.29498
0.290474
0.286919
0.285274
0.285934
0.289584
0.295652
0.301935
0.307048
0.310244
0.310915
0.308693
0.303702
0.296562
0.28791
0.277881
0.266232
0.252921
0.237969
0.221766
0.202905
0.474025
0.430975
0.393711
0.362649
0.338604
0.320483
0.307848
0.299205
0.292907
0.288001
0.284394
0.282019
0.281721
0.283925
0.289167
0.296373
0.303004
0.307809
0.310422
0.310239
0.307222
0.301658
0.294301
0.285847
0.275945
0.264547
0.251721
0.237427
0.222094
0.20448
0.478757
0.437044
0.400317
0.368703
0.343111
0.323079
0.308375
0.297465
0.289784
0.284395
0.280923
0.279134
0.279603
0.282571
0.288928
0.296791
0.303373
0.307712
0.309646
0.308834
0.305405
0.299847
0.292672
0.284139
0.27427
0.263062
0.250595
0.236807
0.2221
0.205474
0.486643
0.446864
0.411223
0.379443
0.352584
0.330764
0.313893
0.301092
0.291802
0.285344
0.281344
0.279431
0.280031
0.283252
0.289898
0.297898
0.304038
0.307721
0.308918
0.307699
0.304354
0.298801
0.29154
0.282932
0.273052
0.261945
0.249707
0.236288
0.222054
0.206172
0.497754
0.460325
0.426149
0.395077
0.367841
0.344735
0.32591
0.311034
0.299783
0.291709
0.286572
0.283963
0.284154
0.287134
0.293365
0.300996
0.306341
0.309124
0.309696
0.308421
0.304594
0.298587
0.291124
0.282417
0.272459
0.261347
0.249195
0.235993
0.222061
0.206768
0.511749
0.476876
0.445059
0.415292
0.388287
0.364441
0.344101
0.327316
0.314057
0.304137
0.297493
0.293768
0.293193
0.295532
0.301267
0.307829
0.312166
0.31411
0.314256
0.312277
0.307659
0.300789
0.292623
0.283427
0.272936
0.261464
0.249164
0.236002
0.222271
0.207422