/*--------------------------------*- C++ -*----------------------------------*\
  =========                 |
  \\      /  F ield         | OpenFOAM: The Open Source CFD Toolbox
   \\    /   O peration     | Website:  https://openfoam.org
    \\  /    A nd           | Version:  12
     \\/     M anipulation  |
\*---------------------------------------------------------------------------*/
FoamFile
{
    format      ascii;
    class       volScalarField;
    location    "2000/air";
    object      nut;
}
// * * * * * * * * * * * * * * * * * * * * * * * * * * * * * * * * * * * * * //

dimensions      [0 2 -1 0 0 0 0];

internalField   nonuniform List<scalar> 
243000
(
0.000112845
0.000119689
0.000122269
0.00012233
0.000120763
0.000118103
0.000114757
0.000111038
0.000107182
0.000103373
9.9726e-05
9.63284e-05
9.32209e-05
9.04531e-05
8.80245e-05
8.58934e-05
8.39755e-05
8.22046e-05
8.0514e-05
7.88237e-05
7.70448e-05
7.49255e-05
7.37692e-05
7.17025e-05
0.000314206
0.000297301
0.000255459
0.000182485
0.000173372
0.000223774
0.000424619
0.000446855
0.000447338
0.000437295
0.0004224
0.000405431
0.00038779
0.000370362
0.000353705
0.000338167
0.000323929
0.000311154
0.000299892
0.000290208
0.000282057
0.000275332
0.000269843
0.000265531
0.000262234
0.000259827
0.000258076
0.00025696
0.000254373
0.000252574
0.00024946
0.000242072
0.000227188
0.000200719
0.00018438
0.000198561
0.000529159
0.00058428
0.000610131
0.00062026
0.000621348
0.000616767
0.000608529
0.000597969
0.000585968
0.000573156
0.000559934
0.000546664
0.00053356
0.000520905
0.000508794
0.000497236
0.000486114
0.000475582
0.00046548
0.00045568
0.000445909
0.000435791
0.000424618
0.000411527
0.000394929
0.000372463
0.000342248
0.000300949
0.000265659
0.000249614
0.000532895
0.000583318
0.00061489
0.000631123
0.000636903
0.000635512
0.000629523
0.000620545
0.000609642
0.000597593
0.000584921
0.000572056
0.000559253
0.000546837
0.000534977
0.000523739
0.000513056
0.000503136
0.000493777
0.000484749
0.000475667
0.000466099
0.000455438
0.00044272
0.000426534
0.000404947
0.000376496
0.000338524
0.000302039
0.000273063
0.000532408
0.000569002
0.000600849
0.000621885
0.000633289
0.000637058
0.000635233
0.000629612
0.000621328
0.000611354
0.000600345
0.000588825
0.000577121
0.000565618
0.000554563
0.000544101
0.000534222
0.000525162
0.00051668
0.000508432
0.000499922
0.000490689
0.000480186
0.000467634
0.000451877
0.000431299
0.000404632
0.000369838
0.000334085
0.000299903
0.000539394
0.000553236
0.00057695
0.000599323
0.000615736
0.000625189
0.000628699
0.000627628
0.000623107
0.000616235
0.000607808
0.000598441
0.000588507
0.000578486
0.000568686
0.000559375
0.000550588
0.000542578
0.000535064
0.00052761
0.000519647
0.000510686
0.000500253
0.00048776
0.000472316
0.00045263
0.000427585
0.000395637
0.000361431
0.000325929
0.000554962
0.000551926
0.000561748
0.000577121
0.000592381
0.000604654
0.000612959
0.000616726
0.000616729
0.000613748
0.000608611
0.000601947
0.000594342
0.000586288
0.000578143
0.000570303
0.000562854
0.000556041
0.000549565
0.000542931
0.000535528
0.000526852
0.000516497
0.000504032
0.000488818
0.000469863
0.000446236
0.000416759
0.000384425
0.000349404
0.000579247
0.000566126
0.000561421
0.000566141
0.000575757
0.00058631
0.000595165
0.000600922
0.000604419
0.000605242
0.000603693
0.000600243
0.000595363
0.000589661
0.000583523
0.000577433
0.000571536
0.000566045
0.000560672
0.000554899
0.000548093
0.000539756
0.000529533
0.000517124
0.0005021
0.000483748
0.000461341
0.000433977
0.000403651
0.000369879
0.000604862
0.000587182
0.000573308
0.000566811
0.000567744
0.000573283
0.00058027
0.000586331
0.000590833
0.000593288
0.000594614
0.000594251
0.000592299
0.000589184
0.000585308
0.000581194
0.000577026
0.000572976
0.000568779
0.000563917
0.000557763
0.000549839
0.000539834
0.000527546
0.000512722
0.000494887
0.00047356
0.000448055
0.000419603
0.000387416
0.000630657
0.00061213
0.000593107
0.000578289
0.000569877
0.000567849
0.000570189
0.000574308
0.000578515
0.000581749
0.000583999
0.000585485
0.000586026
0.000585476
0.000583961
0.000581961
0.000579649
0.000577146
0.000574202
0.000570314
0.000564881
0.000557458
0.000547774
0.000535702
0.000521125
0.0005038
0.0004834
0.000459392
0.000432669
0.000402234
0.000656151
0.000637209
0.000616594
0.00059731
0.000581742
0.0005717
0.000567268
0.000566948
0.000568911
0.000571537
0.000574022
0.000576088
0.000577866
0.000579329
0.000580022
0.000580127
0.000579702
0.000578826
0.000577207
0.000574368
0.000569736
0.000562908
0.000553659
0.000541918
0.000527699
0.000510839
0.000491196
0.00046847
0.000443294
0.000414716
0.000681074
0.00066209
0.000641456
0.000620548
0.000600947
0.000584622
0.000573086
0.00056658
0.000564119
0.000564243
0.000565659
0.000567551
0.000569569
0.000571871
0.000574191
0.000576161
0.000577553
0.000578286
0.000578036
0.000576336
0.000572577
0.000566441
0.000557754
0.000546489
0.00053267
0.000516275
0.000497326
0.0004757
0.000451886
0.000425055
0.000705211
0.000686424
0.000666747
0.000645528
0.000624312
0.000604362
0.000587317
0.000574459
0.000566168
0.000561893
0.00056046
0.000560907
0.000562368
0.000564526
0.000567418
0.000570681
0.000573615
0.000575851
0.000576942
0.000576359
0.000573597
0.000568312
0.000560285
0.000549554
0.000536222
0.000520355
0.000502083
0.00048144
0.000458834
0.000433612
0.000728405
0.000709904
0.000690748
0.000670214
0.00064904
0.000627819
0.00060767
0.000589989
0.000575981
0.000566191
0.000560362
0.000557702
0.000557323
0.000558525
0.000560896
0.000564504
0.000568435
0.0005719
0.000574225
0.000574767
0.000572984
0.000568507
0.000561294
0.000551267
0.000538548
0.000523308
0.000505805
0.000486326
0.000464985
0.00044149
0.000750446
0.000732306
0.000713706
0.000694098
0.00067368
0.000652607
0.000631414
0.000611054
0.000592773
0.000577752
0.000566669
0.000559539
0.000555861
0.000554883
0.000555934
0.000558657
0.000562739
0.000566937
0.000570236
0.000571808
0.000570995
0.000567435
0.000560997
0.000551785
0.000539843
0.000525672
0.000509346
0.000491038
0.000470921
0.000448937
0.000771139
0.000753431
0.000735476
0.0007169
0.000697525
0.000677292
0.000656345
0.00063513
0.000614505
0.000595651
0.00057973
0.000567554
0.000559376
0.000554907
0.000553492
0.00055453
0.000557522
0.000561646
0.000565449
0.000567815
0.000567888
0.000565251
0.000559723
0.000551512
0.000540815
0.000527808
0.000512653
0.000495514
0.000476592
0.000455984
0.000790288
0.000773095
0.000755875
0.000738394
0.000720192
0.000701108
0.000681064
0.000660169
0.00063885
0.00061793
0.000598525
0.000581822
0.000568757
0.000559787
0.000554716
0.000553031
0.000554061
0.000556959
0.000560527
0.00056325
0.000564016
0.000562271
0.000557946
0.000550952
0.000541484
0.000529664
0.000515685
0.000499711
0.000481962
0.000462632
0.000807723
0.00079114
0.000774746
0.000758389
0.000741421
0.000723609
0.000704774
0.000684842
0.000663925
0.000642451
0.000621202
0.000601281
0.000583919
0.000570209
0.000560641
0.00055518
0.000553298
0.00055413
0.000556499
0.000558924
0.000560108
0.000559216
0.00055595
0.000550119
0.000541845
0.000531214
0.000518408
0.000503596
0.000487002
0.000468882
0.00082328
0.000807406
0.000792
0.000776738
0.000760995
0.000744497
0.000727015
0.000708372
0.000688491
0.000667501
0.000645813
0.00062421
0.000603825
0.000585998
0.000571799
0.000561865
0.000556143
0.000554001
0.000554346
0.000555748
0.000556772
0.000556332
0.000553882
0.000549089
0.000541925
0.000532452
0.000520803
0.000507141
0.00049169
0.000474736
0.000836789
0.000821758
0.000807542
0.000793301
0.000778748
0.000763573
0.000747507
0.000730312
0.000711806
0.000691929
0.000670801
0.000648851
0.000626907
0.000606184
0.000587989
0.000573529
0.000563388
0.000557417
0.000554846
0.000554373
0.000554513
0.000553991
0.000552
0.00054802
0.000541828
0.000533424
0.00052289
0.00051035
0.000496024
0.0004802
0.000848344
0.000834458
0.00082108
0.00080786
0.000794499
0.000780671
0.000766064
0.00075041
0.000733472
0.000715077
0.000695159
0.000673852
0.000651644
0.000629425
0.000608399
0.000590032
0.00057546
0.000565138
0.000558841
0.000555594
0.000554011
0.000552724
0.000550707
0.000547185
0.000541743
0.000534266
0.000524756
0.000513284
0.00050004
0.000485298
0.000857649
0.000844635
0.000832256
0.000820178
0.000808092
0.000795673
0.000782598
0.000768588
0.000753399
0.00073679
0.000718556
0.000698617
0.000677152
0.00065471
0.00063218
0.000610954
0.000592453
0.000577715
0.000567148
0.000560311
0.000556119
0.000553245
0.000550488
0.000546928
0.000541924
0.000535174
0.000526554
0.000516059
0.000503828
0.000490108
0.000864571
0.000852629
0.000841331
0.000830443
0.000819669
0.00080872
0.000797306
0.000785184
0.000772233
0.000757988
0.000742049
0.00072417
0.000704243
0.00068262
0.000659687
0.000636617
0.000614652
0.000595637
0.000580566
0.000569525
0.000561874
0.00055652
0.000552257
0.000547989
0.000542907
0.000536515
0.000528546
0.000518871
0.000507546
0.000494762
0.000869552
0.000858818
0.000848704
0.00083903
0.000829611
0.000820489
0.000811356
0.000801708
0.000791183
0.000779388
0.000765893
0.000750366
0.000732491
0.00071243
0.000690124
0.000666389
0.000642141
0.000619411
0.000600024
0.000584488
0.000572685
0.00056393
0.000557206
0.000551406
0.00054556
0.000538993
0.000531261
0.000522112
0.000511485
0.000499511
0.000872926
0.000863568
0.000854788
0.000846472
0.000838645
0.000831512
0.000824551
0.000817255
0.000809208
0.000799999
0.00078916
0.000776304
0.000760941
0.0007431
0.000722321
0.000699091
0.000674412
0.000649892
0.000627139
0.0006073
0.000590915
0.000577882
0.000567582
0.0005591
0.00055147
0.000543877
0.000535715
0.000526591
0.000516296
0.00050483
0.00087514
0.000867468
0.000860355
0.000853797
0.000847717
0.000842158
0.000836976
0.000831868
0.000826447
0.000820258
0.000812783
0.000803497
0.000791836
0.000777489
0.000760081
0.000739499
0.000716145
0.000691156
0.000666144
0.000642537
0.000621405
0.000603274
0.000588099
0.000575383
0.000564386
0.000554329
0.000544516
0.000534388
0.000523604
0.000512044
0.000878416
0.000873427
0.000869025
0.000865252
0.000862132
0.000859689
0.000857857
0.000856401
0.000854973
0.000853067
0.000850088
0.000845379
0.000838261
0.0008282
0.000814822
0.000797627
0.000776396
0.000752083
0.000725974
0.000699494
0.000673942
0.000650294
0.00062906
0.00061031
0.000593786
0.000578986
0.000565326
0.00055225
0.000539286
0.000526233
0.000893808
0.000893616
0.000894018
0.000895144
0.000897161
0.000900151
0.000904055
0.000908559
0.000913232
0.000917426
0.000920457
0.000921486
0.000919768
0.000914669
0.000905756
0.000892357
0.000873836
0.000851147
0.000825292
0.00079752
0.000768993
0.000740741
0.000713539
0.000687928
0.000664191
0.000642272
0.000621938
0.000602878
0.000584703
0.000567657
0.000974506
0.000981343
0.000987758
0.000995136
0.00100424
0.00101508
0.00102702
0.0010391
0.00105073
0.0010614
0.00107038
0.00107671
0.00107971
0.00107902
0.00107426
0.00106468
0.00104932
0.0010297
0.00100681
0.00098155
0.00095464
0.000926819
0.000898777
0.000871094
0.000844291
0.000818091
0.000792579
0.000767888
0.000744011
0.000722466
0.00130623
0.00130696
0.0013085
0.00131503
0.00132517
0.00133666
0.0013465
0.00135441
0.00136152
0.00136804
0.00137331
0.00137581
0.00137661
0.00137603
0.00137317
0.00136765
0.00135775
0.0013472
0.00133624
0.00132548
0.00131478
0.00130453
0.00129483
0.00128587
0.00127768
0.00126723
0.00125518
0.00124274
0.00123032
0.00121984
0.00015681
0.000160903
0.000159793
0.000156349
0.000151451
0.00014568
0.000139472
0.000133171
0.000127034
0.000121266
0.000115975
0.000111259
0.000107144
0.000103688
0.000100863
9.86402e-05
9.69293e-05
9.57074e-05
9.50145e-05
9.48949e-05
9.51758e-05
9.53905e-05
9.48763e-05
9.31654e-05
8.97482e-05
8.40783e-05
7.62875e-05
0.000321072
0.000315805
0.000321909
0.000683181
0.000766965
0.000747919
0.00069131
0.000624409
0.000559452
0.00050149
0.000451647
0.000409568
0.000374305
0.000344447
0.000319612
0.000298883
0.000282138
0.000268231
0.000256672
0.000246504
0.000237956
0.000230746
0.000225356
0.000222462
0.00022274
0.000225529
0.000228351
0.000228392
0.000222936
0.00021391
0.000218884
0.000252387
0.000286424
0.00107164
0.00122454
0.00123501
0.00118102
0.00109911
0.00100861
0.000920779
0.00084094
0.000770836
0.000710697
0.000659398
0.000615973
0.000579296
0.000549249
0.00052439
0.00050328
0.000483769
0.00046579
0.000447348
0.00042824
0.000410877
0.000398949
0.00039346
0.000391291
0.000387237
0.000376099
0.000357907
0.000338521
0.000336166
0.000350586
0.00133756
0.00151639
0.0015504
0.00151326
0.00143774
0.00134547
0.00125001
0.00115903
0.00107582
0.0010025
0.000938974
0.000884736
0.000838789
0.000801271
0.000770933
0.000745437
0.000721761
0.000699186
0.000673074
0.000642053
0.000609522
0.00058207
0.000563465
0.000551343
0.000539388
0.000520978
0.000494468
0.000460778
0.00043754
0.000435436
0.00150234
0.00168969
0.00173892
0.00171861
0.00165424
0.00157152
0.0014819
0.00139289
0.00130699
0.00123009
0.00116262
0.00110429
0.00105493
0.00101508
0.000983667
0.000958158
0.000934867
0.000912128
0.00088262
0.000844375
0.000800265
0.000758713
0.000726455
0.000702637
0.000681549
0.000655732
0.000622203
0.00057897
0.000541677
0.000526234
0.00160785
0.00176673
0.00183163
0.00182925
0.00178935
0.0017202
0.00163727
0.00155086
0.00146733
0.00139565
0.00133161
0.00127455
0.00122667
0.00118862
0.00115972
0.00113744
0.00111788
0.00109797
0.0010685
0.00102594
0.000974293
0.000922328
0.000878461
0.00084402
0.000813235
0.000780265
0.000740586
0.000691067
0.000644602
0.000618127
0.00166798
0.00179158
0.00184513
0.00184956
0.0018255
0.00177801
0.00171433
0.00164628
0.00157926
0.00151205
0.00145169
0.00139882
0.00135711
0.00132436
0.0013009
0.0012845
0.0012713
0.00125634
0.00122918
0.00118544
0.00112995
0.00107094
0.00101775
0.000974006
0.000935289
0.000894881
0.000849859
0.000795952
0.000743257
0.00070727
0.00172008
0.00178464
0.00180884
0.00180716
0.00179073
0.00176162
0.0017219
0.001677
0.00162686
0.00157585
0.00152733
0.00148612
0.00145087
0.00142541
0.00140997
0.00140174
0.00139694
0.00138816
0.00136512
0.00132325
0.00126675
0.00120364
0.00114367
0.00109187
0.00104617
0.00100074
0.000950564
0.000893642
0.000836781
0.000793109
0.00175779
0.00176928
0.00176567
0.00175108
0.00173241
0.00171032
0.00168401
0.00165485
0.00162361
0.00159432
0.00156217
0.00153409
0.00151076
0.00149592
0.00148994
0.00149191
0.00149648
0.0014953
0.00147792
0.00143983
0.00138476
0.00132046
0.00125626
0.0011983
0.00114642
0.00109654
0.00104386
0.000984904
0.000925382
0.000874735
0.0018045
0.00178374
0.00174083
0.00170555
0.00167454
0.00164976
0.00162821
0.00160855
0.00158986
0.00157366
0.00155951
0.00154851
0.00154007
0.00153803
0.00154354
0.00155706
0.00157198
0.0015796
0.00156916
0.00153647
0.00148493
0.00142184
0.00135583
0.00129386
0.00123685
0.00118372
0.0011291
0.00106862
0.00100731
0.000951478
0.00185913
0.00181356
0.00174999
0.00168393
0.00163274
0.00159784
0.00157198
0.00155435
0.00154186
0.00153425
0.00153094
0.00153332
0.00154201
0.00155514
0.00157367
0.00159961
0.0016254
0.00164249
0.0016406
0.00161454
0.00156842
0.00150844
0.00144287
0.00137938
0.00131943
0.00126262
0.00120501
0.00114458
0.00108218
0.00102351
0.00193265
0.00186511
0.00178024
0.00169593
0.00162416
0.00156901
0.00153056
0.00150815
0.0014944
0.00148941
0.00149162
0.00150173
0.00152127
0.00155073
0.00158333
0.00162224
0.0016592
0.00168613
0.00169356
0.00167707
0.00163698
0.00158085
0.00151795
0.0014548
0.0013925
0.00133248
0.00127272
0.00121211
0.00115008
0.001091
0.00202223
0.00193593
0.00183402
0.00173425
0.0016464
0.0015756
0.00152381
0.00148552
0.00146169
0.00145324
0.00145431
0.00146644
0.00149097
0.00153004
0.00157661
0.00162815
0.00167616
0.00171294
0.00173
0.0017229
0.00169115
0.00163988
0.00157887
0.00151575
0.00145426
0.0013941
0.00133331
0.00127377
0.00121419
0.00115594
0.00212277
0.00202665
0.00191776
0.00180658
0.00170403
0.00161666
0.00154783
0.00149495
0.00145915
0.00143762
0.00143193
0.00143967
0.00146336
0.00150411
0.00155894
0.0016215
0.0016796
0.00172567
0.00175236
0.00175477
0.00173197
0.00168747
0.00163087
0.00156969
0.00150854
0.00144977
0.00139082
0.00133181
0.00127351
0.00121546
0.00223343
0.00213835
0.0020274
0.00191096
0.00179918
0.00169878
0.00161417
0.00154478
0.00149199
0.00145589
0.00143705
0.00143508
0.00145104
0.0014864
0.00153893
0.001608
0.0016737
0.00172763
0.00176299
0.00177465
0.00176109
0.00172476
0.00167397
0.00161778
0.00155902
0.00149995
0.0014416
0.00138309
0.00132569
0.0012685
0.00235411
0.00226425
0.00215797
0.00204271
0.00192786
0.00181979
0.001723
0.00163821
0.00156834
0.00151505
0.00147943
0.00146215
0.00146468
0.00148806
0.00153124
0.00159437
0.00166356
0.0017229
0.00176493
0.00178497
0.00178071
0.00175381
0.00171078
0.00165992
0.00160334
0.00154468
0.00148626
0.00142802
0.00137114
0.00131525
0.00248024
0.00239993
0.00230351
0.00219517
0.00208305
0.00197305
0.00186866
0.00177261
0.00168837
0.00161853
0.00156489
0.00152925
0.0015132
0.00151866
0.00154588
0.00159463
0.00165574
0.00171624
0.00176216
0.00178874
0.00179407
0.0017773
0.00174063
0.0016942
0.00164142
0.00158433
0.00152578
0.00146734
0.00141052
0.0013557
0.00260603
0.00253912
0.00245654
0.00235975
0.00225539
0.00214828
0.00204225
0.00194064
0.00184675
0.00176361
0.0016934
0.00163861
0.00160133
0.00158432
0.00158989
0.00161691
0.00166207
0.00171336
0.00175898
0.00178952
0.00180134
0.00179213
0.00176265
0.00172166
0.00167358
0.00161896
0.00156054
0.00150178
0.00144481
0.00139075
0.00272692
0.00267516
0.00260851
0.00252628
0.00243363
0.00233477
0.00223325
0.00213194
0.00203381
0.00194178
0.00185818
0.00178562
0.00172674
0.00168477
0.00166468
0.00166523
0.00168538
0.00172041
0.00175831
0.00178822
0.00180256
0.00179937
0.00177752
0.00174319
0.00169971
0.00164798
0.00159005
0.00153192
0.00147515
0.00142174
0.00283551
0.00279928
0.00274986
0.0026852
0.00260846
0.00252253
0.00243031
0.00233413
0.00223634
0.00213947
0.00204566
0.00195744
0.00187791
0.00181163
0.00176275
0.0017342
0.0017249
0.00173614
0.00175909
0.0017828
0.00179732
0.00179841
0.0017849
0.00175648
0.00171702
0.00166861
0.00161462
0.0015587
0.00150318
0.00145065
0.00293017
0.00290812
0.00287566
0.0028296
0.00277087
0.00270064
0.00262055
0.00253227
0.00243729
0.00233754
0.00223496
0.0021322
0.00203304
0.0019432
0.00186588
0.00180775
0.00176889
0.00175273
0.00175554
0.00176806
0.00177997
0.00178505
0.00177948
0.00176029
0.00172876
0.00168706
0.00163847
0.00158575
0.00153154
0.00147934
0.00300937
0.00299856
0.00298082
0.00295197
0.00291072
0.00285612
0.00278803
0.00270702
0.00261356
0.00250922
0.00239627
0.00227818
0.00215989
0.00204801
0.00194697
0.00186118
0.00179568
0.00175322
0.00173388
0.00173195
0.00173869
0.00174713
0.00175069
0.00174349
0.00172391
0.00169308
0.00165257
0.00160608
0.00155625
0.00150721
0.00306792
0.00306458
0.00305752
0.00304179
0.00301401
0.00297075
0.00290989
0.00283058
0.00273232
0.00261768
0.00249056
0.00235614
0.00222117
0.00209214
0.00197587
0.00187245
0.00178508
0.00172098
0.00167999
0.00166092
0.00165886
0.00166803
0.00168069
0.0016884
0.00168559
0.00167132
0.00164591
0.00161101
0.00156992
0.00152786
0.00309422
0.00309298
0.00309016
0.00308004
0.00305721
0.0030153
0.00295131
0.00286464
0.00275601
0.00262907
0.00249015
0.00234634
0.00220551
0.00207282
0.00195429
0.0018461
0.00174785
0.00166714
0.00160513
0.00156434
0.00154479
0.00154451
0.00155808
0.00157686
0.00159194
0.001599
0.00159562
0.00158136
0.00155755
0.00152826
0.00306075
0.00305366
0.00304579
0.00303062
0.00300131
0.00295097
0.00287817
0.00278335
0.0026697
0.00254338
0.00241216
0.00228186
0.00215827
0.00204352
0.0019415
0.00184555
0.00174881
0.00165709
0.00157521
0.00150769
0.00145827
0.00142947
0.00142116
0.00142883
0.0014455
0.00146489
0.00148144
0.00149118
0.00149215
0.00148526
0.00291332
0.00289292
0.0028721
0.00284614
0.0028104
0.00276093
0.00269626
0.00261806
0.00253054
0.00243891
0.00234806
0.00226094
0.0021785
0.00209916
0.00202358
0.00194986
0.00186547
0.00177488
0.00168208
0.00159235
0.00151044
0.00144111
0.00138823
0.00135346
0.00133591
0.00133284
0.00133999
0.00135257
0.00136608
0.00137903
0.00260416
0.00258561
0.00257489
0.00256935
0.00256397
0.00255418
0.00253695
0.00251182
0.00248049
0.00244398
0.0024042
0.00236266
0.00231937
0.00227359
0.00222303
0.00217042
0.00210283
0.00202364
0.00193528
0.00184182
0.00174647
0.00165296
0.00156513
0.00148661
0.00142035
0.00136768
0.00132873
0.00130228
0.00128626
0.00128463
0.00231723
0.00235831
0.00241227
0.00246839
0.00251727
0.00255505
0.00258046
0.00259388
0.00259777
0.00258921
0.00257213
0.00254947
0.00252178
0.0024901
0.00245318
0.00241336
0.00236318
0.00230438
0.00223719
0.00216429
0.0020857
0.00200371
0.00192002
0.00183594
0.00175457
0.00167735
0.00160625
0.001542
0.00148536
0.00145189
0.00239307
0.00245829
0.00252642
0.00259098
0.00264405
0.00268206
0.00270879
0.00272126
0.00272251
0.00271413
0.00269881
0.00267856
0.00265217
0.00262308
0.00259225
0.00255712
0.00252035
0.00248065
0.00243748
0.00239398
0.00234951
0.00230598
0.00226334
0.00221941
0.00217743
0.00213337
0.00208826
0.00204253
0.00199783
0.00197041
0.00260327
0.00264204
0.00267974
0.00271497
0.00273901
0.00275083
0.00275521
0.002752
0.00274311
0.00273007
0.00271351
0.00269389
0.00266982
0.002646
0.00261966
0.00259354
0.00257113
0.00254928
0.00252878
0.0025118
0.00250059
0.00249569
0.00249663
0.00250292
0.00250829
0.00251365
0.00251866
0.00252088
0.00252127
0.00251394
0.000190225
0.000191927
0.000187012
0.000180689
0.00017353
0.00016576
0.000157713
0.000149725
0.000142059
0.000134936
0.000128465
0.000122751
0.000117824
0.000113782
0.000110599
0.000108294
0.000106808
0.000106309
0.000107244
0.000109889
0.000113521
0.000116789
0.00011861
0.000118318
0.000115574
0.000110049
0.000101859
9.05777e-05
8.02012e-05
7.88196e-05
0.000898187
0.00100133
0.000989564
0.000928002
0.000844656
0.000760881
0.000685425
0.00062028
0.000565259
0.000519206
0.000480263
0.000448023
0.000420651
0.000398465
0.000379584
0.000363219
0.000346945
0.000332676
0.000321342
0.000315699
0.000317709
0.000326509
0.000338439
0.000347673
0.000348135
0.000336845
0.000315845
0.000287434
0.000264152
0.0002514
0.00143289
0.00163755
0.00166536
0.00160606
0.00150591
0.00139132
0.00127802
0.00117395
0.00108225
0.00100344
0.000935851
0.000879587
0.000832464
0.00079429
0.000762588
0.000734745
0.000705601
0.000676836
0.000645889
0.000616971
0.00059862
0.000594787
0.000601644
0.000609465
0.000605252
0.000585603
0.000549168
0.000497583
0.000450036
0.000421653
0.00181603
0.00205603
0.00211339
0.00207458
0.00198316
0.00186618
0.00174183
0.00162172
0.00151194
0.00141487
0.00133035
0.00125923
0.00119985
0.00115245
0.0011146
0.00108249
0.00104896
0.00101342
0.000968539
0.000919172
0.000877489
0.000854097
0.000847858
0.000847928
0.000838155
0.000809722
0.00076174
0.000694458
0.000627099
0.000582118
0.00209396
0.00233186
0.00240527
0.00238625
0.00231026
0.00220259
0.00208081
0.00195913
0.00184467
0.00174043
0.00164842
0.0015703
0.00150545
0.00145422
0.00141514
0.00138347
0.00135074
0.00131252
0.00125772
0.00119375
0.00113352
0.00109036
0.00106854
0.00105819
0.00104239
0.00100715
0.000951955
0.000874723
0.000794388
0.000733637
0.00229574
0.00250726
0.00259085
0.00258999
0.00252998
0.00243063
0.00231435
0.00220166
0.00209276
0.0019893
0.00189738
0.00181881
0.00175396
0.00170369
0.0016673
0.00163939
0.00161033
0.00157167
0.00150989
0.00143332
0.0013592
0.0013003
0.00126366
0.00124197
0.00121944
0.00118151
0.0011215
0.00103926
0.000950467
0.000877157
0.00244152
0.00261996
0.00269737
0.00270407
0.00266087
0.00258716
0.00249202
0.00238397
0.00227457
0.00217078
0.00208604
0.00201254
0.00195217
0.00190712
0.00187646
0.00185504
0.00183185
0.00179374
0.00172719
0.00164095
0.00155645
0.00148516
0.00143547
0.0014023
0.00137238
0.00133222
0.00127287
0.00118922
0.00109639
0.00101227
0.00254643
0.00268787
0.00274471
0.0027485
0.00271473
0.00265519
0.00257756
0.00248846
0.00239816
0.0023125
0.00222969
0.00215925
0.00210642
0.00206959
0.00204758
0.00203504
0.00201897
0.00198028
0.00191058
0.00181979
0.00172894
0.00164804
0.0015869
0.00154281
0.001505
0.00146286
0.00140681
0.00132644
0.00123266
0.00113895
0.00263922
0.00272422
0.00274767
0.00273991
0.00271069
0.00266456
0.00260533
0.00253694
0.00246502
0.00239373
0.00232558
0.00226846
0.00222353
0.00219637
0.00218531
0.00218368
0.00217487
0.00213856
0.00206785
0.00197571
0.00187936
0.00179176
0.00172109
0.00166706
0.00162235
0.00157787
0.00152124
0.00144607
0.00135325
0.0012562
0.00272543
0.00274525
0.00273458
0.00271462
0.00268436
0.00264525
0.00259819
0.00254515
0.00248931
0.00243486
0.00238396
0.00234098
0.00230859
0.00229368
0.00229398
0.00230409
0.00230293
0.00227024
0.00220156
0.00210953
0.00201101
0.00191888
0.00184087
0.00177903
0.00172622
0.0016756
0.00161806
0.00154695
0.00146044
0.0013657
0.00280677
0.00278271
0.00273922
0.00269554
0.00265598
0.00261608
0.00257443
0.00253191
0.00248928
0.00244857
0.00241193
0.00238514
0.00236744
0.00236552
0.00237788
0.0023994
0.00240605
0.00237872
0.00231388
0.00222449
0.00212667
0.00203199
0.00194932
0.00187789
0.00181607
0.00176018
0.00170172
0.00163337
0.0015539
0.00146527
0.00288463
0.00284227
0.00277937
0.00270904
0.00264221
0.00259437
0.00255019
0.00251216
0.00247801
0.0024477
0.00242323
0.00240806
0.00240555
0.00241764
0.00244144
0.0024736
0.00248813
0.00246702
0.00240845
0.00232433
0.00222835
0.00213121
0.00204261
0.00196512
0.00189691
0.00183516
0.00177577
0.00171156
0.00164035
0.00155828
0.00295815
0.00289983
0.00282226
0.00273827
0.00266387
0.00259449
0.00253978
0.00250073
0.00246944
0.00244408
0.00242826
0.00242261
0.0024299
0.00245497
0.00248937
0.00253082
0.00255251
0.00253851
0.00248772
0.00241141
0.00231848
0.00222216
0.00213096
0.00204853
0.00197532
0.00190887
0.00184779
0.00178512
0.00171802
0.00164186
0.00304802
0.00297821
0.00288895
0.00279135
0.00270019
0.00262098
0.00256114
0.00251114
0.00247732
0.00244892
0.00243804
0.00243815
0.0024522
0.00248319
0.00252681
0.00257524
0.00260302
0.00259623
0.00255472
0.00248711
0.00239918
0.00230516
0.00221463
0.00212956
0.00205276
0.00198202
0.00191611
0.00185255
0.00178725
0.00171557
0.00315073
0.00307531
0.0029774
0.00287021
0.00277059
0.00268076
0.00260735
0.00254762
0.00250346
0.00247842
0.00246365
0.00246398
0.00247973
0.00251117
0.00255822
0.00261047
0.00264259
0.00264267
0.00261075
0.00255264
0.00247155
0.00238169
0.00229309
0.00220808
0.00212836
0.00205382
0.00198368
0.00191666
0.00185065
0.00178154
0.00326418
0.00318681
0.00309182
0.00298521
0.00287873
0.00277936
0.00269336
0.00262222
0.0025677
0.00253176
0.00251095
0.00250622
0.00251716
0.00254436
0.00258693
0.00263855
0.00267246
0.00267852
0.00265573
0.00260802
0.00253558
0.00245174
0.00236612
0.00228254
0.00220154
0.00212424
0.00205041
0.00197865
0.00191026
0.00184193
0.003385
0.00331696
0.00322938
0.00312697
0.00301953
0.00291458
0.00281869
0.00273564
0.00266824
0.00261849
0.00258552
0.00256932
0.00256933
0.00258573
0.00261625
0.00265853
0.00269062
0.00270078
0.00268704
0.00265051
0.00258814
0.00251186
0.00243175
0.00235165
0.00227101
0.00219215
0.00211533
0.00203876
0.00196728
0.00189845
0.00351634
0.00345871
0.00338148
0.00328744
0.00318423
0.00307855
0.00297675
0.00288365
0.00280293
0.0027372
0.00268707
0.00265279
0.00263408
0.00263135
0.00264301
0.00266777
0.00269041
0.00270158
0.00269602
0.00267128
0.00262238
0.00255857
0.00248715
0.00241133
0.00233276
0.00225401
0.00217493
0.0020956
0.0020217
0.00195185
0.00365159
0.00360339
0.00353876
0.00345628
0.0033614
0.0032594
0.00315579
0.0030554
0.00296222
0.00287922
0.00280797
0.00274932
0.00270401
0.00267335
0.00265817
0.00265714
0.00266332
0.00267001
0.00266993
0.00265796
0.00262663
0.00257622
0.00251653
0.0024493
0.00237573
0.00230027
0.00222338
0.00214652
0.00207245
0.00200219
0.00377913
0.00374228
0.00369107
0.00362178
0.00353771
0.00344233
0.00333982
0.0032342
0.00312917
0.00302766
0.00293179
0.00284335
0.00276466
0.00269868
0.00264957
0.00261621
0.00259763
0.0025923
0.00259333
0.00259295
0.00258144
0.0025544
0.00251512
0.00246517
0.00240572
0.00233918
0.00226764
0.00219359
0.00212034
0.00205036
0.00389203
0.00386614
0.00382736
0.00377087
0.00369782
0.00360965
0.00350873
0.00339779
0.00327984
0.00315759
0.00303385
0.00291197
0.00279657
0.00269262
0.00260731
0.00253958
0.00249154
0.00246643
0.00245988
0.00246452
0.00246989
0.00246779
0.00245543
0.00243142
0.00239544
0.00234779
0.00228986
0.00222719
0.00216203
0.00209593
0.00398298
0.00396459
0.00393477
0.00388795
0.0038231
0.00373939
0.00363718
0.00351785
0.00338399
0.00323845
0.00308568
0.00293175
0.00278414
0.00264928
0.00253529
0.00244123
0.00236743
0.00231879
0.00229385
0.00228894
0.00229692
0.0023098
0.00232134
0.00232617
0.00232043
0.00230177
0.00226938
0.00222445
0.00217309
0.00211917
0.00403776
0.00402143
0.00399456
0.00395114
0.00388815
0.00380262
0.00369336
0.00356118
0.00340989
0.00324298
0.00306818
0.00289522
0.00273318
0.00258822
0.00246507
0.00236502
0.00227931
0.00221145
0.00216155
0.00213059
0.00211753
0.00211984
0.00213358
0.00215285
0.00217102
0.00218207
0.00218143
0.00216681
0.00213842
0.00210471
0.00403203
0.00400957
0.00397664
0.00392762
0.00385845
0.0037644
0.00364475
0.00350131
0.0033395
0.00316651
0.00299428
0.00283196
0.00268726
0.00256279
0.0024578
0.00237258
0.00229168
0.00221515
0.00214334
0.00207972
0.00202826
0.00199249
0.00197472
0.00197422
0.00198689
0.00200645
0.00202578
0.00203862
0.0020407
0.00203121
0.00392141
0.00388506
0.0038372
0.00377544
0.00369692
0.00359918
0.0034824
0.00334992
0.0032085
0.00306654
0.00293326
0.00281424
0.00271361
0.00263025
0.0025603
0.00249845
0.00243141
0.00235571
0.00227242
0.0021849
0.00209833
0.00201822
0.00195071
0.00190092
0.00187096
0.00185961
0.00186276
0.00187442
0.00188811
0.00189892
0.00365366
0.00360229
0.0035485
0.0034926
0.00343291
0.0033658
0.00329011
0.00320756
0.00312255
0.0030404
0.00296594
0.0029008
0.0028468
0.00280168
0.00276086
0.00271628
0.00265984
0.0025899
0.00250742
0.00241382
0.00231278
0.00220801
0.00210427
0.00200829
0.00192581
0.00186051
0.00181382
0.00178436
0.00176904
0.00176931
0.00326185
0.00323352
0.00322249
0.00322483
0.00323046
0.00322932
0.0032187
0.00319862
0.00317166
0.00314132
0.00311064