/*--------------------------------*- C++ -*----------------------------------*\
  =========                 |
  \\      /  F ield         | OpenFOAM: The Open Source CFD Toolbox
   \\    /   O peration     | Website:  https://openfoam.org
    \\  /    A nd           | Version:  12
     \\/     M anipulation  |
\*---------------------------------------------------------------------------*/
FoamFile
{
    format      ascii;
    class       volScalarField;
    location    "2000/air";
    object      p_rgh;
}
// * * * * * * * * * * * * * * * * * * * * * * * * * * * * * * * * * * * * * //

dimensions      [1 -1 -2 0 0 0 0];

internalField   nonuniform List<scalar> 
243000
(
30.3736
30.2311
30.0883
29.9059
29.7248
29.5647
29.4265
29.3131
29.2229
29.1547
29.1055
29.0759
29.0618
29.0645
29.0776
29.1103
29.16
29.2326
29.3211
29.4272
29.5429
29.6598
29.7712
29.8695
29.9503
30.0114
30.0638
30.0831
30.1105
30.1144
30.3674
30.2028
30.0699
29.8957
29.7251
29.5682
29.4324
29.3203
29.2307
29.1626
29.114
29.0859
29.0725
29.0755
29.0881
29.1201
29.1686
29.2397
29.3282
29.4344
29.5507
29.67
29.7825
29.8782
29.9585
30.0176
30.0679
30.0847
30.1128
30.1044
30.3472
30.1551
30.0254
29.8515
29.6852
29.5335
29.4031
29.2961
29.2113
29.1482
29.1033
29.0781
29.0665
29.0709
29.0837
29.1154
29.1628
29.2324
29.3206
29.4269
29.5433
29.6621
29.7731
29.869
29.9517
30.0113
30.0643
30.0816
30.1146
30.0992
30.3134
30.1013
29.9591
29.7858
29.6235
29.4805
29.3593
29.2606
29.1823
29.1241
29.0827
29.06
29.0499
29.0552
29.0678
29.0989
29.145
29.2127
29.298
29.4014
29.5158
29.6344
29.7491
29.8494
29.9366
29.9998
30.0565
30.0725
30.1147
30.0942
30.2694
30.0496
29.8955
29.7223
29.5627
29.4279
29.3146
29.2225
29.1493
29.0949
29.0562
29.0352
29.0258
29.0314
29.0435
29.0733
29.1178
29.1833
29.2655
29.366
29.4784
29.5963
29.712
29.8153
29.9065
29.975
30.0375
30.0559
30.1074
30.0845
30.2175
29.9954
29.8366
29.6671
29.5114
29.3808
29.274
29.1871
29.1176
29.0658
29.0286
29.0084
28.9988
29.0039
29.0148
29.0429
29.0851
29.148
29.2268
29.324
29.4339
29.551
29.6677
29.7739
29.8694
29.943
30.0121
30.0344
30.0947
30.0706
30.1566
29.9355
29.7808
29.6184
29.4699
29.3427
29.2392
29.1559
29.0885
29.0378
29.0007
28.98
28.9691
28.9728
28.9817
29.0075
29.047
29.1067
29.1814
29.2749
29.3823
29.4986
29.6164
29.7256
29.8257
29.9046
29.9803
30.0079
30.0762
30.0524
30.0867
29.8679
29.7251
29.5744
29.4343
29.3128
29.2112
29.13
29.0635
29.0123
28.9742
28.9515
28.9379
28.939
28.9451
28.9679
29.004
29.0597
29.13
29.2196
29.3243
29.4398
29.5589
29.6711
29.7759
29.8602
29.9426
29.9762
30.052
30.0296
30.0099
29.7934
29.6618
29.5312
29.4016
29.2874
29.1887
29.108
29.0422
28.9903
28.95
28.9242
28.9065
28.9036
28.906
28.925
28.957
29.0081
29.0735
29.159
29.261
29.3758
29.4961
29.6115
29.7209
29.8107
29.8997
29.9398
30.0225
30.0025
29.9265
29.7101
29.5911
29.4781
29.3651
29.2609
29.1683
29.0892
29.0233
28.9707
28.928
28.8986
28.8758
28.8676
28.8651
28.8797
28.9067
28.9526
29.0128
29.094
29.1932
29.3074
29.4291
29.5476
29.6616
29.7569
29.8523
29.8995
29.9885
29.9715
29.8376
29.6185
29.5153
29.4182
29.3188
29.2264
29.1436
29.0693
29.0053
28.9522
28.9073
28.8742
28.8462
28.8317
28.8232
28.8327
28.854
28.8939
28.9486
29.0254
29.1219
29.2355
29.3586
29.4803
29.5989
29.6996
29.8011
29.8557
29.9504
29.9376
29.7431
29.5259
29.437
29.3547
29.268
29.1869
29.1132
29.0459
28.9856
28.9334
28.887
28.8503
28.8172
28.7962
28.7808
28.7845
28.7995
28.833
28.8818
28.954
29.0478
29.1609
29.2855
29.4104
29.5335
29.6396
29.7468
29.8092
29.909
29.9013
29.643
29.4332
29.3563
29.2889
29.2143
29.1437
29.0782
29.0177
28.9624
28.9124
28.8656
28.8261
28.7879
28.7607
28.7383
28.7356
28.7439
28.7706
28.8131
28.8806
28.9716
29.0842
29.2103
29.3386
29.466
29.5775
29.6902
29.7605
29.8649
29.8632
29.5376
29.3398
29.2734
29.2193
29.1571
29.0972
29.0398
28.9849
28.9342
28.8873
28.8412
28.8002
28.7577
28.7243
28.6956
28.6862
28.6875
28.707
28.7431
28.8058
28.8939
29.006
29.1337
29.2652
29.397
29.5139
29.6316
29.7097
29.8178
29.8242
29.4285
29.2451
29.1896
29.1467
29.0954
29.0456
28.9967
28.9482
28.9011
28.8571
28.8125
28.7708
28.7253
28.6862
28.6515
28.6359
28.6307
28.6426
28.6721
28.7297
28.815
28.9266
29.0558
29.1907
29.3267
29.4489
29.5715
29.6573
29.7682
29.7841
29.3154
29.1488
29.1038
29.0716
29.0298
28.9889
28.9478
28.9059
28.8633
28.8215
28.7783
28.7365
28.6889
28.6456
28.6051
28.5838
28.5729
28.5777
28.6003
28.6528
28.7351
28.8461
28.9769
29.1151
29.2553
29.3828
29.5099
29.6034
29.7166
29.743
29.1983
29.0507
29.0146
28.9935
28.9604
28.9272
28.8932
28.8572
28.8193
28.7801
28.738
28.6963
28.6472
28.6008
28.5555
28.5288
28.513
28.5117
28.5276
28.5749
28.6542
28.7647
28.8968
29.0382
29.1825
29.3152
29.4466
29.5477
29.663
29.7014
29.0773
28.9502
28.9218
28.9107
28.8866
28.8599
28.8326
28.8022
28.7685
28.7321
28.691
28.6493
28.5988
28.5499
28.5011
28.4699
28.4496
28.4434
28.4531
28.4956
28.572
28.6815
28.8147
28.9596
29.1081
29.2463
29.3813
29.4899
29.6074
29.6581
28.9521
28.8468
28.8255
28.822
28.8063
28.7862
28.7645
28.7398
28.7103
28.6768
28.6367
28.5948
28.5428
28.4916
28.44
28.4055
28.3817
28.3713
28.3758
28.4137
28.4871
28.5953
28.7302
28.8789
29.0316
29.1752
29.3143
29.4296
29.5497
29.6126
28.8223
28.7392
28.725
28.7273
28.7183
28.7045
28.6878
28.6679
28.6425
28.6122
28.5736
28.5316
28.4785
28.4247
28.3703
28.3335
28.3074
28.2939
28.2941
28.3278
28.3983
28.5057
28.6428
28.7953
28.9521
29.1011
29.2448
29.3665
29.4896
29.5642
28.6862
28.6263
28.6195
28.6251
28.622
28.6142
28.6024
28.5866
28.5651
28.5375
28.5006
28.4584
28.4043
28.3483
28.2914
28.2525
28.2247
28.209
28.2063
28.2366
28.3047
28.412
28.5513
28.7074
28.8685
29.0231
29.1719
29.3003
29.4272
29.5118
28.5441
28.505
28.5044
28.5133
28.5155
28.5136
28.5073
28.4958
28.4779
28.4529
28.4171
28.3746
28.3192
28.2615
28.2027
28.1621
28.1326
28.1152
28.1105
28.1385
28.2048
28.3126
28.4542
28.6138
28.7793
28.9397
29.094
29.2294
29.3609
29.4548
28.3946
28.3732
28.378
28.3908
28.3982
28.4018
28.4012
28.3943
28.3798
28.3572
28.3224
28.2793
28.2223
28.1628
28.1021
28.06
28.0295
28.011
28.005
28.0314
28.0972
28.2057
28.3497
28.5128
28.683
28.8494
29.0096
29.1524
29.2889
29.3921
28.231
28.2238
28.2337
28.2515
28.2652
28.2753
28.2807
28.279
28.2684
28.2485
28.2149
28.1712
28.1126
28.0511
27.9879
27.9439
27.9125
27.8942
27.8879
27.9137
27.9801
28.0896
28.2359
28.4023
28.577
28.7495
28.9159
29.0662
29.2083
29.3206
28.0579
28.0612
28.077
28.1004
28.1209
28.1376
28.1484
28.1514
28.1452
28.1288
28.0965
28.0523
27.9921
27.9287
27.8633
27.8171
27.7845
27.7658
27.7596
27.7861
27.8536
27.9642
28.1127
28.2822
28.4615
28.6401
28.8129
28.9709
29.1193
29.2412
27.8424
27.8519
27.8766
27.9112
27.9452
27.975
27.9965
28.0078
28.0095
27.999
27.97
27.9263
27.8655
27.8012
27.7338
27.6852
27.6501
27.6299
27.623
27.6486
27.7155
27.8257
27.9745
28.1453
28.3278
28.5112
28.6892
28.8537
29.0069
29.1368
27.6511
27.6694
27.7037
27.7494
27.7964
27.8378
27.8681
27.8857
27.8923
27.886
27.8584
27.8141
27.7516
27.6859
27.6169
27.5662
27.5286
27.5078
27.5002
27.5239
27.5883
27.6956
27.8427
28.0144
28.2
28.389
28.5733
28.7458
28.9059
29.0485
27.2526
27.2994
27.3696
27.4582
27.5482
27.6262
27.6834
27.7206
27.7419
27.7467
27.7282
27.6886
27.6292
27.564
27.4925
27.4369
27.3924
27.3675
27.3553
27.3735
27.4303
27.5271
27.6616
27.8235
28.0026
28.188
28.3689
28.5387
28.6932
28.8371
27.2734
27.3418
27.4327
27.539
27.6388
27.7161
27.7652
27.793
27.8034
27.7943
27.7645
27.7174
27.652
27.5819
27.5062
27.4476
27.4027
27.3798
27.3712
27.3938
27.4551
27.5565
27.6959
27.8645
28.0515
28.2474
28.4416
28.6279
28.7978
28.9643
26.009
26.147
26.3609
26.603
26.8194
26.9828
27.0979
27.1784
27.2277
27.2453
27.2326
27.1969
27.1394
27.0742
27.0004
26.9332
26.8704
26.8288
26.7976
26.7928
26.819
26.8797
26.9755
27.0983
27.2392
27.3842
27.5193
27.6458
27.761
27.9041
30.1599
29.9878
29.8404
29.6365
29.454
29.3026
29.1827
29.0914
29.0238
28.9759
28.9413
28.921
28.9095
28.9125
28.92
28.946
28.9862
29.0526
29.1403
29.2529
29.3811
29.5158
29.6452
29.7629
29.8675
29.9508
30.0202
30.0537
30.096
30.0813
30.1595
29.9634
29.8176
29.6206
29.4497
29.3045
29.1871
29.0971
29.0301
28.9821
28.9481
28.9285
28.9172
28.9202
28.9272
28.9525
28.9914
29.0572
29.1451
29.2582
29.387
29.5223
29.6525
29.7701
29.8745
29.9568
30.026
30.0593
30.1033
30.0801
30.151
29.9336
29.7896
29.5977
29.4331
29.292
29.1782
29.0907
29.0252
28.9779
28.9438
28.9249
28.9138
28.9166
28.9225
28.9466
28.9834
29.0465
29.1307
29.2409
29.3691
29.5054
29.6377
29.758
29.8651
29.9491
30.0216
30.052
30.1028
30.0753
30.1221
29.8944
29.7513
29.5639
29.4057
29.2708
29.1629
29.0799
29.0175
28.9716
28.9382
28.9199
28.9084
28.9107
28.9151
28.9373
28.9712
29.0308
29.1105
29.216
29.34
29.4749
29.6094
29.7331
29.8442
29.9312
30.0093
30.0404
30.0994
30.0694
30.0773
29.8462
29.7095
29.528
29.376
29.2469
29.144
29.0648
29.0048
28.9613
28.9291
28.9109
28.8985
28.8996
28.9017
28.9214
28.9516
29.007
29.0815
29.182
29.3019
29.4344
29.5687
29.6939
29.809
29.9011
29.9847
30.0195
30.0887
30.0582
30.0197
29.7907
29.6639
29.4919
29.3472
29.2243
29.1259
29.0499
28.9919
28.9504
28.9187
28.8998
28.8857
28.8849
28.8841
28.9004
28.9261
28.9766
29.0454
29.1405
29.256
29.3863
29.5205
29.6474
29.766
29.8623
29.953
29.9915
30.0719
30.0417
29.9526
29.7267
29.6132
29.4554
29.3203
29.2042
29.1104
29.0373
28.9804
28.9399
28.908
28.8877
28.8712
28.8673
28.863
28.8754
28.8958
28.9408
29.0032
29.0926
29.2038
29.332
29.4662
29.5952
29.7174
29.8182
29.9156
29.9587
30.0491
30.0197
29.8795
29.6553
29.5574
29.4197
29.2965
29.1881
29.0987
29.0274
28.971
28.9306
28.8979
28.8753
28.8557
28.848
28.8392
28.8471
28.8617
28.9002
28.9559
29.0394
29.1464
29.2727
29.4073
29.5383
29.6642
29.7695
29.8736
29.9218
30.0211
29.993
29.8035
29.5787
29.4961
29.3815
29.2734
29.1755
29.0912
29.0213
28.9645
28.9222
28.8882
28.863
28.8395
28.8276
28.8134
28.8163
28.8246
28.856
28.9047
28.9822
29.085
29.2096
29.3446
29.4778
29.6074
29.7174
29.8277
29.8816
29.9885
29.9631
29.7262
29.5007
29.4325
29.333
29.2448
29.1609
29.0851
29.0184
28.9613
28.9159
28.8793
28.8507
28.823
28.8061
28.7861
28.7835
28.785
28.8091
28.8504
28.9219
29.0207
29.1438
29.2794
29.4148
29.5481
29.6626
29.7788
29.8388
29.952
29.9304
29.6468
29.4233
29.3679
29.2837
29.2097
29.1401
29.0754
29.0147
28.9592
28.9118
28.8713
28.8387
28.8062
28.7838
28.7577
28.7491
28.7438
28.7602
28.7939
28.8594
28.9543
29.0761
29.2124
29.3501
29.4871
29.606
29.7277
29.7946
29.9124
29.8955
29.5646
29.3459
29.3032
29.2338
29.1727
29.1136
29.0584
29.0066
28.955
28.9077
28.8635
28.8272
28.7892
28.7608
28.7287
28.7135
28.7012
28.71
28.736
28.7956
28.8867
29.0073
29.1445
29.2845
29.425
29.5482
29.675
29.7497
29.8705
29.8596
29.4804
29.2689
29.2389
29.1819
29.1319
29.0834
29.0366
28.9913
28.945
28.9005
28.8548
28.8154
28.7721
28.7376
28.6988
28.6765
28.6574
28.6588
28.6775
28.731
28.8185
28.9381
29.0761
29.2185
29.3623
29.49
29.6212
29.704
29.8268
29.8231
29.3955
29.1928
29.1745
29.1292
29.0889
29.05
29.011
28.9715
28.93
28.8886
28.8436
28.8022
28.7544
28.7141
28.6677
28.6383
28.6122
28.6069
28.6185
28.6663
28.7503
28.869
29.0079
29.1528
29.2997
29.4316
29.5662
29.6574
29.7811
29.7864
29.3099
29.1173
29.1091
29.0758
29.0446
29.0136
28.9813
28.9473
28.9106
28.8724
28.8286
28.7863
28.735
28.6895
28.6358
28.5989
28.5658
28.5544
28.5594
28.6015
28.6823
28.8004
28.9404
29.0875
29.2374
29.3733
29.5101
29.6095
29.7336
29.7499
29.222
29.0413
29.042
29.0204
28.9974
28.9736
28.9474
28.9186
28.8862
28.8516
28.8091
28.7665
28.7128
28.6627
28.6025
28.5583
28.5179
28.5011
28.5001
28.5369
28.6148
28.7323
28.8734
29.0229
29.1753
29.3148
29.4534
29.5607
29.6851
29.7142
29.1315
28.9653
28.9722
28.9617
28.9469
28.9297
28.9091
28.8851
28.8568
28.8255
28.7847
28.7419
28.6861
28.6325
28.5667
28.5163
28.4687
28.4466
28.4406
28.4724
28.5473
28.6649
28.807
28.9584
29.1136
29.2569
29.3977
29.5108
29.6357
29.6796
29.0371
28.888
28.9
28.8994
28.8922
28.8814
28.8661
28.8467
28.8222
28.7937
28.7545
28.7118
28.654
28.5978
28.5272
28.4714
28.4176
28.3905
28.38
28.4075
28.4802
28.5982
28.7408
28.894
29.052
29.1996
29.3429
29.4609
29.5856
29.6448
28.9392
28.8094
28.8263
28.833
28.833
28.8284
28.8181
28.803
28.782
28.7561
28.7182
28.6756
28.6158
28.5574
28.4829
28.4226
28.3635
28.3326
28.3184
28.3423
28.4137
28.5315
28.6737
28.8292
28.9902
29.1424
29.2885
29.4114
29.5357
29.6083
28.8366
28.7301
28.7511
28.7641
28.7695
28.7705
28.765
28.7539
28.7362
28.7126
28.6758
28.6331
28.5713
28.5109
28.4331
28.3689
28.3055
28.2723
28.2555
28.2764
28.3464
28.463
28.6055
28.7638
28.9277
29.0848
29.2342
29.3622
29.4873
29.57
28.7281
28.6484
28.6735
28.6918
28.7019
28.7072
28.7066
28.6994
28.6849
28.6634
28.6273
28.5841
28.5207
28.4583
28.3786
28.3109
28.2431
28.2078
28.189
28.2075
28.2765
28.3925
28.5361
28.6968
28.8639
29.0258
29.1791
29.3122
29.4389
29.53
28.6132
28.5622
28.5912
28.6145
28.6291
28.6386
28.6422
28.6394
28.6282
28.6087
28.5731
28.5292
28.464
28.3996
28.318
28.2488
28.1772
28.1384
28.1175
28.1351
28.2038
28.3199
28.4647
28.6278
28.7981
28.9641
29.1219
29.2604
29.3892
29.4875
28.4925
28.4706
28.5034
28.5312
28.5502
28.5639
28.5717
28.5733
28.566
28.5488
28.5141
28.4695
28.403
28.3364
28.2505
28.1805
28.1062
28.065
28.0426
28.0596
28.128
28.2444
28.3904
28.5556
28.7295
28.9001
29.062
29.2061
29.3372
29.4421
28.3665
28.3704
28.4073
28.4394
28.4633
28.482
28.495
28.5022
28.5001
28.486
28.4524
28.4073
28.3401
28.2716
28.18
28.1059
28.0276
27.9857
27.9631
27.9805
28.049
28.1659
28.3135
28.481
28.6581
28.8331
28.999
29.1482
29.2826
29.3947
28.2407
28.2639
28.3051
28.3411
28.3708
28.3963
28.4165
28.4302
28.4334
28.4229
28.3906
28.3449
28.277
28.207
28.1104
28.0295
27.945
27.9007
27.8786
27.8979
27.9679
28.0849
28.2345
28.4057
28.5867
28.7666
28.9367
29.0906
29.2277
29.347
28.1043
28.1458
28.1911
28.232
28.2697
28.3052
28.3356
28.3579
28.3668
28.3601
28.3295
28.2836
28.2147
28.1433
28.0431
27.9579
27.8675
27.8193
27.7971
27.8191
27.8904
28.0065
28.1562
28.329
28.5131
28.6977
28.8729
29.0324
29.1717
29.2975
27.9894
28.0469
28.0918
28.1349
28.1803
28.2264
28.2678
28.2991
28.3137
28.3096
28.2799
28.2356
28.1666
28.0949
27.9918
27.9036
27.8085
27.755
27.7317
27.7562
27.8264
27.9417
28.0914
28.2646
28.4506
28.6388
28.8186
28.9845
29.1279
29.2654
27.8479
27.9198
27.9649
28.0186
28.0843
28.1537
28.2159
28.2631
28.2893
28.2914
28.2679
28.2291
28.1677
28.098
27.9946
27.9033
27.8029
27.744
27.7182
27.7429
27.8046
27.9085
28.0481
28.2163
28.3991
28.5869
28.765
28.93
29.0704
29.2134
27.9023
27.9683
28.0107
28.0815
28.1734
28.2688
28.3501
28.4093
28.4437
28.4536
28.4381
28.4066
28.3515
28.2881
28.1895
28.0993
27.9913
27.926
27.8936
27.9108
27.9621
28.0547
28.182
28.3366
28.5076
28.6862
28.8641
29.0307
29.1694
29.3141
28.5228
28.5933
28.6162
28.6774
28.7635
28.8514
28.9214
28.9676
28.9857
28.9793
28.9528
28.9127
28.8513
28.7867
28.6897
28.6049
28.4989
28.4352
28.4029
28.4233
28.4816
28.581
28.7134
28.8723
29.047
29.2302
29.4108
29.5805
29.7204
29.8708
30.0818
29.8753
29.7562
29.5363
29.3476
29.195
29.0823
29.0026
28.9483
28.9146
28.8929
28.8865
28.8823
28.8917
28.8929
28.9097
28.9239
28.9606
29.0118
29.0922
29.1966
29.321
29.455
29.5891
29.7201
29.8354
29.9411
30.0047
30.0752
30.0611
30.0706
29.8273
29.7175
29.5082
29.3367
29.1958
29.0865
29.0084
28.9549
28.9221
28.9016
28.8956
28.8914
28.901
28.902
28.9191
28.9332
28.9697
29.0201
29.1013
29.2064
29.3313
29.4655
29.5996
29.7302
29.8444
29.9493
30.0107
30.0834
30.0676
30.0518
29.7828
29.6808
29.4819
29.322
29.1878
29.084
29.0088
28.9562
28.9237
28.9029
28.8974
28.8931
28.9026
28.9029
28.9196
28.9322
28.9667
29.013
29.0906
29.1933
29.3183
29.4543
29.5902
29.7225
29.8372
29.9449
30.005
30.0847
30.0641
30.0124
29.7316
29.6338
29.4437
29.2945
29.1696
29.0738
29.0045
28.9555
28.9242
28.9035
28.8982
28.8936
28.9026
28.9015
28.9175
28.9275
28.959
29.0003
29.0717
29.1685
29.2911
29.4288
29.5674
29.7024
29.8186
29.9303
29.9901
30.0793
30.0553
29.9556
29.6745
29.5805
29.4007
29.2622
29.1465
29.0585
28.9947
28.9494
28.9199
28.8999
28.8956
28.8902
28.8984
28.8952
28.9096
28.9159
28.9433
28.978
29.0429
29.1333
29.2514
29.387
29.5275
29.6671
29.7864
29.9042
29.9649
30.0642
30.0392
29.8855
29.613
29.5212
29.355
29.2279
29.1216
29.0412
28.9829
28.9409
28.9138
28.8948
28.8909
28.8842
28.8913
28.8852
28.8974
28.8989
28.921
28.9484
29.0059
29.09
29.204
29.3378
29.4783
29.6206
29.7447
29.8677
29.932
30.0411
30.0164
29.8068
29.5484
29.4588
29.3094
29.1942
29.0974
29.0243
28.971
28.9323
28.9073
28.8887
28.8848
28.8762
28.8818
28.8721
28.8814
28.8773
28.893
28.9126
28.9623
29.0402
29.1505
29.2829
29.4238
29.5682
29.6962
29.8242
29.8939
30.0122
29.9882
29.7238
29.4796
29.3971
29.2646
29.162
29.0748
29.0087
28.9601
28.9243
28.9009
28.8823
28.8779
28.8668
28.8704
28.8564
28.862
28.8518
28.8604
28.8717
28.9136
28.9853
29.0922
29.2239
29.3656
29.5122
29.6432
29.7767
29.8523
29.9783
29.9558
29.6382
29.4071
29.3369
29.2212
29.1318
29.0547
28.9952
28.9507
28.9168
28.8947
28.8759
28.8704
28.8564
28.8576
28.8385
28.8399
28.8227
28.8239
28.827
28.861
28.9266
29.0306
29.1618
29.3047
29.4538
29.5874
29.726
29.8083
29.9402
29.9209
29.5521
29.336
29.2793
29.1788
29.1033
29.0366
28.9836
28.9427
28.9104
28.889
28.8695
28.8627
28.8452
28.8436
28.8189
28.8155
28.7905
28.7842
28.7794
28.8054
28.8651
28.9665
29.0978
29.2423
29.394
29.53
29.673
29.7627
29.8988
29.8842
29.4686
29.2659
29.2234
29.1375
29.0742
29.0179
28.972
28.9353
28.9048
28.8837
28.8632
28.8546
28.8335
28.8286
28.7978
28.7893
28.7557
28.742
28.7298
28.7479
28.8018
28.901
29.0327
29.1791
29.3335
29.4722
29.6188
29.7165
29.8552
29.8464
29.389
29.1964
29.1683
29.0975
29.0461
28.9987
28.9593
28.927
28.8984
28.8783
28.8568
28.8463
28.8211
28.8128
28.7755
28.7616
28.7189
28.6979
28.6785
28.6891
28.7373
28.8347
28.9673
29.116
29.2731
29.4155
29.5648
29.6701
29.8102
29.8083
29.312
29.1287
29.1143
29.0578
29.0179
28.9793
28.9459
28.9176
28.8913
28.8721
28.8497
28.8376
28.8082
28.796
28.7521
28.7327
28.6805
28.6523
28.6261
28.6297
28.6723
28.7683
28.9021
29.0536
29.2132
29.3601
29.5107
29.6227
29.763
29.7713
29.2366
29.0625
29.0601
29.0174
28.9884
28.9584
28.9311
28.907
28.8829
28.8647
28.8414
28.8278
28.7946
28.7785
28.7276
28.7028
28.6409
28.6055
28.5726
28.5699
28.6072
28.7021
28.8376
28.9924
29.1538
29.305
29.4562
29.5743
29.7144
29.7356
29.1614
28.9966
29.0042
28.976
28.9572
28.9355
28.9142
28.8941
28.8725
28.8555
28.8314
28.8165
28.7797
28.7601
28.7019
28.672
28.6004
28.5578
28.5184
28.5101
28.5422
28.6365
28.774
28.9317
29.0953
29.2501
29.4029
29.5255
29.6647
29.7011
29.086
28.9313
28.9478
28.9329
28.9234
28.9096
28.8942
28.8783
28.8596
28.8438
28.8192
28.8033
28.763
28.7403
28.6752
28.6402
28.5591
28.5092
28.4634
28.4502
28.4773
28.571
28.7104
28.8709
29.0375
29.1961
29.3508
29.4773
29.6143
29.668
29.01
28.8667
28.8902
28.8874
28.8863
28.8799
28.8704
28.859
28.8433
28.8291
28.8041
28.7875
28.7439
28.7185
28.6469
28.6075
28.5169
28.4596
28.4075
28.3898
28.4121
28.5053
28.6464
28.8098
28.9804
29.1432
29.3
29.4304
29.5655
29.6355
28.9311
28.8011
28.8314
28.8388
28.8449
28.8457
28.8422
28.8354
28.823
28.8108
28.7858
28.7687
28.7221
28.6945
28.6165
28.5737
28.4738
28.4091
28.3507
28.3285
28.3463
28.4392
28.5814
28.7481
28.9233
29.0907
29.2502
29.385
29.5198
29.6017
28.8467
28.7335
28.7704
28.7869
28.7998
28.8069
28.8091
28.807
28.7984
28.7886
28.764
28.7467
28.6974
28.6679
28.5839
28.5384
28.4297
28.3576
28.2927
28.2662
28.2792
28.3711
28.5148
28.6852
28.8654
29.0378
29.2005
29.3402
29.4751
29.5671
28.7544
28.6644
28.7071
28.7318
28.7511
28.7642
28.7714
28.7739
28.7694
28.7625
28.7388
28.7215
28.6699
28.6392
28.5494
28.5017
28.3842
28.305
28.2325
28.2013
28.209
28.3006
28.4467
28.6206
28.8059
28.9838
29.1504
29.295
29.4309
29.5315
28.6544
28.5926
28.6409
28.6733
28.6988
28.7177
28.7299
28.7367
28.7365
28.7329
28.7106
28.6937
28.6405
28.6089
28.5136
28.4642
28.3378
28.2507
28.169
28.1325
28.1363
28.229
28.3764
28.5535
28.7437
28.9275
29.0987
29.2487
29.386
29.4942
28.5465
28.517
28.571
28.6111
28.6429
28.6677
28.6852
28.6968
28.7008
28.701
28.6807
28.6646
28.6105
28.5783
28.4775
28.4265
28.2906
28.1944
28.1027
28.0616
28.0636
28.157
28.304
28.4838
28.6785
28.8683
29.0445
29.2003
29.3397
29.455
28.4323
28.4366
28.4972
28.5453
28.584
28.6151
28.6385
28.6555
28.6643
28.6685
28.6511
28.6359
28.581
28.5486
28.4424
28.3903
28.2436
28.1379
28.0359
27.9923
27.9935
28.0855
28.2307
28.4116
28.6098
28.807
28.9884
29.1497
29.2916
29.414
28.3153
28.3491
28.4193
28.4765
28.5231
28.5614
28.5915
28.615
28.6292
28.6377
28.6235
28.609
28.5533
28.5206
28.4092
28.357
28.1998
28.086
27.9744
27.9277
27.9268
28.0151
28.1575
28.3389
28.5389
28.7412
28.9298
29.098
29.2428
29.372
28.1943
28.2597
28.3422
28.4085
28.4634
28.5094
28.5473
28.5782
28.5981
28.6107
28.5988
28.5847
28.5284
28.4961
28.3791
28.3275
28.1607
28.0408
27.9174
27.8651
27.8621
27.9463
28.0855
28.2668
28.4682
28.6736
28.8679
29.0436
29.1931
29.333
28.0704
28.1734
28.2675
28.343
28.4064
28.461
28.5077
28.5469
28.5725
28.5893
28.5795
28.5668
28.5113
28.482
28.3628
28.3152
28.1398
28.0156
27.8811
27.8192
27.8108
27.884
28.0161
28.1965
28.3991
28.6075
28.807
28.9894
29.1433
29.2941
27.9597
28.1
28.202
28.2857
28.358
28.4219
28.4786
28.527
28.5596
28.5822
28.5757
28.5671
28.5139
28.4903
28.3705
28.3299
28.1474
28.0153
27.8716
27.8011
27.7883
27.8529
27.9749
28.1447
28.348
28.5592
28.762
28.9493
29.1062
29.2652
27.8659
28.0299
28.137
28.2305
28.3147
28.3936
28.465
28.5238
28.5681
28.5985
28.5956
28.592
28.5463
28.5336
28.4169
28.3928
28.206
28.0718
27.9149
27.8329
27.8143
27.8684
27.982
28.1451
28.3403
28.5514
28.7571
28.9459
29.0986
29.2553
27.8497
28.0186
28.1301
28.2313
28.328
28.419
28.499
28.5655
28.6155
28.6503
28.651
28.6538
28.6162
28.6184
28.5118
28.5141
28.333
28.2082
28.0469
27.9571
27.925
27.9654
28.0584
28.2061
28.3878
28.5862
28.78
28.9648
29.1183
29.2793
27.9095
28.0662
28.178
28.2869
28.3903
28.4864
28.5688
28.6366
28.6866
28.7229
28.7287
28.7389
28.7097
28.7285
28.6382
28.675
28.5083
28.4007
28.2423
28.1502
28.1101
28.1414
28.2219
28.353
28.5221
28.7146
28.9125
29.1039
29.2646
29.4214
29.976
29.7505
29.6686
29.418
29.2134
29.0552
28.947
28.8831
28.8485
28.8351
28.8293
28.841
28.843
28.8545
28.8362
28.8253
28.7876
28.7737
28.7666
28.8001
28.876
28.9975
29.149
29.3144
29.4861
29.6469
29.8013
29.9075
30.0222
30.0261
29.9565
29.6639
29.6011
29.3666
29.187
29.0472
28.9486
28.8873
28.854
28.8428
28.8382
28.8501
28.8515
28.8624
28.8433
28.8331
28.7965
28.7849
28.7788
28.8112
28.8874
29.0097
29.1616
29.327
29.4983
29.6579
29.8116
29.9155
30.0317
30.0336
29.9299
29.5973
29.5422
29.3266
29.1655
29.037
28.9465
28.8887
28.8568
28.8472
28.8434
28.8552
28.8555
28.8652
28.8442
28.8331
28.7946
28.7812
28.7709
28.7976
28.8695
28.9958
29.1514
29.3188
29.4911
29.6507
29.807
29.9103
30.0336
30.03
29.8771
29.53
29.4751
29.277
29.1332
29.0178
28.9377
28.8876
28.8583
28.8506
28.848
28.8598
28.8589
28.8673
28.8433
28.83
28.7873
28.7706
28.7554
28.7754
28.8404
28.9631
29.1238
29.2948
29.4688
29.6291
29.7882
29.8938
30.026
30.0183
29.8019
29.4586
29.4051
29.2248
29.0983
28.9958
28.9256
28.8829
28.8584
28.8523
28.8506
28.8624
28.8599
28.8664
28.8383
28.8212
28.7718
28.7497
28.7281
28.7409
28.7996
28.9179
29.0762
29.2527
29.4301
29.5927
29.756
29.8651
30.0066
29.998
29.71
29.3831
29.3327
29.1697
29.06
28.972
28.912
28.8764
28.8567
28.8529
28.8523
28.8639
28.8593
28.8636
28.8304
28.8081
28.7498
28.7202
28.6913
28.6969
28.7497
28.8649
29.0217
29.1992
29.3804
29.5461
29.7144
29.8272
29.9769
29.9696
29.6082
29.3049
29.2593
29.1135
29.0212
28.9471
28.8978
28.8696
28.8541
28.8532
28.8532
28.8645
28.8572
28.859
28.8196
28.7912
28.7218
28.6834
28.6466
28.6454
28.6929
28.8062
28.9624
29.1395
29.324
29.493
29.6657
29.7836
29.9393
29.9353
29.5015
29.2248
29.1869
29.06
28.9853
28.9244
28.885
28.8634
28.8519
28.8533
28.8534
28.8644
28.8541
28.853
28.8063
28.7706
28.6886
28.6404
28.5954
28.5882
28.631
28.7433
28.9001
29.0774
29.264
29.4365
29.6122
29.736
29.8959
29.8969
29.394
29.145
29.1177
29.0109
28.9525
28.9041
28.8737
28.858
28.85
28.8532
28.8532
28.8639
28.85
28.8458
28.791
28.7471
28.6513
28.5922
28.5391
28.5267
28.5654
28.6779
28.8362
29.0142
29.2027
29.3784
29.556
29.686
29.8486
29.8572
29.2892
29.0691
29.0534
28.9664
28.923
28.886
28.864
28.8536
28.8486
28.8532
28.8528
28.8629
28.8453
28.8376
28.7739
28.7212
28.6105
28.5398
28.4789
28.462
28.4976
28.6115
28.7723
28.9514
29.1421
29.3206
29.4992
29.6358
29.7989
29.8171
29.1899
28.9984
28.9941
28.9264
28.8967
28.8704
28.8559
28.8502
28.8478
28.8534
28.8525
28.8618
28.8401
28.8288
28.7554
28.6933
28.5667
28.4844
28.416
28.3955
28.4292
28.5451
28.7093
28.8902
29.0839
29.265
29.4449
29.5859
29.7471
29.7775
29.0992
28.9333
28.9384
28.8896
28.8727
28.8563
28.8487
28.8475
28.8474
28.8542
28.8522
28.8605
28.8343
28.8193
28.7356
28.664
28.5206
28.427
28.3517
28.3282
28.3609
28.4796
28.648
28.8319
29.0288
29.2129
29.3929
29.5356
29.6951
29.7394
29.017
28.872
28.8856
28.8553
28.8501
28.8431
28.842
28.8447
28.8468
28.855
28.852
28.859
28.8277
28.8091
28.7147
28.6333
28.4728
28.3686
28.2866
28.2609
28.2932
28.4158
28.5881
28.7769
28.9765
29.1628
29.3421
29.4873
29.6447
29.7034
28.9401
28.8136
28.8358
28.8233
28.8281
28.8301
28.8349
28.8415
28.8458
28.8554
28.8516
28.8573
28.8206
28.7982
28.6927
28.6015
28.424
28.3099
28.2216
28.194
28.2265
28.3535
28.53
28.7237
28.9257
29.1142
29.294
29.4417
29.5968
29.6699
28.8682
28.7578
28.7894
28.7926
28.8063
28.8163
28.8268
28.8374
28.8441
28.8551
28.8509
28.8555
28.813
28.7867
28.6696
28.569
28.3746
28.2515
28.1568
28.1278
28.1613
28.2922
28.4723
28.6707
28.8761
29.068
29.2491
29.3996
29.5529
29.6376
28.7991
28.7043
28.7459
28.7616
28.7838
28.8015
28.8176
28.8322
28.8416
28.8541
28.8493
28.853
28.805
28.7747
28.6455
28.536
28.3251
28.1939
28.0925
28.0629
28.0968
28.2306
28.4138
28.6185
28.8284
29.0242
29.2071
29.3605
29.5124
29.6063
28.7316
28.6529
28.7036
28.7301
28.7602
28.7851
28.8066
28.8255
28.8376
28.8516
28.8466
28.8495
28.7965
28.7624
28.6207
28.5029
28.276
28.1373
28.0293
27.9983
28.0312
28.1676
28.3557
28.5668
28.7818
28.9821
29.1673
29.3239
29.4746
29.5765
28.6644
28.6026
28.6613
28.6975
28.735
28.7667
28.7937
28.8168
28.8319
28.8477
28.8426
28.8452
28.7873
28.7501
28.5958
28.4706
28.2281
28.0823
27.9657
27.9318
27.9648
28.1052
28.2977
28.5148
28.7358
28.9414
29.1292
29.2891
29.439
29.5475
28.5945
28.5513
28.6178
28.6633
28.7079
28.7462
28.7785
28.8061
28.8244
28.8422
28.8374
28.8401
28.7778
28.7382
28.5713
28.4404
28.1815
28.0277
27.9012
27.8656
27.9003
28.0425
28.2356
28.4611
28.6895
28.9011
29.0923
29.2558
29.4049
29.5192
28.5185
28.4976
28.5722
28.6269
28.6786
28.7235
28.7611
28.7934
28.8151
28.8355
28.8313
28.8345
28.7684
28.7271
28.5478
28.4121
28.1358
27.9739
27.8392
27.8032
27.8366
27.9755
28.1712
28.4052
28.6414
28.8602
29.0557
29.2231
29.372
29.4918
28.4351
28.4394
28.5235
28.5876
28.647
28.6986
28.7418
28.7789
28.8044
28.8279
28.8253
28.8291
28.7598
28.7176
28.5261
28.3859
28.0941
27.928
27.7826
27.7426
27.7692
27.9051
28.1057
28.3465
28.5901
28.8171
29.0187
29.1905
29.3398
29.4648
28.3453
28.3743
28.4701
28.5455
28.6133
28.6719
28.7209
28.7632
28.7931
28.8204
28.82
28.8248
28.7528
28.7101
28.5065
28.3632
28.0582
27.8888
27.7292
27.6819
27.7004
27.8346
28.0389
28.285
28.5355
28.7704
28.9794
29.1578
29.3082
29.4383
28.2462
28.3042
28.4136
28.5012
28.5779
28.6439
28.6992
28.7473
28.7822
28.8139
28.8158
28.8238
28.7488
28.707
28.4893
28.3457
28.0254
27.8493
27.6732
27.619
27.6361
27.7693
27.9705
28.2204
28.4778
28.7202
28.9362
29.1225
29.2766
29.4129
28.1391
28.2318
28.3556
28.4557
28.5419
28.6157
28.678
28.7326
28.7729
28.809
28.8131
28.8246
28.7484
28.708
28.4761
28.3367
27.9966
27.8139
27.6252
27.5671
27.5836
27.7096
27.9042
28.1509
28.4167
28.6676
28.8911
29.0844
29.2429
29.3894
28.0269
28.1618
28.299
28.4112
28.5069
28.5889
28.6586
28.7197
28.7648
28.8052
28.8117
28.8269
28.7501
28.7127
28.4698
28.3342
27.9743
27.7911
27.5897
27.5265
27.5407
27.6604
27.8458
28.0872
28.3543
28.6143
28.8465
29.0478
29.211
29.3667
27.9173
28.0955
28.2457
28.3691
28.4737
28.5638
28.6405
28.7078
28.7576
28.8026
28.813
28.8331
28.7552
28.723
28.4721
28.3468
27.9667
27.7846
27.572
27.5029
27.5139
27.623
27.7989
28.0405
28.304
28.5656
28.8071
29.0161
29.1845
29.348
27.8197
28.036
28.197
28.3303
28.4434
28.5408
28.6244
28.6982
28.7531
28.8044
28.8215
28.8483
28.7701
28.7488
28.4959
28.3949
28.0008
27.8259
27.6003
27.5208
27.5222
27.6259
27.797
28.0233
28.2748
28.5352
28.7807
28.9969
29.17
29.3379
27.7489
27.9854
28.152
28.2957
28.4166
28.5214
28.6129
28.6941
28.7566
28.8168
28.8383
28.8724
28.7972
28.7925
28.5383
28.4744
28.0703
27.9059
27.6701
27.5845
27.5776
27.6672
27.8256
28.041
28.2846
28.5351
28.772
28.9941
29.173
29.3423
27.7034
27.9442
28.1151
28.2658
28.3949
28.5081
28.6067
28.6941
28.7649
28.8305
28.8564
28.8994
28.8296
28.8472
28.5963
28.5829
28.1769
28.028
27.7862
27.6955
27.6756
27.7487
27.8866
28.086
28.3195
28.5646
28.7945
29.0075
29.181
29.3534
27.6987
27.9225
28.092
28.2458
28.3796
28.4986
28.6023
28.6945
28.7712
28.8419
28.8728
28.9225
28.8606
28.9016
28.6634
28.7123
28.3157
28.189
27.9476
27.8555
27.8225
27.881
27.9964
28.1719
28.3825
28.6108
28.834
29.0465
29.2276
29.3982
29.9423
29.6903
29.6361
29.3619
29.1356
28.9646
28.8533
28.798
28.777
28.7821
28.8004
28.8434
28.8726
28.922
28.9192
28.9243
28.8473
28.7662
28.6547
28.5993
28.6119
28.7061
28.8637
29.0501
29.2493
29.4424
29.6372
29.7858
29.9564
29.9808
29.9082
29.5761
29.5456
29.2891
29.0949
28.9478
28.8518
28.801
28.7833
28.7917
28.8114
28.8551
28.8836
28.9325
28.9284
28.9355
28.8615
28.7868
28.6783
28.6205
28.6247
28.717
28.8742
29.0601
29.259
29.452
29.6476
29.7955
29.9683
29.9904
29.8737
29.4779
29.4638
29.2314
29.0629
28.9318
28.8471
28.8023
28.7874
28.7994
28.8202
28.8642
28.8913
28.9407
28.9348
28.9437
28.868
28.7896
28.6756
28.6165
28.6125
28.7043
28.8651
29.0526
29.253
29.4462
29.6435
29.7899
29.9682
29.9866
29.8056
29.3868
29.3771
29.1631
29.0188
28.9058
28.8344
28.7999
28.7896
28.8059
28.8279
28.8728
28.8985
28.9489
28.9401
28.9506
28.8683
28.7855
28.6655
28.6007
28.5877
28.6697
28.8336
29.0249
29.2271
29.4211
29.6205
29.769
29.9528
29.9713