/*--------------------------------*- C++ -*----------------------------------*\
  =========                 |
  \\      /  F ield         | OpenFOAM: The Open Source CFD Toolbox
   \\    /   O peration     | Website:  https://openfoam.org
    \\  /    A nd           | Version:  12
     \\/     M anipulation  |
\*---------------------------------------------------------------------------*/
FoamFile
{
    format      ascii;
    class       volScalarField;
    location    "2000/air";
    object      T;
}
// * * * * * * * * * * * * * * * * * * * * * * * * * * * * * * * * * * * * * //

dimensions      [0 0 0 1 0 0 0];

internalField   nonuniform List<scalar> 
243000
(
301.623
301.485
301.413
301.366
301.33
301.302
301.278
301.258
301.239
301.222
301.206
301.19
301.175
301.161
301.146
301.131
301.115
301.099
301.082
301.063
301.041
301.016
300.988
300.958
300.929
300.9
300.876
300.819
300.725
300.694
301.939
301.669
301.53
301.444
301.386
301.343
301.31
301.282
301.259
301.238
301.219
301.202
301.185
301.169
301.153
301.137
301.12
301.103
301.085
301.065
301.043
301.018
300.991
300.962
300.932
300.903
300.877
300.84
300.764
300.707
302.15
301.838
301.652
301.533
301.451
301.392
301.347
301.311
301.282
301.257
301.235
301.215
301.196
301.178
301.161
301.143
301.126
301.108
301.089
301.068
301.046
301.022
300.995
300.967
300.937
300.908
300.881
300.85
300.797
300.733
302.323
302.019
301.798
301.644
301.534
301.455
301.395
301.349
301.312
301.281
301.254
301.231
301.209
301.189
301.17
301.152
301.133
301.114
301.094
301.073
301.05
301.026
301
300.972
300.944
300.915
300.888
300.859
300.817
300.761
302.466
302.211
301.976
301.789
301.647
301.541
301.461
301.4
301.352
301.313
301.28
301.252
301.227
301.204
301.182
301.162
301.142
301.121
301.1
301.079
301.056
301.032
301.006
300.979
300.951
300.923
300.895
300.867
300.832
300.784
302.572
302.394
302.174
301.966
301.793
301.656
301.55
301.469
301.406
301.355
301.314
301.279
301.249
301.222
301.198
301.175
301.152
301.13
301.108
301.085
301.062
301.038
301.012
300.986
300.958
300.931
300.903
300.876
300.844
300.803
302.638
302.522
302.35
302.152
301.963
301.8
301.666
301.56
301.477
301.411
301.358
301.314
301.277
301.245
301.216
301.19
301.165
301.141
301.117
301.094
301.07
301.045
301.02
300.994
300.967
300.939
300.912
300.885
300.855
300.819
302.673
302.602
302.482
302.318
302.135
301.959
301.804
301.675
301.569
301.483
301.415
301.359
301.313
301.273
301.239
301.209
301.181
301.154
301.129
301.103
301.078
301.053
301.028
301.002
300.975
300.948
300.921
300.894
300.866
300.833
302.704
302.657
302.579
302.457
302.299
302.125
301.958
301.808
301.68
301.574
301.487
301.416
301.358
301.309
301.268
301.232
301.2
301.17
301.142
301.115
301.088
301.062
301.037
301.011
300.984
300.958
300.931
300.904
300.876
300.846
302.736
302.704
302.652
302.567
302.443
302.288
302.121
301.959
301.811
301.684
301.577
301.488
301.415
301.354
301.304
301.261
301.223
301.189
301.157
301.128
301.1
301.073
301.046
301.02
300.994
300.968
300.941
300.915
300.888
300.859
302.769
302.745
302.708
302.651
302.562
302.437
302.285
302.121
301.961
301.815
301.686
301.577
301.486
301.411
301.348
301.296
301.251
301.212
301.176
301.143
301.113
301.085
301.057
301.031
301.005
300.978
300.952
300.926
300.899
300.871
302.802
302.782
302.755
302.716
302.655
302.562
302.437
302.286
302.123
301.963
301.816
301.686
301.574
301.481
301.404
301.339
301.285
301.239
301.198
301.162
301.129
301.098
301.07
301.042
301.016
300.99
300.964
300.938
300.911
300.884
302.833
302.815
302.795
302.766
302.724
302.659
302.564
302.438
302.287
302.125
301.964
301.814
301.681
301.568
301.472
301.393
301.328
301.273
301.225
301.184
301.147
301.114
301.083
301.055
301.028
301.002
300.975
300.95
300.923
300.897
302.861
302.845
302.828
302.806
302.775
302.731
302.664
302.566
302.439
302.287
302.124
301.96
301.808
301.673
301.557
301.46
301.38
301.314
301.258
301.21
301.169
301.132
301.099
301.069
301.041
301.014
300.988
300.962
300.936
300.91
302.886
302.871
302.855
302.837
302.814
302.782
302.736
302.666
302.566
302.437
302.283
302.117
301.951
301.797
301.659
301.542
301.445
301.364
301.298
301.242
301.195
301.154
301.118
301.085
301.056
301.028
301.001
300.975
300.949
300.923
302.906
302.892
302.877
302.861
302.842
302.819
302.786
302.737
302.664
302.562
302.43
302.273
302.104
301.936
301.779
301.641
301.524
301.427
301.347
301.281
301.226
301.179
301.139
301.104
301.072
301.043
301.015
300.989
300.962
300.936
302.921
302.907
302.894
302.879
302.863
302.844
302.82
302.785
302.734
302.658
302.552
302.416
302.256
302.085
301.914
301.757
301.619
301.503
301.407
301.329
301.264
301.21
301.165
301.126
301.091
301.06
301.031
301.004
300.977
300.951
302.93
302.917
302.904
302.891
302.877
302.861
302.842
302.816
302.78
302.726
302.646
302.536
302.395
302.232
302.057
301.887
301.731
301.595
301.481
301.388
301.311
301.248
301.195
301.151
301.113
301.079
301.048
301.02
300.992
300.966
302.933
302.92
302.908
302.896
302.883
302.869
302.854
302.835
302.809
302.77
302.713
302.628
302.513
302.367
302.2
302.025
301.856
301.703
301.57
301.46
301.369
301.294
301.233
301.182
301.139
301.102
301.069
301.038
301.01
300.982
302.927
302.916
302.905
302.894
302.883
302.871
302.858
302.843
302.824
302.797
302.756
302.694
302.604
302.483
302.332
302.163
301.989
301.823
301.674
301.546
301.439
301.351
301.28
301.221
301.171
301.129
301.092
301.06
301.029
301.001
302.913
302.903
302.893
302.884
302.875
302.865
302.855
302.844
302.829
302.81
302.781
302.737
302.67
302.574
302.446
302.292
302.123
301.952
301.791
301.647
301.524
301.421
301.337
301.268
301.21
301.162
301.121
301.085
301.052
301.022
302.889
302.88
302.873
302.866
302.858
302.851
302.844
302.836
302.826
302.812
302.792
302.762
302.714
302.641
302.538
302.405
302.25
302.082
301.916
301.76
301.623
301.505
301.407
301.326
301.259
301.203
301.156
301.115
301.078
301.046
302.855
302.849
302.844
302.839
302.835
302.83
302.826
302.821
302.814
302.805
302.792
302.771
302.737
302.685
302.606
302.497
302.362
302.207
302.044
301.883
301.735
301.603
301.491
301.397
301.319
301.254
301.199
301.152
301.111
301.074
302.81
302.807
302.805
302.804
302.803
302.802
302.8
302.798
302.795
302.79
302.782
302.769
302.746
302.709
302.651
302.567
302.456
302.319
302.167
302.009
301.855
301.714
301.59
301.483
301.392
301.316
301.252
301.197
301.15
301.109
302.753
302.754
302.757
302.76
302.763
302.765
302.768
302.769
302.77
302.769
302.766
302.759
302.745
302.721
302.68
302.617
302.529
302.415
302.279
302.131
301.98
301.834
301.701
301.582
301.48
301.392
301.317
301.253
301.198
301.151
302.682
302.69
302.697
302.706
302.714
302.722
302.729
302.735
302.74
302.743
302.744
302.741
302.734
302.719
302.691
302.647
302.58
302.489
302.375
302.243
302.101
301.958
301.821
301.694
301.581
301.481
301.395
301.321
301.257
301.202
302.596
302.61
302.624
302.638
302.652
302.665
302.676
302.686
302.695
302.7
302.704
302.704
302.701
302.692
302.674
302.644
302.597
302.529
302.439
302.33
302.205
302.073
301.94
301.811
301.691
301.582
301.486
301.401
301.327
301.262
302.48
302.5
302.519
302.538
302.556
302.571
302.583
302.592
302.598
302.601
302.601
302.598
302.593
302.585
302.573
302.554
302.525
302.482
302.421
302.342
302.245
302.136
302.02
301.901
301.784
301.674
301.572
301.48
301.398
301.325
302.237
302.25
302.264
302.277
302.287
302.29
302.288
302.281
302.269
302.254
302.236
302.218
302.201
302.186
302.173
302.164
302.154
302.139
302.114
302.076
302.024
301.959
301.883
301.8
301.713
301.625
301.54
301.459
301.383
301.315
301.143
301.129
301.14
301.152
301.155
301.149
301.135
301.118
301.098
301.078
301.057
301.036
301.017
301.001
300.989
300.983
300.983
300.983
300.98
300.972
300.96
300.944
300.926
300.905
300.881
300.854
300.824
300.795
300.766
300.736
301.311
301.279
301.255
301.235
301.216
301.2
301.184
301.17
301.156
301.143
301.13
301.117
301.103
301.09
301.076
301.061
301.045
301.026
301.005
300.98
300.951
300.917
300.883
300.849
300.818
300.792
300.771
300.752
300.728
300.693
301.364
301.322
301.289
301.262
301.239
301.219
301.201
301.184
301.169
301.154
301.14
301.127
301.113
301.099
301.084
301.068
301.051
301.031
301.01
300.985
300.956
300.924
300.891
300.858
300.828
300.801
300.778
300.758
300.735
300.704
301.409
301.362
301.325
301.294
301.267
301.244
301.223
301.204
301.187
301.171
301.156
301.14
301.125
301.11
301.094
301.077
301.059
301.038
301.016
300.99
300.962
300.932
300.9
300.868
300.838
300.811
300.787
300.766
300.744
300.716
301.454
301.407
301.367
301.333
301.303
301.276
301.252
301.231
301.211
301.193
301.175
301.158
301.141
301.124
301.107
301.088
301.068
301.047
301.023
300.997
300.969
300.939
300.909
300.878
300.849
300.822
300.797
300.775
300.753
300.728
301.504
301.46
301.419
301.383
301.349
301.319
301.291
301.265
301.242
301.22
301.2
301.18
301.161
301.142
301.122
301.102
301.08
301.056
301.031
301.005
300.977
300.948
300.918
300.888
300.86
300.833
300.808
300.785
300.763
300.739
301.562
301.524
301.486
301.449
301.411
301.376
301.342
301.311
301.283
301.257
301.232
301.209
301.186
301.163
301.141
301.118
301.094
301.069
301.042
301.014
300.986
300.957
300.928
300.899
300.871
300.844
300.819
300.795
300.773
300.75
301.63
301.61
301.579
301.54
301.495
301.451
301.41
301.371
301.336
301.303
301.273
301.244
301.217
301.191
301.165
301.139
301.111
301.083
301.055
301.026
300.996
300.967
300.938
300.91
300.882
300.855
300.83
300.806
300.783
300.761
301.714
301.71
301.69
301.654
301.606
301.552
301.499
301.449
301.403
301.362
301.325
301.289
301.256
301.224
301.194
301.163
301.133
301.101
301.07
301.039
301.008
300.979
300.95
300.921
300.894
300.867
300.842
300.818
300.795
300.772
301.803
301.812
301.803
301.774
301.727
301.668
301.606
301.545
301.488
301.436
301.389
301.345
301.304
301.266
301.229
301.194
301.158
301.123
301.089
301.055
301.023
300.992
300.962
300.934
300.906
300.88
300.855
300.83
300.807
300.784
301.894
301.908
301.907
301.888
301.848
301.791
301.725
301.655
301.588
301.525
301.466
301.413
301.363
301.316
301.273
301.23
301.19
301.15
301.111
301.074
301.04
301.007
300.976
300.947
300.92
300.893
300.868
300.843
300.819
300.797
301.983
301.997
302.001
301.991
301.962
301.913
301.848
301.775
301.7
301.627
301.557
301.493
301.433
301.377
301.324
301.275
301.227
301.181
301.138
301.097
301.059
301.025
300.992
300.962
300.934
300.907
300.882
300.857
300.833
300.81
302.071
302.083
302.089
302.085
302.065
302.026
301.97
301.899
301.82
301.739
301.661
301.586
301.515
301.448
301.386
301.327
301.272
301.219
301.17
301.125
301.083
301.045
301.011
300.979
300.95
300.923
300.897
300.872
300.847
300.824
302.157
302.166
302.171
302.17
302.158
302.129
302.083
302.019
301.943
301.86
301.774
301.689
301.608
301.531
301.458
301.39
301.325
301.265
301.209
301.157
301.111
301.069
301.032
300.999
300.968
300.94
300.913
300.887
300.862
300.839
302.243
302.247
302.25
302.249
302.24
302.22
302.184
302.131
302.062
301.981
301.893
301.802
301.712
301.625
301.541
301.462
301.388
301.318
301.254
301.196
301.144
301.098
301.057
301.021
300.988
300.958
300.93
300.904
300.878
300.855
302.325
302.325
302.325
302.322
302.315
302.299
302.272
302.229
302.171
302.097
302.012
301.92
301.824
301.728
301.635
301.545
301.461
301.381
301.308
301.242
301.184
301.132
301.086
301.046
301.011
300.979
300.949
300.922
300.895
300.871
302.403
302.399
302.395
302.39
302.383
302.369
302.347
302.313
302.265
302.202
302.125
302.036
301.939
301.838
301.737
301.638
301.544
301.454
301.371
301.297
301.23
301.172
301.121
301.076
301.037
301.002
300.971
300.942
300.914
300.89
302.473
302.466
302.459
302.452
302.443
302.43
302.411
302.384
302.345
302.292
302.225
302.144
302.051
301.95
301.845
301.739
301.636
301.537
301.444
301.36
301.285
301.219
301.162
301.111
301.068
301.03
300.995
300.964
300.935
300.91
302.533
302.524
302.515
302.505
302.495
302.481
302.464
302.441
302.409
302.366
302.309
302.239
302.154
302.058
301.953
301.844
301.735
301.628
301.527
301.433
301.349
301.275
301.21
301.153
301.104
301.061
301.024
300.99
300.959
300.932
302.581
302.571
302.56
302.549
302.536
302.523
302.506
302.485
302.458
302.422
302.376
302.316
302.242
302.155
302.056
301.949
301.838
301.726
301.617
301.515
301.422
301.339
301.266
301.202
301.147
301.099
301.057
301.02
300.986
300.957
302.614
302.603
302.591
302.579
302.566
302.552
302.536
302.517
302.493
302.464
302.425
302.376
302.314
302.238
302.149
302.048
301.939
301.827
301.714
301.606
301.505
301.413
301.332
301.26
301.198
301.144
301.097
301.055
301.017
300.985
302.631
302.619
302.607
302.595
302.582
302.569
302.553
302.536
302.515
302.49
302.458
302.418
302.367
302.303
302.226
302.136
302.035
301.926
301.814
301.702
301.596
301.497
301.407
301.328
301.258
301.197
301.143
301.096
301.055
301.019
302.629
302.618
302.608
302.596
302.584
302.571
302.557
302.542
302.524
302.502
302.476
302.444
302.402
302.351
302.286
302.209
302.119
302.019
301.912
301.801
301.692
301.589
301.493
301.406
301.328
301.26
301.199
301.146
301.099
301.058
302.605
302.596
302.587
302.578
302.568
302.557
302.546
302.533
302.518
302.501
302.48
302.454
302.421
302.38
302.329
302.265
302.189
302.101
302.003
301.899
301.792
301.686
301.586
301.493
301.409
301.333
301.265
301.205
301.152
301.106
302.558
302.552
302.546
302.54
302.533
302.525
302.517
302.508
302.497
302.484
302.468
302.447
302.422
302.389
302.349
302.299
302.237
302.165
302.081
301.988
301.888
301.786
301.685
301.589
301.498
301.416
301.341
301.274
301.214
301.162
302.488
302.486
302.483
302.48
302.477
302.473
302.468
302.462
302.455
302.445
302.432
302.415
302.395
302.37
302.338
302.3
302.255
302.199
302.134
302.057
301.971
301.878
301.783
301.687
301.594
301.507
301.427
301.353
301.286
301.227
302.394
302.395
302.396
302.396
302.395
302.393
302.391
302.387
302.38
302.371
302.36
302.345
302.327
302.306
302.281
302.254
302.222
302.185
302.139
302.083
302.017
301.942
301.859
301.772
301.684
301.597
301.514
301.436
301.364
301.299
302.269
302.272
302.273
302.273
302.272
302.271
302.269
302.264
302.256
302.245
302.23
302.213
302.193
302.172
302.151
302.13
302.11
302.089
302.063
302.03
301.986
301.933
301.871
301.802
301.728
301.652
301.575
301.501
301.429
301.364
302.086
302.079
302.073
302.07
302.067
302.065
302.06
302.051
302.038
302.019
301.997
301.971
301.946
301.92
301.897
301.878
301.867
301.859
301.852
301.84
301.819
301.788
301.75
301.705
301.653
301.597
301.538
301.478
301.419
301.361
301.738
301.699
301.678
301.671
301.671
301.669
301.661
301.646
301.625
301.6
301.574
301.546
301.519
301.493
301.469
301.449
301.437
301.428
301.422
301.413
301.405
301.394
301.38
301.362
301.341
301.316
301.287
301.255
301.221
301.182
300.977
300.96
300.961
300.971
300.981
300.987
300.988
300.983
300.973
300.96
300.944
300.926
300.907
300.887
300.868
300.852
300.839
300.829
300.819
300.809
300.797
300.785
300.772
300.758
300.742
300.724
300.704
300.683
300.661
300.64
301.273
301.242
301.217
301.196
301.178
301.161
301.145
301.131
301.117
301.103
301.09
301.077
301.064
301.051
301.036
301.02
301.002
300.981
300.955
300.924
300.888
300.85
300.815
300.784
300.759
300.74
300.724
300.712
300.698
300.679
301.295
301.257
301.228
301.204
301.184
301.166
301.15
301.135
301.121
301.108
301.095
301.083
301.07
301.056
301.041
301.025
301.006
300.984
300.958
300.928
300.894
300.859
300.825
300.795
300.77
300.75
300.733
300.719
300.704
300.686
301.31
301.272
301.242
301.217
301.196
301.178
301.161
301.146
301.132
301.119
301.105
301.092
301.079
301.064
301.049
301.031
301.012
300.989
300.962
300.933
300.9
300.867
300.836
300.807
300.782
300.761
300.743
300.727
300.711
300.693
301.326
301.29
301.261
301.236
301.215
301.196
301.179
301.163
301.148
301.134
301.12
301.106
301.091
301.076
301.059
301.041
301.019
300.995
300.968
300.939
300.908
300.876
300.846
300.818
300.793
300.772
300.753
300.735
300.719
300.701
301.347
301.314
301.287
301.262
301.241
301.221
301.203
301.186
301.17
301.154
301.139
301.124
301.108
301.091
301.073
301.053
301.03
301.004
300.976
300.946
300.916
300.886
300.856
300.829
300.805
300.783
300.763
300.745
300.727
300.709
301.374
301.346
301.32
301.297
301.275
301.255
301.235
301.217
301.199
301.182
301.164
301.147
301.129
301.111
301.091
301.068
301.043
301.015
300.986
300.956
300.925
300.896
300.867
300.841
300.817
300.794
300.774
300.755
300.736
300.718
301.411
301.387
301.364
301.342
301.32
301.298
301.277
301.256
301.236
301.216
301.196
301.177
301.156
301.135
301.113
301.087
301.06
301.029
300.998
300.967
300.936
300.907
300.879
300.853
300.829
300.807
300.786
300.766
300.746
300.728
301.458
301.438
301.418
301.398
301.377
301.354
301.331
301.307
301.283
301.26
301.236
301.213
301.19
301.165
301.139
301.111
301.08
301.047
301.014
300.981
300.95
300.92
300.892
300.866
300.842
300.819
300.798
300.777
300.757
300.738
301.514
301.5
301.487
301.471
301.45
301.426
301.398
301.37
301.341
301.313
301.285
301.258
301.23
301.201
301.172
301.14
301.105
301.069
301.033
300.998
300.965
300.935
300.906
300.88
300.856
300.833
300.811
300.79
300.769
300.75
301.58
301.575
301.567
301.554
301.535
301.509
301.478
301.445
301.412
301.378
301.344
301.311
301.278
301.245
301.211
301.174
301.136
301.095
301.056
301.019
300.984
300.952
300.922
300.896
300.87
300.847
300.825
300.803
300.781
300.762
301.657
301.657
301.653
301.643
301.626
301.6
301.568
301.532
301.493
301.454
301.414
301.375
301.336
301.297
301.257
301.215
301.172
301.127
301.084
301.043
301.006
300.972
300.941
300.913
300.887
300.863
300.839
300.817
300.795
300.775
301.74
301.743
301.742
301.735
301.72
301.697
301.665
301.626
301.584
301.539
301.494
301.448
301.403
301.357
301.311
301.264
301.215
301.165
301.118
301.073
301.032
300.995
300.962
300.932
300.905
300.88
300.856
300.832
300.81
300.789
301.826
301.832
301.832
301.827
301.815
301.794
301.764
301.726
301.681
301.633
301.582
301.531
301.479
301.426
301.374
301.32
301.265
301.21
301.157
301.108
301.063
301.023
300.987
300.955
300.926
300.899
300.873
300.849
300.825
300.804
301.916
301.922
301.922
301.919
301.909
301.89
301.863
301.826
301.782
301.732
301.677
301.621
301.563
301.504
301.445
301.384
301.323
301.262
301.204
301.15
301.1
301.055
301.016
300.981
300.949
300.92
300.893
300.868
300.843
300.821
302.007
302.012
302.012
302.008
301.999
301.983
301.958
301.924
301.881
301.832
301.776
301.716
301.653
301.589
301.524
301.457
301.389
301.322
301.258
301.198
301.143
301.094
301.05
301.011
300.976
300.945
300.916
300.889
300.863
300.84
302.096
302.1
302.099
302.095
302.086
302.07
302.048
302.017
301.977
301.929
301.874
301.813
301.747
301.679
301.609
301.536
301.463
301.39
301.32
301.254
301.193
301.138
301.089
301.046
301.007
300.973
300.941
300.912
300.885
300.861
302.181
302.183
302.181
302.176
302.166
302.152
302.131
302.102
302.066
302.021
301.968
301.908
301.841
301.771
301.698
301.621
301.543
301.465
301.39
301.318
301.251
301.19
301.135
301.087
301.044
301.006
300.971
300.939
300.91
300.884
302.258
302.259
302.256
302.249
302.239
302.225
302.205
302.179
302.145
302.104
302.055
301.997
301.932
301.862
301.788
301.709
301.629
301.547
301.466
301.389
301.316
301.249
301.189
301.135
301.087
301.044
301.006
300.97
300.938
300.911
302.324
302.323
302.319
302.312
302.302
302.287
302.268
302.244
302.214
302.176
302.131
302.077
302.016
301.949
301.875
301.797
301.716
301.632
301.548
301.466
301.388
301.316
301.25
301.19
301.137
301.089
301.046
301.007
300.971
300.941
302.375
302.373
302.369
302.362
302.351
302.337
302.319
302.297
302.269
302.235
302.194
302.146
302.09
302.027
301.957
301.882
301.803
301.719
301.634
301.55
301.468
301.39
301.319
301.253
301.194
301.141
301.093
301.049
301.009
300.975
302.407
302.405
302.401
302.394
302.385
302.372
302.355
302.335
302.31
302.28
302.244
302.201
302.151
302.094
302.03
301.96
301.886
301.806
301.722
301.637
301.553
301.472
301.395
301.325
301.26
301.201
301.147
301.098
301.054
301.016
302.418
302.417
302.414
302.408
302.4
302.389
302.375
302.357
302.335
302.309
302.277
302.24
302.196
302.146
302.09
302.027
301.96
301.886
301.808
301.725
301.642
301.559
301.48
301.404
301.334
301.269
301.21
301.155
301.105
301.062
302.405
302.405
302.404
302.401
302.395
302.387
302.376
302.361
302.342
302.32
302.292
302.26
302.222
302.179
302.13
302.076
302.017
301.953
301.883
301.808
301.73
301.649
301.569
301.491
301.416
301.346
301.281
301.22
301.165
301.117
302.367
302.369
302.371
302.37
302.368
302.362
302.354
302.342
302.327
302.308
302.284
302.255
302.222
302.183
302.14
302.093
302.043
301.99
301.934
301.872
301.804
301.731
301.655
301.579
301.503
301.43
301.359
301.294
301.232
301.178
302.302
302.307
302.311
302.313
302.313
302.31
302.304
302.295
302.281
302.264
302.241
302.214
302.182
302.145
302.104
302.061
302.019
301.977
301.935
301.891
301.841
301.784
301.722
301.654
301.583
301.511
301.44
301.37
301.305
301.245
302.207
302.214
302.219
302.221
302.221
302.219
302.213
302.204
302.191
302.172
302.149
302.119
302.085
302.046
302.003
301.959
301.922
301.89
301.864
301.838
301.809
301.775
301.735
301.686
301.63
301.569
301.504
301.437
301.372
301.311
302.071
302.074
302.074
302.073
302.071
302.067
302.061
302.05
302.035
302.013
301.985
301.95
301.91
301.864
301.816
301.77
301.734
301.707
301.69
301.681
301.674
301.666
301.653
301.63
301.598
301.558
301.51
301.458
301.401
301.346
301.865
301.852
301.839
301.828
301.822
301.819
301.814
301.802
301.784
301.758
301.725
301.687
301.646
301.6
301.552
301.505
301.471
301.446
301.432
301.427
301.426
301.426
301.428
301.431
301.43
301.422
301.4
301.369
301.332
301.291
301.511
301.479
301.458
301.449
301.447
301.448
301.445
301.436
301.419
301.395
301.366
301.331
301.293
301.25
301.205
301.161
301.127
301.103
301.088
301.081
301.079
301.081
301.085
301.09
301.094
301.094
301.096
301.092
301.08
301.06
300.897
300.889
300.892
300.904
300.919
300.934
300.943
300.946
300.943
300.932
300.915
300.892
300.865
300.832
300.796
300.758
300.728
300.704
300.687
300.675
300.667
300.662
300.659
300.657
300.655
300.65
300.644
300.634
300.621
300.605
301.255
301.219
301.193
301.171
301.151
301.133
301.117
301.101
301.087
301.073
301.06
301.047
301.033
301.02
301.005
300.988
300.968
300.943
300.913
300.875
300.835
300.797
300.766
300.743
300.725
300.712
300.702
300.694
300.684
300.671
301.264
301.22
301.189
301.164
301.144
301.126
301.111
301.097
301.084
301.071
301.059
301.047
301.034
301.021
301.006
300.988
300.968
300.943
300.913
300.879
300.842
300.808
300.779
300.756
300.738
300.724
300.712
300.701
300.69
300.676
301.263
301.222
301.191
301.167
301.147
301.13
301.115
301.101
301.088
301.076
301.064
301.052
301.04
301.026
301.01
300.992
300.97
300.945
300.915
300.883
300.85
300.818
300.79
300.768
300.75
300.735
300.722
300.71
300.697
300.682
301.265
301.228
301.199
301.175
301.156
301.139
301.125
301.111
301.099
301.087
301.075
301.062
301.049
301.034
301.018
300.998
300.975
300.949
300.919
300.888
300.857
300.828
300.802
300.78
300.762
300.746
300.732
300.718
300.704
300.689
301.271
301.239
301.213
301.191
301.173
301.157
301.142
301.128
301.115
301.102
301.09
301.076
301.062
301.047
301.029
301.007
300.983
300.955
300.925
300.895
300.866
300.838
300.813
300.792
300.774
300.758
300.742
300.728
300.712
300.696
301.285
301.257
301.234
301.215
301.197
301.181
301.166
301.151
301.137
301.124
301.11
301.095
301.08
301.063
301.043
301.02
300.993
300.963
300.933
300.904
300.875
300.849
300.825
300.805
300.786
300.769
300.753
300.737
300.721
300.704
301.306
301.284
301.265
301.247
301.23
301.214
301.198
301.182
301.167
301.151
301.136
301.12
301.102
301.083
301.061
301.036
301.006
300.975
300.944
300.914
300.887
300.861
300.838
300.818
300.799
300.782
300.765
300.748
300.731
300.713
301.337
301.321
301.305
301.289
301.272
301.255
301.238
301.221
301.203
301.186
301.169
301.15
301.131
301.109
301.084
301.056
301.024
300.99
300.958
300.928
300.9
300.875
300.852
300.832
300.813
300.795
300.777
300.759
300.741
300.723
301.38
301.369
301.356
301.341
301.324
301.306
301.287
301.268
301.248
301.229
301.208
301.187
301.165
301.14
301.113
301.081
301.045
301.01
300.975
300.944
300.916
300.89
300.867
300.847
300.827
300.809
300.79
300.771
300.752
300.733
301.432
301.426
301.417
301.404
301.388
301.368
301.347
301.325
301.303
301.279
301.256
301.232
301.206
301.178
301.146
301.111
301.072
301.033
300.997
300.964
300.934
300.908
300.885
300.863
300.843
300.823
300.804
300.784
300.764
300.745
301.495
301.494
301.487
301.476
301.46
301.439
301.417
301.392
301.366
301.339
301.312
301.284
301.254
301.222
301.186
301.147
301.105
301.062
301.023
300.988
300.957
300.929
300.904
300.881
300.86
300.839
300.819
300.798
300.777
300.757
301.567
301.57
301.565
301.555
301.539
301.518
301.494
301.467
301.438
301.407
301.376
301.344
301.31
301.273
301.233
301.189
301.143
301.098
301.056
301.018
300.984
300.954
300.927
300.902
300.879
300.857
300.835
300.814
300.791
300.771
301.645
301.651
301.648
301.639
301.624
301.604
301.578
301.549
301.517
301.483
301.448
301.412
301.373
301.331
301.287
301.239
301.189
301.139
301.094
301.053
301.016
300.982
300.953
300.926
300.901
300.877
300.854
300.831
300.808
300.787
301.728
301.735
301.734
301.727
301.713
301.693
301.667
301.636
301.602
301.566
301.527
301.486
301.443
301.397
301.348
301.295
301.241
301.188
301.139
301.094
301.053
301.016
300.984
300.954
300.926
300.9
300.875
300.851
300.826
300.804
301.814
301.822
301.823
301.816
301.803
301.783
301.758
301.727
301.691
301.652
301.611
301.566
301.519
301.469
301.416
301.359
301.301
301.244
301.192
301.142
301.097
301.056
301.02
300.986
300.956
300.927
300.9
300.873
300.847
300.824
301.9
301.909
301.911
301.905
301.893
301.874
301.848
301.817
301.781
301.741
301.697
301.65
301.6
301.546
301.489
301.429
301.368
301.308
301.251
301.197
301.148
301.102
301.062
301.025
300.99
300.959
300.928
300.899
300.871
300.846
301.983
301.993
301.995
301.99
301.979
301.961
301.936
301.906
301.87
301.829
301.784
301.735
301.682
301.627
301.567
301.504
301.44
301.378
301.317
301.259
301.205
301.156
301.11
301.069
301.031
300.995
300.961
300.929
300.898
300.871
302.061
302.071
302.074
302.07
302.059
302.042
302.018
301.989
301.954
301.914
301.869
301.819
301.765
301.708
301.647
301.583
301.518
301.453
301.389
301.328
301.27
301.216
301.166
301.12
301.077
301.037
300.999
300.963
300.929
300.9
302.128
302.138
302.142
302.139
302.129
302.113
302.092
302.064
302.03
301.992
301.947
301.898
301.845
301.788
301.727
301.663
301.598
301.532
301.467
301.403
301.341
301.284
301.229
301.179
301.131
301.086
301.043
301.003
300.965
300.933
302.181
302.192
302.196
302.195
302.187
302.173
302.153
302.128
302.096
302.06
302.018
301.971
301.919
301.864
301.805
301.743
301.679
301.613
301.547
301.482
301.419
301.358
301.3
301.244
301.191
301.141
301.094
301.049
301.007
300.97
302.217
302.228
302.234
302.234
302.229
302.217
302.2
302.177
302.149
302.115
302.076
302.032
301.984
301.932
301.876
301.816
301.755
301.692
301.628
301.564
301.5
301.437
301.376
301.316
301.259
301.204
301.151
301.101
301.054
301.014
302.232
302.244
302.252
302.255
302.252
302.244
302.23
302.21
302.186
302.155
302.12
302.08
302.035
301.986
301.934
301.878
301.82
301.761
301.701
301.64
301.578
301.517
301.455
301.393
301.332
301.272
301.215
301.16
301.108
301.062
302.224
302.237
302.247
302.253
302.254
302.249
302.239
302.223
302.202
302.176
302.144
302.107
302.065
302.019
301.969
301.915
301.859
301.804
301.751
301.697
301.643
301.588
301.53
301.47
301.408
301.345
301.284
301.224
301.168
301.117
302.191
302.207
302.219
302.227
302.231
302.23
302.224
302.211
302.193
302.17
302.141
302.106
302.066
302.019
301.968
301.91
301.853
301.8
301.755
301.714
301.674
301.632
301.586
301.534
301.477
301.416
301.354
301.292
301.232
301.177
302.132
302.149
302.164
302.174
302.179
302.18
302.176
302.165
302.149
302.127
302.098
302.062
302.02
301.968
301.91
301.843
301.781
301.729
301.691
301.664
301.643
301.623
301.597
301.564
301.522
301.471
301.415
301.355
301.294
301.238
302.041
302.059
302.073
302.082
302.086
302.087
302.082
302.072
302.056
302.032
302.001
301.961
301.913
301.852
301.787
301.711
301.646
301.594
301.561
301.544
301.536
301.535
301.536
301.531
301.514
301.485
301.444
301.395
301.342
301.288
301.907
301.919
301.926
301.93
301.932
301.93
301.925
301.914
301.897
301.871
301.836
301.79
301.737
301.672
301.6
301.518
301.451
301.401
301.372
301.36
301.362
301.373
301.389
301.405
301.419
301.42
301.405
301.376
301.338
301.296
301.698
301.696
301.691
301.687
301.686
301.686
301.684
301.675
301.658
301.631
301.594
301.549
301.495
301.43
301.357
301.273
301.207
301.158
301.131
301.122
301.126
301.14
301.162
301.188
301.214
301.236
301.252
301.252
301.236
301.21
301.354
301.343
301.335
301.335
301.339
301.346
301.35
301.347
301.336
301.315
301.285
301.244
301.196
301.136
301.066
300.986
300.925
300.879
300.853
300.842
300.843
300.854
300.872
300.895
300.919
300.941
300.959
300.972
300.977
300.969
300.84
300.847
300.858
300.877
300.899
300.92
300.937
300.947
300.949
300.941
300.923
300.895
300.858
300.809
300.749
300.681
300.629
300.589
300.563
300.548
300.543
300.545
300.553
300.564
300.577
300.588
300.596
300.598
300.595
300.586
301.246
301.205
301.176
301.151
301.13
301.111
301.093
301.077
301.062
301.048
301.034
301.021
301.008
300.993
300.978
300.96
300.938
300.91
300.875
300.832
300.791
300.757
300.733
300.716
300.705
300.696
300.689
300.683
300.675
300.664
301.244
301.192
301.158
301.131
301.11
301.093
301.077
301.064
301.051
301.039
301.027
301.015
301.003
300.99
300.975
300.957
300.935
300.907
300.874
300.836
300.8
300.77
300.747
300.731
300.719
300.71
300.701
300.693
300.683
300.669
301.227
301.178
301.145
301.121
301.102
301.086
301.073
301.061
301.049
301.039
301.028
301.016
301.004
300.991
300.975
300.956
300.934
300.906
300.874
300.841
300.808
300.781
300.76
300.745
300.733
300.722
300.713
300.703
300.691
300.676
301.212
301.171
301.143
301.122
301.104
301.09
301.077
301.065
301.055
301.044
301.033
301.022
301.01
300.996
300.979
300.959
300.935
300.907
300.877
300.846
300.817
300.793
300.773
300.758
300.746
300.735