/*--------------------------------*- C++ -*----------------------------------*\
  =========                 |
  \\      /  F ield         | OpenFOAM: The Open Source CFD Toolbox
   \\    /   O peration     | Website:  https://openfoam.org
    \\  /    A nd           | Version:  12
     \\/     M anipulation  |
\*---------------------------------------------------------------------------*/
FoamFile
{
    format      ascii;
    class       volScalarField;
    location    "1000/air";
    object      alphat;
}
// * * * * * * * * * * * * * * * * * * * * * * * * * * * * * * * * * * * * * //

dimensions      [1 -1 -1 0 0 0 0];

internalField   nonuniform List<scalar> 
243000
(
0.000103696
9.22836e-05
9.26039e-05
9.73736e-05
9.99451e-05
0.000100939
0.000100912
0.000100244
9.91913e-05
9.79249e-05
9.65051e-05
9.50438e-05
9.35061e-05
9.21031e-05
9.10528e-05
9.08704e-05
9.16699e-05
9.3232e-05
9.50761e-05
9.68214e-05
9.82969e-05
9.94399e-05
0.000100275
0.000100856
0.000101291
0.00010163
0.000101975
0.000100218
9.54055e-05
9.12422e-05
0.000379523
0.00035901
0.000330831
0.000326996
0.00033449
0.000338726
0.000339832
0.000338871
0.00033693
0.000334675
0.000332742
0.000331801
0.000331888
0.000333699
0.000337487
0.000343937
0.00035149
0.000358472
0.000363429
0.000366031
0.000367093
0.000367114
0.000366426
0.000365163
0.000363379
0.000361402
0.000360231
0.000356541
0.000345892
0.000327548
0.000489608
0.000491234
0.000479244
0.000469641
0.000468323
0.000481549
0.00050586
0.000527288
0.00054717
0.00056417
0.000580292
0.000596465
0.000612419
0.000629076
0.000646376
0.000664411
0.0006792
0.00068761
0.000687676
0.000679608
0.000666021
0.000648729
0.000628939
0.000607265
0.000584066
0.00056003
0.000536222
0.000510741
0.000479559
0.000439695
0.00052661
0.00052988
0.000522505
0.000512019
0.000500595
0.000496116
0.000504668
0.000520528
0.00054577
0.000573061
0.000600365
0.000627816
0.000654233
0.000680029
0.000704847
0.000728259
0.000746054
0.00075544
0.000754941
0.000745224
0.000729338
0.0007095
0.000687097
0.000662837
0.000637049
0.000610221
0.000583076
0.000554668
0.0005227
0.000483991
0.000563029
0.000567281
0.000562683
0.000553637
0.00054113
0.000527845
0.000520053
0.000523732
0.000540772
0.000567434
0.000604488
0.000645026
0.00068418
0.000720491
0.00075316
0.000781655
0.000802053
0.000812225
0.000811282
0.000800331
0.000782701
0.000760905
0.000736504
0.000710301
0.000682608
0.000653747
0.000624267
0.000593583
0.000560567
0.000523211
0.000598431
0.000603708
0.000601053
0.000593498
0.000581537
0.00056655
0.000550427
0.00053997
0.000543713
0.000563999
0.000599929
0.000652698
0.000705507
0.000753427
0.000794083
0.000827408
0.000850057
0.000860842
0.000859503
0.000847594
0.000828625
0.000805308
0.000779377
0.00075171
0.000722615
0.000692313
0.000661252
0.000629054
0.000595008
0.000558665
0.000632912
0.000638952
0.000637638
0.000631151
0.000619819
0.000604459
0.000586223
0.000567118
0.000557509
0.0005663
0.000597349
0.000653911
0.000720546
0.000780655
0.000829365
0.000867239
0.000891833
0.000903088
0.000901407
0.000888745
0.000868733
0.000844231
0.000817121
0.000788348
0.000758239
0.000726951
0.000694859
0.000661734
0.000626875
0.000591203
0.00066657
0.000673107
0.000672607
0.000666728
0.000655754
0.000640212
0.000620882
0.000599463
0.000579887
0.00057657
0.000599076
0.000652304
0.000731144
0.000803513
0.000860153
0.000902272
0.000928568
0.000940185
0.00093821
0.000924974
0.000904154
0.000878726
0.000850682
0.000821075
0.000790254
0.000758337
0.000725612
0.000691962
0.000656927
0.000621466
0.00069951
0.000706201
0.000706177
0.000700618
0.000689714
0.000673851
0.000653647
0.000630398
0.0006063
0.000592909
0.000605966
0.000652819
0.000739261
0.000823027
0.000887248
0.000933276
0.000961113
0.000972983
0.000970781
0.00095712
0.000935695
0.000909544
0.000880768
0.000850522
0.00081922
0.000786939
0.000753874
0.000719984
0.000685057
0.00064968
0.000731912
0.000738398
0.000738501
0.000733036
0.000722058
0.000705809
0.000684724
0.000659882
0.000633805
0.000613096
0.000616599
0.000657473
0.00074632
0.000839999
0.00091124
0.000960838
0.000990052
0.00100212
0.000999746
0.000985789
0.000963925
0.000937243
0.000907912
0.000877194
0.000845574
0.000813114
0.000779928
0.000746014
0.000711351
0.000676025
0.000763842
0.000769787
0.000769727
0.000764166
0.000753027
0.000736381
0.000714491
0.000688209
0.000659827
0.000634601
0.000630043
0.000665108
0.000752993
0.000854993
0.000932558
0.000985376
0.00101582
0.00102808
0.0010256
0.00101145
0.0009893
0.000962253
0.000932534
0.000901481
0.000869662
0.000837131
0.000803978
0.000770211
0.00073592
0.000700952
0.000795314
0.000800372
0.000799879
0.000794093
0.000782744
0.000765728
0.00074314
0.000715596
0.000685127
0.000656496
0.0006456
0.000675094
0.00075982
0.000868441
0.000951515
0.00100719
0.00103876
0.00105122
0.0010487
0.00103447
0.00101217
0.000984916
0.000954954
0.00092369
0.000891761
0.000859246
0.000826235
0.000792726
0.000758875
0.000724538
0.000826424
0.000830308
0.000829122
0.000822921
0.000811326
0.000793971
0.000770788
0.000742189
0.00070991
0.000678667
0.000662654
0.000686623
0.000767102
0.000880626
0.000968343
0.00102651
0.00105909
0.00107178
0.00106932
0.00105512
0.0010328
0.00100549
0.000975426
0.000944069
0.000912121
0.000879698
0.000846909
0.000813744
0.000780369
0.000746721
0.000857319
0.000859791
0.000857698
0.000850904
0.000838935
0.000821259
0.000797557
0.000768077
0.000734248
0.000700967
0.000680833
0.000699341
0.000774967
0.000891723
0.000983216
0.00104349
0.00107699
0.00108997
0.00108767
0.00107361
0.00105139
0.00102416
0.000994147
0.000962828
0.000930966
0.000898724
0.00086624
0.000833481
0.000800616
0.00076766
0.0008881
0.000889024
0.000885862
0.000878311
0.000865833
0.000847781
0.000823601
0.000793363
0.000758246
0.000723315
0.000699781
0.000712977
0.000783439
0.000901799
0.000996237
0.00105828
0.00109261
0.00110593
0.00110388
0.00109009
0.0010681
0.00104109
0.00101127
0.000980122
0.000948463
0.000916513
0.000884421
0.000852151
0.000819837
0.00078757
0.000918989
0.000918271
0.000913874
0.000905406
0.000892282
0.00087375
0.000849096
0.000818169
0.000781972
0.000745477
0.000719189
0.00072729
0.000792449
0.000910869
0.00100745
0.00107098
0.00110606
0.00111977
0.00111807
0.00110466
0.00108303
0.0010564
0.00102692
0.000996086
0.000964753
0.000933208
0.000901598
0.000869901
0.000838206
0.00080667
0.000950362
0.000947831
0.000942014
0.000932464
0.000918555
0.000899431
0.000874248
0.000842642
0.000805498
0.000767699
0.000738859
0.000742049
0.000801879
0.000918912
0.00101685
0.00108164
0.00111742
0.0011316
0.00113034
0.00111742
0.00109628
0.00107015
0.00104118
0.00101083
0.000979957
0.000948925
0.000917893
0.000886845
0.000855842
0.000825096
0.000982363
0.000978005
0.000970598
0.00095981
0.000944979
0.00092513
0.00089931
0.000866967
0.000828922
0.000789741
0.000758619
0.000757051
0.000811602
0.000925939
0.0010244
0.00109027
0.00112673
0.00114146
0.00114075
0.0011284
0.00110791
0.00108244
0.00105413
0.00102441
0.00099415
0.000963754
0.000933403
0.000903082
0.000872842
0.000842954
0.001014
0.00100859
0.00100008
0.000987934
0.000972039
0.000951284
0.000924644
0.000891414
0.00085243
0.000811754
0.000778327
0.000772186
0.000821486
0.000931879
0.00103009
0.00109682
0.00113401
0.00114941
0.00114933
0.0011377
0.00111802
0.00109335
0.00106584
0.00103689
0.00100738
0.000977753
0.000948193
0.000918694
0.000889296
0.000860333
0.00104514
0.00103866
0.00102953
0.00101711
0.00100059
0.000978661
0.000950873
0.000916455
0.000876557
0.000834002
0.000797945
0.000787452
0.000831386
0.000936622
0.00103388
0.00110125
0.00113925
0.00115544
0.00115616
0.00114542
0.00112668
0.00110294
0.00107634
0.00104832
0.00101971
0.000990981
0.000962332
0.000933765
0.000905306
0.000877343
0.00107564
0.00106809
0.00105836
0.0010458
0.00102945
0.0010078
0.000979227
0.000943021
0.000902339
0.000856841
0.000817587
0.000802727
0.000841123
0.000940148
0.00103579
0.00110349
0.00114239
0.00115959
0.00116126
0.00115158
0.00113392
0.00111125
0.00108572
0.00105875
0.00103119
0.0010035
0.000975898
0.000948385
0.000920982
0.000894127
0.00110538
0.00109682
0.00108655
0.00107391
0.00105789
0.00103691
0.00100893
0.000973283
0.000928939
0.000880026
0.000837209
0.000818012
0.000850559
0.000942391
0.00103547
0.0011036
0.00114344
0.00116176
0.00116458
0.00115616
0.00113976
0.00111832
0.00109401
0.00106825
0.00104189
0.0010154
0.000988988
0.000962663
0.000936451
0.000910837
0.00113426
0.00112485
0.00111418
0.0011016
0.00108615
0.00106633
0.00104029
0.00100406
0.000956824
0.000903627
0.000856935
0.000833464
0.000859556
0.000942995
0.00103304
0.00110111
0.00114207
0.00116183
0.00116597
0.00115906
0.00114415
0.00112413
0.00110122
0.00107686
0.00105189
0.00102678
0.00100171
0.000976723
0.000951848
0.00092763
0.00116236
0.00115238
0.00114161
0.00112969
0.00111578
0.00109723
0.00107019
0.00103247
0.000983409
0.00092741
0.000877193
0.00084958
0.000868215
0.000942156
0.00102793
0.00109554
0.00113756
0.00115893
0.00116478
0.00115952
0.00114651
0.0011283
0.00110712
0.00108444
0.00106112
0.00103765
0.00101419
0.000990748
0.000967391
0.000944781
0.00118974
0.00118019
0.00117043
0.00115888
0.00114379
0.00112339
0.00109499
0.00105623
0.0010068
0.00095045
0.000899115
0.000868114
0.000878639
0.000940226
0.00101991
0.00108606
0.00112885
0.00115198
0.00115982
0.00115671
0.00114579
0.00112966
0.00111063
0.00109012
0.00106891
0.00104757
0.00102621
0.00100476
0.000983285
0.000962532
0.00121539
0.00120523
0.0011938
0.00118033
0.00116361
0.00114177
0.00111252
0.00107426
0.00102875
0.000976654
0.000926503
0.000893604
0.000896822
0.000946577
0.00101625
0.00107745
0.00111956
0.00114408
0.00115436
0.00115397
0.00114558
0.00113174
0.0011144
0.00109501
0.00107458
0.00105547
0.00103672
0.00101788
0.000998854
0.000980446
0.00123084
0.00121746
0.00120417
0.0011906
0.00117548
0.00115697
0.00113279
0.00110091
0.00106105
0.00101448
0.00096819
0.000935619
0.00093288
0.000971475
0.00103024
0.00108458
0.00112394
0.00114821
0.00115957
0.00116117
0.00115492
0.001143
0.00112721
0.00110894
0.00108927
0.00106969
0.00105026
0.00103089
0.00101201
0.000995329
0.00126418
0.00125072
0.00123721
0.00122383
0.00121009
0.00119469
0.00117567
0.00115095
0.00111955
0.0010824
0.00104489
0.00101752
0.00101211
0.00103952
0.00108488
0.00112843
0.00116094
0.00118164
0.00119177
0.00119343
0.00118796
0.00117707
0.00116231
0.0011449
0.00112583
0.00110616
0.00108629
0.0010663
0.00104643
0.00102784
0.00133317
0.00132159
0.00131151
0.00130369
0.00129727
0.00129089
0.00128271
0.00127088
0.00125457
0.00123443
0.00121316
0.00119773
0.00119431
0.00120997
0.00123688
0.00126283
0.00128172
0.00129339
0.00129799
0.0012966
0.00128986
0.00127895
0.00126488
0.0012485
0.0012305
0.00121159
0.00119173
0.00117094
0.00114965
0.0011291
0.00156906
0.00156487
0.00156868
0.00157564
0.00158106
0.00158436
0.00158536
0.00158402
0.00158056
0.00157528
0.00156637
0.00155955
0.00155601
0.00155765
0.00156218
0.00156762
0.00157049
0.00157212
0.00157202
0.00157079
0.00156844
0.00156547
0.00156187
0.00155793
0.00155377
0.00154944
0.00154136
0.00152879
0.0015149
0.00150029
0.000133128
0.000152773
0.000153623
0.000152027
0.000148928
0.00014524
0.000141413
0.000137725
0.000134332
0.00013142
0.000129044
0.000127314
0.000126117
0.000125549
0.000125486
0.000125934
0.000126425
0.000126542
0.000126118
0.000125081
0.000123381
0.000120761
0.00011705
0.000112093
0.000105906
9.93236e-05
9.46324e-05
8.95913e-05
0.000387968
9.99241e-05
0.000447891
0.000523043
0.00052639
0.000525765
0.000517742
0.000508712
0.000499576
0.000492676
0.000488825
0.000489443
0.000494158
0.000502436
0.000511266
0.000519881
0.000523669
0.000520313
0.000504275
0.000477789
0.000445639
0.000413589
0.000388118
0.000368366
0.000350988
0.000332297
0.000311216
0.000289788
0.000271594
0.000252045
0.00027462
0.000303947
0.000551977
0.000676351
0.000725155
0.000767603
0.000796174
0.000816372
0.000831649
0.00084939
0.000870542
0.000901415
0.000940887
0.000985214
0.00102553
0.0010571
0.0010712
0.00106341
0.00102665
0.000966874
0.000894406
0.000821023
0.000758695
0.000708483
0.00066824
0.000628221
0.000583622
0.000539422
0.000502084
0.000461755
0.000444376
0.000461623
0.000604595
0.000707974
0.000784784
0.00085472
0.000915235
0.000972503
0.00102945
0.00109093
0.00115279
0.00123381
0.0013288
0.00142796
0.00151455
0.00157723
0.00160587
0.00159579
0.00154187
0.00145213
0.0013433
0.00123169
0.00113297
0.0010508
0.000982427
0.000917094
0.000847699
0.000779651
0.000723147
0.000667306
0.000621123
0.000601909
0.000650508
0.000740964
0.000810921
0.000884336
0.000954626
0.00103014
0.00111822
0.00121571
0.00133107
0.00148205
0.0016503
0.00181817
0.00195915
0.002056
0.00210034
0.00208858
0.00202023
0.00190436
0.00176378
0.00161873
0.00148757
0.00137584
0.00128115
0.00119223
0.00110011
0.00100994
0.000934647
0.000865816
0.000800944
0.000750445
0.000681771
0.000779792
0.000844705
0.00091452
0.000986033
0.00106642
0.00116356
0.00128123
0.00143446
0.00165619
0.00191351
0.00216271
0.00236256
0.00249407
0.00255335
0.00253936
0.00245831
0.00231927
0.00215085
0.00197674
0.00181736
0.00167942
0.0015613
0.00145166
0.00133999
0.00123066
0.00113782
0.00105707
0.000983057
0.000912437
0.000736744
0.000812891
0.0008821
0.000952866
0.00101828
0.00109519
0.00119316
0.00132279
0.00150336
0.00176867
0.00212787
0.00246518
0.00272891
0.00289499
0.00296764
0.00295044
0.00285795
0.00269795
0.00250508
0.00230575
0.00212198
0.00196127
0.00182276
0.00169541
0.00156763
0.0014423
0.00133369
0.00124158
0.00116421
0.001085
0.000839262
0.000894659
0.000937148
0.000986897
0.0010511
0.00112623
0.00121891
0.00135325
0.0015568
0.00186214
0.00230062
0.00272929
0.00306101
0.00326183
0.00334576
0.00332464
0.00322154
0.00304266
0.00282821
0.00260714
0.00240243
0.00222222
0.00206618
0.001924
0.00178334
0.00164507
0.00152276
0.00141977
0.00133672
0.00126151
0.000992256
0.00101938
0.00103765
0.0010632
0.00110271
0.00115498
0.00124489
0.00138214
0.00160024
0.00194103
0.00242833
0.00295838
0.00336195
0.00359652
0.00368956
0.00366443
0.00355125
0.00335554
0.00312227
0.00288265
0.0026602
0.00246346
0.00229257
0.00213806
0.00198738
0.00183899
0.00170525
0.00159241
0.00150266
0.00143744
0.00120773
0.00121297
0.00119931
0.00119071
0.00119324
0.00121585
0.00127577
0.00140269
0.00163376
0.00200433
0.00252824
0.0031575
0.00363526
0.00390091
0.00400134
0.00397188
0.00384898
0.00363861
0.00338913
0.00313407
0.00289687
0.00268639
0.00250307
0.00233838
0.00218
0.00202394
0.00188091
0.00175995
0.00166461
0.00161018
0.00146273
0.00146386
0.00143234
0.00138373
0.00134204
0.0013225
0.00134406
0.00144084
0.00165883
0.00205267
0.00262505
0.00334052
0.00388361
0.00417684
0.00428278
0.00424859
0.00411643
0.00389356
0.00363061
0.00336312
0.00311408
0.00289239
0.00269886
0.00252586
0.00236157
0.00219992
0.0020505
0.00192262
0.00182249
0.00177521
0.00173053
0.00173289
0.00169866
0.00163529
0.00154958
0.00148145
0.00145614
0.00150852
0.00170775
0.00210302
0.00272297
0.00350827
0.00410978
0.00442554
0.00453504
0.00449573
0.00435501
0.00412208
0.00384842
0.00357157
0.00331338
0.00308292
0.00288121
0.00270149
0.00253257
0.00236774
0.00221432
0.00208106
0.00197669
0.00193077
0.00200554
0.00201083
0.00197658
0.00190516
0.00180307
0.0016882
0.00161165
0.00161574
0.00177885
0.00217828
0.00283032
0.00366626
0.00431485
0.00464756
0.0047587
0.00471413
0.00456591
0.0043256
0.00404429
0.00376102
0.00349629
0.0032594
0.00305138
0.00286635
0.00269373
0.0025275
0.00237234
0.00223595
0.00212802
0.00208058
0.00228373
0.00229287
0.00226064
0.00218517
0.0020716
0.00193048
0.00180652
0.00176136
0.00186997
0.00226596
0.00294798
0.00381364
0.0044987
0.00484271
0.00495377
0.00490416
0.00475005
0.00450541
0.00421967
0.00393306
0.00366434
0.00342327
0.00321035
0.00302122
0.00284644
0.00268018
0.00252481
0.00238721
0.00227698
0.00222687
0.00256194
0.00257499
0.00254543
0.00246857
0.00234776
0.00219258
0.0020314
0.00193858
0.00199272
0.0023749
0.00306812
0.00395153
0.00466039
0.00501008
0.00511989
0.00506589
0.00490807
0.00466229
0.0043756
0.00408906
0.00381876
0.00357535
0.00335903
0.00316691
0.00299151
0.00282646
0.00267259
0.002535
0.0024239
0.00237213
0.00283493
0.0028506
0.00282433
0.00274829
0.00262413
0.00245884
0.0022743
0.00214111
0.00214729
0.00249722
0.00319116
0.00407905
0.00479707
0.00514773
0.00525559
0.0051987
0.00504006
0.00479641
0.0045124
0.00422946
0.0039603
0.00371658
0.00349821
0.00330475
0.0031297
0.00296684
0.00281578
0.00267954
0.0025689
0.00251698
0.00309298
0.00311134
0.00308877
0.00301592
0.00289245
0.00272276
0.0025251
0.00236014
0.00232764
0.00263108
0.00331221
0.00419194
0.00490433
0.00525264
0.00535813
0.00530109
0.00514525
0.00490717
0.00463032
0.00435384
0.00408833
0.00384647
0.0036289
0.00343558
0.00326148
0.00310147
0.0029541
0.00282024
0.00271153
0.00266089
0.00332535
0.00334597
0.00332827
0.00326153
0.00314316
0.00297528
0.002773
0.00258547
0.00252363
0.00277
0.00343332
0.00428226
0.00497911
0.00532066
0.00542393
0.00536995
0.00522163
0.00499338
0.00472794
0.00446075
0.00420245
0.00396483
0.00374957
0.00355784
0.00338652
0.00322982
0.00308626
0.00295647
0.00285149
0.00280317
0.00353779
0.00354756
0.00353046
0.00347352
0.00336492
0.00320545
0.00300582
0.002805
0.00272034
0.00290725
0.00354338
0.00434379
0.00501481
0.00534578
0.00544766
0.00540042
0.00526518
0.00505183
0.00480196
0.00454851
0.0043005
0.0040694
0.00385861
0.00367009
0.00350201
0.00335008
0.00321179
0.0030879
0.00298802
0.00294259
0.00372915
0.00372309
0.00369755
0.0036407
0.00354346
0.00339997
0.00320927
0.00300439
0.00290028
0.00303432
0.00363336
0.00437691
0.00500285
0.00531932
0.0054214
0.00538529
0.0052692
0.00507657
0.00484806
0.00461161
0.0043774
0.00415621
0.00395272
0.00376979
0.00360687
0.00346107
0.00332936
0.00321258
0.00311893
0.00307658
0.0038937
0.00387073
0.00383414
0.00377353
0.00368004
0.00354484
0.00336607
0.00316692
0.00304787
0.00313473
0.00368358
0.00435809
0.00492871
0.00522858
0.00533354
0.00531368
0.00522305
0.00505791
0.00485569
0.00464119
0.00442497
0.00421784
0.00402556
0.00385125
0.00369577
0.00355748
0.0034342
0.00332607
0.00323922
0.00320028
0.00402253
0.0039839
0.00393707
0.00387268
0.00378019
0.00364757
0.00347046
0.00327422
0.00314474
0.00319025
0.00366145
0.00426374
0.00477208
0.00505593
0.00516772
0.00517035
0.0051101
0.00497866
0.00480959
0.00462311
0.00443067
0.00424266
0.00406592
0.0039041
0.00375887
0.00363034
0.00351736
0.00341914
0.0033407
0.00330581
0.00410415
0.00405322
0.00399935
0.00393304
0.00384008
0.00370429
0.00352372
0.00332154
0.00317292
0.0031759
0.00353595
0.00406539
0.00450967
0.00478087
0.00490404
0.00493536
0.00490745
0.00481549
0.00468607
0.00453468
0.00437277
0.00421054
0.00405558
0.00391169
0.00378149
0.00366592
0.00356487
0.00347814
0.00341018
0.00338112
0.0041244
0.00406785
0.00401273
0.00394514
0.00384674
0.00370797
0.00352234
0.00330873
0.00313027
0.00307892
0.00330605
0.00373947
0.00413095
0.00439311
0.00452997
0.00459229
0.00459626
0.00454621
0.00445869
0.00434629
0.00422043
0.00409086
0.00396502
0.00384656
0.0037381
0.00364076
0.00355538
0.00348299
0.00342855
0.00340935
0.00406782
0.00401646
0.00396736
0.00389616
0.00379592
0.00365692
0.0034678
0.00324416
0.00303677
0.00292697
0.00302817
0.00333664
0.00366879
0.00392486
0.00407486
0.00416187
0.00419172
0.00417745
0.00412528
0.00404845
0.00395847
0.00386225
0.0037676
0.0036786
0.00359744
0.00352407
0.0034602
0.00340766
0.00337141
0.00336565
0.00393074
0.0038957
0.00385517
0.00379927
0.00370588
0.00356687
0.00338116
0.00316218
0.0029458
0.00280171
0.0028115
0.00300404
0.00325747
0.00348481
0.0036444
0.00374259
0.0037863
0.00379367
0.00376333
0.00370827
0.00363904
0.00356288
0.00348951
0.00342394
0.00336776
0.00331595
0.00327263
0.00324022
0.00322312
0.00323377
0.00374869
0.00373799
0.00371876
0.00368031
0.00360468
0.00347766
0.00330857
0.00311667
0.00293248
0.002796
0.00276842
0.00287633
0.00304961
0.0032267
0.00337279
0.00346393
0.00350714
0.00352056
0.00349901
0.00345284
0.0033912
0.00332199
0.00325465
0.00319462
0.00314415
0.00310294
0.00307218
0.00305311
0.0030477
0.00306777
0.00357614
0.00358018
0.00358513
0.00357334
0.00352326
0.00343169
0.00330349
0.00315926
0.00302334
0.00291885
0.00289002
0.00294673
0.00305306
0.00317659
0.00328674
0.00335834
0.00339333
0.00340553
0.00338943
0.00335243
0.00330114
0.00324267
0.00318511
0.00313336
0.00308899
0.00305258
0.00302431
0.00300394
0.00299266
0.00300557
0.00342558
0.00343224
0.00344718
0.00344952
0.00342551
0.00337314
0.00329739
0.00320673
0.00311993
0.00304954
0.00302398
0.00304942
0.00310709
0.00318442
0.00324959
0.00329549
0.00331724
0.00332359
0.00331183
0.00328748
0.00325497
0.00321939
0.00318609
0.00315851
0.00313711
0.00312089
0.0031081
0.00309657
0.00308547
0.00307892
0.00330384
0.00331657
0.00333457
0.0033413
0.00333067
0.00330342
0.00326452
0.00321256
0.00316379
0.0031215
0.00309257
0.00308952
0.00311186
0.00314547
0.00317285
0.00319325
0.0032007
0.00319918
0.00318983
0.00317635
0.00316293
0.00315264
0.00314757
0.00314888
0.00315627
0.00316768
0.00317897
0.00318908
0.00319487
0.00319143
0.000181105
0.00018857
0.000189059
0.00018643
0.000182006
0.000176815
0.000171515
0.000166533
0.000162053
0.000158216
0.000154979
0.000152384
0.000150242
0.00014864
0.000147385
0.000146435
0.000145162
0.000143363
0.000141422
0.000139557
0.000137218
0.000133388
0.000127171
0.000117848
0.00010514
9.10378e-05
0.000381244
0.000370241
8.89538e-05
0.000105344
0.00071312
0.000791644
0.00078796
0.000765475
0.000741097
0.000721936
0.000709771
0.000704498
0.00070467
0.000708603
0.000712642
0.00071458
0.000709621
0.000699404
0.00067994
0.000652231
0.000608947
0.000561914
0.00052428
0.000501154
0.000489968
0.000484344
0.000471862
0.000440665
0.000390934
0.0003443
0.000355149
0.000353585
0.000272789
0.000383892
0.00113569
0.00122828
0.00127683
0.00129149
0.00129017
0.0012916
0.00129986
0.00131807
0.0013463
0.00138204
0.00141754
0.0014448
0.00145315
0.00144308
0.00140824
0.00135001
0.00125658
0.00115349
0.00106275
0.000996192
0.000951407
0.000919587
0.000886584
0.000822838
0.000722546
0.000625251
0.000596684
0.000556255
0.000470505
0.000592671
0.00127845
0.00145526
0.00157656
0.00163582
0.00167016
0.00171068
0.00175509
0.00181132
0.00188423
0.00196933
0.00205377
0.00212003
0.00215341
0.00215171
0.00210858
0.00202552
0.00188898
0.00173608
0.00159653
0.0014839
0.00139995
0.00133653
0.00127391
0.00117828
0.00103556
0.000889771
0.000827363
0.000775382
0.000681771
0.000756161
0.00128173
0.00150055
0.00166413
0.00178393
0.00187818
0.00197603
0.00207037
0.00217665
0.00231109
0.00246264
0.00260819
0.00272448
0.00278927
0.00279935
0.00275057
0.00264654
0.00247285
0.00227602
0.00209076
0.00193619
0.00181493
0.00171978
0.0016296
0.00150769
0.0013323
0.00114612
0.00104827
0.000988764
0.000900329
0.000950523
0.00122539
0.00146084
0.00164913
0.00181064
0.00195377
0.00209814
0.0022426
0.00242223
0.00263883
0.00287544
0.00309604
0.00326938
0.0033689
0.00339166
0.003337
0.00321434
0.00300717
0.00276991
0.00254247
0.00234935
0.00219414
0.0020699
0.00195543
0.00181305
0.00161467
0.00139797
0.00126425
0.00119531
0.00112254
0.00116369
0.00117504
0.00140108
0.00159979
0.00178209
0.00195542
0.00213547
0.0023329
0.00257056
0.00288083
0.00322293
0.00353053
0.00376584
0.00390049
0.00393578
0.00387415
0.00373402
0.00349557
0.00322007
0.00295342
0.00272507
0.00253953
0.00238964
0.00225443
0.00209654
0.00188344
0.00164551
0.00148056
0.00139842
0.00134235
0.00138972
0.0011531
0.001356
0.00154984
0.00174112
0.00193513
0.00214498
0.00238554
0.00267791
0.00305389
0.00352065
0.00392048
0.0042193
0.00439041
0.00443705
0.00436752
0.00421001
0.00394138
0.00362937
0.00332648
0.00306629
0.00285406
0.00268209
0.00252956
0.00236031
0.00213926
0.001888
0.00169784
0.00159902
0.00155657
0.00161955
0.00116837
0.00135346
0.00153358
0.00171846
0.00192083
0.0021501
0.00242526
0.00276891
0.00321532
0.00377518
0.00426835
0.00463437
0.00484312
0.00489924
0.00482121
0.00464528
0.00434714
0.00400023
0.0036646
0.00337618
0.00314101
0.00295036
0.00278373
0.00260653
0.00238271
0.00212451
0.00191574
0.00180029
0.00176503
0.00184671
0.00121208
0.00138288
0.00156046
0.00174051
0.00193671
0.00217232
0.00247227
0.00286471
0.00337188
0.00399106
0.00458344
0.00501636
0.00526088
0.00532501
0.00523744
0.0050413
0.00471486
0.00433505
0.0039705
0.00365808
0.00340377
0.00319769
0.00301976
0.00283718
0.00261429
0.00235524
0.00213329
0.00200289
0.00196754
0.00206804
0.00132752
0.00146933
0.00161379
0.00179135
0.00199266
0.00223116
0.00254348
0.0029666
0.00352534
0.0041997
0.00487635
0.00536503
0.00564426
0.00571535
0.00561724
0.00539896
0.00504582
0.00463611
0.00424729
0.00391556
0.00364598
0.00342733
0.00324054
0.00305473
0.00283505
0.00257992
0.00235068
0.00220781
0.0021679
0.00228347
0.00151778
0.00165747
0.00178846
0.00191517
0.00206572
0.00230388
0.00262377
0.00307125
0.00367425
0.00438748
0.00513099
0.00568629
0.00599209
0.00606985
0.00596059
0.00571869
0.00534082
0.00490647
0.00449849
0.00415253
0.00387124
0.00364266
0.00344915
0.00326098
0.00304627
0.00279877
0.00256826
0.00241521
0.00236872
0.00249426
0.00177619
0.00190952
0.00202462
0.00212683
0.00224715
0.00241042
0.00270442
0.00317225
0.00380566
0.00455632
0.00536252
0.00597985
0.00630464
0.00638672
0.00626646
0.00600053
0.00560136
0.00514906
0.00472807
0.00437291
0.00408322
0.00384702
0.00364803
0.00345838
0.00324971
0.00301241
0.00278573
0.00262567
0.00257202
0.00270225
0.00211471
0.00223713
0.00233599
0.00240893
0.00248449
0.00260233
0.00283874
0.0032683
0.00392327
0.00472453
0.00557886
0.00624538
0.00658148
0.00666271
0.00653264
0.00624422
0.00582923
0.00536715
0.00493993
0.00458042
0.00428531
0.00404369
0.00383929
0.00364912
0.0034471
0.00322174
0.0030028
0.00283951
0.00277919
0.00290894
0.00252123
0.00262954
0.00270809
0.00274763
0.00277786
0.00284148
0.00302826
0.00342777
0.00406626
0.00489919
0.00578521
0.00648021
0.006818
0.00689514
0.00675551
0.00644878
0.00602648
0.00556353
0.00513737
0.00477809
0.00448034
0.00423459
0.00402532
0.00383521
0.00364011
0.00342763
0.00321923
0.00305639
0.00299011
0.0031142
0.00296912
0.00305736
0.00311013
0.00311475
0.00310429
0.00312122
0.00324426
0.00362516
0.00424702
0.00508718
0.00598555
0.00667629
0.00700718
0.00707851
0.00693078
0.00661245
0.00619458
0.00573996
0.00532239
0.00496759
0.00466993
0.00442082
0.0042076
0.00401786
0.00382966
0.00363028
0.00343413
0.00327447
0.00320393
0.00331894
0.0034246
0.0034865
0.00350786
0.00348211
0.00343624
0.00341344
0.00347979
0.00381511
0.0044332
0.00527779
0.00615323
0.00681069
0.00713956
0.00720509
0.00705301
0.0067325
0.00633303
0.00589589
0.00549433
0.00514833
0.00485324
0.00460246
0.00438661
0.00419565
0.00401439
0.00382795
0.0036443
0.00348943
0.00341874
0.00352322
0.00386031
0.0038864
0.00387595
0.00382339
0.00374785
0.00369045
0.0037198
0.00398637
0.00460207
0.00541317
0.00624944
0.00688507
0.00720529
0.00726553
0.00711508
0.00680459
0.00643796
0.00602732
0.00564899
0.00531645
0.00502689
0.00477735
0.00456096
0.00436996
0.00419178
0.00401565
0.00384551
0.0037019
0.00363282
0.00372496
0.00424178
0.00423314
0.0041952
0.00411918
0.00401898
0.00393281
0.0039345
0.00412661
0.00472859
0.00548481
0.0062718
0.00688452
0.00719168
0.0072489
0.00710821
0.00682223
0.00650049
0.00612566
0.00577745
0.00546379
0.00518448
0.00493952
0.00472553
0.00453692
0.00436358
0.00419752
0.00404076
0.0039084
0.00384199
0.00391921
0.00456258
0.00452167
0.00445594
0.00435832
0.00423672
0.00412488
0.0040954
0.00422826
0.00478469
0.0055023
0.00622702
0.00679279
0.00708419
0.00714322
0.00702228
0.00677535
0.00650665
0.00617742
0.00586524
0.00557634
0.0053133
0.00507848
0.00487135
0.00468839
0.00452225
0.00436674
0.00422243
0.00410047
0.00403738
0.00409737
0.00481411
0.00474368
0.00465282
0.00453509
0.00439426
0.00425724
0.00419097
0.00427133
0.00474533
0.00541795
0.00607231
0.00658945
0.00686828
0.00693745
0.00684704
0.00665101
0.00644017
0.00616301
0.00589178
0.00563336
0.00539318
0.00517525
0.00498085
0.00480819
0.00465232
0.00450859
0.00437694
0.004266
0.00420555
0.00424674
0.00498454
0.00489028
0.00478003
0.00464651
0.00448833
0.00432594
0.00421735
0.00424228
0.00459704
0.00519831
0.00578841
0.00626087
0.00653552
0.00662615
0.00657571
0.00643753
0.00628451
0.00606152
0.00583372
0.00561022
0.00539748
0.0052014
0.00502524
0.00486871
0.00472815
0.00459971
0.00448288
0.00438422
0.00432742
0.00435042
0.00506255
0.00495333
0.00483224
0.00468951
0.00451779
0.00433164
0.00417881
0.00413986
0.00436119
0.00484646
0.00537141
0.00580979
0.00609489
0.00621928
0.00621361
0.00613428
0.00603231
0.00586161
0.00567602
0.00548676
0.00530371
0.0051338
0.0049806
0.0048447
0.00472364
0.00461414
0.00451516
0.00443129
0.00438071
0.00438906
0.00504172
0.00492974
0.0048086
0.00466522
0.00448792
0.00428502
0.00409453
0.00399109
0.00408225
0.00443119
0.00487536
0.00528656
0.00558397
0.00575383
0.00579254
0.00576553
0.00570471
0.00557941
0.00543251
0.00527589
0.00512049
0.00497455
0.00484282
0.00472694
0.00462555
0.00453584
0.00445611
0.00438882
0.00434687
0.00434593
0.0049298
0.00482886
0.0047203
0.00458809
0.00441777
0.00421272
0.00400353
0.00385402
0.00384209
0.00406439
0.00441929
0.00478828
0.00508766
0.0052963
0.0053765
0.00538876
0.0053574
0.00526804
0.00515251
0.00502267
0.00488926
0.00476117
0.00464442
0.00454195
0.00445369
0.00437755
0.00431169
0.00425736
0.00422356
0.00422089
0.00475932
0.00468267
0.0046
0.00449211
0.00434447
0.00415697
0.00395763
0.0037929
0.00372872
0.0038528
0.0041166
0.00442803
0.00470744
0.00492461
0.00503441
0.00506737
0.00505193
0.00498579
0.0048926
0.00478289
0.00466631
0.00455131
0.00444443
0.00434944
0.00426737
0.00419697
0.00413683
0.00408773
0.00405634
0.00405388
0.00459064
0.00454735
0.00449515
0.00442093
0.00430763
0.00415683
0.00398976
0.0038406
0.00376982
0.00382857
0.00400958
0.00425081
0.00448606
0.0046803
0.0047919
0.00482426
0.00481046
0.00475469
0.00467616
0.00458321
0.00448368
0.00438461
0.00429212
0.00420939
0.00413743
0.00407501
0.00402101
0.00397535
0.00394254
0.00393744
0.00447026
0.00445535
0.00443744
0.00439643
0.00431775
0.00420421
0.00407263
0.00395399
0.00389056
0.00391123
0.00402802