/*--------------------------------*- C++ -*----------------------------------*\
  =========                 |
  \\      /  F ield         | OpenFOAM: The Open Source CFD Toolbox
   \\    /   O peration     | Website:  https://openfoam.org
    \\  /    A nd           | Version:  12
     \\/     M anipulation  |
\*---------------------------------------------------------------------------*/
FoamFile
{
    format      ascii;
    class       volScalarField;
    location    "1000/air";
    object      epsilon;
}
// * * * * * * * * * * * * * * * * * * * * * * * * * * * * * * * * * * * * * //

dimensions      [0 2 -3 0 0 0 0];

internalField   nonuniform List<scalar> 
243000
(
0.823793
0.674436
0.822907
1.10737
1.36969
1.6027
1.80524
1.97758
2.11906
2.2285
2.30057
2.33671
2.33042
2.29676
2.25358
2.23967
2.26199
2.30267
2.32446
2.3018
2.22697
2.10426
1.94623
1.76797
1.58434
1.4048
1.23599
1.01473
0.752133
0.569987
0.499795
0.490323
0.443295
0.515791
0.636699
0.751889
0.855644
0.947518
1.02912
1.10175
1.16735
1.23018
1.28874
1.34997
1.41632
1.49581
1.5667
1.60433
1.58849
1.52018
1.41689
1.29298
1.15969
1.02453
0.893059
0.771372
0.666517
0.560054
0.440518
0.321791
0.552718
0.556679
0.51583
0.488676
0.490625
0.54653
0.633867
0.717344
0.798957
0.873753
0.948203
1.02646
1.10719
1.19575
1.29277
1.39947
1.49005
1.5411
1.53648
1.47953
1.39018
1.28319
1.16842
1.05131
0.935311
0.825028
0.725161
0.627208
0.519252
0.400227
0.687456
0.698814
0.668802
0.629423
0.58998
0.584064
0.622701
0.691034
0.79755
0.921765
1.05651
1.20298
1.35467
1.51388
1.67818
1.8435
1.9744
2.04275
2.03185
1.94965
1.82454
1.67777
1.52269
1.36646
1.213
1.06659
0.931496
0.802782
0.672199
0.533656
0.840093
0.857708
0.835538
0.794815
0.742257
0.691728
0.669944
0.694954
0.771071
0.897148
1.08499
1.31189
1.55519
1.80426
2.04918
2.27961
2.45245
2.5378
2.52056
2.41404
2.2543
2.06892
1.87486
1.6811
1.49188
1.31097
1.1425
0.983209
0.82878
0.674027
1.00872
1.034
1.01878
0.97934
0.920378
0.851513
0.783638
0.749496
0.776175
0.87662
1.06377
1.36599
1.71181
2.06727
2.40334
2.70366
2.91864
3.02006
2.99627
2.86673
2.67431
2.45229
2.22143
1.99235
1.7696
1.55656
1.35727
1.16959
0.99069
0.820309
1.19327
1.22601
1.2167
1.17823
1.11448
1.03293
0.942978
0.857868
0.826518
0.880791
1.04628
1.38107
1.831
2.30397
2.73962
3.1128
3.36921
3.48548
3.45523
3.30422
3.08135
2.82513
2.55996
2.29803
2.04432
1.80183
1.57448
1.36095
1.15794
0.97184
1.39382
1.43335
1.42826
1.38931
1.32014
1.22713
1.11881
1.00857
0.920624
0.920721
1.05059
1.37463
1.92005
2.51673
3.05751
3.50491
3.80149
3.93144
3.89502
3.72442
3.47354
3.18567
2.88858
2.59638
2.31441
2.04534
1.79263
1.55568
1.33199
1.12848
1.61062
1.65526
1.6531
1.61242
1.53638
1.43108
1.30499
1.17087
1.04527
0.99168
1.07989
1.37325
1.9896
2.70861
3.35678
3.87806
4.2138
4.35593
4.314
4.12589
3.84964
3.5327
3.20614
2.88605
2.57853
2.28567
2.01022
1.75215
1.51015
1.28895
1.84468
1.89202
1.89075
1.84703
1.76319
1.64479
1.49999
1.34196
1.19126
1.08892
1.13073
1.39648
2.05063
2.88304
3.63738
4.23101
4.60444
4.7577
4.71093
4.50741
4.20852
3.86539
3.51195
3.16642
2.83573
2.52159
2.22591
1.94894
1.69055
1.45193
2.09643
2.14354
2.14092
2.0927
2.00029
1.86825
1.70433
1.52166
1.34234
1.20221
1.199
1.43881
2.10779
3.04275
3.89928
4.56254
4.97194
5.13573
5.08508
4.86824
4.54962
4.18323
3.80568
3.43707
3.08536
2.75194
2.43833
2.14469
1.87165
1.61775
2.36601
2.40916
2.40252
2.34852
2.24689
2.10097
1.91786
1.71031
1.5013
1.32724
1.2828
1.49688
2.16554
3.19026
4.14222
4.87136
5.31485
5.48902
5.43576
5.20802
4.87253
4.48596
4.08706
3.69771
3.32694
2.97613
2.64662
2.3383
2.05218
1.78633
2.65421
2.68953
2.67579
2.61385
2.5024
2.34243
2.1402
1.90797
1.6691
1.46318
1.38062
1.56802
2.22658
3.3271
4.36588
5.15607
5.63173
5.81638
5.76218
5.52606
5.17672
4.77318
4.35584
3.94819
3.56037
3.19402
2.85045
2.52925
2.23142
1.95535
2.96267
2.98609
2.96208
2.88982
2.76689
2.59263
2.37123
2.11462
1.84588
1.60961
1.4914
1.64998
2.29232
3.45414
4.5698
5.41528
5.92108
6.11664
6.06337
5.82159
5.46151
5.0444
4.61179
4.18857
3.78595
3.40605
3.05028
2.71783
2.40956
2.1244
3.29277
3.3008
3.26343
3.17821
3.04184
2.85225
2.61139
2.33044
2.03216
1.76637
1.61411
1.74158
2.36327
3.57125
4.7532
5.64804
6.1816
6.38862
6.33828
6.09381
5.72631
5.29913
4.85466
4.4187
4.00379
3.61264
3.24662
2.90467
2.58728
2.294
3.6475
3.63686
3.58264
3.48146
3.3293
3.12264
2.86163
2.55597
2.22837
1.93269
1.74762
1.84179
2.4393
3.6779
4.9148
5.85329
6.41221
6.63116
6.58591
6.34179
5.97037
5.5368
5.08394
4.63859
4.21407
3.81404
3.43977
3.09015
2.76514
2.46499
4.03281
3.99872
3.92341
3.80278
3.63209
3.40621
3.12362
2.79222
2.43508
2.10885
1.89087
1.94947
2.51966
3.77316
5.0527
6.02953
6.6117
6.84339
6.80531
6.56451
6.19271
5.75649
5.29935
4.84814
4.41695
4.01044
3.63003
3.27446
2.94344
2.63779
4.45366
4.39187
4.29085
4.14672
3.95435
3.70642
3.3999
3.0409
2.65327
2.29438
2.04302
2.06346
2.60354
3.85671
5.16538
6.17485
6.7787
7.02428
6.99553
6.7606
6.39264
5.95798
5.5004
5.04691
4.61223
4.20193
3.81758
3.45793
3.12249
2.81286
4.89787
4.81711
4.69309
4.5207
4.30309
4.02902
3.69483
3.30497
2.88504
2.49027
2.20338
2.18291
2.68984
3.92667
5.25103
6.28708
6.91167
7.17272
7.15541
6.93011
6.57023
6.14093
5.68653
5.23443
4.7996
4.38833
4.00247
3.64079
3.30269
2.99065
5.36291
5.26119
5.12053
4.93361
4.69206
4.3847
4.01665
3.59018
3.13648
2.69902
2.37153
2.30811
2.77757
3.98141
5.3082
6.36426
7.00907
7.28752
7.28494
7.07348
6.72529
6.30502
5.85752
5.41041
4.97878
4.5696
4.18485
3.82345
3.48473
3.17194
5.8463
5.72155
5.56369
5.36409
5.11098
4.78816
4.38338
3.909
3.41871
2.92423
2.54784
2.43856
2.86536
4.02006
5.3363
6.40414
7.06909
7.36812
7.38353
7.18989
6.85742
6.45011
6.01331
5.5748
5.14992
4.74596
4.36514
4.00656
3.6695
3.35802
6.34469
6.19622
6.02106
5.8095
5.54792
5.2165
4.79498
4.29318
3.72615
3.16461
2.73221
2.57426
2.95162
4.04066
5.33007
6.4071
7.09039
7.412
7.4494
7.2782
6.96593
6.57584
6.1538
5.72778
5.31333
4.91798
4.54414
4.19113
3.85829
3.55058
6.85512
6.68393
6.4929
6.27184
6.00605
5.67459
5.25733
4.71269
4.0653
3.42164
2.92598
2.71682
3.0347
4.04105
5.29089
6.36542
7.06771
7.41591
7.47888
7.33573
7.04904
6.68105
6.27829
5.86917
5.46938
5.08648
4.723
4.37852
4.05273
3.75157
7.37751
7.18733
6.98511
6.76466
6.51186
6.18402
5.72519
5.12407
4.41118
3.69325
3.13409
2.87163
3.11546
4.02205
5.21093
6.27113
6.98751
7.36411
7.45943
7.348
7.09626
6.75863
6.38227
5.99616
5.61663
5.25157
4.9032
4.57116
4.25576
3.96474
7.91132
7.72028
7.52782
7.30373
7.01629
6.638
6.13286
5.48653
4.73349
3.97669
3.37199
3.05763
3.21803
3.98872
5.0869
6.11117
6.83121
7.236
7.36848
7.29827
7.0862
6.78647
6.44622
6.09376
5.74378
5.40594
5.08157
4.76954
4.47045
4.19384
8.43496
8.22352
7.98922
7.71777
7.38784
6.96953
6.43276
5.77831
5.05795
4.31748
3.68806
3.32815
3.41055
4.055
5.02263
5.96268
6.6628
7.08867
7.26585
7.24802
7.0838
6.82561
6.51373
6.17757
5.83816
5.53169
5.2415
4.96067
4.68775
4.43364
8.76073
8.47623
8.20009
7.92296
7.61957
7.25654
6.79819
6.22524
5.55633
4.84357
4.20941
3.8148
3.82544
4.36488
5.21775
6.07281
6.73669
7.16378
7.36459
7.38523
7.25975
7.0329
6.7426
6.41817
6.08207
5.75959
5.45115
5.15477
4.87644
4.63894
9.49247
9.19102
8.8944
8.60593
8.31426
7.99294
7.60518
7.12057
6.53689
5.8942
5.30003
4.9083
4.87009
5.32183
6.06647
6.81983
7.41117
7.79994
7.99049
8.01567
7.89973
7.6806
7.39278
7.0641
6.71639
6.37024
6.03288
5.70583
5.39247
5.10988
11.1312
10.8423
10.5946
10.4034
10.2459
10.088
9.88669
9.60232
9.22322
8.77556
8.32875
8.02752
7.99149
8.3492
8.93742
9.51152
9.93686
10.2012
10.3028
10.2635
10.0999
9.84265
9.51975
9.15379
8.76325
8.36517
7.96051
7.55097
7.14627
6.76912
18.1255
17.9812
18.1146
18.3535
18.5394
18.6506
18.6784
18.6235
18.4946
18.3048
17.9975
17.7726
17.6664
17.7409
17.9051
18.0934
18.1908
18.2443
18.2382
18.1926
18.1083
18.0038
17.8784
17.7423
17.6001
17.4531
17.1793
16.7615
16.3075
15.8389
1.7938
3.13174
3.67903
4.1139
4.44185
4.70063
4.91007
5.08463
5.23217
5.3664
5.48995
5.61414
5.7216
5.82306
5.901
5.95399
5.91416
5.72864
5.39131
4.92592
4.36525
3.7303
3.05893
2.39379
1.7806
1.29099
0.976428
0.719226
0.594018
0.747686
2.06643
3.02034
3.15672
3.19928
3.16636
3.1163
3.06129
3.00887
2.96541
2.94139
2.9438
2.98147
3.05152
3.1495
3.25897
3.35798
3.39599
3.33119
3.17267
2.93252
2.65888
2.33094
1.97161
1.60028
1.23371
0.905245
0.672359
0.523212
0.4572
0.464257
1.58465
2.51098
2.75209
2.88148
2.91437
2.88545
2.81327
2.73486
2.66318
2.61449
2.59933
2.62813
2.69954
2.8086
2.93427
3.05152
3.10918
3.07046
2.9453
2.74893
2.52268
2.25046
1.94113
1.61563
1.28684
0.97527
0.737338
0.579959
0.507296
0.466751
1.19331
1.8086
2.1166
2.31324
2.44072
2.52077
2.55501
2.54941
2.51429
2.49446
2.50555
2.56078
2.65856
2.79484
2.94523
3.08161
3.15222
3.1266
3.01222
2.828
2.61035
2.35105
2.0581
1.74612
1.42528
1.11191
0.85806
0.68147
0.588522
0.507021
0.985603
1.36683
1.61225
1.79195
1.92821
2.05169
2.16574
2.24594
2.30473
2.36561
2.439
2.54695
2.68835
2.86206
3.04209
3.19909
3.28166
3.26545
3.15642
2.97486
2.75582
2.49695
2.20685
1.8973
1.57726
1.26043
0.992047
0.795347
0.681961
0.577553
0.865053
1.13579
1.31949
1.46694
1.58637
1.70052
1.81688
1.923
2.0378
2.18757
2.35421
2.53542
2.73423
2.95242
3.16503
3.34353
3.43782
3.43
3.32453
3.14234
2.9183
2.65488
2.36231
2.05071
1.72859
1.4088
1.12901
0.914128
0.781345
0.663583
0.850661
1.04639
1.18866
1.29815
1.38715
1.47261
1.56568
1.66994
1.80335
1.99237
2.24647
2.51723
2.78157
3.04827
3.29487
3.49531
3.60154
3.60221
3.50001
3.3163
3.08595
2.81578
2.51813
2.20244
1.87688
1.55423
1.2654
1.0349
0.883707
0.757546
0.962075
1.09964
1.17471
1.24913
1.30713
1.35426
1.4115
1.49387
1.62392
1.82889
2.13315
2.49385
2.8268
3.14342
3.42414
3.64649
3.76523
3.77493
3.67646
3.49131
3.25427
2.97638
2.67225
2.35163
2.0222
1.69634
1.3998
1.1559
0.988995
0.855322
1.14685
1.2533
1.29833
1.31324
1.31592
1.3224
1.34097
1.39021
1.50083
1.70546
2.03222
2.46876
2.86986
3.23578
3.54972
3.79355
3.92551
3.9449
3.85105
3.66493
3.42121
3.13521
2.8239
2.4979
2.16472
1.83543
1.53211
1.27673
1.09557
0.954266
1.40257
1.48177
1.50233
1.47499
1.42195
1.36927
1.33756
1.34931
1.42956
1.62107
1.9603
2.44718
2.91203
3.32484
3.67041
3.93511
4.08074
4.11041
4.02205
3.83555
3.58538
3.29134
2.97254
2.64096
2.30426
1.97181
1.66298
1.39767
1.20257
1.05338
1.70107
1.76996
1.78141
1.71682
1.61463
1.50043
1.40432
1.3615
1.40405
1.57276
1.91321
2.43292
2.95479
3.41072
3.78592
4.07078
4.23036
4.27039
4.18801
4.00156
3.74536
3.44357
3.11741
2.78035
2.44032
2.10525
1.79192
1.51886
1.31088
1.15396
1.99135
2.04486
2.05781
1.99473
1.85837
1.69518
1.53632
1.42757
1.41555
1.55238
1.88748
2.42703
2.99827
3.49376
3.89651
4.20075
4.37436
4.4243
4.34765
4.16129
3.89941
3.59059
3.25766
2.9156
2.57261
2.23534
1.91887
1.63982
1.42075
1.25685
2.26398
2.29801
2.30666
2.24702
2.11548
1.91896
1.71268
1.54062
1.46781
1.55649
1.87966
2.43057
3.04355
3.57467
4.00274
4.32553
4.51311
4.57194
4.50015
4.31325
4.04568
3.73112
3.39246
3.04616
2.70109
2.36245
2.04411
1.76056
1.53254
1.36211
2.5184
2.53355
2.53525
2.47848
2.35194
2.15012
1.91012
1.6877
1.55315
1.59417
1.89065
2.44707
3.09189
3.65456
4.10552
4.44588
4.64733
4.71363
4.64512
4.45664
4.18297
3.86399
3.52118
3.17184
2.82531
2.48655
2.16803
1.88175
1.64681
1.47042
2.76254
2.76226
2.75711
2.70059
2.57799
2.3798
2.11884
1.85713
1.66744
1.65783
1.92394
2.47645
3.14446
3.73512
4.20844
4.56475
4.77852
4.8503
4.78285
4.59123
4.31156
3.98916
3.64351
3.29231
2.9455
2.60812
2.29086
2.00407
1.76425
1.58274
3.00749
2.99633
2.98465
2.92697
2.80605
2.60793
2.33601
2.04241
1.80471
1.74384
1.97702
2.51862
3.20348
3.8189
4.31512
4.68615
4.90918
4.98398
4.91482
4.71796
4.43276
4.10718
3.7592
3.40871
3.0631
2.72817
2.41361
2.12811
1.88563
1.70077
3.26622
3.24727
3.22985
3.17041
3.04947
2.84911
2.56786
2.24593
1.96439
1.85089
2.05159
2.57517
3.27224
3.90976
4.42822
4.81593
5.04354
5.11858
5.04416
4.83967
4.54786
4.21935
3.872
3.52256
3.17921
2.84815
2.53786
2.2554
2.01231
1.82607
3.54985
3.52626
3.50417
3.44286
3.32094
3.11627
2.8244
2.47455
2.1501
1.98187
2.14465
2.65109
3.35459
4.01387
4.55512
4.96064
5.18893
5.26094
5.17722
4.96076
4.664
4.33256
3.98424
3.6362
3.29614
2.97055
2.66617
2.38776
2.14559
1.96015
3.86579
3.84208
3.81826
3.75567
3.63266
3.42293
3.11914
2.7396
2.36966
2.14434
2.26148
2.75294
3.45957
4.14176
4.70775
5.13073
5.35744
5.42316
5.3243
5.09752
4.79206
4.45328
4.10205
3.75482
3.41898
3.09959
2.80131
2.5274
2.28771
2.10547
4.22482
4.20234
4.17992
4.11977
3.99754
3.7844
3.46953
3.05771
2.63642
2.35116
2.41606
2.89204
3.60346
4.31207
4.9066
5.34728
5.57057
5.62574
5.51352
5.27027
4.94705
4.5957
4.23723
3.88771
3.55407
3.24004
2.94789
2.67922
2.44313
2.2662
4.63768
4.61978
4.60154
4.54689
4.43111
4.22238
3.90099
3.45569
2.97788
2.62973
2.63624
3.09739
3.81779
4.5592
5.18907
5.64933
5.87019
5.91268
5.77655
5.50758
5.15892
4.78578
4.41189
4.05335
3.71674
3.40426
3.11597
2.85174
2.6198
2.44935
5.12512
5.11677
5.10715
5.06473
4.96466
4.77514
4.45582
3.98251
3.44643
3.0348
2.97926
3.42851
4.16526
4.95024
5.62748
6.11481
6.33328
6.35499
6.18374
5.87395
5.48419
5.07238
4.66885
4.28799
3.93698
3.61701
3.32651
3.06309
2.83236
2.66759
5.7352
5.7459
5.75397
5.7334
5.66809
5.52358
5.21845
4.73164
4.14696
3.67203
3.56413
4.0118
4.77796
5.62468
6.37164
6.89596
7.11789
7.10656
6.88151
6.50508
6.04503
5.56246
5.09806
4.66699
4.27703
3.92856
3.61868
3.34357
3.10637
2.94444
6.58779
6.63005
6.67021
6.69729
6.71233
6.62106
6.3646
5.904
5.30526
4.78829
4.65026
5.1272
5.95974
6.89554
7.75802
8.34198
8.57312
8.51469
8.20639
7.7175
7.13374
6.52336
5.93484
5.39056
4.90255
4.47315
4.10032
3.77972
3.513
3.34402
7.95577
8.04642
8.157
8.30451
8.4182
8.43969
8.30767
7.95719
7.43223
6.94554
6.8455
7.41691
8.40842
9.52709
10.595
11.2904
11.551
11.4308
10.9506
10.235
9.40896
8.53888
7.69204
6.90889
6.20821
5.59459
5.06906
4.62698
4.26778
4.04504
10.468
10.6557
10.9314
11.227
11.532
11.8004
11.9536
11.8923
11.6354
11.3749
11.5223
12.3491
13.622
15.05
16.469
17.3623
17.6461
17.3953
16.6307
15.5145
14.201
12.8063
11.4497
10.1948
9.06749
8.07021
7.2114
6.48579
5.88899
5.49859
15.5496
15.9669
16.4416
16.9889
17.6342
18.3495
19.0471
19.5828
19.964
20.3644
21.2097
22.6297
24.3598
26.2188
28.0595
29.1687
29.4515
28.9867
27.7903
26.0441
23.9444
21.6946
19.4674
17.366
15.4397
13.7105
12.1893
10.8638
9.72191
8.88559
25.9244
26.4888
27.1414
28.0345
29.2332
30.6644
32.1787
33.5379
34.8063
36.2661
38.2616
40.7014
43.081
45.4573
47.5803
48.7808
49.0662
48.4332
46.8857
44.5884
41.7112
38.5119
35.2418
32.0544
29.0143
26.1693
23.5569
21.1488
18.9393
17.1525
40.1624
40.3316
41.5539
43.4524
45.4458
47.4758
49.3425
50.7739
52.3085
54.3784
57.3381
60.6442
63.8355
66.7052
68.6584
69.4948
69.6298
68.9218
67.4339
65.2671
62.478
59.2699
55.8837
52.4683
49.0987
45.7903
42.5613
39.3347
36.1383
33.1579
43.7421
44.0648
45.6302
47.7208
49.6622
50.9947
51.7327
52.1938
52.871
54.2075
56.5179
59.6562
63.0441
65.8625
67.1575
67.0251
66.5898
65.5009
63.9522
62.0454
59.9304
57.7361
55.5632
53.4939
51.601
49.8744
48.1461
46.3805
44.6354
42.8141
4.42482
5.81756
6.80412
7.53937
8.06276
8.43944
8.72292
8.95603
9.15574
9.33538
9.48186
9.59854
9.64583
9.63682
9.53609
9.33612
8.9271
8.30256
7.57317
6.81097
5.9733
4.99518
3.89066
2.75015
1.70546
0.981208
0.788987
0.155496
0.615258
0.877117
3.83827
4.12368
4.52194
4.80967
4.97044
5.04299
5.05882
5.04308
5.00838
4.96405
4.91761
4.88007
4.8561
4.84136
4.82554
4.77405
4.63072
4.38344
4.13259
3.89382
3.60871
3.19831
2.66021
2.03372
1.38048
0.808895
0.518524
0.334042
0.408395
0.452274
3.76384
3.95841
4.30184
4.55492
4.68895
4.73204
4.71032
4.64657
4.55687
4.45456
4.35266
4.26946
4.2144
4.18795
4.17776
4.15044
4.05114
3.87414
3.69787
3.54283
3.35579
3.06152
2.62927
2.10004
1.51587
0.954666
0.625832
0.436982
0.403778
0.431434
3.50676
3.80068
4.17773
4.45521
4.61013
4.6708
4.65641
4.58865
4.48977
4.37622
4.26276
4.17477
4.11909
4.09878
4.09969
4.08839
4.00755
3.85679
3.70068
3.56699
3.40381
3.14283
2.75783
2.26857
1.70798
1.14184
0.767893
0.548064
0.45277
0.441186
2.96562
3.36495
3.82474
4.1626
4.3792
4.5025
4.53544
4.50386
4.43658
4.3494
4.26046
4.19136
4.15444
4.15252
4.171
4.17586
4.10884
3.97522
3.83243
3.70157
3.53905
3.28615
2.91921
2.44876
1.90141
1.33387
0.919427
0.669225
0.528854
0.483764
2.31438
2.76178
3.24726
3.63308
3.9106
4.10501
4.22096
4.28299
4.30381
4.28658
4.25315
4.22754
4.22438
4.25104
4.29209
4.31388
4.26082
4.14372
4.01141
3.87925
3.70879
3.4518
3.08924
2.62688
2.0871
1.52111
1.07531
0.793756
0.620455
0.547998
1.76973
2.20013
2.65679
3.03959
3.34288
3.58061
3.76516
3.9245
4.05932
4.16183
4.21686
4.25628
4.30077
4.36367
4.43089
4.47105
4.43412
4.33538
4.21331
4.07924
3.89677
3.6288
3.26237
2.80164
2.26589
1.70236
1.23267
0.91954
0.720353
0.626681
1.39699
1.75714
2.15007
2.50422
2.80584
3.06777
3.29977
3.51944
3.74666
3.97563
4.14919
4.27308
4.37453
4.47933
4.57528
4.63566
4.61825
4.54092
4.43073
4.29366
4.09648
3.81301
3.43713
2.97384
2.43977
1.87831
1.39112
1.04928
0.826274
0.714824
1.19565
1.47298
1.79148
2.09281
2.36845
2.6268
2.87645
3.13921
3.43119
3.7591
4.05865
4.27828
4.44346
4.59428
4.72071
4.80391
4.81006
4.75734
4.66061
4.51889
4.30454
4.00211
3.61292
3.14429
2.61063
2.05059
1.55063
1.18246
0.93747
0.809649
1.11645
1.33411
1.58279
1.82183
2.05086
2.28164
2.52725
2.80925
3.14744
3.54332
3.95602
4.27462
4.50902
4.70794
4.86668
4.97625
5.00938
4.98425
4.90085
4.75247
4.51832
4.19426
3.78903
3.31344
2.77971
2.22056
1.71172
1.31983
1.055
0.910784
1.11527
1.30183
1.50332
1.68522
1.85939
2.04599
2.26515
2.54606
2.90988
3.35583
3.85818
4.27001
4.57381
4.82193
5.01483
5.15487
5.21828
5.22206
5.14999
4.9919
4.73532
4.3875
3.96444
3.48059
2.947
2.38954
1.87456
1.46263
1.17937
1.01931
1.18806
1.36443
1.5244
1.65999
1.7825
1.91536
2.0939
2.35533
2.72624
3.20882
3.77655
4.26797
4.64085
4.939
5.16833
5.34333
5.44008
5.47107
5.4067
5.23478
4.95297
4.57996
4.13791
3.64584
3.11226
2.55777
2.03965
1.61241
1.3116
1.13662
1.32935
1.4995
1.63828
1.73896
1.80095
1.87525
2.00694
2.23549
2.6016
3.1028
3.7113
4.27381
4.71381
5.06303
5.33175
5.54638
5.67822
5.7324
5.67008
5.47911
5.16927
4.77002
4.30915
3.80887
3.27559
2.72571
2.20772
1.76952
1.45251
1.26399
1.53128
1.68324
1.81125
1.88663
1.90557
1.91882
1.98447
2.17634
2.52323
3.0289
3.66551
4.29135
4.7972
5.1994
5.51149
5.77004
5.93696
6.00815
5.94005
5.72402
5.3833
4.9568
4.47872
3.97023
3.43758
2.89374
2.37888
1.9341
1.60326
1.40303
1.80269
1.9266
2.03614
2.08311
2.07051
2.03223
2.03272
2.16465
2.48437
2.98597
3.64048
4.32487
4.89709
5.35571
5.71637
6.02269
6.22186
6.30235
6.21861
5.97093
5.59626
5.14217
4.64785
4.13145
3.59976
3.06299
2.55385
2.1068
1.76544
1.55587
2.15245
2.23291
2.31369
2.32805
2.28318
2.2021
2.1433
2.21282
2.47973
2.97101
3.63585
4.3822
5.02241
5.54259
5.95854
6.31581
6.54135
6.6214
6.51126
6.22506
5.81284
5.33098
4.82017
4.29612
3.76554
3.23656
2.73511
2.28955
1.9411
1.72502
2.57488
2.60901
2.64974
2.62858
2.54866
2.42576
2.31354
2.31509
2.52634
2.99047
3.67053
4.48247
5.18632
5.77534
6.25506
6.66575
6.90952
6.97817
6.82998
6.49789
6.0441
5.5319
5.00307
4.47275
3.94237
3.4209
2.92831
2.48719
2.13335
1.91372
3.07615
3.06544
3.05678
2.9954
2.87608
2.70834
2.545
2.47681
2.63546
3.07517
3.77045
4.63287
5.40744
6.07669
6.63096
7.0969
7.34972
7.3956
7.19756
6.81081
6.30954
5.76152
5.21087
4.67115
4.14183
3.62741
3.14231
2.70281
2.34643
2.12637
3.64219
3.5919
3.54449
3.44249
3.28077
3.06399
2.84359
2.71099
2.8085
3.23889
3.95337
4.85978
5.71606
6.48195
7.12484
7.64778
7.90242
7.91386
7.65382
7.20135
6.64249
6.05083
5.47031
4.91316
4.3774
3.86512
3.38377
2.94554
2.58882
2.3702
4.30355
4.2179
4.13164
3.99362
3.78742
3.52001
3.23911
3.04328
3.07649
3.49559
4.24197
5.20547
6.16235
7.0484
7.79944
8.38345
8.63708
8.60172
8.26788
7.73505
7.1041
6.45418
5.82754
5.23952
4.68618
4.16478
3.67862
3.23633
2.87606
2.65786
5.09739
4.97939
4.8552
4.68007
4.43723
4.1237
3.78218
3.52205
3.49301
3.90359
4.70252
5.74638
6.83329
7.87366
8.76216
9.41792
9.67265
9.58156
9.16143
8.52949
7.80608
7.07227
6.37188
5.72725
5.13078
4.5781
4.06967
3.61143
3.23564
3.0115
6.08078
5.93244
5.77321
5.56675
5.30028
4.95481
4.56192
4.24035
4.15954
4.58078
5.46043
6.62542
7.88678
9.13199
10.2052
10.956
11.2224
11.073
10.5561
9.79993
8.95917
8.10815
7.29086
6.53412
5.84132
5.21017
4.63925
4.13192
3.71612
3.4705
7.35081
7.17389
6.98755
6.766
6.5007
6.1546
5.74252
5.38413
5.27604
5.7469
6.76731
8.13124
9.62169
11.1459
12.4835
13.3733
13.6778
13.4776
12.8662
11.967
10.9298
9.86246
8.82954
7.86929
6.99615
6.21202
5.5145
4.90419
4.40525
4.10748
9.08795
8.8939
8.70259
8.50437
8.28742
8.00203
7.64227
7.31566
7.24789
7.84715
9.10418
10.7788
12.6277
14.5247
16.2543
17.3525
17.7484
17.5309
16.7552
15.5863
14.2127
12.7807
11.3837
10.0809
8.90015
7.84963
6.92664
6.12725
5.47074
5.06404
11.6537
11.4794
11.3341
11.2252
11.1434
11.0351
10.8701
10.7239
10.8702
11.7461
13.3841
15.5118
17.8501
20.2538
22.5307
23.908
24.3804
24.0823
23.0602
21.5016
19.6339
17.6523
15.6865
13.8323
12.1417
10.6372
9.32011
8.18547
7.24696
6.63975
15.7889
15.7086
15.6993
15.7994
15.9961
16.2607
16.528
16.8375
17.5053
18.9009
21.1101
23.8339
26.764
29.7425
32.6115
34.2528
34.7667
34.3308
32.9906
30.9411
28.4358
25.7203
22.9675
20.3155
17.8534
15.6314
13.665
11.9561
10.5147
9.5304
22.8557
22.9405
23.2072
23.7232
24.4338
25.2918
26.2607
27.3296
28.8325
31.027
33.9929
37.3893
40.9042
44.377
47.6356
49.3158
49.7361
49.0602
47.3822
44.8653
41.7513
38.3134
34.7523
31.2212
27.8364
24.6846
21.8126
19.2331
16.9596
15.2818
34.4075
34.5396
35.1818
36.2636
37.6327
39.2009
40.9054
42.7884
45.0914
48.1368
51.8933
55.9228
59.8765
63.4887
66.4311
67.4294
67.3105
66.1183
64.1154
61.4002
58.1433
54.5421
50.7896
47.0019
43.2432
39.5719
36.0278
32.6136
29.3543
26.6153
47.1988
47.4005
48.6373
50.4093
52.2578
54.0084
55.6366
57.349
59.7466
63.2363
67.5417
72.0705
76.2603
79.291
80.6069
79.5857
77.995
75.6965
73.1654
70.4271
67.6015
64.746
61.9964
59.3969
56.9023
54.4302
51.8578
49.0824
46.0489
42.8862
47.6424
48.665
50.5903
52.8301
54.8331
56.3005
57.3314
58.393
60.1371
62.9406
66.7542
70.9018
74.5881
76.6957
76.4203
73.7606
71.0124
67.7796
64.6737
61.7485
59.1904
57.0105
55.2237
53.8067
52.7169
51.8261
50.9309
49.9127
48.7379
47.4064
6.28182
8.65475
10.1507
11.235
11.9931
12.5275
12.9235
13.2407
13.4867
13.6582
13.719
13.6789
13.4944
13.2029
12.7598
12.1539
11.251
10.2166
9.40123
8.87379
8.2347
7.102
5.44432
3.53646
1.79916
0.208579
0.179329
0.156405
0.753871
0.977235
4.20305
5.05854
5.71941
6.20377
6.52605
6.73045
6.85366
6.91819
6.92837
6.88154
6.78475
6.64948
6.49772
6.3294
6.15028
5.90755
5.55025
5.1962
5.03924
5.08064
5.01499
4.57914
3.7763
2.74153
1.62542
0.608551
0.260074
0.29803
0.407835
0.46571
3.81337
4.53809
5.14047
5.59538
5.90805
6.10673
6.21057
6.23484
6.18461
6.06672
5.90268
5.71696
5.53714
5.37097
5.21829
5.03219
4.76658
4.51377
4.44956
4.56114
4.5924
4.3159
3.69078
2.81817
1.83877
0.842167
0.385034
0.32221
0.379871
0.464705
3.51593
4.22697
4.88789
5.413
5.78494
6.02526
6.14958
6.17227
6.10161
5.95481
5.76525
5.56289
5.37649
5.21685
5.08023
4.91949
4.68686
4.47494
4.44204
4.55799
4.59765
4.3581
3.80296
3.01187
2.08472
1.09224
0.536977
0.3676
0.399452
0.472426
3.20883
3.90515
4.63852
5.2448
5.68149
5.9716
6.13238
6.17856
6.11807
5.97524
5.78932
5.5921
5.41689
5.27297
5.15416
5.01223
4.80237
4.62573
4.61673
4.72113
4.74731
4.51815
3.99101
3.22951
2.3261
1.34418
0.706401
0.441202
0.437974
0.505052
2.86175
3.54175
4.33273
5.00677
5.50463
5.84187
6.04318
6.12669
6.10648
5.99389
5.83565
5.66838
5.51961
5.39955
5.30204
5.17919
4.99427
4.85999
4.87707
4.96936
4.96948
4.72687
4.20507
3.45468
2.56025
1.58804
0.886425
0.541799
0.491823
0.553674
2.42766
3.07534
3.89366
4.61453
5.16839
5.56611
5.83137
5.97478
6.01928
5.97141
5.86755
5.75007
5.64062
5.55224
5.47946
5.37989
5.22866
5.14666
5.19401
5.27533
5.24113
4.96947
4.4361
3.68465
2.7904
1.82325
1.07466
0.665785
0.561611
0.615105
2.0281
2.59855
3.37523
4.09378
4.67612
5.12688
5.46748
5.7063
5.851
5.8977
5.87593
5.82341
5.76456
5.71457
5.67049
5.60045
5.4964
5.47788
5.55777
5.62734
5.55122
5.2383
4.68032
3.919
3.01973
2.05359
1.27064
0.807773
0.647567
0.684711
1.70238
2.17962
2.87351
3.54904
4.13274
4.61699
5.01584
5.3436
5.60835
5.7778
5.8583
5.88567
5.88715
5.88128
5.87059
5.83912
5.79865
5.85236
5.9639
6.01867
5.89202
5.52737
4.93459
4.15744
3.25056
2.28373
1.4741
0.962952
0.749564
0.7627
1.45887
1.84517
2.43543
3.04068
3.60157
4.10184
4.54801
4.95261
5.3205
5.62531
5.82193
5.93867
6.00947
6.05269
6.08166
6.10126
6.14042
6.2724
6.415
6.44455
6.25659
5.83131
5.19607
4.39926
3.48443
2.51677
1.6852
1.12956
0.86742
0.852431
1.29443
1.60499
2.0904
2.61604
3.13416
3.62873
4.10487
4.57272
5.02954
5.45332
5.77895
5.98869
6.13448
6.2319
6.30912
6.39557
6.52861
6.74276
6.90618
6.89726
6.63773
6.14474
5.46214
4.64339
3.7216
2.75413
1.90477
1.31004
1.00263
0.956006
1.20201
1.45517
1.85862
2.30059
2.76139
3.23068
3.71655
4.22956
4.76185
5.28465
5.73754
6.04298
6.2672
6.42527
6.56119
6.73203
6.97199
7.26285
7.43242
7.3686
7.02818
6.46286
5.73091
4.88916
3.96172
2.99686
2.13547
1.50648
1.15615
1.07513
1.17358
1.39047
1.72948
2.10545
2.4996
2.92672
3.40229
3.94069
4.5316
5.1435
5.70515
6.10893
6.41564
6.64264
6.84922
7.1227
7.47939
7.83218
7.98855
7.85134
7.42214
6.78224
6.00225
5.13727
4.20593
3.24686
2.37894
1.72043
1.32969
1.21176
1.22283
1.40333
1.68886
2.01454
2.3507
2.72631
3.17162
3.7172
4.35693
5.03709
5.68776
6.19544
6.59129
6.89686
7.18918
7.58338
8.0583
8.44764
8.56928
8.34099
7.81725
7.1026
6.27855
5.39098
4.45682
3.50572
2.63616
1.95354
1.52542
1.36897
1.37942
1.53274
1.7592
2.00961
2.29264
2.61617
3.02514
3.56206
4.22764
4.9633
5.69043
6.31505
6.80883
7.20619
7.6027
8.13408
8.71679
9.1222
9.17486
8.83933
8.21725
7.42998
6.56567
5.65706
4.71914
3.77646
2.90905
2.20817
1.74614
1.55094
1.65828
1.76984
1.94791
2.13322
2.32853
2.58171
2.94681
3.46377
4.14343
4.92587
5.74284
6.48622
7.08877
7.59576
8.11852
8.7997
9.46531
9.85254
9.81101
9.35759
8.63531
7.77847
6.87533
5.94849
5.00349
4.06687
3.20246
2.48896
1.99539
1.7624
2.07445
2.12352
2.24333
2.36202
2.47962
2.64519
2.93244
3.42161
4.10628
4.92806
5.87232
6.73313
7.45983
8.10047
8.77519
9.61247
10.3285
10.6609
10.5004
9.92218
9.09893
8.17265
7.22606
6.28545
5.33532
4.39756
3.53232
2.80353
2.27769
2.00804
2.6256
2.60015
2.64926
2.69727
2.73798
2.815
3.02334
3.44518
4.13332
5.03944
6.09886
7.08851
7.96321
8.76949
9.62554
10.6165
11.3394
11.5877
11.2912
10.5826
9.6553
8.64965
7.66816
6.70583
5.74669
4.80012
3.91864
3.16101
2.59978
2.29354
3.31302
3.20952
3.17838
3.15071
3.11471
3.10306
3.22679
3.61536
4.31629
5.30252
6.46009
7.60203
8.65944
9.67341
10.7439
11.8764
12.5647
12.7064
12.2649
11.4208
10.3793
9.30092
8.29551
7.28849
6.28492
5.29891
4.37783
3.57826
2.97257
2.62797
4.15719
3.9684
3.85575
3.75061
3.63546
3.54224
3.57457
3.92327
4.66031
5.7349
7.02295
8.3514
9.63946
10.9155
12.2379
13.4898
14.1159
14.1372
13.5557
12.5705
11.4245
10.3187
9.21169
8.09898
6.99945
5.9333
4.94279
4.07992
3.41478
3.02728
5.19501
4.92033
4.72649
4.5457
4.35454
4.18352
4.13436
4.44646
5.22792
6.42574
7.89602
9.45988
11.0423
12.6502
14.2683
15.6135
16.1699
16.0753
15.3892
14.3111
13.0807
11.8277
10.5217
9.2191
7.95656
6.75703
5.65598
4.69924
3.9576
3.5201
6.49463
6.13951
5.87011
5.62249
5.36868
5.13214
5.018
5.30824
6.1665
7.53603
9.25453
11.1255
13.0876
15.1124
17.0805
18.4986
19.0069
18.863
18.1816
16.939
15.5395
13.9665
12.3421
10.7538
9.24853
7.85088
6.58979
5.50404
4.65957
4.15894
8.13885
7.71936
7.39984
7.12686
6.84768
6.58035
6.43425
6.74167
7.72846
9.34384
11.4028
13.6804
16.1252
18.6565
21.0511
22.5439
23.1056
22.9879
22.1778
20.7284
18.9559
16.9667
14.9181
12.9318
11.0801
9.39382
7.89808
6.62481
5.63338
5.04439
10.3317
9.88257
9.55808
9.31658
9.09661
8.86382
8.76084
9.17156
10.3692
12.3293
14.8447
17.6487
20.6822
23.8052
26.7414
28.3604
28.9281
28.6908
27.6651
25.9132
23.699
21.2013
18.622
16.1213
13.7998
11.7063
9.86795
8.3141
7.09927
6.37321
13.4655
13.0498
12.7884
12.6624
12.6109
12.5506
12.6427
13.3112
14.8436
17.2598
20.3473
23.7822
27.4827
31.2351
34.7444
36.3516
36.8047
36.3392
35.0167
32.8882
30.2081
27.1641
23.9835
20.8833
17.9855
15.3545
13.0348
11.0632
9.4974
8.53772
18.2273
17.9228
17.805
17.8993
18.1614
18.5253
19.0287
20.1576
22.1735
25.1425
28.8691
32.9656
37.3136
41.5884
45.5166
46.7588
46.8324
45.8468
44.1031
41.6776
38.6676
35.2235
31.5582
27.9295
24.4728
21.2489
18.3327
15.7953
13.6973
12.3276
25.552
25.3808
25.4936
25.9335
26.6194
27.5267
28.7757
30.5563
33.1535
36.7043
41.0372
45.689
50.489
54.9493
58.7471
58.7195
57.4803
55.457
53.1469
50.4558
47.4704
44.283
40.9816
37.5134
33.9352
30.3898
27.0213
23.9317
21.1744
19.1194
35.6014
35.5438
36.0299
36.9013
38.0123
39.3626
41.1023
43.5121
46.8381
50.8906
55.7199
60.6946
65.5531
69.5108
71.8658
69.1307
66.1421
62.8731
59.931
57.0646
54.297
51.6678
49.1812
46.7913
44.3983
41.8719
39.0981
36.0916
33.026
30.2505
44.5175
45.0442
46.1994
47.6244
49.0726
50.5405
52.2404
54.604
58.0386
62.557
67.7379
72.7566
77.1583
79.5599
79.2278
73.5779
68.7586
64.161
60.5187
57.4941
55.059
53.1629
51.7643
50.7415
49.9265
49.0397
47.8566
46.23
44.1375
41.7223
43.3187
44.8163
46.8132
48.906
50.7716
52.3443
53.9013
55.9959
59.1363
63.3843
68.3817
73.1179
76.6671
77.5542
74.6997
67.0266
61.0466
55.6672
51.4936
48.2219
45.9231
44.4393
43.6889
43.5027
43.7311
44.1304
44.4256
44.4219
44.1019
43.5354
9.50639
12.5737
14.1992
15.4383
16.3115
16.9114
17.3391
17.6605
17.8659
17.9366
17.8123
17.5095
16.9809
16.2982
15.41
14.3031
12.8634
11.6437
11.5378
12.3605
12.6421
11.3856
8.74237
5.46512
2.43834
0.207274
0.771257
0.757668
0.909347
1.0803
5.92062
6.78817
7.33657
7.80754
8.15783
8.4002
8.56086
8.6539
8.6748
8.60671
8.4549
8.22146
7.94437
7.6136
7.25672
6.7863
6.22336
5.86145
6.19857
7.02927
7.45459
6.96683
5.7428
4.13401
2.35347
0.507306
0.315956
0.384769
0.450203
0.536114
5.43607
6.02911
6.48386
6.8715
7.18498
7.42049
7.57127
7.6326
7.5963
7.45866
7.24307
6.97432
6.69498
6.41031
6.13097
5.78034
5.35866
5.13926
5.51463
6.26709
6.70363
6.40405
5.47828
4.12068
2.62332
0.845284
0.325068
0.355639
0.424288
0.52477
5.08613
5.61119
6.11321
6.57666
6.97465