/*--------------------------------*- C++ -*----------------------------------*\
  =========                 |
  \\      /  F ield         | OpenFOAM: The Open Source CFD Toolbox
   \\    /   O peration     | Website:  https://openfoam.org
    \\  /    A nd           | Version:  12
     \\/     M anipulation  |
\*---------------------------------------------------------------------------*/
FoamFile
{
    format      ascii;
    class       volScalarField;
    location    "1000/air";
    object      k;
}
// * * * * * * * * * * * * * * * * * * * * * * * * * * * * * * * * * * * * * //

dimensions      [0 2 -2 0 0 0 0];

internalField   nonuniform List<scalar> 
243000
(
0.0286425
0.0244967
0.0269772
0.0320712
0.0361395
0.039292
0.0417007
0.0435058
0.044802
0.0456536
0.0460525
0.0460647
0.0456341
0.0449663
0.0442893
0.0441083
0.0445215
0.0453014
0.0459652
0.0461605
0.0457504
0.0447313
0.0431998
0.0412929
0.0391733
0.0369471
0.0347153
0.0311852
0.0261947
0.0222936
0.0426586
0.0411006
0.0375045
0.0401216
0.0450686
0.0492755
0.0526553
0.0553366
0.05751
0.059311
0.0608803
0.0624153
0.0638995
0.0655862
0.0675667
0.0701051
0.0725399
0.0741418
0.0742944
0.0729475
0.070534
0.0673858
0.0637606
0.059828
0.055721
0.0516427
0.0479228
0.0437045
0.0381748
0.0317488
0.0509531
0.0512202
0.0486981
0.0469011
0.0468813
0.0501032
0.0552884
0.060042
0.0645502
0.068554
0.0724361
0.0764194
0.080435
0.0847342
0.0893234
0.09424
0.0983356
0.100641
0.100513
0.0980654
0.0941121
0.0892427
0.083853
0.0781589
0.0722995
0.0664892
0.0609918
0.0553568
0.0488037
0.041027
0.0589343
0.0596025
0.0579008
0.0555988
0.0532111
0.0526511
0.0547802
0.0585568
0.0644054
0.070945
0.077749
0.0848536
0.0919405
0.0991152
0.106267
0.113237
0.118636
0.121452
0.12111
0.117885
0.112829
0.106721
0.100055
0.0930975
0.0859914
0.078917
0.0720867
0.0652665
0.0579735
0.0497051
0.0673626
0.0683205
0.067158
0.0649721
0.0620697
0.0591639
0.0577465
0.0589702
0.0630636
0.0696439
0.0790371
0.089792
0.100719
0.111363
0.121379
0.130455
0.137095
0.14037
0.139836
0.135942
0.129924
0.12273
0.114949
0.106896
0.0987181
0.0905603
0.0826093
0.0747231
0.0666654
0.0580812
0.0760966
0.0773818
0.0766414
0.0746706
0.0716546
0.0680228
0.0643053
0.0622399
0.0634999
0.0686615
0.0779598
0.0921459
0.107281
0.121885
0.134969
0.14617
0.153973
0.157647
0.156931
0.152454
0.145605
0.137462
0.128713
0.119716
0.110621
0.101549
0.0926708
0.0839001
0.0750945
0.0662111
0.085114
0.086683
0.0862643
0.084458
0.0814019
0.0773892
0.0728132
0.0682896
0.0664042
0.0690149
0.0771759
0.0927167
0.112106
0.130964
0.147264
0.160572
0.169451
0.173469
0.172584
0.167602
0.160032
0.151067
0.141479
0.131668
0.121794
0.111958
0.102317
0.092827
0.0833352
0.0741382
0.0944005
0.0961964
0.0959897
0.0942581
0.0911239
0.0868093
0.0816272
0.0761437
0.0715174
0.0712412
0.0774807
0.0923855
0.115621
0.138855
0.158431
0.173795
0.183667
0.187983
0.186944
0.181532
0.173342
0.163661
0.153341
0.142829
0.132297
0.121831
0.111566
0.101489
0.0914975
0.0819102
0.103952
0.105884
0.105813
0.104091
0.100815
0.0961752
0.0904542
0.0841392
0.0779498
0.0750207
0.0790443
0.0924083
0.118338
0.145779
0.168596
0.185929
0.196735
0.201297
0.20013
0.194359
0.185641
0.175341
0.164382
0.153262
0.142178
0.131196
0.120422
0.109867
0.0994901
0.089507
0.113794
0.115753
0.115722
0.113952
0.110501
0.105521
0.0992549
0.0921618
0.0850895
0.0799701
0.0816232
0.0935505
0.120705
0.151935
0.177857
0.197056
0.208729
0.213506
0.212234
0.206168
0.197008
0.186184
0.174674
0.163031
0.151478
0.140073
0.128889
0.117949
0.107267
0.0969053
0.123927
0.125796
0.125714
0.12384
0.120191
0.114868
0.108073
0.100224
0.0921656
0.0855072
0.0849955
0.0955385
0.122922
0.157469
0.18629
0.20723
0.219708
0.224685
0.223336
0.217032
0.207515
0.196254
0.18428
0.17219
0.160239
0.148476
0.136963
0.125722
0.114799
0.104161
0.134336
0.135984
0.135754
0.133733
0.129871
0.124213
0.116917
0.108348
0.0993249
0.0913937
0.0890229
0.0982106
0.125165
0.162503
0.193948
0.21649
0.229712
0.234887
0.233497
0.22702
0.217221
0.20561
0.193252
0.180785
0.168494
0.156431
0.144654
0.133179
0.122069
0.111281
0.145037
0.14634
0.145859
0.143621
0.139533
0.133551
0.125783
0.116544
0.106608
0.0975771
0.0935912
0.101397
0.127535
0.167113
0.200871
0.224856
0.238768
0.244146
0.242759
0.236173
0.226169
0.214293
0.201632
0.188857
0.176282
0.163972
0.151987
0.140334
0.129079
0.118196
0.15607
0.156908
0.156084
0.153556
0.149195
0.142894
0.134676
0.124814
0.114019
0.104023
0.0986206
0.104998
0.130083
0.171348
0.207084
0.232341
0.246889
0.252486
0.251152
0.244521
0.234388
0.222333
0.209452
0.196444
0.183648
0.171148
0.159008
0.147225
0.135862
0.124915
0.167461
0.167749
0.166498
0.163607
0.158918
0.152277
0.143619
0.133166
0.121574
0.110693
0.104031
0.108945
0.132823
0.175219
0.212596
0.23896
0.254087
0.259923
0.25869
0.252085
0.241902
0.229752
0.216739
0.203571
0.190624
0.177997
0.165758
0.153897
0.142463
0.131478
0.179288
0.178953
0.177185
0.173854
0.168776
0.161752
0.15265
0.141624
0.129285
0.117548
0.109752
0.113179
0.135742
0.178718
0.217398
0.244722
0.260374
0.266465
0.265386
0.258876
0.248724
0.236567
0.223506
0.210266
0.197237
0.184549
0.172265
0.160379
0.148919
0.137933
0.19171
0.190639
0.188252
0.184393
0.178859
0.171399
0.161828
0.150221
0.137167
0.124613
0.115724
0.117639
0.138808
0.181829
0.221457
0.249614
0.265748
0.272123
0.271246
0.264899
0.254857
0.242778
0.22977
0.216546
0.203513
0.190827
0.178557
0.166692
0.155253
0.144306
0.204825
0.202945
0.199833
0.195353
0.189289
0.181328
0.171235
0.159014
0.145248
0.131835
0.121897
0.122268
0.141986
0.184547
0.224749
0.253611
0.270203
0.276895
0.276274
0.270143
0.260306
0.248404
0.235538
0.222419
0.209462
0.196848
0.184651
0.172859
0.161486
0.150622
0.218224
0.215837
0.212139
0.20694
0.200267
0.19171
0.181005
0.168096
0.153592
0.139252
0.128231
0.127031
0.145231
0.186828
0.227239
0.256675
0.273721
0.280777
0.280461
0.274631
0.265097
0.253455
0.240814
0.227887
0.21509
0.202621
0.19056
0.178896
0.167637
0.156902
0.231824
0.228899
0.224822
0.219348
0.212171
0.202855
0.191385
0.177645
0.162396
0.146948
0.134708
0.131927
0.1485
0.188624
0.228899
0.258768
0.276277
0.283755
0.283826
0.278395
0.269241
0.25794
0.245607
0.232957
0.220402
0.208156
0.196299
0.184825
0.173738
0.163176
0.245549
0.242057
0.237603
0.231916
0.224606
0.21511
0.202894
0.188037
0.172027
0.155043
0.141343
0.136931
0.151744
0.189917
0.229723
0.259841
0.277837
0.28583
0.286366
0.281427
0.272742
0.261869
0.249931
0.237641
0.225414
0.213469
0.201889
0.190673
0.17982
0.169491
0.259309
0.255258
0.250442
0.244568
0.237214
0.227739
0.215397
0.200205
0.182231
0.163466
0.148123
0.142041
0.154908
0.190657
0.229562
0.259915
0.278382
0.286944
0.288047
0.283709
0.275595
0.265245
0.253794
0.241954
0.230146
0.218585
0.207362
0.196475
0.185927
0.175902
0.27303
0.268475
0.26335
0.257364
0.250084
0.240869
0.229017
0.213048
0.193194
0.17225
0.155092
0.147309
0.157936
0.190754
0.228457
0.258776
0.277765
0.287024
0.288784
0.28518
0.277762
0.268048
0.257188
0.245904
0.234615
0.223537
0.212756
0.202279
0.192113
0.182469
0.286724
0.281782
0.276486
0.270666
0.263925
0.25506
0.242393
0.225271
0.204025
0.181314
0.162411
0.152921
0.160862
0.190247
0.226173
0.256202
0.275636
0.285657
0.288255
0.285469
0.278971
0.270093
0.259997
0.249418
0.238788
0.228331
0.21812
0.208156
0.198464
0.189305
0.300386
0.29554
0.290622
0.284847
0.277368
0.267382
0.253763
0.235767
0.213844
0.190457
0.17056
0.159524
0.164498
0.189292
0.222604
0.251819
0.271487
0.282305
0.285876
0.284148
0.27868
0.270805
0.261703
0.252092
0.242356
0.232763
0.223359
0.21412
0.205069
0.196515
0.313484
0.30823
0.302362
0.295501
0.287068
0.276208
0.261963
0.243997
0.223428
0.201156
0.181072
0.168874
0.171121
0.191542
0.220827
0.247768
0.267021
0.278459
0.283208
0.282833
0.278606
0.271833
0.263514
0.254385
0.244979
0.236334
0.228
0.219784
0.211646
0.203923
0.321498
0.314509
0.307649
0.300697
0.29301
0.283695
0.271725
0.256363
0.237807
0.217131
0.197746
0.18501
0.184871
0.201373
0.226661
0.250898
0.269036
0.280442
0.285772
0.286386
0.28319
0.277297
0.269637
0.260932
0.251746
0.24277
0.234026
0.225467
0.217278
0.210168
0.339144
0.331932
0.324762
0.317721
0.310536
0.302542
0.292771
0.280319
0.264925
0.24738
0.23048
0.218835
0.217298
0.230068
0.250861
0.271251
0.286822
0.296879
0.301784
0.302482
0.299607
0.294072
0.286699
0.278149
0.268949
0.259629
0.250381
0.241249
0.232335
0.224149
0.377105
0.370555
0.364896
0.360507
0.356889
0.35326
0.348619
0.341995
0.333036
0.322249
0.311215
0.30355
0.302356
0.310955
0.325206
0.33896
0.349031
0.355253
0.357658
0.356789
0.353018
0.34702
0.339401
0.330653
0.321182
0.31138
0.301257
0.290834
0.28035
0.270403
0.521834
0.519052
0.521605
0.526198
0.529767
0.531908
0.532473
0.531467
0.529047
0.525445
0.51953
0.515125
0.512963
0.514262
0.51735
0.520946
0.522814
0.523848
0.523742
0.522883
0.521281
0.519285
0.516879
0.514259
0.511511
0.508663
0.503341
0.495154
0.48618
0.476832
0.0477676
0.0675704
0.0734965
0.0773209
0.0795183
0.0807786
0.0814591
0.0818021
0.0819482
0.0820856
0.0822701
0.0826375
0.0830359
0.0835865
0.0841302
0.0846656
0.0845548
0.0832658
0.080651
0.0767821
0.0717962
0.0656686
0.058552
0.0506934
0.0425039
0.0350452
0.029723
0.0248285
0.0223313
0.0266934
0.0939193
0.122551
0.125713
0.126543
0.124926
0.122844
0.120648
0.118773
0.117445
0.117046
0.117677
0.119453
0.121954
0.124989
0.127659
0.129217
0.127975
0.123415
0.116356
0.107783
0.0994294
0.0907007
0.0814315
0.0713939
0.0606679
0.0501335
0.0417953
0.0355239
0.0339925
0.0366368
0.0913833
0.127284
0.137852
0.145084
0.14855
0.149676
0.149152
0.148609
0.148456
0.149685
0.152521
0.157006
0.162437
0.168309
0.173264
0.17612
0.174741
0.168572
0.158837
0.147046
0.135421
0.123603
0.11149
0.0986327
0.0848475
0.070995
0.0595317
0.0506073
0.0463986
0.0453385
0.0830396
0.1106
0.125841
0.1372
0.145749
0.152641
0.158072
0.162536
0.16592
0.170987
0.177901
0.186556
0.195893
0.205094
0.212558
0.216826
0.21564
0.208481
0.196863
0.182681
0.168339
0.153859
0.139196
0.123887
0.107614
0.0911365
0.0770742
0.065953
0.0591169
0.0539906
0.0783006
0.0983688
0.111673
0.122864
0.132327
0.141727
0.151657
0.161023
0.170619
0.182424
0.195548
0.209912
0.224042
0.236978
0.247075
0.252757
0.251867
0.244001
0.230919
0.214794
0.198193
0.181435
0.164599
0.147237
0.12896
0.110437
0.0942202
0.081167
0.0722728
0.0643657
0.0751076
0.0920088
0.103137
0.113087
0.122036
0.131327
0.141721
0.152946
0.166519
0.185341
0.206814
0.228395
0.248126
0.265114
0.277893
0.284941
0.284383
0.275981
0.261706
0.243949
0.225426
0.206694
0.187993
0.168903
0.148992
0.128885
0.110906
0.0961539
0.0857112
0.0760929
0.0774562
0.0901954
0.100061
0.108642
0.11603
0.123909
0.133276
0.144846
0.160374
0.18278
0.21301
0.24294
0.268977
0.290251
0.305696
0.314051
0.313858
0.305047
0.289794
0.270661
0.250482
0.23003
0.209713
0.189159
0.167915
0.146551
0.127122
0.110883
0.0991946
0.0886668
0.0879515
0.0970406
0.102619
0.108505
0.114488
0.120573
0.127966
0.138609
0.154889
0.179694
0.215743
0.254405
0.287187
0.31289
0.330914
0.340523
0.340722
0.33163
0.315582
0.2953
0.273688
0.251736
0.230002
0.208213
0.185892
0.16351
0.142868
0.125319
0.112443
0.101593
0.104461
0.110653
0.113589
0.115565
0.117746
0.12071
0.126079
0.135169
0.15099
0.177164
0.216296
0.263483
0.303271
0.333364
0.353837
0.364657
0.365273
0.356022
0.339362
0.318132
0.295284
0.272021
0.249048
0.226205
0.203027
0.179822
0.158171
0.13949
0.125485
0.114551
0.127484
0.1313
0.13143
0.129707
0.127426
0.126134
0.1276
0.134192
0.148921
0.175524
0.216778
0.271007
0.317682
0.351955
0.374717
0.386684
0.387727
0.378434
0.361328
0.339343
0.315439
0.291043
0.266983
0.243235
0.219375
0.195523
0.173066
0.153437
0.138382
0.12738
0.15454
0.157695
0.156463
0.150934
0.144099
0.137809
0.134295
0.136741
0.148752
0.174963
0.218248
0.277941
0.33078
0.368889
0.393746
0.406778
0.40826
0.399013
0.381612
0.359044
0.33426
0.308893
0.283896
0.259374
0.234962
0.210625
0.187575
0.167182
0.151183
0.139977
0.181875
0.184434
0.18317
0.17692
0.166194
0.155132
0.146304
0.143377
0.151647
0.176016
0.22083
0.284497
0.342802
0.384334
0.411071
0.425084
0.427013
0.417887
0.400305
0.377307
0.351801
0.325633
0.299848
0.274678
0.249818
0.225153
0.201709
0.180733
0.163922
0.15235
0.208756
0.21061
0.209202
0.202709
0.191321
0.176275
0.162614
0.154266
0.157679
0.179453
0.22475
0.291087
0.353928
0.398417
0.426805
0.441715
0.444111
0.435161
0.417494
0.394183
0.368085
0.341304
0.314888
0.289192
0.26399
0.23914
0.215485
0.194114
0.176651
0.164642
0.234927
0.236124
0.234546
0.228009
0.216262
0.199582
0.181907
0.168681
0.166415
0.185317
0.230105
0.29794
0.364287
0.41124
0.441035
0.456764
0.459663
0.450939
0.433258
0.409733
0.383158
0.355944
0.329048
0.302957
0.277531
0.252634
0.228938
0.207363
0.189425
0.17698
0.260582
0.261255
0.259525
0.252961
0.241044
0.223808
0.203228
0.185729
0.178146
0.19355
0.236878
0.305157
0.373952
0.422893
0.453965
0.470405
0.473793
0.465321
0.447675
0.42403
0.397106
0.3696
0.342371
0.316002
0.290495
0.265696
0.242119
0.220521
0.202294
0.189522
0.285978
0.28626
0.284403
0.277851
0.265862
0.248122
0.22583
0.204777
0.192539
0.203642
0.244962
0.312739
0.382974
0.433463
0.465743
0.482828
0.486637
0.478422
0.460838
0.437148
0.410034
0.382354
0.354887
0.328455
0.302994
0.278401
0.255087
0.233633
0.215305
0.202379
0.311261
0.311301
0.309364
0.302901
0.29096
0.272901
0.249509
0.225519
0.209264
0.215446
0.25435
0.320648
0.391399
0.443051
0.476391
0.494262
0.498366
0.490396
0.472911
0.449203
0.421974
0.394244
0.366829
0.340433
0.315109
0.290833
0.267915
0.246755
0.228514
0.215617
0.33644
0.336369
0.334457
0.328213
0.316492
0.298333
0.274225
0.247804
0.228053
0.228848
0.264864
0.32889
0.399336
0.451819
0.486127
0.504875
0.509228
0.501506
0.48412
0.460327
0.433241
0.405589
0.378236
0.351974
0.326939
0.303098
0.280678
0.259949
0.241973
0.22929
0.362119
0.361511
0.359535
0.353718
0.342451
0.324503
0.300016
0.271602
0.248598
0.243995
0.276411
0.33767
0.407019
0.460048
0.495278
0.514904
0.519572
0.512138
0.494765
0.471185
0.444232
0.416579
0.389319
0.363259
0.338596
0.315315
0.29349
0.273319
0.25577
0.243476
0.388655
0.387308
0.384957
0.379249
0.368595
0.351351
0.326915
0.296956
0.270772
0.261122
0.289396
0.347486
0.414926
0.468248
0.504399
0.524905
0.529994
0.522875
0.505878
0.482402
0.455367
0.427669
0.40047
0.374611
0.350344
0.327669
0.306526
0.287029
0.270044
0.258287
0.416082
0.414054
0.411286
0.405608
0.395449
0.37891
0.354953
0.324087
0.295013
0.280804
0.304425
0.358892
0.423923
0.477343
0.514475
0.535906
0.541653
0.535039
0.518197
0.494711
0.467524
0.439638
0.412382
0.386614
0.362654
0.340511
0.320061
0.30131
0.28498
0.273868
0.444573
0.442074
0.43906
0.433655
0.424218
0.408718
0.385158
0.353706
0.322374
0.304419
0.322658
0.373522
0.435697
0.489087
0.527343
0.549947
0.55647
0.5503
0.533582
0.509891
0.482338
0.453933
0.426337
0.400362
0.376417
0.354563
0.334676
0.316617
0.300924
0.290486
0.47503
0.472515
0.469698
0.464964
0.456835
0.442966
0.41998
0.38829
0.355183
0.334173
0.346838
0.394545
0.453611
0.506919
0.54658
0.570552
0.578088
0.57228
0.555584
0.531413
0.503072
0.473547
0.444934
0.418086
0.393514
0.371324
0.351417
0.333641
0.31841
0.308649
0.510367
0.508476
0.506546
0.503289
0.497547
0.485198
0.463702
0.432887
0.399047
0.37579
0.383176
0.427772
0.484832
0.537974
0.5796
0.605268
0.613943
0.608605
0.591776
0.566647
0.53688
0.505472
0.474668
0.445573
0.418888
0.39487
0.373582
0.35499
0.339527
0.3303
0.556992
0.556601
0.556967
0.556921
0.553486
0.543987
0.52564
0.49763
0.465264
0.441413
0.445131
0.486082
0.54271
0.597655
0.642351
0.670278
0.680491
0.675897
0.657491
0.629762
0.597111
0.561904
0.526755
0.493295
0.462427
0.434474
0.409786
0.388505
0.371105
0.360947
0.628035
0.630786
0.635546
0.639399
0.640055
0.635262
0.622568
0.600645
0.573447
0.552819
0.556807
0.595404
0.651051
0.707854
0.757369
0.788175
0.799315
0.794504
0.773829
0.742
0.703294
0.660878
0.618449
0.578077
0.5407
0.50616
0.475324
0.448519
0.426228
0.412498
0.747438
0.756291
0.76546
0.774073
0.780547
0.782178
0.777393
0.765165
0.749443
0.739013
0.749988
0.78912
0.842752
0.899256
0.951152
0.982873
0.993847
0.987964
0.964486
0.927586
0.881491
0.830492
0.778715
0.728684
0.681642
0.638111
0.598671
0.563409
0.532478
0.510691
0.942496
0.953216
0.965549
0.979715
0.993477
1.00431
1.00957
1.008
1.0046
1.00748
1.02934
1.07155
1.12176
1.17516
1.22289
1.25167
1.26189
1.25605
1.23297
1.19586
1.14779
1.09312
1.03637
0.980333
0.926058
0.874278
0.825629
0.779637
0.736379
0.702265
1.14795
1.15147
1.17134
1.19824
1.22121
1.2387
1.24867
1.24918
1.25066
1.26064
1.28877
1.33059
1.37766
1.42547
1.46082
1.48004
1.48638
1.48028
1.46168
1.43276
1.39489
1.35118
1.30521
1.25922
1.21398
1.16933
1.12503
1.07953
1.03288
0.98832
1.17622
1.18282
1.20693
1.23554
1.25846
1.27004
1.2717
1.2672
1.26567
1.27292
1.29363
1.32822
1.37012
1.40781
1.42768
1.43085
1.42788
1.41586
1.39701
1.37314
1.3467
1.31968
1.29358
1.26952
1.24831
1.22946
1.21012
1.18961
1.16807
1.14339
0.0875625
0.102444
0.110931
0.11595
0.118467
0.119453
0.119598
0.119403
0.119083
0.118808
0.118504
0.118231
0.117692
0.117017
0.115921
0.11434
0.111333
0.106716
0.101243
0.095392
0.0885959
0.0798934
0.0688613
0.0557487
0.0414961
0.0293131
0.0251426
0.0235358
0.0228541
0.0297133
0.161622
0.176541
0.184445
0.187464
0.187472
0.186328
0.184997
0.183988
0.183365
0.183077
0.182781
0.182392
0.181377
0.179853
0.177095
0.172574
0.16428
0.153581
0.144059
0.136723
0.130146
0.121823
0.109682
0.0927277
0.0719787
0.0516839
0.0407353
0.0338951
0.0326057
0.0406159
0.201963
0.215478
0.229
0.23694
0.240212
0.24137
0.241528
0.241516
0.241705
0.242157
0.242495
0.242562
0.24179
0.240285
0.237157
0.231518
0.220749
0.206885
0.194039
0.183893
0.174903
0.164244
0.149466
0.128754
0.102546
0.075636
0.0596746
0.0482752
0.0426026
0.0493122
0.206971
0.22987
0.250749
0.263707
0.270968
0.275937
0.279009
0.28131
0.28379
0.286477
0.288831
0.290542
0.290994
0.29028
0.287487
0.281474
0.269209
0.253248
0.237926
0.225211
0.213685
0.200627
0.183499
0.160123
0.130303
0.098698
0.0779416
0.0637483
0.0543154
0.056368
0.190643
0.219652
0.246512
0.266176
0.280022
0.291118
0.29904
0.305456
0.312371
0.31933
0.325382
0.330018
0.332608
0.333278
0.331207
0.325181
0.311895
0.294391
0.277079
0.262062
0.248091
0.232713
0.213524
0.188166
0.155924
0.121084
0.0960189
0.0795231
0.067462
0.0662355
0.164683
0.196339
0.226106
0.250497
0.269852
0.286409
0.300156
0.314135
0.328682
0.34251
0.354195
0.363077
0.368616
0.371194
0.370086
0.364259
0.350255
0.331577
0.312597
0.295515
0.279243
0.261657
0.240606
0.213695
0.179816
0.14281
0.114059
0.0952257
0.0815858
0.0780324
0.14102
0.171624
0.201429
0.227296
0.249578
0.269823
0.289089
0.309759
0.33344
0.357253
0.376596
0.390997
0.400222
0.405149
0.40518
0.399706
0.385238
0.365679
0.345283
0.326363
0.307931
0.288252
0.265478
0.237294
0.202326
0.163905
0.132179
0.110867
0.0961238
0.0912081
0.124123
0.150895
0.178356
0.203918
0.227453
0.250292
0.273647
0.299362
0.329801
0.36492
0.393634
0.414686
0.428264
0.435863
0.437187
0.432177
0.417479
0.397316
0.37577
0.355165
0.334694
0.313027
0.288633
0.259379
0.223721
0.184404
0.150387
0.126656
0.110856
0.105167
0.115601
0.138047
0.161967
0.185213
0.208214
0.231886
0.257607
0.287475
0.323841
0.367338
0.406202
0.434902
0.453361
0.463868
0.466603
0.462147
0.447459
0.426941
0.404497
0.382318
0.359911
0.336339
0.310419
0.280253
0.244206
0.20437
0.168665
0.142679
0.125737
0.119522
0.113794
0.132821
0.153607
0.173945
0.194591
0.217258
0.243815
0.276614
0.31763
0.366723
0.415592
0.452286
0.476013
0.489578
0.493813
0.490013
0.475559
0.454917
0.431744
0.408101
0.383841
0.358448
0.331082
0.300129
0.263921
0.223899
0.187004
0.159009
0.140834
0.134154
0.119095
0.135313
0.1523
0.16975
0.187999
0.208544
0.234166
0.268014
0.312304
0.366136
0.423357
0.467509
0.496612
0.513334
0.519152
0.516127
0.502118
0.481532
0.457735
0.432709
0.406676
0.379535
0.350807
0.31916
0.282957
0.243064
0.205424
0.175756
0.156312
0.149137
0.131459
0.14717
0.161521
0.174352
0.187495
0.205077
0.228716
0.262328
0.308642
0.365977
0.42964
0.481225
0.515447
0.535422
0.542924
0.540819
0.527443
0.507038
0.482661
0.456307
0.428559
0.399752
0.369741
0.337476
0.301391
0.261897
0.223973
0.193017
0.172321
0.164602
0.150462
0.165652
0.178234
0.18813
0.196665
0.207734
0.22738
0.259766
0.306881
0.366783
0.435437
0.493877
0.532892
0.556089
0.565425
0.564415
0.55184
0.531671
0.506718
0.479047
0.449629
0.419236
0.388026
0.355206
0.319329
0.280462
0.242675
0.210835
0.188983
0.180683
0.176228
0.190004
0.201361
0.208624
0.212829
0.218441
0.231851
0.260249
0.306886
0.369082
0.441436
0.505804
0.549293
0.575591
0.586966
0.587256
0.575624
0.555702
0.530118
0.501104
0.470047
0.43814
0.405812
0.372502
0.336895
0.298824
0.261526
0.229228
0.206407
0.19752
0.208785
0.220401
0.229908
0.234189
0.234682
0.235019
0.242444
0.266003
0.310159
0.373272
0.448066
0.517285
0.564896
0.594297
0.607886
0.609716
0.599148
0.579449
0.553124
0.52271
0.490025
0.456659
0.423288
0.389543
0.354251
0.317088
0.280558
0.248218
0.224679
0.215219
0.247568
0.255851
0.262658
0.263634
0.260591
0.256525
0.257805
0.276654
0.316854
0.379548
0.455577
0.528572
0.579983
0.612572
0.628623
0.632238
0.622833
0.603263
0.576075
0.544185
0.509862
0.47507
0.440704
0.406569
0.371614
0.335429
0.299869
0.267842
0.243885
0.233962
0.290784
0.295326
0.298526
0.296224
0.289725
0.281634
0.277545
0.290403
0.326852
0.387936
0.464184
0.539973
0.594927
0.630868
0.649719
0.655369
0.647218
0.62764
0.599444
0.565992
0.530001
0.493772
0.458429
0.423912
0.389294
0.354103
0.319633
0.288186
0.264122
0.253913
0.337429
0.337978
0.337045
0.331374
0.321465
0.30949
0.301085
0.307121
0.340258
0.398458
0.47417
0.551974
0.610273
0.64982
0.671877
0.67982
0.673006
0.653283
0.623948
0.588833
0.551106
0.513391
0.477051
0.442108
0.407726
0.373455
0.340112
0.309428
0.285547
0.275222
0.384872
0.381825
0.377602
0.368746
0.355568
0.339869
0.32738
0.327035
0.356089
0.411786
0.486523
0.56533
0.626851
0.670354
0.696088
0.706598
0.701216
0.681254
0.650678
0.613799
0.574245
0.534971
0.497516
0.46199
0.427654
0.394116
0.361775
0.331916
0.308461
0.298074
0.433886
0.427633
0.420166
0.40855
0.392272
0.373105
0.356503
0.350862
0.374915
0.428512
0.502189
0.581186
0.645966
0.693891
0.723851
0.737226
0.733412
0.713212
0.681377
0.642644
0.601188
0.560226
0.521362
0.484981
0.450447
0.417266
0.385593
0.356368
0.333305
0.322761
0.485051
0.475907
0.465433
0.451162
0.432428
0.410286
0.389735
0.379471
0.397855
0.44935
0.52215
0.601413
0.669748
0.722711
0.757552
0.774149
0.772128
0.751832
0.718853
0.678268
0.634903
0.591995
0.551261
0.513488
0.47806
0.444531
0.412929
0.383989
0.360837
0.349797
0.539075
0.527425
0.514424
0.498059
0.477655
0.453368
0.429414
0.415031
0.427373
0.476788
0.549327
0.629438
0.701835
0.760608
0.801143
0.821423
0.821532
0.801514
0.767797
0.725518
0.680443
0.635465
0.592298
0.551912
0.514237
0.479003
0.446197
0.416402
0.392293
0.380098
0.597325
0.583716
0.569023
0.55162
0.530718
0.505632
0.479625
0.462065
0.468927
0.515657
0.589078
0.671673
0.74855
0.814034
0.86127
0.885854
0.888518
0.869522
0.836087
0.792835
0.74499
0.696271
0.648906
0.604191
0.562519
0.523867
0.488238
0.456105
0.429777
0.415378
0.662792
0.648374
0.633453
0.616807
0.597229
0.57344
0.547741
0.528934
0.53193
0.576286
0.650963
0.737657
0.820766
0.893761
0.948836
0.978227
0.984205
0.967468
0.933373
0.887223
0.834703
0.780205
0.726533
0.675476
0.627843
0.583875
0.543619
0.507393
0.477118
0.458977
0.742145
0.729005
0.716201
0.70272
0.687069
0.667691
0.645991
0.62941
0.632253
0.675507
0.751614
0.842252
0.93147
1.01256
1.0762
1.11003
1.11779
1.10176
1.06634
1.01669
0.9586
0.896994
0.835166
0.775572
0.719545
0.66771
0.62028
0.577608
0.541304
0.517948
0.848711
0.839705
0.832024
0.82486
0.816271
0.805085
0.79198
0.78247
0.79071
0.834674
0.911385
1.00421
1.09726
1.18324
1.25291
1.2884
1.29616
1.27968
1.24278
1.19007
1.12694
1.05853
0.988499
0.919709
0.854018
0.792492
0.73564
0.683997
0.638953
0.608105
1.00276
0.999856
0.999859
1.00258
1.00445
1.00395
1.00226
1.00314
1.02055
1.06642
1.14182
1.2327
1.32446
1.40915
1.4774
1.50843
1.51277
1.49385
1.456
1.40273
1.33846
1.26796
1.19482
1.12154
1.04992
0.981212
0.916231
0.855441
0.79995
0.758837
1.21392
1.2142
1.22299
1.23595
1.24783
1.2568
1.26365
1.27342
1.29649
1.34273
1.41433
1.49863
1.58286
1.65726
1.71055
1.7253
1.71842
1.69237
1.65345
1.60392
1.54688
1.48541
1.42266
1.36015
1.29833
1.23704
1.17639
1.11588
1.05591
1.00458
1.39927
1.40496
1.42452
1.44744
1.46492
1.47517
1.47997
1.48611
1.50659
1.5494
1.61503
1.68966
1.76173
1.81594
1.83991
1.82497
1.79764
1.75804
1.71457
1.66875
1.62322
1.5793
1.53926
1.50378
1.47181
1.44044
1.40811
1.37205
1.33056
1.28447
1.3669
1.38693
1.41759
1.44797
1.47025
1.48106
1.48369
1.48651
1.50133
1.53492
1.58613
1.64593
1.70121
1.73448
1.73227
1.69352
1.65014
1.59832
1.54803
1.50116
1.46128
1.42908
1.40513
1.38914
1.38008
1.37516
1.37088
1.36473
1.35517
1.34114
0.1107
0.133606
0.14493
0.151371
0.154471
0.155542
0.155534
0.155061
0.154273
0.153224
0.1517
0.149821
0.147299
0.144416
0.14082
0.136381
0.129964
0.12261
0.117011
0.11386
0.109808
0.101096
0.0862565
0.0660712
0.0432926
0.0277591
0.0249317
0.0234244
0.0261242
0.0318985
0.178255
0.214387
0.230096
0.236804
0.239152
0.239848
0.240265
0.240806
0.24096
0.240172
0.237862
0.234204
0.228786
0.222156
0.213662
0.20277
0.187653
0.174839
0.170056
0.172434
0.174432
0.168602
0.150765
0.120678
0.0836432
0.0465794
0.0353472
0.032069
0.0367066
0.0463119
0.211832
0.255379
0.281138
0.29667
0.305969
0.312047
0.31637
0.319446
0.320847
0.32009
0.316934
0.311749
0.304395
0.295511
0.284474
0.270233
0.250807
0.234088
0.227227
0.228766
0.230205
0.223165
0.202509
0.166783
0.120392
0.0708207
0.0501613
0.0435458
0.048041
0.0603719
0.224074
0.274234
0.309163
0.333742
0.350703
0.363111
0.372164
0.378553
0.382094
0.38235
0.379464
0.373937
0.36587
0.355896
0.343523
0.327213
0.304951
0.285633
0.276636
0.276157
0.275708
0.26692
0.244295
0.205466
0.153569
0.096099
0.0667127
0.0558584
0.0588801
0.0702703
0.22272
0.272878
0.31904
0.354673
0.378645
0.397597
0.41169
0.42229
0.429234
0.431962
0.430668
0.425967
0.418166
0.407919
0.394886
0.377162
0.352863
0.331767
0.320877
0.318022
0.315069
0.304155
0.27988
0.239318
0.18421
0.121819
0.0845488
0.0693377
0.0705579
0.0811859
0.214071
0.263266
0.314319
0.357162
0.391133
0.417232
0.436541
0.452549
0.464497
0.471422
0.473245
0.470531
0.463856
0.453978
0.440756
0.422072
0.396368
0.37413
0.36162
0.356285
0.350562
0.337277
0.311424
0.269787
0.212828
0.147369
0.103476
0.0838367
0.0831984
0.0933002
0.197112
0.244396
0.298393
0.346205
0.385747
0.418561
0.44724
0.470462
0.489318
0.502228
0.508807
0.509216
0.504406
0.495443
0.482409
0.463187
0.436678
0.413836
0.39998
0.392162
0.383507
0.367667
0.34019
0.297783
0.239801
0.172537
0.123236
0.0994113
0.0966856
0.106366
0.17923
0.222535
0.27608
0.326273
0.370085
0.408302
0.442919
0.476414
0.504885
0.525618
0.538426
0.54314
0.540819
0.533213
0.520693
0.501325
0.474643
0.451713
0.436694
0.426424
0.414706
0.396149
0.366952
0.323911
0.265494
0.19745
0.143801
0.115911
0.110993
0.119931
0.163421
0.201735
0.252581
0.302689
0.348953
0.391646
0.431859
0.472294
0.51281
0.542675
0.563078
0.573082
0.573865
0.567976
0.556254
0.537144
0.510932
0.488341
0.472252
0.459573
0.44466
0.423234
0.392221
0.34859
0.290211
0.222073
0.165159
0.133341
0.126118
0.133908
0.151098
0.184302
0.23108
0.279421
0.32634
0.372233
0.417733
0.464737
0.512913
0.554437
0.583594
0.59967
0.604231
0.600306
0.589662
0.571286
0.546114
0.524195
0.507249
0.491974
0.4737
0.449277
0.416354
0.372149
0.314213
0.24648
0.187292
0.151788
0.142036
0.148625
0.143064
0.171856
0.214002
0.259713
0.306159
0.35358
0.402979
0.455816
0.511013
0.562999
0.600699
0.623557
0.632431
0.630734
0.621461
0.604349
0.580728
0.559753
0.541852
0.52381
0.502056
0.474535
0.439633
0.394871
0.337593
0.270783
0.21024
0.171424
0.158877
0.164327
0.140012
0.165559
0.203277
0.245531
0.290139
0.33769
0.38953
0.44704
0.50855
0.568449
0.615177
0.645305
0.658933
0.659792
0.652216
0.636934
0.615281
0.595267
0.57623
0.555253
0.52991
0.499239
0.462321
0.417028
0.360517
0.295124
0.234101
0.192419
0.176833
0.180996
0.143346
0.165387
0.199392
0.237994
0.279833
0.325998
0.378735
0.439525
0.506241
0.572347
0.628099
0.665407
0.684152
0.68807
0.682544
0.669661
0.650298
0.631077
0.610639
0.586498
0.55747
0.523644
0.484708
0.438913
0.383382
0.319683
0.258923
0.214894
0.196101
0.198712
0.156353
0.175637
0.204004
0.237425
0.275589
0.319346
0.371453
0.433997
0.504637
0.576366
0.640349
0.684393
0.708617
0.716138
0.71315
0.703203
0.686342
0.667508
0.645378
0.617825
0.585032
0.548069
0.507155
0.460878
0.406397
0.344671
0.284724
0.238942
0.216896
0.217665
0.179768
0.196789
0.221061
0.247945
0.278396
0.317625
0.367976
0.430867
0.504097
0.581182
0.652506
0.702937
0.732895
0.744638
0.744875
0.738359
0.724036
0.705608
0.680926
0.649665
0.613032
0.572964
0.530138
0.483357
0.429903
0.370289
0.311541
0.264641
0.239529
0.23802
0.21439
0.227663
0.247045
0.267707
0.291494
0.322556
0.368006
0.430141
0.50536
0.587321
0.665084
0.721773
0.757615
0.774278
0.778779
0.776047
0.76408
0.745434
0.71784
0.682629
0.642111
0.598974
0.554252
0.506928
0.454398
0.396707
0.339474
0.292006
0.264208
0.25999
0.25939
0.267128
0.280686
0.294805
0.311045
0.335352
0.374035
0.433082
0.509632
0.595334
0.678661
0.741671
0.783644
0.806098
0.815977
0.817316
0.807557
0.78781
0.756922
0.717598
0.673198
0.626972
0.580267
0.532459
0.480657
0.424642
0.368906
0.321129
0.290937
0.283827
0.312168
0.31339
0.320357
0.327687
0.336616
0.353039
0.385975
0.440791
0.517356
0.605809
0.694137
0.763575
0.812184
0.841429
0.857782
0.863358
0.8553
0.833771
0.799338
0.755847
0.707606
0.658137
0.610084
0.561552
0.510158
0.455269
0.400471
0.352246
0.319749
0.309615
0.370081
0.365201
0.365001
0.365505
0.367377
0.376002
0.402974
0.453385
0.529152
0.620114
0.712807
0.788807
0.844838
0.881973
0.905779
0.915589
0.908603
0.884752
0.846813
0.799247
0.747193
0.695263
0.646571
0.596681
0.544416
0.48946
0.434709
0.385659
0.350711
0.337454
0.431989
0.421054
0.414263
0.408272
0.40361
0.404625
0.42446
0.472583
0.547252
0.640881
0.736557