/*--------------------------------*- C++ -*----------------------------------*\
  =========                 |
  \\      /  F ield         | OpenFOAM: The Open Source CFD Toolbox
   \\    /   O peration     | Website:  https://openfoam.org
    \\  /    A nd           | Version:  12
     \\/     M anipulation  |
\*---------------------------------------------------------------------------*/
FoamFile
{
    format      ascii;
    class       volScalarField;
    location    "1000/air";
    object      nut;
}
// * * * * * * * * * * * * * * * * * * * * * * * * * * * * * * * * * * * * * //

dimensions      [0 2 -1 0 0 0 0];

internalField   nonuniform List<scalar> 
243000
(
8.96282e-05
8.00787e-05
7.95948e-05
8.35951e-05
8.58192e-05
8.66957e-05
8.66952e-05
8.61398e-05
8.52497e-05
8.41744e-05
8.29685e-05
8.17288e-05
8.04241e-05
7.92321e-05
7.83371e-05
7.81808e-05
7.88662e-05
8.0211e-05
8.18047e-05
8.33135e-05
8.45901e-05
8.55789e-05
8.63003e-05
8.67998e-05
8.71714e-05
8.74556e-05
8.77544e-05
8.62555e-05
8.2106e-05
7.84766e-05
0.00032769
0.000310068
0.000285572
0.000280883
0.000287116
0.000290637
0.000291631
0.000290858
0.000289245
0.000287362
0.000285755
0.000285006
0.00028515
0.000286777
0.0002901
0.000295709
0.00030228
0.000308372
0.000312731
0.000315042
0.000316013
0.000316072
0.000315506
0.000314431
0.000312896
0.000311169
0.00031011
0.000306949
0.000297736
0.000281919
0.000422746
0.00042415
0.000413771
0.000405124
0.000403174
0.00041339
0.000434022
0.000452298
0.000469369
0.000484083
0.000498025
0.000512044
0.000525911
0.000540405
0.000555459
0.000571149
0.000584069
0.000591508
0.000591778
0.000584991
0.000573406
0.000558594
0.0005416
0.000522961
0.000502987
0.000482255
0.000461691
0.000439716
0.000412829
0.000378509
0.000454709
0.00045752
0.000451142
0.000442008
0.000431927
0.000427167
0.000433721
0.000446578
0.00046809
0.000491435
0.000514942
0.000538671
0.000561593
0.000584023
0.000605621
0.000626007
0.000641568
0.000649885
0.000649695
0.00064151
0.000627957
0.000610955
0.000591713
0.000570849
0.000548646
0.000525514
0.000502079
0.000477558
0.00044999
0.00041666
0.00048613
0.000489785
0.000485816
0.000478002
0.000467141
0.000455429
0.000447976
0.000450351
0.000464201
0.000486569
0.000518176
0.000553121
0.000587058
0.000618626
0.000647068
0.000671896
0.000689744
0.000698767
0.00069821
0.000688973
0.000673924
0.00065524
0.000634279
0.000611742
0.000587899
0.000563022
0.000537583
0.0005111
0.000482618
0.00045044
0.00051666
0.000521196
0.000518908
0.000512399
0.00050207
0.000489059
0.00047492
0.00046517
0.000467551
0.000484014
0.000514206
0.000559432
0.000605107
0.000646762
0.000682171
0.000711227
0.000731053
0.000740626
0.000739737
0.00072968
0.000713481
0.000693487
0.000671209
0.000647412
0.000622364
0.000596251
0.000569456
0.00054167
0.000512296
0.00048098
0.000546393
0.000551588
0.000550454
0.000544869
0.000535104
0.000521836
0.000506012
0.00048925
0.000480154
0.000486693
0.000512338
0.000560201
0.000617745
0.000669996
0.000712437
0.000745475
0.000767012
0.000777007
0.000775826
0.000765124
0.000748025
0.000727009
0.000703715
0.000678967
0.000653048
0.000626091
0.000598413
0.000569834
0.000539775
0.000509017
0.000575417
0.000581043
0.00058061
0.000575546
0.000566093
0.000552693
0.00053599
0.000517376
0.000500015
0.000496108
0.000514276
0.000558809
0.000626619
0.000689489
0.000738851
0.000775604
0.000798642
0.000808958
0.000807525
0.000796327
0.000778531
0.000756716
0.000732616
0.000707148
0.000680617
0.000653123
0.000624907
0.00059588
0.000565668
0.00053509
0.000603826
0.000609585
0.000609561
0.00060477
0.000595377
0.000581707
0.000564279
0.000544166
0.000523174
0.000510779
0.00052072
0.00055965
0.000633471
0.000706135
0.000762102
0.000802277
0.000826668
0.000837211
0.00083558
0.000824014
0.000805694
0.000783256
0.000758522
0.000732502
0.000705558
0.000677753
0.00064925
0.000620022
0.000589904
0.000559396
0.000631772
0.000637354
0.000637436
0.000632724
0.000623265
0.000609267
0.000591096
0.000569648
0.000547
0.000528569
0.000530288
0.000564029
0.000639446
0.000720622
0.000782698
0.000825994
0.000851594
0.000862316
0.000860531
0.000848705
0.000830006
0.000807108
0.000781894
0.000755465
0.000728246
0.000700289
0.000671687
0.000642445
0.000612556
0.000582093
0.000659312
0.000664426
0.000664364
0.000659566
0.000649967
0.000635628
0.000616772
0.000594109
0.000569529
0.000547353
0.000542269
0.000570947
0.000645166
0.000733442
0.000801008
0.000847115
0.000873796
0.000884683
0.0008828
0.000870803
0.000851857
0.000828643
0.000803093
0.000776374
0.000748983
0.000720966
0.000692396
0.000663285
0.000633721
0.000603589
0.000686457
0.000690803
0.000690366
0.000685372
0.000675589
0.000660933
0.000641481
0.000617748
0.000591412
0.000566403
0.000556018
0.000579926
0.000651088
0.000744968
0.000817299
0.000865901
0.000893553
0.000904616
0.0009027
0.000890632
0.000871551
0.000848156
0.000822396
0.000795493
0.000768007
0.000740004
0.000711559
0.000682676
0.000653492
0.00062391
0.000713291
0.000716621
0.000715582
0.000710228
0.000700233
0.000685286
0.000665325
0.000640696
0.00061283
0.000585652
0.000571001
0.000590128
0.000657451
0.000755437
0.000831773
0.000882538
0.000911071
0.000922336
0.000920466
0.000908419
0.000889314
0.000865866
0.00084002
0.000813037
0.000785534
0.00075761
0.000729361
0.000700775
0.000672005
0.000643018
0.000739938
0.000742047
0.000740224
0.000734356
0.000724038
0.000708814
0.000688411
0.000663033
0.000633857
0.000605033
0.000586925
0.00060135
0.000664367
0.000765002
0.000844575
0.000897164
0.000926498
0.000938007
0.000936268
0.00092434
0.000905317
0.000881941
0.000856137
0.000829187
0.000801757
0.00077399
0.000746004
0.000717772
0.000689444
0.000661052
0.00076649
0.00076726
0.000764511
0.000757989
0.000747231
0.000731685
0.000710873
0.000684848
0.000654586
0.000624306
0.000603444
0.00061336
0.000671852
0.000773719
0.000855792
0.000909905
0.000939956
0.000951757
0.000950233
0.000938527
0.000919697
0.000896513
0.00087088
0.000844074
0.000816817
0.000789303
0.000761656
0.000733848
0.000705998
0.000678199
0.00079314
0.000792487
0.00078867
0.000781354
0.000770038
0.000754079
0.000732862
0.000706251
0.000675076
0.000643443
0.000620323
0.000625938
0.000679838
0.000781594
0.000865464
0.000920848
0.000951543
0.000963683
0.000962458
0.000951074
0.000932557
0.000909686
0.000884343
0.000857814
0.000830839
0.000803673
0.000776443
0.00074913
0.000721816
0.000694647
0.000820208
0.000817987
0.00081294
0.000804691
0.000792696
0.000776228
0.000754558
0.000727368
0.000695392
0.000662709
0.000637426
0.000638888
0.000688221
0.000788611
0.000873574
0.000930032
0.000961323
0.000973868
0.000973021
0.000962054
0.000943959
0.000921519
0.000896615
0.000870499
0.000843923
0.000817199
0.000790468
0.000763716
0.000737002
0.000710514
0.000847794
0.000844014
0.000837594
0.000828282
0.000815491
0.000798398
0.000776182
0.00074836
0.000715617
0.000681774
0.000654575
0.000652036
0.000696901
0.00079477
0.000880111
0.000937462
0.000969341
0.000982361
0.000981977
0.000971501
0.000953962
0.000932096
0.000907759
0.000882186
0.000856135
0.00082996
0.000803816
0.000777693
0.000751638
0.000725891
0.000875066
0.000870374
0.000863025
0.000852558
0.000838842
0.000820977
0.000798052
0.000769467
0.000735914
0.00070081
0.000671643
0.000665312
0.000705722
0.000800024
0.000885044
0.000943106
0.000975606
0.000989193
0.000989359
0.000979495
0.000962654
0.000941477
0.000917821
0.000892918
0.000867519
0.000842004
0.000816542
0.000791129
0.000765802
0.000740852
0.000901901
0.000896284
0.000888396
0.000877697
0.000863479
0.000844643
0.000820715
0.000791101
0.000756749
0.000720055
0.000688656
0.000678662
0.000714546
0.000804269
0.00088835
0.000946925
0.000980104
0.000994375
0.000995225
0.000986127
0.000970091
0.000949712
0.000926854
0.000902742
0.000878117
0.000853381
0.000828705
0.000804096
0.00077958
0.000755492
0.000928193
0.000921644
0.000913238
0.000902414
0.000888343
0.000869752
0.000845228
0.000814071
0.000779061
0.000739836
0.000705695
0.000692014
0.000723248
0.000807489
0.000890046
0.000948852
0.00098279
0.000997934
0.000999588
0.000991407
0.000976305
0.000956847
0.000934907
0.000911706
0.000887985
0.000864149
0.000840372
0.000816671
0.000793066
0.000769932
0.000953819
0.000946401
0.000937527
0.000926623
0.00091284
0.000894826
0.000870834
0.000840263
0.0008021
0.000759933
0.000722724
0.000705366
0.000731692
0.000809648
0.000889834
0.00094895
0.000983678
0.00099977
0.00100242
0.000995323
0.000981307
0.000962908
0.000942021
0.000919865
0.000897182
0.000874377
0.000851625
0.00082895
0.00080637
0.000784305
0.000978699
0.000970549
0.000961324
0.000950481
0.000937185
0.000920172
0.000897866
0.000866821
0.000826299
0.000780419
0.00073986
0.000718852
0.000739756
0.000810389
0.000887813
0.00094681
0.000982473
0.000999803
0.00100358
0.000997787
0.00098505
0.000967881
0.000948203
0.000927248
0.000905762
0.000884144
0.000862561
0.000841037
0.000819608
0.000798745
0.0010029
0.000994267
0.000984953
0.000974685
0.000962714
0.000946793
0.000923622
0.000891331
0.000849288
0.000801118
0.000757466
0.000732907
0.000747526
0.000809896
0.000883507
0.000942023
0.00097857
0.000997269
0.00100251
0.000998141
0.000987035
0.00097143
0.000953241
0.00093374
0.000913677
0.000893476
0.000873278
0.000853088
0.000832968
0.000813488
0.00102649
0.00101822
0.00100979
0.000999818
0.000986839
0.000969327
0.000945007
0.000911826
0.000869475
0.000820946
0.000776446
0.000749045
0.000756784
0.000808486
0.00087671
0.000933887
0.000971051
0.000991243
0.000998207
0.000995665
0.000986369
0.000972553
0.000956212
0.000938586
0.000920347
0.000901982
0.000883595
0.000865126
0.000846626
0.000828744
0.00104855
0.00103976
0.00102989
0.00101828
0.00100391
0.000985172
0.000960115
0.000927276
0.000888266
0.000843488
0.000800108
0.000771193
0.000772724
0.000814293
0.000873808
0.000926598
0.000963109
0.000984466
0.000993499
0.000993304
0.000986179
0.000974329
0.000959444
0.000942771
0.000925178
0.000908734
0.000892596
0.000876382
0.000860002
0.000844144
0.00106184
0.00105028
0.00103881
0.0010271
0.00101409
0.000998198
0.000977482
0.000950163
0.000916021
0.000876037
0.000836057
0.000807536
0.000804079
0.000836125
0.000886159
0.000932924
0.000966976
0.00098807
0.000998008
0.000999496
0.000994206
0.000984006
0.00097045
0.000954741
0.000937809
0.000920957
0.000904239
0.000887561
0.000871311
0.000856951
0.00109052
0.00107889
0.00106723
0.00105569
0.00104386
0.00103064
0.00101435
0.000993193
0.000966312
0.000934432
0.000902053
0.000878099
0.000872608
0.000895147
0.000933626
0.000970981
0.000999034
0.00101697
0.0010258
0.00102731
0.00102266
0.00101334
0.00100066
0.000985687
0.000969273
0.000952339
0.000935231
0.000918024
0.000900916
0.000884924
0.0011498
0.00113979
0.00113109
0.00112433
0.00111881
0.00111334
0.00110635
0.00109624
0.00108229
0.001065
0.00104661
0.00103305
0.00102956
0.0010423
0.001065
0.00108715
0.00110337
0.00111344
0.00111744
0.00111627
0.00111051
0.00110113
0.00108904
0.00107494
0.00105945
0.00104316
0.00102606
0.00100816
0.000989836
0.000972153
0.00135213
0.00134848
0.00135175
0.00135776
0.00136244
0.00136528
0.00136615
0.001365
0.00136203
0.00135747
0.00134975
0.00134375
0.0013405
0.00134164
0.00134535
0.00134992
0.00135234
0.00135371
0.00135362
0.00135256
0.00135054
0.001348
0.0013449
0.00134152
0.00133794
0.00133422
0.00132728
0.00131647
0.00130451
0.00129196
0.000114482
0.000131211
0.000132142
0.000130792
0.000128119
0.000124933
0.000121628
0.000118444
0.000115515
0.000113004
0.000110958
0.000109475
0.000108457
0.000107985
0.00010795
0.000108355
0.000108799
0.000108924
0.000108585
0.000107715
0.000106276
0.000104043
0.000100869
9.66184e-05
9.13132e-05
8.56204e-05
8.14307e-05
7.71396e-05
7.55563e-05
8.57688e-05
0.000384176
0.000447529
0.000450577
0.000450474
0.000443594
0.000435826
0.000427937
0.000421966
0.000418629
0.000419184
0.000423368
0.00043073
0.000438651
0.00044642
0.000450053
0.000447514
0.000434033
0.000411512
0.000384059
0.000356533
0.000334637
0.000317638
0.000302696
0.000286661
0.000268502
0.000249881
0.000233828
0.000217073
0.000227459
0.000260207
0.000474289
0.000580694
0.000621449
0.00065745
0.000681467
0.000698769
0.000711686
0.000726767
0.000744795
0.000771281
0.000805452
0.000844167
0.000879677
0.000907754
0.000920788
0.000914839
0.000883864
0.000832933
0.000770933
0.000707923
0.000654261
0.000610986
0.000576309
0.000541931
0.000503496
0.000465128
0.000432585
0.00039744
0.000381937
0.000396362
0.000520066
0.000608715
0.000673363
0.000732368
0.000783309
0.000831865
0.000880152
0.00093261
0.000985427
0.00105485
0.00113683
0.00122318
0.00129907
0.00135454
0.00138063
0.00137306
0.00132765
0.00125113
0.00115794
0.00106206
0.000977045
0.000906209
0.000847284
0.000791083
0.000731276
0.000672289
0.000623078
0.000574467
0.000534445
0.000517432
0.000559849
0.000637151
0.000696154
0.00075817
0.000817301
0.000881114
0.000955785
0.00103901
0.00113678
0.00126609
0.00141104
0.00155702
0.00168042
0.00176595
0.00180605
0.00179731
0.00173976
0.0016409
0.00152044
0.00139579
0.00128283
0.00118652
0.0011049
0.00102836
0.000948956
0.000870877
0.000805376
0.000745495
0.000689339
0.000645595
0.000586905
0.000670814
0.000725548
0.000784608
0.000844922
0.000912786
0.000994916
0.00109481
0.00122464
0.00141326
0.00163515
0.00185168
0.00202653
0.00214254
0.00219593
0.00218548
0.00211723
0.00199852
0.00185413
0.00170447
0.00156719
0.00144828
0.00134645
0.00125203
0.00115579
0.0010612
0.000980511
0.000910268
0.000846204
0.000785301
0.000634744
0.000699711
0.00075808
0.000818297
0.000873488
0.000938343
0.00102104
0.00113072
0.00128361
0.00150914
0.00181779
0.00211018
0.0023409
0.00248735
0.0025526
0.00253956
0.00246161
0.00232492
0.0021595
0.00198811
0.00182981
0.00169127
0.00157186
0.00146215
0.00135202
0.00124367
0.00114936
0.00106925
0.0010021
0.00093402
0.000723636
0.000770723
0.000806794
0.000848268
0.000902486
0.000966136
0.00104411
0.00115747
0.00132959
0.00158899
0.00196379
0.00233573
0.00262589
0.002803
0.0028782
0.00286194
0.00277492
0.00262206
0.00243802
0.00224791
0.00207157
0.00191621
0.00178167
0.00165916
0.00153794
0.00141846
0.00131234
0.0012228
0.00115058
0.00108604
0.00085633
0.000879253
0.000894392
0.000915282
0.000948219
0.000991661
0.00106687
0.00118281
0.00136712
0.00165635
0.00207189
0.00253086
0.00288433
0.00309101
0.00317434
0.00315476
0.00305902
0.00289175
0.00269147
0.00248538
0.00229374
0.00212413
0.00197678
0.00184362
0.00171375
0.00158558
0.00146962
0.0013716
0.00129356
0.00123757
0.00104286
0.00104711
0.00103482
0.00102654
0.00102773
0.00104573
0.00109554
0.00120112
0.00139621
0.00171046
0.0021575
0.00270107
0.00311912
0.00335309
0.00344298
0.00341977
0.00331556
0.00313572
0.00292144
0.00270204
0.00249769
0.00231624
0.00215816
0.00201619
0.00187968
0.00174491
0.00162098
0.001516
0.00143316
0.00138632
0.00126358
0.00126449
0.00123681
0.00119424
0.00115741
0.00113916
0.00115584
0.001236
0.00141835
0.00175175
0.00224068
0.00285772
0.00333269
0.00359078
0.00368555
0.0036583
0.003546
0.00335544
0.00312953
0.0028994
0.00268484
0.00249374
0.00232685
0.00217769
0.00203606
0.00189652
0.00176715
0.00165616
0.00156923
0.00152815
0.001495
0.00149714
0.00146739
0.00141225
0.00133765
0.0012777
0.00125393
0.00129599
0.00146213
0.00179617
0.00232527
0.0030014
0.00352742
0.00380511
0.00390301
0.00387137
0.00375155
0.00355236
0.00331719
0.00307897
0.00285652
0.00265787
0.00248393
0.00232896
0.00218331
0.00204105
0.00190831
0.00179275
0.00170215
0.00166204
0.00173239
0.0017372
0.00170762
0.00164582
0.00155725
0.00145733
0.00138957
0.00139024
0.00152447
0.00186209
0.00241859
0.00313748
0.00370419
0.00399653
0.00409584
0.00405965
0.00393323
0.00372771
0.00348591
0.00324214
0.00301403
0.00280987
0.0026305
0.00247094
0.00232209
0.00217864
0.00204443
0.00192623
0.00183259
0.00179107
0.00197236
0.00198059
0.00195289
0.00188782
0.00178968
0.00166734
0.00155912
0.00151733
0.00160477
0.00193882
0.00252047
0.00326477
0.00386283
0.00416484
0.00426403
0.00422346
0.00409184
0.0038826
0.00363695
0.00339029
0.00315873
0.002951
0.00276741
0.00260431
0.00245357
0.00231009
0.00217576
0.00205656
0.00196098
0.00191711
0.00221218
0.00222387
0.0021986
0.00213251
0.0020284
0.00189432
0.00175433
0.0016717
0.00171295
0.00203372
0.00262483
0.00338422
0.00400247
0.00430923
0.00440723
0.00436284
0.00422792
0.00401771
0.00377121
0.00352457
0.0032917
0.00308195
0.00289544
0.00272974
0.00257847
0.00243604
0.00230304
0.00218388
0.00208761
0.00204246
0.0024474
0.00246136
0.00243903
0.00237382
0.00226705
0.0021246
0.00196485
0.00184784
0.00184872
0.00214027
0.00273169
0.00349497
0.00412058
0.00442801
0.0045242
0.00447725
0.00434154
0.00413321
0.00388894
0.0036454
0.00341356
0.00320353
0.00301527
0.00284842
0.00269743
0.00255689
0.00242634
0.00230842
0.00221255
0.00216734
0.0026696
0.00268587
0.00266685
0.00260452
0.00249853
0.00235257
0.00218194
0.00203803
0.00200634
0.00225705
0.00283803
0.00359329
0.00421345
0.00451856
0.00461255
0.00456537
0.00443204
0.00422851
0.00399036
0.00375243
0.00352376
0.00331533
0.00312777
0.00296106
0.0028109
0.0026728
0.00254547
0.00242969
0.00233545
0.00229135
0.00286977
0.00288775
0.00287302
0.00281602
0.00271461
0.00257045
0.00239623
0.00223339
0.00217697
0.00237826
0.00294396
0.00367213
0.00427837
0.00457729
0.00466919
0.00462458
0.00449768
0.00430261
0.00407429
0.00384439
0.00362195
0.00341719
0.00323163
0.00306632
0.00291856
0.00278338
0.00265932
0.00254701
0.00245601
0.00241392
0.00305286
0.00306139
0.00304691
0.00299826
0.00290546
0.00276874
0.00259716
0.00242337
0.0023472
0.00249868
0.00304061
0.00372762
0.00430974
0.00459902
0.00468951
0.00465067
0.004535
0.00435275
0.00413788
0.00391982
0.0037063
0.00350717
0.00332546
0.00316291
0.00301794
0.00288687
0.00276737
0.00266017
0.00257361
0.002534
0.00321782
0.00321265
0.00319079
0.00314209
0.00305878
0.00293581
0.00277232
0.00259555
0.00250285
0.00261004
0.00311975
0.0037576
0.00429996
0.00457623
0.00466671
0.00463736
0.00453821
0.0043738
0.00417739
0.00397399
0.00377241
0.00358184
0.00340644
0.0032487
0.00310817
0.00298238
0.00286858
0.00276749
0.00268637
0.00264941
0.00335969
0.00333991
0.00330846
0.00325642
0.00317621
0.00306026
0.00290677
0.00273547
0.00263037
0.0026986
0.00316388
0.00374261
0.00423647
0.00449795
0.00459073
0.00457533
0.00449814
0.00435741
0.00418373
0.0039993
0.00381322
0.0036348
0.00346911
0.00331882
0.00318469
0.00306537
0.00295879
0.00286524
0.00279
0.00275597
0.00347076
0.00343745
0.00339712
0.00334176
0.00326235
0.0031485
0.00299635
0.00282729
0.00271389
0.00274825
0.00314498
0.00366243
0.00410176
0.00434898
0.00444749
0.00445145
0.00440046
0.00428872
0.00414375
0.00398352
0.00381798
0.00365607
0.0035038
0.0033643
0.00323904
0.00312808
0.00303042
0.00294544
0.00287746
0.00284691
0.00354109
0.00349715
0.00345074
0.00339367
0.00331378
0.00319715
0.00304199
0.00286776
0.0027379
0.00273703
0.00303769
0.00349217
0.00387584
0.0041117
0.00421987
0.00424852
0.0042255
0.00414763
0.00403699
0.0039071
0.00376794
0.00362829
0.00349485
0.00337083
0.00325853
0.00315876
0.0030714
0.00299634
0.00293739
0.00291186
0.0035585
0.00350968
0.00346212
0.0034039
0.00331923
0.00320003
0.00304053
0.00285658
0.00270136
0.00265432
0.00284159
0.00321208
0.00354975
0.00377744
0.00389716
0.00395247
0.00395694
0.00391512
0.00384065
0.00374447
0.00363646
0.00352505
0.00341676
0.00331471
0.0032212
0.00313717
0.00306335
0.00300065
0.00295333
0.00293623
0.00350961
0.0034652
0.00342271
0.00336137
0.00327519
0.00315568
0.00299323
0.00280088
0.00262133
0.00252479
0.00260503
0.00286708
0.00315257
0.0033743
0.00350498
0.00358132
0.003608
0.00359689
0.0035529
0.00348745
0.00341044
0.00332787
0.00324652
0.00316992
0.0031
0.00303669
0.00298146
0.00293589
0.00290425
0.00289872
0.00339113
0.00336065
0.00332552
0.00327734
0.00319723
0.00307787
0.00291822
0.0027303
0.00254359
0.00241803
0.00242165
0.00258364
0.00280047
0.00299636
0.00313466
0.00322018
0.00325859
0.00326589
0.00324058
0.00319383
0.0031347
0.00306945
0.00300646
0.00295008
0.00290181
0.00285715
0.0028197
0.00279152
0.00277643
0.00278506
0.00323351
0.00322403
0.00320732
0.00317424
0.00310946
0.00300074
0.00285558
0.00269077
0.00253205
0.00241365
0.00238681
0.00247657
0.00262403
0.00277585
0.00290177
0.00298071
0.00301838
0.00303058
0.0030126
0.00297332
0.00292061
0.00286128
0.00280344
0.00275183
0.00270842
0.0026729
0.00264632
0.00262972
0.00262478
0.00264163
0.00308385
0.00308719
0.00309142
0.00308141
0.00303866
0.00296034
0.00285065
0.00272663
0.00260957
0.00251894
0.00249227
0.00253895
0.00262881
0.0027342
0.00282873
0.00289048
0.00292081
0.00293168
0.00291816
0.00288657
0.00284261
0.00279242
0.00274292
0.00269837
0.00266015
0.00262875
0.00260432
0.00258667
0.0025768
0.00258773
0.00295303
0.00295871
0.00297163
0.00297383
0.00295343
0.00290871
0.00284392
0.00276601
0.00269122
0.00263028
0.00260705
0.00262749
0.00267585
0.00274158
0.00279732
0.00283685
0.00285567
0.00286138
0.00285148
0.00283069
0.00280282
0.00277226
0.00274356
0.00271986
0.00270144
0.00268747
0.00267643
0.00266646
0.00265688
0.00265125
0.00284654
0.00285753
0.00287311
0.00287905
0.00287007
0.00284679
0.00281351
0.00276893
0.00272686
0.00269022
0.00266486
0.00266151
0.0026799
0.00270825
0.00273157
0.00274912
0.00275562
0.00275445
0.00274654
0.00273505
0.00272357
0.00271475
0.00271046
0.00271154
0.00271788
0.00272769
0.00273741
0.00274611
0.00275107
0.00274816
0.000155949
0.00016236
0.00016277
0.000160489
0.000156659
0.000152167
0.000147581
0.00014327
0.000139396
0.000136083
0.000133296
0.000131069
0.00012924
0.000127881
0.000126822
0.000126029
0.000124963
0.000123449
0.000121812
0.000120242
0.000118265
0.000115004
0.000109691
0.000101708
9.08687e-05
7.88143e-05
7.21096e-05
0.000320614
7.64038e-05
9.05911e-05
0.0006125
0.000680223
0.0006771
0.000657602
0.000636384
0.000619599
0.000608868
0.000604124
0.000604195
0.000607677
0.000611436
0.000613522
0.000609704
0.000601326
0.000584938
0.000561445
0.000524519
0.000484288
0.000451964
0.000432065
0.000422424
0.000417618
0.000407005
0.000380514
0.000337769
0.000297208
0.000288015
0.000309539
0.000234288
0.000328271
0.00097534
0.00105567
0.00109714
0.00110927
0.00110753
0.00110806
0.00111462
0.0011298
0.00115385
0.00118476
0.00121589
0.00124027
0.00124848
0.00124078
0.00121163
0.0011623
0.00108258
0.000994316
0.000916365
0.00085906
0.000820431
0.000793019
0.000764703
0.000710456
0.000624337
0.000539322
0.000512111
0.000479983
0.000404549
0.000507267
0.0010994
0.00125126
0.00135451
0.00140481
0.0014334
0.00146714
0.00150462
0.00155213
0.0016144
0.0016878
0.00176133
0.00181982
0.00185016
0.00185021
0.00181437
0.00174407
0.00162758
0.00149661
0.00137672
0.00127973
0.00120733
0.00115266
0.00109886
0.00101718
0.000894679
0.00076781
0.000712
0.000667342
0.000586423
0.000648166
0.00110298
0.00129043
0.00142993
0.00153185
0.0016115
0.00169405
0.00177452
0.00186446
0.00197941
0.00211005
0.00223652
0.00233863
0.0023966
0.00240737
0.00236702
0.00227901
0.00213078
0.00196214
0.00180291
0.00166981
0.00156523
0.00148319
0.00140563
0.0013013
0.00115078
0.00098924
0.000902483
0.000850466
0.000774507
0.000816188
0.00105464
0.00125623
0.00141693
0.00155444
0.00167591
0.00179846
0.00192099
0.00207362
0.00225912
0.00246308
0.00265471
0.00280641
0.00289486
0.00291708
0.00287197
0.00276819
0.0025913
0.00238793
0.00219238
0.00202607
0.00189223
0.0017851
0.00168657
0.00156456
0.0013943
0.0012067
0.00108884
0.00102817
0.000965519
0.00100003
0.00101134
0.00120489
0.00137445
0.00152971
0.001677
0.00182997
0.00199766
0.00220042
0.00246504
0.00276
0.00302695
0.00323266
0.00335196
0.00338548
0.00333463
0.003216
0.00301227
0.00277597
0.00254666
0.00234999
0.00219
0.00206075
0.00194431
0.00180885
0.00162595
0.00142029
0.00127563
0.00120302
0.00115441
0.00119471
0.000992544
0.00116623
0.00133157
0.00149444
0.00165945
0.00183788
0.0020424
0.00229173
0.00261278
0.00301462
0.00336098
0.00362193
0.00377341
0.00381707
0.00375976
0.00362621
0.00339652
0.00312876
0.00286821
0.00264409
0.00246109
0.0023128
0.00218141
0.00203608
0.00184632
0.00162935
0.00146318
0.00137595
0.00133857
0.00139251
0.00100591
0.0011644
0.00131789
0.00147521
0.0016474
0.00184233
0.00207635
0.00236932
0.0027508
0.00323065
0.00365886
0.00397883
0.00416303
0.00421517
0.00415078
0.00400136
0.00374626
0.00344837
0.00315959
0.00291112
0.00270835
0.00254395
0.00240038
0.00224813
0.00205593
0.00183314
0.00165114
0.00154945
0.00151778
0.00158796
0.00104385
0.0011901
0.00134166
0.00149471
0.00166169
0.00186186
0.00211697
0.00245133
0.00288488
0.00341593
0.00392933
0.00430697
0.00452271
0.00458201
0.00450957
0.00434266
0.00406319
0.00373686
0.00342314
0.00315397
0.00293472
0.00275702
0.00260368
0.0024467
0.00225522
0.00203182
0.0018387
0.00172412
0.00169201
0.00177841
0.00114459
0.0012658
0.00138864
0.00153889
0.00171074
0.00191308
0.00217868
0.00253914
0.00301664
0.00359523
0.00418093
0.00460675
0.00485286
0.00491839
0.00483699
0.00465091
0.00434837
0.00399624
0.00366155
0.00337574
0.00314333
0.00295481
0.00279381
0.00263395
0.00244514
0.0022252
0.00202603
0.00190077
0.00186455
0.00196383
0.00130915
0.00142866
0.00154029
0.00164814
0.00177497
0.00197618
0.00224842
0.00262953
0.00314476
0.00375668
0.00439902
0.00488335
0.00515243
0.0052239
0.00513299
0.00492645
0.00460244
0.00422914
0.00387788
0.0035798
0.00333731
0.00314023
0.00297342
0.00281145
0.0026268
0.00241347
0.00221349
0.00207949
0.0020376
0.00214534
0.00153271
0.00164698
0.00174516
0.00183176
0.00193283
0.00207108
0.00231853
0.00271666
0.00325793
0.00390218
0.00459798
0.00513648
0.00542187
0.00549693
0.00539664
0.00516929
0.00482678
0.00443804
0.00407555
0.00376954
0.00351983
0.00331619
0.00314465
0.00298132
0.00280176
0.00259722
0.00240076
0.00226086
0.00221294
0.00232453
0.00182532
0.00193029
0.00201473
0.00207627
0.00213934
0.00223808
0.00243791
0.00280087
0.00335923
0.00404765
0.00478458
0.00536554
0.00566061
0.00573479
0.00562601
0.00537921
0.00502292
0.00462579
0.00425792
0.00394818
0.00369382
0.00348552
0.00330931
0.00314546
0.00297153
0.00277724
0.00258761
0.00244511
0.00239159
0.00250263
0.00217631
0.00226923
0.00233637
0.00236953
0.00239402
0.00244611
0.00260249
0.0029419
0.00348495
0.00419959
0.00496328
0.00556838
0.00586463
0.00593517
0.0058179
0.0055553
0.00519267
0.00479479
0.00442786
0.00411834
0.00386172
0.00364989
0.00346947
0.00330561
0.00313755
0.00295432
0.0027739
0.00263199
0.00257344
0.00267937
0.0025627
0.00263844
0.0026836
0.00268692
0.00267683
0.00268946
0.00279089
0.00311294
0.00364383
0.00436387
0.0051376
0.00573797
0.00602782
0.00609317
0.00596875
0.00569606
0.00533726
0.00494659
0.00458707
0.00428146
0.00402494
0.00381022
0.00362639
0.00346285
0.00330066
0.00312867
0.0029589
0.00282
0.00275782
0.00285587
0.00295548
0.00300863
0.00302694
0.00300444
0.00296418
0.00294283
0.00299664
0.00327851
0.00380586
0.00452922
0.00528318
0.00585421
0.006142
0.00620215
0.00607382
0.00579916
0.00545627
0.00508069
0.004735
0.00443701
0.00418277
0.00396662
0.00378051
0.00361592
0.00345971
0.00329884
0.00314
0.00300524
0.00294299
0.00303203
0.0033312
0.00335371
0.00334468
0.00329932
0.00323377
0.00318296
0.00320578
0.00342744
0.0039537
0.00464665
0.00536683
0.00591874
0.00619868
0.00625404
0.00612696
0.00586087
0.00554638
0.00519364
0.00486804
0.00458171
0.00433226
0.0041172
0.00393063
0.00376595
0.00361234
0.00346038
0.00331312
0.00318821
0.00312745
0.00320605
0.00366026
0.00365298
0.00362041
0.00355489
0.00346827
0.00339295
0.00339218
0.00355061
0.00406337
0.00471182
0.00538866
0.00591876
0.00618692
0.00623942
0.00612063
0.0058756
0.00559997
0.00527803
0.00497848
0.00470849
0.00446793
0.00425684
0.00407234
0.00390973
0.0037602
0.00361683
0.00348111
0.00336616
0.0033078
0.00337368
0.00393701
0.00390202
0.00384559
0.00376155
0.00365657
0.00355927
0.00353136
0.00364061
0.00411199
0.00472768
0.00535068
0.00584
0.00609418
0.00614801
0.00604613
0.00583473
0.00560495
0.00532224
0.00505386
0.0048053
0.00457882
0.00437651
0.00419794
0.00404017
0.00389682
0.0037625
0.00363761
0.00353172
0.00347638
0.00352755
0.00415403
0.00409364
0.0040156
0.00391431
0.00379279
0.00367391
0.00361443
0.00367964
0.00407842
0.00465531
0.00521799
0.00566492
0.00590792
0.00597029
0.00589463
0.00572712
0.00554723
0.00530944
0.00507644
0.00485425
0.00464756
0.00445985
0.0042923
0.0041434
0.00400889
0.00388473
0.00377081
0.00367453
0.00362163
0.00365673
0.00430112
0.00422017
0.00412542
0.00401053
0.00387411
0.00373351
0.00363787
0.00365596
0.00395195
0.00446636
0.00497367
0.00538189
0.00562098
0.00570163
0.00566034
0.00554276
0.00541258
0.00522156
0.0050261
0.0048341
0.00465113
0.00448233
0.00433056
0.00419561
0.00407434
0.0039634
0.00386232
0.00377673
0.00372712
0.00374664
0.00436846
0.00427455
0.0041704
0.00404754
0.0038995
0.00373862
0.00360531
0.00356889
0.00375098
0.00416419
0.00461501
0.00499346
0.00524122
0.00535073
0.0053479
0.00528117
0.00519467
0.00504884
0.00488983
0.00472741
0.00457015
0.00442399
0.00429209
0.00417499
0.00407059
0.00397605
0.00389044
0.00381772
0.00377361
0.00378055
0.00435042
0.00425404
0.00414976
0.00402624
0.00387352
0.00369844
0.00353321
0.00344186
0.0035135
0.00380896
0.00418904
0.0045434
0.00480129
0.00494968
0.00498489
0.00496317
0.00491194
0.00480521
0.00467955
0.00454532
0.00441194
0.00428653
0.0041732
0.00407345
0.00398609
0.0039087
0.00383981
0.00378151
0.00374497
0.00374392
0.00425359
0.00416661
0.0040731
0.00395926
0.00381263
0.00363594
0.0034551
0.00332474
0.00330968
0.0034963
0.00379878
0.00411588
0.00437461
0.0045559
0.00462654
0.00463843
0.00461239
0.0045365
0.00443783
0.00432665
0.00421223
0.00410223
0.00400187
0.00391373
0.00383777
0.00377216
0.00371532
0.0036683
0.00363889
0.00363633
0.00410593
0.00403979
0.00396856
0.00387581
0.00374884
0.00358747
0.00341547
0.00327267
0.00321446
0.00331737
0.00354125
0.00380799
0.00404864
0.00423653
0.00433223
0.00436162
0.00434908
0.00429301
0.00421347
0.00411954
0.00401957
0.00392082
0.00382896
0.00374727
0.00367667
0.00361605
0.00356421
0.00352177
0.0034945
0.00349211
0.00395953
0.00392207
0.00387701
0.00381333
0.00371629
0.00358663
0.00344267
0.00331382
0.00325107
0.00329883
0.00345182
0.00365772
0.00385967
0.00402714
0.00412391
0.00415245
0.00414112