/*--------------------------------*- C++ -*----------------------------------*\
  =========                 |
  \\      /  F ield         | OpenFOAM: The Open Source CFD Toolbox
   \\    /   O peration     | Website:  https://openfoam.org
    \\  /    A nd           | Version:  12
     \\/     M anipulation  |
\*---------------------------------------------------------------------------*/
FoamFile
{
    format      ascii;
    class       volScalarField;
    location    "1000/air";
    object      p_rgh;
}
// * * * * * * * * * * * * * * * * * * * * * * * * * * * * * * * * * * * * * //

dimensions      [1 -1 -2 0 0 0 0];

internalField   nonuniform List<scalar> 
243000
(
29.4243
29.44
29.4806
29.4865
29.4872
29.4708
29.4463
29.4211
29.3983
29.3873
29.3909
29.422
29.4784
29.5663
29.6642
29.77
29.8554
29.9158
29.9374
29.9323
29.905
29.87
29.832
29.7915
29.7497
29.7028
29.7055
29.7446
29.9196
29.9772
29.4126
29.4286
29.4766
29.4816
29.4828
29.4681
29.4463
29.4221
29.4002
29.3915
29.3983
29.432
29.4901
29.5786
29.6754
29.7797
29.8637
29.9241
29.9465
29.9429
29.9173
29.8838
29.8466
29.8067
29.7657
29.7145
29.7095
29.7452
29.9143
29.884
29.4025
29.4208
29.4711
29.4779
29.4777
29.4598
29.4376
29.4136
29.3923
29.3856
29.3948
29.4291
29.4886
29.5806
29.6806
29.787
29.873
29.9361
29.9608
29.9586
29.9341
29.9009
29.8637
29.8235
29.7831
29.7285
29.7123
29.7367
29.8948
29.8763
29.3785
29.4044
29.4602
29.4727
29.4737
29.4555
29.4301
29.4052
29.3839
29.3768
29.3862
29.4209
29.4815
29.5755
29.678
29.7878
29.8764
29.942
29.9689
29.967
29.9436
29.9114
29.8752
29.8355
29.7945
29.7413
29.7161
29.7282
29.8673
29.8503
29.3398
29.3726
29.4369
29.4572
29.465
29.4535
29.4281
29.3992
29.3772
29.3693
29.3771
29.41
29.4698
29.565
29.6695
29.782
29.8736
29.9425
29.9699
29.9667
29.9431
29.9113
29.8769
29.8395
29.8008
29.751
29.7217
29.7217
29.8409
29.8248
29.2896
29.3256
29.3964
29.4248
29.4414
29.44
29.4235
29.3967
29.3715
29.363
29.3694
29.3993
29.4565
29.5519
29.6576
29.7722
29.8654
29.9365
29.9653
29.9619
29.939
29.9079
29.8746
29.8388
29.8028
29.7578
29.7283
29.7176
29.817
29.8014
29.2303
29.2684
29.3447
29.3804
29.4038
29.4109
29.4061
29.389
29.3668
29.3572
29.3623
29.3888
29.4418
29.5357
29.6416
29.7576
29.8518
29.9245
29.954
29.9505
29.929
29.9002
29.8687
29.8348
29.8009
29.7599
29.7323
29.7145
29.796
29.78
29.1668
29.2046
29.2847
29.3281
29.3587
29.3724
29.3757
29.3706
29.3587
29.3514
29.3547
29.3784
29.4262
29.5163
29.6215
29.7377
29.8319
29.9056
29.935
29.9315
29.9115
29.8856
29.8577
29.8271
29.796
29.7585
29.7329
29.7124
29.7788
29.7619
29.1019
29.138
29.2198
29.2696
29.3076
29.3294
29.3393
29.3422
29.3426
29.343
29.3462
29.3674
29.4097
29.4944
29.5973
29.7125
29.8057
29.8791
29.9078
29.9042
29.8861
29.8634
29.8399
29.8146
29.7877
29.7545
29.7314
29.7106
29.7651
29.7478
29.0374
29.07
29.1525
29.2079
29.2514
29.2813
29.2996
29.3096
29.3185
29.3289
29.3358
29.3552
29.3922
29.4707
29.5692
29.6818
29.7728
29.8449
29.8721
29.8685
29.8523
29.8333
29.8149
29.7957
29.7754
29.7475
29.7279
29.7085
29.7541
29.737
28.9758
29.0037
29.0844
29.1439
29.1932
29.2293
29.256
29.2744
29.2894
29.3088
29.3227
29.3412
29.3735
29.4448
29.5372
29.6457
29.7332
29.803
29.8279
29.8245
29.8103
29.7952
29.7824
29.7701
29.7574
29.7371
29.722
29.7055
29.745
29.7289
28.9183
28.9409
29.0182
29.0799
29.1338
29.1758
29.2096
29.2364
29.2583
29.2845
29.306
29.3255
29.3533
29.4164
29.5014
29.6043
29.687
29.7533
29.7754
29.7722
29.76
29.749
29.7422
29.7374
29.7332
29.7213
29.7132
29.7
29.737
29.7228
28.8636
28.882
28.9552
29.0176
29.0746
29.1219
29.1618
29.196
29.2251
29.2572
29.2855
29.3079
29.3313
29.3859
29.4622
29.5578
29.6344
29.6959
29.7148
29.7117
29.7014
29.6945
29.694
29.6974
29.7025
29.6999
29.7002
29.692
29.729
29.718
28.8118
28.8268
28.8959
28.9581
29.0167
29.0684
29.1135
29.1542
29.1899
29.2278
29.262
29.288
29.3071
29.3533
29.4195
29.5065
29.5758
29.6313
29.6465
29.6434
29.635
29.6318
29.6379
29.6497
29.6647
29.6722
29.6831
29.6815
29.7205
29.7138
28.7624
28.7747
28.8394
28.9012
28.9609
29.0159
29.0654
29.1116
29.1533
29.1965
29.236
29.2647
29.2806
29.3184
29.3736
29.4508
29.5115
29.5598
29.5712
29.568
29.561
29.5613
29.5742
29.5944
29.6193
29.638
29.6603
29.6681
29.711
29.7095
28.7141
28.7251
28.7854
28.8461
28.9062
28.9638
29.0174
29.0682
29.1153
29.1629
29.2069
29.2378
29.2514
29.2812
29.3246
29.391
29.4421
29.4823
29.4895
29.4858
29.48
29.4838
29.5028
29.5313
29.5664
29.5968
29.6311
29.6504
29.6984
29.7052
28.6658
28.6767
28.7333
28.7926
28.8523
28.9114
28.9684
29.0235
29.0757
29.1267
29.1743
29.2073
29.2192
29.2415
29.2729
29.3276
29.3681
29.3995
29.4023
29.398
29.3927
29.3994
29.424
29.4606
29.5058
29.5483
29.5951
29.6273
29.6822
29.6999
28.6178
28.6281
28.6815
28.7397
28.7988
28.8585
28.9177
28.9761
29.0335
29.0887
29.1385
29.1733
29.1839
29.1992
29.2186
29.2612
29.2903
29.3124
29.3109
29.305
29.2997
29.3089
29.3385
29.3825
29.4374
29.4917
29.5514
29.598
29.6616
29.6918
28.5686
28.5787
28.6285
28.6854
28.7442
28.8046
28.8652
28.9259
28.9872
29.0481
29.0998
29.1358
29.1451
29.154
29.1621
29.1925
29.2096
29.2223
29.2153
29.2072
29.2025
29.2131
29.2462
29.2969
29.3606
29.4266
29.4991
29.5609
29.6345
29.6792
28.5142
28.5251
28.5726
28.6286
28.6868
28.7475
28.8096
28.8725
28.9364
29.0032
29.0575
29.0942
29.1025
29.1061
29.1034
29.1222
29.1272
29.1297
29.1176
29.1076
29.1022
29.1124
29.1478
29.2038
29.2753
29.352
29.437
29.5146
29.5989
29.6598
28.4494
28.4621
28.5086
28.5656
28.6245
28.6858
28.749
28.8137
28.8829
28.9541
29.011
29.0482
29.056
29.0556
29.043
29.0502
29.0449
29.0378
29.021
29.0073
28.9993
29.008
29.044
29.1033
29.1811
29.2675
29.3642
29.4572
29.5531
29.6306
28.3656
28.3831
28.4308
28.4902
28.552
28.6163
28.681
28.7505
28.8258
28.9003
28.9596
28.9979
29.006
29.0027
28.9823
28.9793
28.9648
28.9491
28.9251
28.9063
28.8949
28.9011
28.9355
28.9957
29.0773
29.1714
29.2783
29.3857
29.494
29.5866
28.2552
28.2803
28.3326
28.3971
28.4632
28.5327
28.606
28.6839
28.7633
28.8409
28.9033
28.943
28.9527
28.9485
28.9233
28.9117
28.8879
28.8636
28.8324
28.808
28.7925
28.7944
28.8243
28.8819
28.9637
29.0625
29.1775
29.2978
29.4189
29.527
28.104
28.1385
28.1978
28.2732
28.3535
28.4372
28.5232
28.6096
28.6946
28.7764
28.8424
28.8845
28.8972
28.895
28.8687
28.8506
28.8195
28.788
28.7502
28.7186
28.6962
28.6911
28.7123
28.7628
28.8408
28.9407
29.0606
29.1902
29.3226
29.4459
27.9101
27.9622
28.0404
28.1354
28.234
28.3327
28.429
28.5249
28.6187
28.707
28.7775
28.8237
28.8426
28.8471
28.8252
28.8056
28.7701
28.7315
28.6851
28.6438
28.612
28.598
28.607
28.6452
28.7136
28.8091
28.9283
29.0627
29.2041
29.3431
27.6457
27.7258
27.8342
27.9573
28.0799
28.2
28.3159
28.4296
28.5367
28.6346
28.7124
28.7661
28.7953
28.8117
28.7998
28.7845
28.7473
28.7021
28.6451
28.591
28.5472
28.5212
28.515
28.5354
28.588
28.6697
28.7783
28.9071
29.0486
29.1967
27.385
27.5028
27.6432
27.7937
27.9408
28.0822
28.2163
28.344
28.461
28.5678
28.6546
28.7204
28.7652
28.7986
28.8011
28.7945
28.7596
28.7106
28.6432
28.5794
28.5197
28.4793
28.4584
28.4598
28.4929
28.5557
28.6484
28.7689
28.907
29.0611
26.8812
27.0803
27.2988
27.5199
27.7254
27.9123
28.0804
28.234
28.3721
28.4977
28.6024
28.6877
28.7518
28.8041
28.8216
28.8232
28.7897
28.7362
28.659
28.5763
28.498
28.4317
28.3823
28.3547
28.3569
28.3891
28.4506
28.5423
28.6548
28.7977
26.859
27.1094
27.3636
27.5985
27.8066
27.9875
28.1445
28.2856
28.4136
28.5339
28.6404
28.736
28.8136
28.882
28.9156
28.9305
28.9088
28.8654
28.7972
28.7215
28.6471
28.5829
28.5341
28.5054
28.5012
28.5282
28.5833
28.6725
28.7817
28.9389
25.4953
25.8746
26.2946
26.6891
27.0272
27.3101
27.5348
27.7271
27.8997
28.0613
28.205
28.3369
28.4465
28.5392
28.5834
28.5978
28.5679
28.5063
28.4088
28.2938
28.1721
28.0512
27.9363
27.8327
27.7478
27.6912
27.6596
27.6651
27.697
27.8008
29.2366
29.302
29.3539
29.3709
29.3789
29.3724
29.3559
29.3346
29.3135
29.2997
29.2928
29.3088
29.3418
29.4041
29.4728
29.555
29.6185
29.6681
29.6873
29.6945
29.6952
29.6959
29.6918
29.679
29.657
29.6098
29.6034
29.6307
29.7941
29.901
29.2333
29.2958
29.3702
29.3852
29.3901
29.3807
29.3622
29.3405
29.3198
29.307
29.3016
29.3196
29.3541
29.4174
29.4859
29.5676
29.6304
29.6804
29.7006
29.7089
29.71
29.7107
29.7075
29.6956
29.6754
29.6253
29.6083
29.6345
29.7887
29.7939
29.2079
29.271
29.3554
29.3827
29.3946
29.3857
29.3669
29.3445
29.3232
29.3106
29.306
29.3248
29.3597
29.4231
29.4906
29.571
29.6322
29.6817
29.7007
29.7074
29.7086
29.7096
29.7066
29.6947
29.6751
29.6302
29.6097
29.6272
29.7715
29.7874
29.1681
29.2347
29.3244
29.3636
29.3878
29.3863
29.3697
29.3479
29.3262
29.3134
29.3091
29.3274
29.3603
29.4235
29.4901
29.5689
29.6272
29.6759
29.6938
29.7001
29.702
29.7043
29.7033
29.6923
29.6736
29.6339
29.6121
29.6224
29.7503
29.7614
29.1202
29.1911
29.284
29.3298
29.3656
29.3752
29.3679
29.3495
29.3283
29.3152
29.3108
29.3268
29.358
29.4203
29.4834
29.5589
29.6132
29.6603
29.6767
29.6826
29.6854
29.6901
29.6927
29.6849
29.6685
29.6327
29.6131
29.6177
29.7292
29.7333
29.0691
29.1418
29.238
29.2881
29.331
29.3504
29.3549
29.3455
29.3289
29.3164
29.3113
29.3253
29.3543
29.4134
29.4714
29.5425
29.5917
29.6364
29.651
29.6566
29.6606
29.6688
29.6762
29.6727
29.6608
29.6297
29.6127
29.6122
29.7098
29.7079
29.0172
29.0922
29.1895
29.2435
29.2907
29.3163
29.33
29.3325
29.3243
29.3164
29.311
29.3232
29.3493
29.4034
29.4551
29.5205
29.564
29.6052
29.6177
29.623
29.6286
29.641
29.6541
29.6563
29.65
29.6246
29.6108
29.6061
29.6927
29.6857
28.9643
29.0425
29.1417
29.1987
29.2484
29.2782
29.298
29.3097
29.313
29.3125
29.3096
29.3204
29.3428
29.391
29.4349
29.4936
29.5307
29.5673
29.5775
29.5825
29.5899
29.607
29.6266
29.6358
29.6363
29.6178
29.6075
29.5994
29.6783
29.6676
28.9119
28.9885
29.0913
29.154
29.207
29.2398
29.2633
29.2809
29.2937
29.3031
29.3052
29.3161
29.3347
29.3764
29.4114
29.4624
29.4922
29.5233
29.5309
29.5357
29.545
29.5672
29.5937
29.6109
29.6194
29.6081
29.6029
29.593
29.6662
29.6532
28.8618
28.9302
29.0344
29.1034
29.1632
29.2017
29.2288
29.2496
29.2683
29.2869
29.2962
29.3094
29.3248
29.3599
29.3849
29.4273
29.4488
29.4738
29.4787
29.4832
29.4946
29.5218
29.5555
29.5813
29.5988
29.5953
29.5966
29.5876
29.6562
29.6415
28.8156
28.871
28.9738
29.0471
29.1118
29.1584
29.1932
29.218
29.2398
29.2651
29.2823
29.2995
29.3128
29.3412
29.3557
29.3885
29.4007
29.4192
29.421
29.4253
29.4389
29.4711
29.5119
29.5467
29.5738
29.579
29.5886
29.5822
29.6471
29.6322
28.7739
28.8151
28.9128
28.9887
29.0575
29.1094
29.152
29.1854
29.2096
29.2395
29.2635
29.2861
29.2984
29.3202
29.3239
29.3464
29.3486
29.3599
29.3584
29.3622
29.3779
29.4151
29.463
29.507
29.544
29.5593
29.5784
29.5761
29.6386
29.6252
28.7364
28.7638
28.8558
28.9301
29.0022
29.0597
29.1068
29.1487
29.1787
29.2114
29.2406
29.2689
29.2815
29.2972
29.2898
29.3011
29.2931
29.2968
29.2914
29.2944
29.3117
29.354
29.4089
29.4623
29.5095
29.5356
29.5651
29.5694
29.6309
29.6202
28.7031
28.7182
28.8038
28.8752
28.947
29.0097
29.0617
29.1084
29.1471
29.1813
29.2146
29.2483
29.2619
29.2721
29.2539
29.2536
29.2343
29.2306
29.2207
29.2228
29.2408
29.2882
29.3499
29.4124
29.47
29.5076
29.5482
29.5615
29.6236
29.6167
28.673
28.6776
28.7568
28.8247
28.895
28.9598
29.0169
29.0673
29.1129
29.1496
29.1862
29.2245
29.2396
29.2448
29.2154
29.204
29.1729
29.1619
29.147
29.148
29.1666
29.2183
29.2859
29.3571
29.4255
29.4753
29.5272
29.5519
29.6163
29.6143
28.645
28.6408
28.7149
28.7791
28.8471
28.9118
28.9725
29.0268
29.0768
29.1169
29.1552
29.1983
29.2148
29.2153
29.1743
29.1527
29.1094
29.0913
29.0715
29.0711
29.0898
29.1443
29.2172
29.2977
29.377
29.4386
29.5019
29.5393
29.607
29.6128
28.6179
28.6073
28.6772
28.7381
28.8035
28.8676
28.9297
28.9874
29.0406
29.0842
29.1229
29.1704
29.188
29.1838
29.1326
29.0993
29.045
29.0196
28.9954
28.9915
29.0102
29.0674
29.1462
29.2348
29.324
29.3975
29.4721
29.5224
29.5948
29.6111
28.587
28.5762
28.6426
28.7008
28.764
28.8274
28.8899
28.9497
29.005
29.0525
29.0922
29.1417
29.1597
29.151
29.0911
29.0452
28.9809
28.948
28.9174
28.9098
28.9302
28.9899
29.0727
29.1677
29.2662
29.3515
29.4369
29.5004
29.5794
29.6076
28.5487
28.5418
28.6076
28.6656
28.7276
28.7907
28.8537
28.9149
28.9715
29.0228
29.0642
29.1124
29.1305
29.1178
29.0501
28.9932
28.9181
28.8758
28.8398
28.8317
28.852
28.9114
28.9964
29.0969
29.2031
29.2997
29.3955
29.4727
29.5593
29.6013
28.5031
28.5011
28.5666
28.6277
28.6918
28.7568
28.8213
28.8842
28.942
28.9964
29.0369
29.0832
29.1013
29.0851
29.0109
28.9435
28.8586
28.806
28.7691
28.7591
28.7747
28.833
28.9191
29.0235
29.1362
29.2433
29.3486
29.4388
29.5336
29.5906
28.4483
28.4529
28.5186
28.5837
28.6522
28.7223
28.7919
28.8574
28.9161
28.9716
29.0111
29.0566
29.0734
29.0544
28.9751
28.8983
28.8058
28.7454
28.7031
28.6885
28.6999
28.7563
28.8423
28.949
29.067
29.1822
29.2965
29.3985
29.5018
29.5747
28.3809
28.3934
28.4634
28.5329
28.6073
28.6851
28.7625
28.8336
28.8952
28.9489
28.9897
29.0346
29.0494
29.0279
28.9451
28.8627
28.7594
28.6918
28.6411
28.6226
28.6303
28.6832
28.7684
28.8759
28.9963
29.1176
29.2397
29.353
29.4654
29.5543
28.2926
28.3186
28.3963
28.4745
28.5573
28.6456
28.733
28.8119
28.8782
28.9335
28.9751
29.0201
29.0327
29.009
28.9241
28.8372
28.7232
28.6489
28.5893
28.5668
28.5715
28.6212
28.7048
28.8098
28.9295
29.0528
29.1798
29.3017
29.4235
29.5283
28.1771
28.2241
28.3126
28.4027
28.4978
28.5971
28.6953
28.7858
28.8626
28.9246
28.9688
29.0171
29.0275
29.0032
28.9178
28.8271
28.7072
28.6252
28.5561
28.5285
28.5285
28.5725
28.6487
28.7483
28.8646
28.9871
29.1162
29.2434
29.37
29.4887
28.0324
28.1066
28.2104
28.3193
28.4329
28.548
28.6576
28.7571
28.8465
28.9191
28.9736
29.0287
29.0364
29.0131
28.9289
28.8369
28.713
28.6202
28.5435
28.5056
28.4966
28.531
28.5965
28.6883
28.7995
28.9193
29.0478
29.1773
29.3067
29.4354
27.8584
27.9719
28.0986
28.2286
28.3625
28.4971
28.623
28.7335
28.834
28.9189
28.993
29.0537
29.062
29.0407
28.9583
28.8652
28.7374
28.6368
28.5489
28.4998
28.4813
28.5063
28.5605
28.6407
28.7419
28.8548
28.9795
29.1075
29.2352
29.3738
27.6868
27.8459
27.9944
28.1453
28.3012
28.4562
28.5958
28.7177
28.8309
28.9392
29.0268
29.0925
29.1064
29.0897
29.0115
28.9192
28.7899
28.6844
28.5874
28.5293
28.5046
28.5215
28.5662
28.6339
28.7155
28.8148
28.9305
29.0508
29.1717
29.3167
27.5026
27.7037
27.8826
28.0692
28.2574
28.4351
28.5927
28.7422
28.8767
29.002
29.0992
29.172
29.1972
29.1857
29.1142
29.0267
28.8969
28.7846
28.677
28.6097
28.5753
28.5814
28.6122
28.6637
28.729
28.8111
28.9016
29.0045
29.1081
29.2466
27.5586
27.8001
28.0084
28.2236
28.4373
28.6336
28.8042
28.9618
29.1021
29.2329
29.3336
29.4156
29.4504
29.4447
29.3814
29.2968
29.1663
29.0499
28.9373
28.8613
28.8155
28.8083
28.825
28.8607
28.9115
28.9779
29.0518
29.1382
29.2261
29.3577
28.3159
28.5226
28.6956
28.8868
29.0811
29.261
29.4137
29.5469
29.6598
29.7647
29.8481
29.9201
29.9462
29.9407
29.8816
29.8022
29.6811
29.5754
29.4738
29.4089
29.3736
29.3781
29.4074
29.4587
29.528
29.6116
29.7003
29.801
29.8987
30.0387
28.9491
29.0039
29.0545
29.0811
29.1136
29.1378
29.1559
29.1687
29.1761
29.1878
29.1982
29.2276
29.2577
29.3156
29.3656
29.4341
29.4698
29.4966
29.503
29.5156
29.5336
29.56
29.5863
29.5998
29.5919
29.5189
29.479
29.5211
29.6332
29.7816
28.9449
29.0025
29.0567
29.0952
29.1314
29.156
29.174
29.1858
29.1926
29.2038
29.2143
29.2442
29.2747
29.3334
29.3835
29.4528
29.4891
29.5178
29.5249
29.5373
29.5538
29.5784
29.6035
29.616
29.6118
29.5386
29.4884
29.5203
29.6117
29.6841
28.9388
28.9993
29.0541
29.0983
29.1387
29.166
29.1848
29.1967
29.2039
29.2153
29.226
29.2561
29.2859
29.3448
29.3935
29.4623
29.4963
29.5244
29.5291
29.5396
29.5558
29.5812
29.6071
29.6205
29.619
29.5539
29.4983
29.5128
29.612
29.662
28.9231
28.9877
29.0443
29.0944
29.1385
29.1714
29.1927
29.2054
29.2133
29.2252
29.236
29.2657
29.2939
29.3527
29.3994
29.4678
29.4989
29.5266
29.529
29.537
29.5514
29.5798
29.6082
29.6221
29.6208
29.5675
29.5131
29.5122
29.6047
29.6378
28.9061
28.9694
29.0287
29.0838
29.1326
29.1692
29.1939
29.2098
29.2189
29.2314
29.2422
29.271
29.2957
29.354
29.3981
29.4652
29.4923
29.5188
29.5183
29.5242
29.5372
29.5672
29.5996
29.6176
29.6182
29.5753
29.5268
29.5142
29.598
29.6265
28.8893
28.9487
29.0112
29.0685
29.1211
29.1613
29.1895
29.2085
29.2211
29.2349
29.2455
29.2719
29.294
29.3514
29.3911
29.456
29.478
29.5021
29.4983
29.5026
29.5147
29.547
29.5842
29.6075
29.6129
29.5777
29.5379
29.5179
29.5916
29.6128
28.8644
28.9239
28.99
29.0492
29.1048
29.1487
29.1809
29.2035
29.2189
29.2345
29.245
29.2705
29.29
29.345
29.3791
29.4412
29.4569
29.4775
29.4696
29.4729
29.4846
29.5198
29.5624
29.5919
29.6039
29.576
29.5461
29.5222
29.5866
29.5971
28.8303
28.8936
28.9648
29.0262
29.0841
29.1306
29.167
29.194
29.2133
29.2317
29.2427
29.2677
29.2833
29.3353
29.3629
29.4215
29.4297
29.4459
29.4343
29.4359
29.4475
29.4861
29.5344
29.5712
29.5912
29.5718
29.5501
29.526
29.5829
29.5821
28.7903
28.8577
28.9357
29.0014
29.0623
29.1101
29.1486
29.1799
29.2038
29.2256
29.2383
29.2628
29.2742
29.3228
29.3429
29.3972
29.3972
29.4078
29.3934
29.3923
29.4038
29.4461
29.5006
29.5455
29.5746
29.5654
29.5498
29.5285
29.5789
29.5704
28.7513
28.8193
28.9037
28.9733
29.039
29.0895
29.1294
29.1626
29.1904
29.2161
29.2312
29.2555
29.263
29.3079
29.3196
29.3687
29.3599
29.3639
29.3459
29.3426
29.3539
29.4003
29.4611
29.5149
29.554
29.5556
29.5477
29.5295
29.5766
29.5628
28.7159
28.7802
28.8701
28.9427
29.0122
29.066
29.1097
29.1448
29.1749
29.2037
29.2214
29.2463
29.2497
29.2907
29.2933
29.3366
29.3181
29.3151
29.2922
29.2872
29.2984
29.3489
29.4161
29.4789
29.5284
29.5421
29.544
29.5296
29.5762
29.5579
28.6846
28.7409
28.8344
28.9101
28.983
29.0402
29.0871
29.1265
29.1587
29.1895
29.2092
29.2351
29.2345
29.2717
29.2642
29.3011
29.2719
29.2621
29.2335
29.2267
29.2376
29.2922
29.366
29.4379
29.4978
29.5237
29.5379
29.528
29.5764
29.5558
28.6588
28.7043
28.7991
28.8744
28.9502
29.0122
29.0621
29.1055
29.1409
29.174
29.1949
29.2222
29.2175
29.2509
29.2328
29.2629
29.2221
29.2056
29.1705
29.1617
29.1721
29.2306
29.3109
29.3922
29.4626
29.5011
29.5285
29.5242
29.5764
29.556
28.6366
28.6708
28.7654
28.8392
28.9154
28.9805
29.0348
29.082
29.1207
29.1571
29.1788
29.2076
29.1988
29.2284
29.1996
29.2226
29.1693
29.145
29.1038
29.0928
29.1024
29.1647
29.2513
29.3417
29.4229
29.4741
29.5149
29.5189
29.5755
29.5572
28.6175
28.6401
28.7327
28.8058
28.8812
28.9476
29.0055
29.0565
29.0987
29.1386
29.1612
29.1914
29.1788
29.2048
29.1649
29.1805
29.1142
29.0818
29.0344
29.0209
29.0293
29.095
29.1875
29.2869
29.3788
29.4426
29.4965
29.5118
29.573
29.5596
28.6009
28.6123
28.7015
28.7732
28.8481
28.9153
28.9764
29.0299
29.0756
29.1187
29.1425
29.1739
29.1577
29.1803
29.1293
29.1374
29.0572
29.018
28.9631
28.9469
28.9539
29.0221
29.1204
29.2282
29.3304
29.4066
29.4734
29.502
29.5687
29.563
28.5839
28.5866
28.6715
28.7416
28.8161
28.8837
28.9479
29.0043
29.052
29.0984
29.1233
29.1557
29.136
29.1555
29.0935
29.0939
28.9996
28.9532
28.8909
28.8715
28.8772
28.9473
29.0498
29.1653
29.2779
29.3674
29.446
29.489
29.5623
29.5669
28.563
28.5605
28.642
28.7112
28.7857
28.8544
28.9204
28.9807
29.0293
29.079
29.1045
29.1374
29.1146
29.1309
29.0584
29.0512
28.9432
28.8887
28.8185
28.7965
28.8005
28.8704
28.9756
29.0992
29.2227
29.3255
29.4154
29.4726
29.5534
29.5703
28.5375
28.5321
28.6116
28.6815
28.757
28.8283
28.8961
28.9593
29.0094
29.0616
29.0871
29.1198
29.0943
29.1076
29.0248
29.0106
28.8893
28.8258
28.7484
28.7236
28.7242
28.7909
28.8999
29.0307
29.1635
29.2777
29.3792
29.4527
29.5413
29.5721
28.5052
28.5023
28.5804
28.652
28.7293
28.8038
28.8749
28.9414
28.9932
29.0469
29.0724
29.1046
29.0768
29.0868
28.9944
28.9738
28.84
28.7681
28.6811
28.6517
28.646
28.7114
28.8246
28.96
29.0991
29.224
29.3374
29.4279
29.525
29.5718
28.4639
28.4677
28.5471
28.6219
28.7034
28.7822
28.8568
28.927
28.9815
29.0364
29.0623
29.0939
29.0637
29.0706
28.9693
28.9438
28.7977
28.7164
28.6174
28.5801
28.5693
28.6376
28.7525
28.8905
29.0345
29.1692
29.2944
29.3989
29.5025
29.5653
28.4118
28.4256
28.5104
28.5903
28.6775
28.7635
28.843
28.9168
28.9746
29.0316
29.0589
29.0905
29.058
29.0615
28.9526
28.9232
28.7651
28.6728
28.5615
28.5142
28.5038
28.5713
28.6842
28.8228
28.9709
29.1126
29.2474
29.3641
29.474
29.5518
28.3465
28.3742
28.4663
28.5544
28.6486
28.7423
28.8308
28.911
28.9733
29.0374
29.0669
29.0975
29.063
29.0636
28.9482
28.9156
28.7475
28.6453
28.5211
28.4616
28.4474
28.51
28.6185
28.7562
28.9066
29.0539
29.1947
29.3223
29.4401
29.531
28.2623
28.3129
28.4157
28.5151
28.6191
28.7213
28.8192
28.908
28.9845
29.0568
29.0886
29.1175
29.0808
29.078
28.9586
28.924
28.7438
28.6339
28.4952
28.4246
28.4025
28.4601
28.5628
28.697
28.8465
28.9962
29.1407
29.2738
29.3975
29.5029
28.1601
28.2447
28.3619
28.4761
28.5909
28.7042
28.8123
28.9126
29.0078
29.0885
29.1241
29.1515
29.1139
29.1076
28.9857
28.9505
28.7614
28.6377
28.4866
28.4087
28.3785
28.428
28.5223
28.6501
28.7954
28.9441
29.0898
29.2275
29.3545
29.4765
28.0442
28.1733
28.3082
28.4389
28.5664
28.6906
28.8097
28.9296
29.0406
29.1306
29.1726
29.201
29.1641
29.1566
29.0339
29
28.8041
28.6726
28.5085
28.4146
28.3746
28.4167
28.5042
28.6252
28.7636
28.9081
29.0516
29.1892
29.3156
29.4462
27.9417
28.1164
28.2679
28.4127
28.5527
28.6877
28.8253
28.9643
29.0869
29.1871
29.2374
29.2698
29.2355
29.2307
29.11
29.0817
28.8854
28.7511
28.5761
28.4681
28.4131
28.4422
28.518
28.633
28.7669
28.9085
29.0469
29.1801
29.3012
29.4357
27.8714
28.0785
28.2428
28.4013
28.5564
28.7151
28.8695
29.0184
29.15
29.2606
29.3215
29.363
29.3343
29.3352
29.2173
29.1989
29.0021
28.8647
28.6794
28.5571
28.487
28.5042
28.5649
28.6644
28.7894
28.9252
29.0602
29.1917
29.3095
29.4455
27.8855
28.1217
28.3008
28.4734
28.6368
28.8003
28.9575
29.1072
29.2407
29.3566
29.4279
29.4794
29.4571
29.4684
29.356
29.3521
29.1585
29.0234
28.8334
28.7009
28.6168
28.6208
28.6695
28.7548
28.8669
28.9948
29.1246
29.254
29.3699
29.5097
28.0118
28.2305
28.41
28.5863
28.752
28.9137
29.0666
29.2116
29.3415
29.4575
29.5348
29.598
29.5897
29.6196
29.5209
29.5452
29.366
29.2451
29.0602
28.9266
28.8326
28.8215
28.8562
28.9285
29.0272
29.1467
29.2733
29.4051
29.5274
29.669
29.0033
28.8695
28.8669
28.8559
28.873
28.9015
28.9337
28.9691
29.0013
29.0405
29.0702
29.1167
29.1454
29.1992
29.2168
29.2541
29.2362
29.2265
29.2131
29.2346
29.286
29.3668
29.4547
29.5253
29.5717
29.5342
29.4834
29.49
29.6036
29.7979
28.9514
28.8327
28.8518
28.8574
28.8876
28.9211
28.9557
28.9916
29.0238
29.062
29.0908
29.1367
29.1644
29.2182
29.2356
29.2738
29.2562
29.2486
29.2351
29.2537
29.3004
29.3797
29.4664
29.5348
29.5814
29.5453
29.4947
29.4893
29.5762
29.7161
28.8958
28.8071
28.8369
28.8532
28.8905
28.9307
28.9695
29.0069
29.04
29.0784
29.1068
29.1522
29.1783
29.2316
29.2455
29.2814
29.2594
29.2505
29.2335
29.2504
29.3008
29.3826
29.4705
29.5386
29.5852
29.5515
29.4997
29.4892
29.5689
29.6759
28.8324
28.7787
28.8152
28.8437
28.8879
28.9335
28.9786
29.0193
29.0538
29.0926
29.1208
29.1656
29.1896
29.2424
29.252
29.2854
29.2572
29.2458
29.2246
29.2368
29.285
29.3745
29.4685
29.5388
29.5851
29.5571
29.5059
29.4883
29.5521
29.6353
28.7732
28.7535
28.7946
28.8325
28.8826
28.9315
28.9794
29.025
29.0629
29.1024
29.1304
29.1747
29.196
29.2478
29.2517
29.2815
29.2446
29.2287
29.2031
29.2111
29.2577
29.3499
29.4522
29.5292
29.5793
29.5587
29.5132
29.4864
29.5407
29.6065
28.7221
28.728
28.7731
28.8194
28.8753
28.9279
28.9782
29.026
29.0666
29.109
29.1368
29.1806
29.1984
29.2488
29.2461
29.2706
29.2225
29.2008
29.1707
29.175
29.2211
29.3166
29.4249
29.5115
29.5688
29.5564
29.5188
29.4845
29.5303
29.5806
28.6903
28.709
28.7527
28.8045
28.8653
28.9215
28.9749
29.0249
29.0668
29.1114
29.1388
29.1831
29.1974
29.2465
29.2355
29.2527
29.1914
29.163
29.1282
29.1293
29.1758
29.2763
29.3912
29.4868
29.5535
29.5515
29.5205
29.4839
29.5229
29.5559
28.6707
28.696
28.7379
28.7923
28.8552
28.914
28.9691
29.0216
29.0653
29.1112
29.1382
29.1828
29.1947
29.2414
29.2203
29.2287
29.153
29.1172
29.0759
29.0748
29.1224
29.2289
29.3514
29.4566
29.5332
29.5441
29.519
29.484
29.5191
29.5318
28.6518
28.6825
28.7249
28.7814
28.8456
28.9064
28.963
29.0167
29.0619
29.1098
29.1365
29.1815
29.1901
29.234
29.2013
29.1999
29.1079
29.0641
29.0145
29.0121
29.0615
29.1748
29.3056
29.421
29.5078
29.5325
29.5157
29.4842
29.5161
29.5113
28.6325
28.6675
28.7125
28.7713
28.8371
28.8988
28.9565
29.0112
29.0573
29.1071
29.1338
29.1793
29.1841
29.2248
29.1791
29.1666
29.0562
29.0033
28.9456
28.9419
28.9936
29.1143
29.2541
29.38
29.4777
29.5169
29.5108
29.4841
29.5131
29.4985
28.6143
28.6506
28.7004
28.7611
28.8284
28.8913
28.9498
29.0053
29.0521
29.1035
29.1302
29.1763
29.1771
29.2141
29.1543
29.1292
28.9982
28.9348
28.87
28.8645
28.9192
29.0479
29.1972
29.3337
29.4427
29.4963
29.5045
29.4832
29.513
29.4894
28.5972
28.6322
28.6874
28.7506
28.8188
28.8828
28.9425
28.9991
29.0469
29.099
29.1258
29.1731
29.1692
29.2023
29.1271
29.0882
28.9345
28.86
28.7873
28.7807
28.8388
28.976
29.135
29.2822
29.4024
29.4702
29.4946
29.4806
29.5133
29.483
28.5804
28.6122
28.6739
28.7389
28.8088
28.8735
28.9342
28.9924
29.0409
29.0938
29.1211
29.1697
29.161
29.1899
29.0981
29.0441
28.8657
28.7774
28.6983
28.6911
28.7531
28.8991
29.0679
29.2258
29.3571
29.4391
29.4808
29.4759
29.5133
29.4814
28.5647
28.5916
28.6605
28.7254
28.7981
28.8636
28.9253
28.9849
29.034
29.0883
29.1162
29.1663
29.1528
29.1771
29.0677
28.997
28.7924
28.6891
28.6042
28.5969
28.6631
28.8179
28.9964
29.1648
29.307
29.4031
29.4623
29.47
29.513
29.4831
28.5508
28.572
28.6463
28.712
28.7857
28.8532
28.916
28.9767
29.0266
29.0828
29.1115
29.1635
29.1449
29.1643
29.0363
28.9476
28.7149
28.6002
28.5063
28.4989
28.5694
28.7327
28.921
29.0999
29.2528
29.3627
29.4393
29.4634
29.5121
29.4869
28.5402
28.5535
28.6308
28.6998
28.7736
28.8425
28.9064
28.9682
29.0192
29.0776
29.1071
29.1616
29.1379
29.152
29.0045
28.8962
28.6343
28.5079
28.4053
28.3983
28.4732
28.644
28.8428
29.0325
29.1963
29.3193
29.4117
29.4547
29.5097
29.4925
28.5311
28.536
28.6161
28.6869
28.7627
28.8323
28.8972
28.9599
29.0122
29.0732
29.1038
29.1608
29.1323
29.1406
28.9727
28.8438
28.5529
28.412
28.3029
28.2963
28.3753
28.5532
28.763
28.9641
29.1386
29.2754
29.3831
29.4424
29.5048
29.499
28.5196
28.5192
28.6019
28.6743
28.7524
28.8238
28.8887
28.9526
29.0064
29.0704
29.102
29.1629
29.1288
29.1307
28.9419
28.791
28.4712
28.3169
28.2006
28.1946
28.2774
28.4652
28.6814
28.8954
29.0837
29.2335
29.3534
29.4268
29.4969
29.5054
28.5044
28.5033
28.5881
28.6632
28.7436
28.8176
28.8827
28.9476
29.0032
29.07
29.1031
29.168
29.1289
29.1227
28.9129
28.7395
28.3914
28.2255
28.101
28.0956
28.1882
28.3818
28.6011
28.8257
29.0283
29.1922
29.3226
29.4084
29.4866
29.5113
28.4848
28.4875
28.5746
28.6534
28.7372
28.8141
28.88
28.9451
29.003
29.0765
29.1117
29.177
29.1319
29.1198
28.887
28.6917
28.3179
28.1416
28.008
28.0092
28.1104
28.2972
28.5211
28.754
28.9687
29.1455
29.2884
29.387
29.4745
29.5163
28.4591
28.4706
28.5609
28.6443
28.7322
28.813
28.8806
28.9487
29.0126
29.0912
29.1261
29.1906
29.1396
29.1219
28.8661
28.6509
28.2552
28.0723
27.9332
27.9368
28.0277
28.2095
28.4391
28.679
28.9044
29.0943
29.2497
29.3634
29.4622
29.5206
28.4254
28.4505
28.5459
28.6355
28.7283
28.8146
28.89
28.9662
29.0337
29.1137
29.1476
29.2096
29.153
29.1286
28.8525
28.6225
28.2123
28.0282
27.8762
27.8673
27.9419
28.1252
28.3583
28.6049
28.8419
29.0445
29.2118
29.3407
29.45
29.5242
28.381
28.4255
28.5279
28.6253
28.7251
28.8205
28.9063
28.9922
29.0643
29.1457
29.1779
29.2358
29.1728
29.1427
28.8509
28.6137
28.1941
28.0023
27.8271
27.8028
27.8737
28.0518
28.2835
28.5383
28.7849
28.9993
29.1775
29.3188
29.4388
29.5285
28.3258
28.3961
28.5074
28.6139
28.7221
28.8284
28.9269
29.0251
29.1046
29.1879
29.2196
29.273
29.203
29.1678
28.8615
28.6274
28.1893
27.99
27.7992
27.7632
27.8265
27.9935
28.2179
28.4789
28.7347
28.9596
29.1481
29.3009
29.4299
29.5358
28.259
28.3632
28.4847
28.6018
28.719
28.8378
28.9527
29.0639
29.1534
29.2406
29.2739
29.3231
29.2483
29.2088
28.8901
28.6642
28.2157
28.0113
27.7976
27.7565
27.8082
27.9644
28.1788
28.4336
28.6923
28.9266
29.1242
29.2875
29.424
29.5434
28.1853
28.3283
28.4616
28.5904
28.7169
28.8493
28.9833
29.1087
29.2102
29.3036
29.3409
29.3879
29.3106
29.2688
28.9407
28.7304
28.2681
28.058
27.8266
27.772
27.8155
27.9672
28.1769
28.4228
28.6713
28.9044
29.1089
29.2817
29.424
29.552
28.1194
28.2974
28.4428
28.5838
28.7227
28.8705
29.0217
29.1605
29.2757
29.3779
29.4207
29.468
29.3897
29.35
29.0151
28.8224
28.345
28.1333
27.8852
27.815
27.8447
27.9861
28.188
28.4281
28.6735
28.9059
29.1104
29.2856
29.4303
29.5691
28.0706
28.2752
28.4328
28.5887
28.7472
28.9112
29.0712
29.2224
29.3489
29.4604
29.511
29.5615
29.4834
29.4486
29.1092
28.9483
28.4668
28.2617
28.0002
27.9156
27.9273
28.0415
28.2224
28.4522
28.6902
28.9179
29.1202
29.2969
29.4443
29.5928
28.0643
28.2784
28.4519
28.6252
28.7931
28.9628
29.1278
29.2849
29.4193
29.5396
29.6005
29.6588
29.5831
29.5577
29.2194
29.1036
28.6213
28.4278
28.1579
28.0627
28.0567
28.147
28.3003
28.5064
28.7318
28.9531
29.1545
29.3358
29.4919
29.6526
28.1149
28.3222
28.4999
28.6771
28.8472
29.0173
29.1819
29.3397
29.4773
29.602
29.6688
29.7345
29.6635
29.6561
29.3302
29.2753
28.8051
28.6314
28.3608
28.2607
28.2347
28.3036
28.4277
28.6062
28.8089
29.0155
29.2098
29.3919
29.5547
29.722
29.1811
28.8363
28.7776
28.6985
28.6745
28.6911
28.7251
28.7726
28.8219
28.8847
28.9373
29.0181
29.0704
29.1667
29.1983
29.2625
29.2124
29.1678
29.1139
29.1234
29.1709
29.271
29.3964
29.5188
29.6469
29.6454
29.6052
29.6157
29.6898
29.8481
29.0894
28.7477
28.7321
28.6781
28.677
28.7056
28.7453
28.7957
28.846
28.9089
28.9611
29.0418
29.0929
29.1901
29.2211
29.2875
29.2385
29.1961
29.139
29.1417
29.1822
29.2815
29.4073
29.5276
29.6545
29.6598
29.6151
29.6084
29.6614
29.7867
28.9909
28.697
28.6951
28.6611
28.675
28.7129
28.7597
28.813
28.8649
28.9286
28.9806
29.0618
29.111
29.2097
29.2371
29.3049
29.2513
29.2072
29.1459
29.1443
29.1856
29.2865
29.413
29.5317
29.6574
29.6585
29.6116
29.5999
29.6524
29.7474
28.8771
28.6361
28.6487
28.6385
28.6683
28.7127
28.7679
28.8269
28.881
28.9456
28.9974
29.0797
29.1265
29.2283
29.2516
29.3221
29.2614
29.2129
29.143
29.1347
29.1709
29.2804
29.4115
29.5295
29.6483
29.6575
29.6067