/*--------------------------------*- C++ -*----------------------------------*\
  =========                 |
  \\      /  F ield         | OpenFOAM: The Open Source CFD Toolbox
   \\    /   O peration     | Website:  https://openfoam.org
    \\  /    A nd           | Version:  12
     \\/     M anipulation  |
\*---------------------------------------------------------------------------*/
FoamFile
{
    format      ascii;
    class       volScalarField;
    location    "50/air";
    object      alphat;
}
// * * * * * * * * * * * * * * * * * * * * * * * * * * * * * * * * * * * * * //

dimensions      [1 -1 -1 0 0 0 0];

internalField   nonuniform List<scalar> 
243000
(
0.0001943
0.000174359
0.000143454
0.00011291
8.86986e-05
0.000102972
0.000114925
0.000124175
0.000132354
0.000137996
0.000141758
0.000144154
0.000145498
0.000146374
0.000146954
0.000147427
0.000146839
0.00014692
0.000147038
0.000146894
0.000146057
0.000144445
0.000141725
0.000137308
0.000130509
0.000122436
0.0001109
9.59931e-05
0.000130367
0.000170275
0.000729536
0.000664827
0.000546458
0.000406713
0.00034294
0.000396419
0.000440316
0.000473625
0.000498568
0.00051649
0.000529151
0.00053818
0.000544518
0.000549788
0.000554185
0.000557099
0.000555304
0.000553554
0.000551074
0.000547967
0.000543375
0.000537083
0.000527907
0.000514184
0.000493735
0.000464489
0.000422108
0.000377118
0.000481121
0.000649426
0.000927221
0.000882438
0.000753341
0.00058741
0.000551013
0.000642056
0.000722554
0.000791481
0.000847468
0.000893157
0.000929628
0.000958259
0.000979778
0.000996203
0.00100746
0.00101195
0.00100582
0.000995179
0.000979509
0.000959606
0.00093484
0.000905382
0.000870191
0.000827687
0.000776078
0.000712397
0.000634853
0.000564179
0.000645801
0.000826979
0.000963482
0.000921004
0.000793634
0.000640194
0.000617194
0.000695806
0.000766981
0.000832062
0.000886437
0.000931799
0.000968597
0.000997851
0.00101999
0.00103695
0.00104858
0.0010531
0.00104753
0.00103664
0.00102028
0.00099959
0.000974136
0.000944333
0.000909261
0.000867448
0.000817613
0.000757976
0.000689487
0.000636157
0.00070742
0.000867181
0.000989302
0.00095136
0.000837562
0.000699249
0.000677113
0.000738511
0.000799083
0.000860732
0.000913375
0.000958655
0.000996098
0.00102632
0.00104932
0.001067
0.00107907
0.00108374
0.0010787
0.00106759
0.0010505
0.0010289
0.00100249
0.000972178
0.00093719
0.000896342
0.000849104
0.000794849
0.000737459
0.000704785
0.000781047
0.000904983
0.00101194
0.000979003
0.000881462
0.000760772
0.00073442
0.000778386
0.000831544
0.000887302
0.000937481
0.000982314
0.00102018
0.00105122
0.00107493
0.0010932
0.00110559
0.00111041
0.00110588
0.00109479
0.00107721
0.00105492
0.00102772
0.000997082
0.000962471
0.000923209
0.000879662
0.000833787
0.000786558
0.000771887
0.000844841
0.000940032
0.00103331
0.00100517
0.000923365
0.000826229
0.000791143
0.000819736
0.000866131
0.00091561
0.000962566
0.00100636
0.00104422
0.00107574
0.0010999
0.00111859
0.00113117
0.00113612
0.00113207
0.00112125
0.00110347
0.00108083
0.00105313
0.00102245
0.000988546
0.000951436
0.000912329
0.000874819
0.000842467
0.000842887
0.000900164
0.000972322
0.00105442
0.0010305
0.000961847
0.000888666
0.000849158
0.00086862
0.000903316
0.000946609
0.000990076
0.00103237
0.00106983
0.00110151
0.00112591
0.00114491
0.00115759
0.00116268
0.00115905
0.00114874
0.00113102
0.00110835
0.00108044
0.00104987
0.00101683
0.000982066
0.000947376
0.000917146
0.000897939
0.000905271
0.000947138
0.00100242
0.00107615
0.00105596
0.000997994
0.000939878
0.000908565
0.000915751
0.000942395
0.000980369
0.00102059
0.00106117
0.00109797
0.00112958
0.0011541
0.00117341
0.00118615
0.00119145
0.00118819
0.0011786
0.00116118
0.00113875
0.00111081
0.00108037
0.0010481
0.00101544
0.000984482
0.000959696
0.000947353
0.000955928
0.000988364
0.00103148
0.00109946
0.0010826
0.00103317
0.00098531
0.00095921
0.000961483
0.000983075
0.00101697
0.0010545
0.00109342
0.00112935
0.00116076
0.00118534
0.00120505
0.00121788
0.00122357
0.00122068
0.00121187
0.00119505
0.00117311
0.00114528
0.00111488
0.00108307
0.00105189
0.00102355
0.00100226
0.000993242
0.00100117
0.00102684
0.00106104
0.00112536
0.00111132
0.00106888
0.00102855
0.00100638
0.00100686
0.00102561
0.00105676
0.00109235
0.00112985
0.00116473
0.00119586
0.0012205
0.00124071
0.0012538
0.00126009
0.00125761
0.00124965
0.00123365
0.00121246
0.00118496
0.00115452
0.00112264
0.00109201
0.00106501
0.00104547
0.00103762
0.00104422
0.00106476
0.00109216
0.00115499
0.00114325
0.00110655
0.00107191
0.00105297
0.00105325
0.00107084
0.0011006
0.00113514
0.00117163
0.00120533
0.00123637
0.00126095
0.00128157
0.00129425
0.00130068
0.00129865
0.00129144
0.00127666
0.00125756
0.00123135
0.00120105
0.00116825
0.00113704
0.00110997
0.00109056
0.00108244
0.00108739
0.00110396
0.00112615
0.00118975
0.00117981
0.00114773
0.00111736
0.00110123
0.00110242
0.00112049
0.00115031
0.00118535
0.0012211
0.00125281
0.00128142
0.00130467
0.00132467
0.00133688
0.00134347
0.00134194
0.00133556
0.00132207
0.00130517
0.00128179
0.00125408
0.00122244
0.00118943
0.00116052
0.00113948
0.00112982
0.00113287
0.00114633
0.00116458
0.00123165
0.00122287
0.00119445
0.00116734
0.00115402
0.00115717
0.00117856
0.00120979
0.00124272
0.0012748
0.00130286
0.00132867
0.0013502
0.00136932
0.00138099
0.00138779
0.00138681
0.00138138
0.00136927
0.00135451
0.00133448
0.00131006
0.00128119
0.00125051
0.00122074
0.00119566
0.00118274
0.00118342
0.00119435
0.0012096
0.00128407
0.00127573
0.00125054
0.00122658
0.00121687
0.00122311
0.00124335
0.00127159
0.00130113
0.0013294
0.00135411
0.001377
0.00139661
0.00141468
0.00142584
0.00143286
0.00143252
0.00142814
0.00141746
0.00140487
0.00138812
0.00136723
0.00134137
0.00131317
0.00128521
0.00126134
0.00124637
0.001244
0.00125246
0.00126494
0.00134638
0.0013371
0.00131352
0.00129151
0.00128301
0.00128927
0.00130775
0.00133253
0.00135797
0.00138269
0.00140449
0.00142469
0.0014425
0.00145954
0.00147032
0.00147762
0.00147798
0.0014747
0.00146544
0.00145491
0.00144101
0.00142336
0.0014002
0.00137463
0.0013491
0.00132694
0.00131256
0.00131024
0.00131868
0.00133094
0.00140771
0.00139688
0.00137446
0.00135402
0.00134636
0.00135222
0.0013686
0.00138979
0.00141137
0.00143277
0.0014518
0.00146967
0.001486
0.00150229
0.00151296
0.00152069
0.00152178
0.00151951
0.00151147
0.0015027
0.0014911
0.001476
0.00145513
0.00143223
0.00140955
0.00138959
0.00137635
0.00137448
0.00138303
0.00139531
0.00146383
0.00145166
0.00142993
0.00141106
0.00140402
0.00140896
0.00142283
0.00144062
0.00145907
0.00147753
0.00149408
0.00151005
0.00152528
0.00154131
0.00155225
0.00156067
0.00156248
0.00156097
0.00155371
0.00154618
0.00153624
0.00152296
0.00150423
0.00148372
0.00146367
0.001446
0.00143419
0.00143309
0.00144198
0.00145435
0.00151138
0.00149829
0.0014773
0.00145995
0.00145326
0.00145672
0.00146762
0.00148224
0.00149822
0.00151441
0.00152937
0.00154422
0.00155902
0.00157543
0.00158709
0.00159643
0.00159894
0.00159778
0.00159066
0.00158366
0.00157454
0.00156215
0.0015453
0.00152652
0.00150851
0.00149306
0.0014832
0.00148313
0.00149253
0.00150501
0.00154762
0.00153374
0.00151366
0.00149769
0.00149086
0.00149228
0.00150024
0.00151203
0.0015259
0.00154097
0.00155579
0.00157098
0.00158656
0.00160433
0.00161726
0.00162777
0.00163087
0.00162949
0.00162155
0.00161402
0.00160439
0.00159173
0.00157563
0.00155781
0.00154146
0.00152834
0.00152078
0.00152172
0.00153147
0.00154398
0.00156941
0.00155483
0.00153553
0.00152049
0.00151298
0.00151218
0.00151781
0.001528
0.00154124
0.00155685
0.00157322
0.00159061
0.00160871
0.00162907
0.00164398
0.00165588
0.00165943
0.001657
0.00164686
0.00163714
0.00162523
0.00161061
0.00159352
0.00157603
0.00156056
0.0015492
0.00154394
0.00154607
0.00155591
0.00156819
0.00157412
0.00155817
0.00153862
0.00152347
0.00151539
0.00151352
0.00151924
0.0015309
0.00154697
0.00156647
0.00158689
0.00160825
0.00163045
0.00165429
0.00167143
0.00168443
0.00168814
0.00168379
0.00167001
0.00165623
0.00164014
0.00162162
0.00160132
0.00158167
0.00156473
0.00155322
0.00154934
0.00155248
0.00156255
0.00157518
0.00155852
0.00154087
0.00151994
0.00150341
0.00149703
0.00150023
0.00151274
0.00153197
0.00155634
0.00158375
0.00161045
0.00163669
0.00166355
0.0016903
0.00170902
0.00172146
0.00172486
0.00171775
0.00169925
0.00167992
0.0016581
0.00163364
0.00160718
0.00158105
0.00155774
0.00154105
0.00153493
0.0015382
0.00154888
0.00156146
0.00152213
0.00150296
0.00148217
0.001473
0.00148613
0.00150914
0.0015377
0.00156879
0.00160022
0.00163103
0.00166031
0.00168877
0.00171804
0.00174706
0.00176695
0.0017791
0.00178136
0.00177116
0.0017483
0.00172363
0.00169645
0.00166598
0.00163231
0.00159671
0.00156073
0.00153013
0.00151128
0.00150665
0.00151267
0.00152412
0.00150131
0.00149965
0.00150147
0.00151449
0.00154002
0.00157041
0.00160266
0.00163497
0.00166621
0.00169611
0.00172475
0.00175309
0.00178272
0.00181258
0.00183264
0.00184509
0.00184798
0.00183802
0.00181451
0.00178905
0.00176152
0.00173102
0.00169733
0.00166102
0.00162282
0.00158463
0.00154865
0.00151824
0.00150031
0.00149483
0.00157317
0.00157991
0.00159275
0.00161224
0.00163697
0.00166349
0.00169054
0.00171731
0.00174337
0.00176887
0.00179415
0.00182018
0.00184844
0.00187787
0.00189733
0.00191023
0.00191441
0.00190606
0.0018837
0.00185977
0.00183471
0.00180764
0.00177827
0.00174681
0.00171366
0.00167951
0.00164503
0.00161138
0.00158295
0.00156728
0.00169126
0.00169933
0.00171209
0.00172757
0.00174465
0.00176235
0.00178047
0.00179892
0.00181769
0.00183709
0.00185757
0.00188004
0.00190581
0.00193384
0.00195229
0.00196579
0.00197167
0.00196554
0.00194535
0.00192426
0.00190319
0.00188131
0.0018583
0.00183423
0.00180934
0.0017839
0.00175798
0.00173174
0.00170735
0.00168965
0.00181009
0.00181473
0.00182172
0.00182941
0.00183747
0.00184603
0.00185535
0.0018657
0.00187733
0.00189066
0.00190618
0.00192477
0.00194742
0.00197349
0.00199095
0.0020051
0.00201294
0.00200918
0.00199162
0.00197407
0.0019576
0.00194131
0.00192488
0.00190828
0.00189167
0.00187514
0.00185853
0.00184168
0.00182538
0.00181158
0.00190419
0.00190388
0.00190409
0.00190436
0.00190481
0.00190594
0.00190813
0.00191181
0.00191742
0.00192547
0.00193646
0.00195123
0.00197043
0.00199413
0.00201071
0.00202541
0.00203532
0.00203375
0.00201908
0.00200554
0.00199381
0.00198286
0.00197236
0.00196223
0.00195253
0.00194325
0.00193413
0.00192495
0.00191592
0.00190725
0.0019682
0.00196331
0.00195804
0.00195268
0.00194753
0.00194314
0.00193992
0.00193835
0.00193905
0.00194263
0.00194956
0.00196061
0.00197638
0.00199698
0.00201273
0.00202788
0.00203965
0.0020402
0.00202841
0.00201941
0.00201237
0.00200623
0.00200082
0.00199601
0.00199169
0.00198782
0.00198404
0.00198018
0.00197633
0.00197203
0.000214363
0.000209352
0.000185285
0.000154173
0.000127519
0.000134391
0.000140641
0.000143492
0.000144836
0.000145764
0.000145788
0.000145327
0.000144408
0.00014348
0.000142783
0.000142461
0.000142277
0.000143079
0.000144649
0.000146517
0.000148305
0.000150082
0.00015147
0.000152206
0.000151771
0.000148521
0.000140567
0.000136116
0.000168795
0.00020302
0.00129366
0.00135221
0.00128744
0.00105347
0.000892062
0.000886016
0.000909711
0.000919474
0.000916687
0.000901274
0.00088576
0.000873816
0.000863433
0.000858834
0.000858668
0.000865945
0.000872238
0.000879647
0.000887082
0.000896561
0.00090623
0.000919826
0.000933664
0.000943018
0.000933912
0.000910729
0.000863213
0.000915028
0.00117232
0.00126969
0.00198462
0.00210402
0.00209893
0.00189393
0.00172781
0.00168963
0.00169805
0.00169824
0.0016818
0.00166246
0.00164113
0.00162332
0.00160679
0.00159843
0.00159545
0.00160697
0.00162104
0.00164101
0.00165801
0.00167393
0.0016871
0.0017025
0.00171441
0.00172002
0.00171038
0.00168645
0.00164782
0.00171651
0.00189598
0.00195265
0.00240773
0.0025593
0.00262948
0.00256387
0.00245335
0.00239732
0.00235963
0.00233094
0.00229962
0.00227088
0.00224049
0.00221522
0.00219254
0.00218061
0.00217493
0.00219173
0.0022154
0.00225089
0.00227881
0.00230094
0.00231672
0.00233262
0.00234253
0.00234533
0.00234565
0.00233863
0.0023424
0.00237256
0.0024256
0.00239112
0.00273573
0.00290442
0.00303747
0.00308085
0.00303947
0.00299932
0.00292625
0.00288609
0.0028505
0.00281845
0.00278581
0.00276101
0.00274052
0.00273216
0.00272873
0.00275335
0.00278506
0.00283264
0.00286556
0.00288595
0.00289552
0.00290354
0.00290337
0.00289559
0.00288878
0.00290267
0.00290609
0.00289053
0.00283803
0.00273417
0.00302009
0.00319475
0.00336353
0.00346347
0.00349089
0.00347967
0.00343134
0.00339279
0.00337018
0.00334707
0.00332321
0.0033102
0.00330293
0.00330741
0.0033121
0.00334707
0.00338392
0.00343857
0.00346807
0.00347646
0.00346879
0.00345771
0.00343508
0.00340342
0.0033763
0.00336944
0.00334477
0.00327895
0.00316745
0.00302614
0.00328227
0.00345577
0.00363875
0.00376633
0.00384179
0.00387505
0.00387325
0.00387111
0.00386908
0.0038712
0.00387004
0.00388183
0.00389963
0.00392751
0.00394666
0.00399337
0.00403228
0.00408751
0.00410396
0.00408948
0.00405292
0.00400992
0.00395021
0.00388103
0.00381872
0.00376763
0.00369604
0.00358848
0.00344596
0.0032908
0.00353914
0.00370709
0.00389121
0.00403406
0.00414028
0.00421954
0.00426958
0.00431615
0.00435761
0.00439427
0.00443097
0.004481
0.00453552
0.00459679
0.00463669
0.00469588
0.00473333
0.00478129
0.00477479
0.00472748
0.00465098
0.00456376
0.00445632
0.00433718
0.00422235
0.00412241
0.00400383
0.00386376
0.00370417
0.00354604
0.00380721
0.00396624
0.00414826
0.0042973
0.00442519
0.00454315
0.00464187
0.00474168
0.00483397
0.00492105
0.00500821
0.00510722
0.00520851
0.00530801
0.00537156
0.00544331
0.00547732
0.00550984
0.005473
0.00538544
0.00526095
0.00512074
0.00495736
0.00478148
0.00461231
0.00445975
0.00430061
0.00413598
0.0039669
0.00381114
0.00410302
0.00425285
0.00442998
0.00458205
0.00472618
0.00487441
0.00501661
0.00516655
0.00531365
0.00545572
0.00560041
0.00575721
0.00590554
0.00604161
0.00612801
0.00620933
0.0062382
0.00625131
0.00618335
0.00605227
0.00587829
0.00568401
0.00546496
0.00523301
0.00500949
0.00480823
0.00461576
0.00443135
0.00425598
0.00410531
0.00444172
0.00458356
0.00475394
0.00490902
0.00506786
0.00523974
0.00541772
0.00561222
0.00580941
0.00600523
0.00620541
0.00641084
0.00659713
0.00676015
0.00686244
0.00694586
0.00696926
0.00695965
0.00687038
0.00670956
0.00649253
0.00625334
0.00598758
0.00570768
0.00543668
0.00519406
0.00497303
0.00477114
0.00459018
0.00444439
0.00483554
0.00497075
0.00513456
0.00529363
0.00546516
0.00565487
0.00586192
0.00609221
0.00632982
0.00656909
0.00680941
0.00704309
0.00724917
0.00741734
0.00752467
0.007602
0.00761764
0.00758666
0.00748407
0.0073085
0.00707681
0.00681596
0.00652474
0.00621364
0.0059076
0.00563227
0.00538787
0.00517061
0.00498343
0.00484075
0.00529195
0.00542054
0.00557823
0.00574152
0.00592168
0.00612367
0.00635224
0.00660596
0.00686709
0.00712697
0.00738389
0.00763075
0.00784807
0.00801849
0.00812679
0.00819457
0.00819985
0.00815062
0.00803875
0.00785469
0.00761685
0.00734717
0.00705357
0.00673972
0.00641925
0.00612353
0.00586341
0.00563437
0.00544188
0.00530166
0.00580829
0.00592872
0.00607884
0.00624362
0.00642738
0.00663492
0.00687251
0.00713066
0.00739857
0.00766786
0.00793429
0.00818838
0.00841117
0.0085806
0.00868666
0.00874195
0.00873404
0.00867035
0.00855186
0.00836423
0.00812677
0.00785673
0.00756429
0.00725552
0.00694404
0.0066491
0.00638594
0.00615262
0.00595921
0.00582387
0.00636121
0.00647248
0.00661153
0.00677296
0.0069535
0.00715719
0.00739664
0.0076569
0.00792719
0.00819997
0.00847136
0.0087271
0.00894961
0.00911599
0.00921659
0.00925754
0.00923463
0.00916109
0.00903814
0.00885115
0.00861857
0.00835423
0.00806748
0.00776502
0.00746041
0.00717106
0.00691881
0.00669419
0.00650769
0.00638234
0.00690788
0.00701129
0.00714111
0.00729767
0.00747645
0.00768057
0.00792322
0.0081834
0.00845242
0.00872598
0.00899864
0.00925075
0.00946775
0.00962634
0.00971891
0.00974484
0.00970735
0.00962888
0.00950507
0.00932282
0.00909812
0.00884307
0.00856493
0.00827122
0.0079736
0.00768894
0.00744255
0.00722576
0.00704721
0.00693092
0.00744999
0.0075432
0.00766463
0.00781504
0.00799225
0.00819955
0.00844477
0.00870275
0.00896851
0.00924271
0.00951099
0.00975425
0.00995923
0.0101039
0.0101853
0.0101953
0.0101454
0.0100659
0.00994728
0.00977491
0.00956267
0.00931735
0.00904431
0.00876237
0.00847516
0.00819789
0.0079572
0.00774881
0.00757922
0.00747081
0.00797679
0.00805493
0.00816826
0.00831316
0.00848766
0.00869705
0.00894189
0.00919853
0.0094618
0.00973346
0.00999289
0.0102214
0.0104072
0.0105318
0.0105982
0.010591
0.0105305
0.0104532
0.0103463
0.01019
0.00999514
0.00976209
0.00949136
0.00921885
0.00894506
0.0086793
0.00844542
0.00824604
0.00808786
0.00799023
0.00846057
0.00852485
0.00863188
0.00877039
0.00893929
0.00914635
0.009386
0.00964143
0.00990725
0.0101709
0.0104174
0.0106263
0.0107863
0.0108854
0.0109333
0.0109082
0.0108387
0.0107665
0.0106772
0.0105426
0.0103686
0.0101501
0.00988631
0.009617
0.00935539
0.00910368
0.00888234
0.00869753
0.00855456
0.00846828
0.00886973
0.0089248
0.00902206
0.00915155
0.00931116
0.0095106
0.00974173
0.00999365
0.0102588
0.0105144
0.0107477
0.0109345
0.0110647
0.0111348
0.0111627
0.0111213
0.0110449
0.0109802
0.0109123
0.0108028
0.0106492
0.0104464
0.010193
0.00992103
0.00966927
0.00943559
0.00923426
0.00906986
0.00894734
0.00887506
0.00916558
0.00921039
0.00929457
0.00941159
0.00955924
0.00974642
0.00996707
0.0102152
0.0104733
0.010718
0.0109348
0.0111017
0.011204
0.011247
0.0112577
0.0112064
0.0111269
0.0110697
0.0110226
0.0109369
0.0107996
0.0106082
0.0103637
0.0100962
0.00985268
0.00963665
0.00945911
0.00932053
0.00922363
0.0091692
0.00930457
0.00933587
0.00940343
0.00950594
0.00963936
0.00981177
0.0100221
0.0102645
0.0105145
0.0107496
0.0109517
0.0110988
0.0111768
0.0111999
0.0112007
0.0111492
0.0110717
0.0110223
0.0109936
0.0109265
0.0108013
0.0106145
0.0103753
0.0101178
0.00987877
0.00967516
0.00951844
0.00940784
0.00933968
0.00930727
0.00925522
0.00926901
0.00931704
0.00940722
0.00952351
0.00968153
0.00988373
0.0101196
0.0103651
0.0105965
0.0107939
0.0109311
0.0109983
0.0110147
0.0110195
0.0109911
0.0109243
0.010879
0.0108564
0.0107966
0.0106705
0.0104774
0.0102349
0.0099824
0.00974608
0.00954394
0.00939705
0.00930911
0.0092673
0.00925967
0.00901924
0.00901242
0.00904411
0.00912218
0.00922248
0.00937147
0.00956744
0.00980177
0.0100538
0.0103016
0.0105133
0.0106597
0.0107401
0.0107749
0.010804
0.0108065
0.0107537
0.0107086
0.0106826
0.010612
0.0104601
0.0102399
0.00998118
0.00972472
0.00948577
0.00927597
0.00912432
0.0090419
0.00901835
0.00902844
0.00864496
0.00862214
0.00864238
0.00871975
0.00884448
0.00901856
0.00923759
0.00949597
0.00977641
0.0100562
0.0103043
0.0104906
0.0106002
0.0106639
0.0107227
0.0107457
0.0106939
0.010631
0.010581
0.0104788
0.0102889
0.0100296
0.00973371
0.00943977
0.00916891
0.0089364
0.00876981
0.00867475
0.00864942
0.00866426
0.0082678
0.00828653
0.00834419
0.00845329
0.00861324
0.00882106
0.00907226
0.00936225
0.0096758
0.00999234
0.0102811
0.010509
0.0106579
0.010759
0.0108513
0.0108906
0.0108382
0.0107569
0.0106774
0.0105405
0.0103123
0.0100134
0.0096783
0.00934421
0.00903435
0.00876379
0.00855005
0.00840212
0.00831908
0.00828522
0.00817604
0.00823698
0.00833213
0.00847453
0.00866679
0.00890451
0.00918305
0.00949957
0.00984101
0.0101883
0.0105101
0.0107717
0.0109574
0.0110943
0.0112169
0.0112729
0.0112223
0.0111307
0.0110256
0.0108601
0.0106032
0.0102733
0.00990667
0.00953845
0.00919289
0.00888442
0.00862391
0.0084221
0.00828151
0.00818972
0.00851523
0.00860882
0.00874073
0.00891413
0.00913127
0.00938962
0.00968279
0.0100116
0.0103654
0.0107262
0.0110634
0.0113442
0.0115552
0.0117194
0.0118663
0.0119432
0.0118982
0.0118111
0.0116899
0.0115091
0.0112384
0.0108926
0.0105092
0.0101207
0.00975177
0.00941422
0.00911386
0.00886405
0.00867044
0.00852733
0.00954508
0.00967782
0.00984041
0.0100343
0.010261
0.0105198
0.0108024
0.0111162
0.0114541
0.0117975
0.0121212
0.0123984
0.0126129
0.0127899
0.0129561
0.0130574
0.013026
0.0129592
0.0128471
0.0126747
0.0124146
0.0120828
0.0117095
0.0113262
0.0109578
0.0106129
0.0102876
0.00999917
0.00975922
0.00956472
0.0120941
0.0122412
0.0124029
0.0125772
0.0127662
0.0129725
0.0131829
0.0134146
0.013668
0.0139323
0.0141878
0.0144103
0.0145895
0.0147522
0.0149311
0.0150663
0.0150754
0.0150522
0.0149922
0.0148734
0.0146767
0.014413
0.0141104
0.0137979
0.0134919
0.0131979
0.0128968
0.0126071
0.0123472
0.0121253
0.000222691
0.000219292
0.000201905
0.000180861
0.000165997
0.000165158
0.000165898
0.000165897
0.000165059
0.000163703
0.000161842
0.000159954
0.000157956
0.000156563
0.00015544
0.00015536
0.00015572
0.000157388
0.000159803
0.000162936
0.000166084
0.000169467
0.000172555
0.000175131
0.000176612
0.000175929
0.000172734
0.000171715
0.000190733
0.000214464
0.001627
0.00167788
0.00166485
0.00161199
0.0015159
0.00146029
0.00138523
0.00132785
0.001288
0.00126185
0.00124219
0.00123263
0.00122924
0.00124101
0.00125612
0.00128254
0.00129375
0.00130108
0.0012992
0.00130027
0.00130107
0.00130997
0.00132369
0.00134655
0.00138031
0.00142832
0.00144237
0.00147917
0.00159472
0.00159815
0.00288561
0.00300766
0.00308137
0.00311757
0.00300994
0.00286108
0.00271305
0.00260724
0.00253866
0.00250062
0.00247746
0.00247291
0.00248012
0.00251536
0.00255469
0.00261004
0.00263068
0.00264519
0.00263792
0.00262976
0.00261645
0.00261309
0.00261757
0.00264
0.00268726
0.0027672
0.00284371
0.0029178
0.00291421
0.00282369
0.00387195
0.00406797
0.00427038
0.00442955
0.00437377
0.00419636
0.00400491
0.00385706
0.00375694
0.00370123
0.00367144
0.00367111
0.00369068
0.00375312
0.00382186
0.0039066
0.00393754
0.00396129
0.00394823
0.00392929
0.00390026
0.00388262
0.0038779
0.00390175
0.00396184
0.00405916
0.0041457
0.00417328
0.0040101
0.00381677
0.00471789
0.00498089
0.0053155
0.00559691
0.00564582
0.00550864
0.00531756
0.00515447
0.00503573
0.00496671
0.00493181
0.00493643
0.00496974
0.0050625
0.00516349
0.00527826
0.00532102
0.00535633
0.00533779
0.00530711
0.00525984
0.00522349
0.00520304
0.00521739
0.00526941
0.00534705
0.00538575
0.00527966
0.00497094
0.00468011
0.0054671
0.00579606
0.00625142
0.00664986
0.00682974
0.00679545
0.00666119
0.00652317
0.00641536
0.00635192
0.00632261
0.00633851
0.00639013
0.00651622
0.00665094
0.00679547
0.00685109
0.0068991
0.00687417
0.00682845
0.00675649
0.00668907
0.00663407
0.00661135
0.00661721
0.00662373
0.00654173
0.00627855
0.00583997
0.00545104
0.00613584
0.00652467
0.00708194
0.00759345
0.00790296
0.00801022
0.00798622
0.00792302
0.00786571
0.00783871
0.00783642
0.00787767
0.00795685
0.00812111
0.00829003
0.00846323
0.00853103
0.00858884
0.00855377
0.00848504
0.00837523
0.00825588
0.00813632
0.0080382
0.00794762
0.007825
0.00758736
0.00716849
0.00661457
0.0061477
0.00673114
0.00713263
0.00774257
0.00836832
0.00882985
0.00908376
0.00920617
0.0092639
0.00929974
0.00934308
0.00939489
0.00948212
0.00960294
0.00981184
0.0100157
0.0102164
0.010293
0.0103539
0.0102996
0.0101959
0.0100291
0.00983215
0.00961548
0.00939873
0.00916934
0.00888508
0.0084879
0.00789317
0.00725148
0.00676131
0.00725285
0.00760646
0.00822321
0.00890234
0.00950195
0.0099545
0.0102406
0.010441
0.0106032
0.010747
0.010878
0.0110316
0.0112094
0.0114701
0.0117098
0.0119372
0.0120178
0.0120718
0.0119865
0.011832
0.0115903
0.0112954
0.0109568
0.0105895
0.0102085
0.00973101
0.00911788
0.00842115
0.00774416
0.00727155
0.00771482
0.00804021
0.00863651
0.00933561
0.00999621
0.0105528
0.0110098
0.0113799
0.0116857
0.0119443
0.0121703
0.0124058
0.0126538
0.0129687
0.0132432
0.0134965
0.0135767
0.0136127
0.0134856
0.0132673
0.0129403
0.0125448
0.0120696
0.0115411
0.0109469
0.0103172
0.0096141
0.00886496
0.00818245
0.00774241
0.00813792
0.00845045
0.00901356
0.00970286
0.0104034
0.0110441
0.0115995
0.0120789
0.0124971
0.0128754
0.0132066
0.0135324
0.0138549
0.0142194
0.0145234
0.014801
0.0148783
0.014887
0.0147135
0.0144242
0.0140123
0.0134957
0.0128972
0.0122506
0.0115529
0.0108095
0.01003
0.00925789
0.00859579
0.00817411
0.00854184
0.00883608
0.00937625
0.0100413
0.010738
0.0114064
0.0120202
0.0125844
0.0131009
0.0135733
0.0139964
0.014402
0.0147896
0.0151911
0.0155153
0.0158156
0.01589
0.0158684
0.015654
0.0153044
0.0148194
0.0142283
0.013543
0.0128021
0.0120265
0.0112255
0.0104142
0.00964065
0.00899808
0.00858463
0.00894503
0.00921594
0.00972073
0.0103476
0.0110201
0.011689
0.0123322
0.0129496
0.0135329
0.0140781
0.0145768
0.0150466
0.0154868
0.0159157
0.016249
0.0165608
0.0166319
0.0165879
0.0163433
0.0159462
0.0154038
0.0147535
0.0140136
0.0132198
0.0124011
0.0115763
0.0107647
0.0100108
0.00939139
0.00899442
0.00936175
0.00960619
0.0100693
0.0106511
0.0112878
0.0119401
0.0125906
0.0132351
0.0138604
0.0144579
0.0150138
0.0155366
0.0160191
0.0164595
0.0167938
0.0170976
0.0171577
0.0170951
0.016835
0.0164091
0.01583
0.0151417
0.0143706
0.0135537
0.0127214
0.0118979
0.0111052
0.0103819
0.00979303
0.00941766
0.00980432
0.0100221
0.0104423
0.0109779
0.0115749
0.0122018
0.0128458
0.0134997
0.0141481
0.0147791
0.0153759
0.0159412
0.0164562
0.0169048
0.0172327
0.0175018
0.0175414
0.0174555
0.0171844
0.0167513
0.0161584
0.0154545
0.0146731
0.0138535
0.0130271
0.0122208
0.0114579
0.0107713
0.010217
0.00986574
0.0102858
0.0104793
0.0108596
0.0113519
0.0119104
0.0125098
0.0131403
0.013792
0.0144485
0.0150956
0.0157172
0.0163101
0.0168449
0.0173017
0.0176233
0.0178533
0.0178605
0.0177428
0.0174612
0.0170248
0.0164386
0.0157408
0.0149682
0.0141616
0.0133538
0.0125731
0.0118443
0.0111963
0.0106774
0.0103505
0.0108218
0.0109946
0.01134
0.011794
0.0123178
0.0128908
0.0135042
0.0141457
0.0147978
0.0154457
0.0160754
0.016679
0.0172191
0.0176744
0.0179871
0.0181792
0.0181484
0.0180088
0.0177244
0.0172914
0.0167148
0.0160356
0.0152884
0.0145082
0.0137285
0.0129786
0.0122851
0.0116752
0.0111905
0.0108868
0.0114226
0.0115784
0.0118942
0.0123151
0.0128085
0.0133572
0.0139515
0.0145766
0.0152144
0.0158504
0.0164723
0.0170683
0.0175969
0.0180357
0.0183274
0.0184636
0.018388
0.0182374
0.0179605
0.0175467
0.0169975
0.0163533
0.0156464
0.0149054
0.0141629
0.0134492
0.0127921
0.0122193
0.0117672
0.0114854
0.0120834
0.0122254
0.0125165
0.0129092
0.0133764
0.013903
0.014477
0.0150816
0.0156977
0.0163121
0.0169121
0.0174833
0.0179824
0.0183856
0.0186388
0.0186916
0.0185661
0.018412
0.0181522
0.0177752
0.0172753
0.0166852
0.0160327
0.0153433
0.0146475
0.0139763
0.0133586
0.012823
0.0124024
0.0121418
0.0127773
0.0129086
0.0131797
0.0135495
0.0139949
0.0145015
0.0150553
0.0156375
0.0162281
0.0168141
0.0173817
0.0179136
0.0183658
0.0187132
0.0189085
0.0188527
0.0186736
0.01852
0.018285
0.0179558
0.0175244
0.017004
0.0164185
0.0157914
0.0151507
0.0145285
0.0139547
0.0134579
0.013069
0.0128297
0.0134546
0.0135784
0.0138352
0.0141886
0.0146173
0.0151069
0.0156424
0.0162028
0.0167673
0.0173226
0.0178519
0.0183344
0.0187257
0.0189996
0.0191205
0.0189441
0.0187146
0.0185623
0.0183553
0.0180777
0.0177179
0.0172744
0.0167623
0.0162036
0.0156236
0.0150546
0.0145286
0.0140728
0.0137159
0.0134985
0.0140478
0.014169
0.0144192
0.0147643
0.0151834
0.0156616
0.0161829
0.0167249
0.0172666
0.0177927
0.0182832
0.0187123
0.0190348
0.0192247
0.0192628
0.0189784
0.0187137
0.0185621
0.0183777
0.0181422
0.0178399
0.0174659
0.0170225
0.0165297
0.0160103
0.015494
0.0150155
0.014601
0.0142749
0.0140791
0.0144867
0.0146131
0.0148673
0.0152148
0.0156339
0.0161087
0.0166227
0.0171533
0.0176787
0.0181814
0.0186371
0.0190152
0.0192696
0.0193795
0.0193387
0.018996
0.0187244
0.0185736
0.0183929
0.0181747
0.0179008
0.0175701
0.0171769
0.0167358
0.0162671
0.0157955
0.0153572
0.0149786
0.014678
0.0144996
0.0147244
0.0148671
0.0151387
0.0155007
0.0159308
0.0164114
0.0169275
0.0174567
0.0179752
0.0184636
0.0188938
0.0192306
0.0194279
0.0194751
0.0193847
0.019079
0.0188247
0.0186648
0.0184771
0.0182376
0.0179482
0.0176189
0.017245
0.0168278
0.0163872
0.0159426
0.0155281
0.0151694
0.0148868
0.014714
0.0147706
0.014937
0.0152426
0.0156297
0.0160809
0.0165775
0.0171061
0.0176449
0.0181667
0.0186514
0.0190679
0.0193789
0.0195405
0.0195587
0.0194708
0.0192708
0.0190376
0.0188575
0.0186665
0.018407
0.0180786
0.0176968
0.0172944
0.0168656
0.0164207
0.0159771
0.0155533
0.015187
0.0149122
0.0147584
0.0147238
0.0149121
0.0152413
0.0156641
0.0161472
0.0166691
0.017219
0.0177738
0.0183085
0.0187963
0.0192105
0.0195143
0.0196675
0.0196987
0.0196743
0.0195491
0.0193387
0.0191426
0.0189427
0.018667
0.0183121
0.0178917
0.0174348
0.0169596
0.0164796
0.0159999
0.0155403
0.0151425
0.0148533
0.0146947
0.014749
0.0149747
0.015339
0.015782
0.0162773
0.0168115
0.0173675
0.0179277
0.0184732
0.0189832
0.0194055
0.0197179
0.0198844
0.0199581
0.020005
0.019954
0.019777
0.0195831
0.0193689
0.0190753
0.018701
0.0182483
0.0177482
0.0172244
0.0166895
0.0161574
0.0156768
0.0152435
0.0149064
0.0147115
0.0150704
0.01533
0.0157155
0.0161674
0.0166655
0.0171998
0.0177501
0.0183033
0.0188404
0.0193398
0.0197627
0.0200865
0.0202787
0.0204045
0.0205338
0.0205676
0.0204465
0.0202755
0.0200552
0.0197507
0.0193482
0.0188686
0.0183434
0.017792
0.0172378
0.016688
0.0161707
0.0156934
0.0152917
0.0150334
0.016027
0.0162981
0.0166813
0.0171215
0.0175965
0.0180973
0.0186031
0.0191077
0.0195967
0.0200547
0.0204491
0.0207619
0.0209736
0.0211461
0.0213657
0.0215093
0.0214735
0.0213529
0.0211423
0.0208356
0.0204374
0.019964
0.0194466
0.0189058
0.0183551
0.0178077
0.0172828
0.0167821
0.0163369
0.0160108
0.018214
0.0184391
0.0187551
0.0191124
0.0194933
0.0198825
0.0202649
0.0206407
0.0210065
0.0213517
0.0216574
0.0219122
0.0221159
0.0223252
0.0226337
0.0229077
0.022992
0.0229601
0.0228029
0.0225387
0.0221891
0.0217742
0.0213244
0.0208572
0.0203839
0.0199139
0.0194485
0.0189888
0.0185694
0.0182352
0.000231897
0.0002279
0.000215294
0.000201074
0.00018975
0.000184474
0.000180984
0.000178676
0.000176847
0.000175281
0.000173444
0.000171838
0.000170096
0.000169219
0.000168244
0.00016847
0.000168765
0.000170497
0.00017264
0.000175575
0.000178413
0.000181699
0.000184955
0.00018826
0.000191411
0.000194081
0.000195752
0.000198018
0.000209719
0.000224853
0.00190528
0.00192583
0.0019104
0.00188675
0.00180067
0.00168813
0.00157798