/*--------------------------------*- C++ -*----------------------------------*\
  =========                 |
  \\      /  F ield         | OpenFOAM: The Open Source CFD Toolbox
   \\    /   O peration     | Website:  https://openfoam.org
    \\  /    A nd           | Version:  12
     \\/     M anipulation  |
\*---------------------------------------------------------------------------*/
FoamFile
{
    format      ascii;
    class       volScalarField;
    location    "50/air";
    object      epsilon;
}
// * * * * * * * * * * * * * * * * * * * * * * * * * * * * * * * * * * * * * //

dimensions      [0 2 -3 0 0 0 0];

internalField   nonuniform List<scalar> 
243000
(
5.82011
4.87575
3.18129
1.76606
0.992934
1.80541
2.85884
4.06284
5.39096
6.63736
7.73634
8.63896
9.30444
9.7762
10.0585
10.1481
9.87309
9.5779
9.15042
8.56711
7.80169
6.90115
5.89114
4.79311
3.64452
2.6089
1.66782
0.962581
2.15573
4.06879
3.74937
3.28862
2.15735
1.02793
0.726076
1.28132
1.9715
2.73065
3.49185
4.21471
4.86724
5.43007
5.88212
6.23851
6.48375
6.57514
6.41166
6.15843
5.80216
5.36752
4.85772
4.29781
3.69535
3.05863
2.40025
1.74713
1.13531
0.721218
1.39306
2.75021
3.95321
3.39674
2.1685
1.04
0.8714
1.36802
1.93358
2.51767
3.06176
3.55594
3.98529
4.34419
4.62676
4.84933
5.00552
5.06481
4.97747
4.8302
4.61671
4.35268
4.03692
3.67895
3.27687
2.82835
2.3364
1.80662
1.27882
0.932075
1.49449
2.92699
4.43588
3.8606
2.54906
1.36438
1.22666
1.73189
2.30334
2.91191
3.48798
4.01857
4.48535
4.87958
5.19186
5.43848
5.61142
5.6759
5.58965
5.42711
5.18743
4.89214
4.54303
4.15277
3.71981
3.24103
2.72147
2.17272
1.64474
1.3478
1.97779
3.36596
4.80248
4.25508
2.99214
1.79508
1.62212
2.06798
2.61031
3.21567
3.80378
4.35962
4.85767
5.28463
5.62482
5.89409
6.08236
6.15274
6.06933
5.89426
5.63103
5.3068
4.92663
4.50992
4.05638
3.56401
3.04223
2.51348
2.02606
1.8407
2.56986
3.79722
5.1342
4.63105
3.46909
2.32692
2.0721
2.42802
2.93457
3.51424
4.10012
4.67254
5.19593
5.65141
6.01561
6.30413
6.50493
6.58068
6.50151
6.31811
6.03587
5.68721
5.27978
4.84182
4.37527
3.88149
3.37589
2.89876
2.475
2.42138
3.16689
4.21846
5.45574
4.99982
3.9555
2.96757
2.59122
2.85567
3.30355
3.84682
4.42004
5.00118
5.54394
6.02316
6.40708
6.71168
6.92242
7.00283
6.92841
6.74124
6.44456
6.07661
5.64607
5.19122
4.71722
4.23071
3.75332
3.33771
3.04251
3.11282
3.74677
4.62842
5.78105
5.37013
4.43333
3.5971
3.19807
3.35778
3.72384
4.22768
4.78369
5.36818
5.92578
6.4249
6.82571
7.1448
7.36387
7.449
7.37914
7.19237
6.8849
6.50194
6.05127
5.58162
5.10227
4.62669
4.18108
3.8237
3.63308
3.75912
4.29025
5.03231
6.12371
5.75536
4.913
4.18284
3.82382
3.88776
4.19405
4.66334
5.20376
5.78981
6.35976
6.87663
7.29341
7.62787
7.8549
7.94604
7.88023
7.69754
7.38225
6.98732
6.51764
6.03211
5.54552
5.07884
4.6607
4.34863
4.21824
4.35862
4.8135
5.44302
6.49913
6.17252
5.41018
4.75827
4.42895
4.44853
4.71664
5.16168
5.69278
6.28196
6.86351
7.39774
7.83158
8.18513
8.42154
8.52153
8.45963
8.28294
7.96342
7.55891
7.06958
6.56415
6.06415
5.59853
5.19656
4.9124
4.8121
4.94845
5.34105
5.88037
6.92583
6.63737
5.94437
5.35409
5.05049
5.05182
5.30109
5.73527
6.26651
6.86366
7.45691
8.00956
8.46439
8.84351
9.09252
9.20626
9.14888
8.97909
8.65807
8.247
7.73708
7.20522
6.68092
6.20241
5.80048
5.52542
5.43328
5.5562
5.89648
6.36116
7.42667
7.17151
6.53799
5.99706
5.71761
5.71718
5.96573
6.40485
6.94859
7.56197
8.16857
8.74535
9.22703
9.63896
9.8995
10.0262
9.97452
9.81191
9.49278
9.0873
8.56141
7.99561
7.43005
6.9178
6.49489
6.2083
6.10611
6.20916
6.50518
6.90846
8.03225
7.80437
7.21964
6.7166
6.4616
6.47398
6.74208
7.2073
7.78253
8.42498
9.04544
9.63339
10.1288
10.5603
10.8279
10.9662
10.9219
10.768
10.4549
10.0671
9.55336
8.97927
8.36982
7.7932
7.31981
6.99501
6.86371
6.94046
7.19917
7.55357
8.78853
8.57909
8.03115
7.55509
7.32798
7.37184
7.69312
8.21729
8.82532
9.46854
10.072
10.6511
11.1491
11.5941
11.8672
12.0184
11.9838
11.8421
11.5385
11.1725
10.6921
10.1352
9.51676
8.902
8.35277
7.94617
7.75847
7.79874
8.0257
8.3432
9.77151
9.56648
9.04679
8.59299
8.40925
8.51444
8.88408
9.42702
10.0332
10.6507
11.2255
11.7837
12.2758
12.7293
13.0082
13.1743
13.1528
13.0272
12.7364
12.397
11.96
11.4405
10.8342
10.2076
9.6234
9.15864
8.89134
8.87358
9.06926
9.35676
11.0772
10.8527
10.3401
9.89473
9.73134
9.86005
10.2416
10.7739
11.35
11.9318
12.4736
13.0051
13.4873
13.9466
14.2339
14.4179
14.4128
14.3071
14.0316
13.7222
13.3299
12.8595
12.2768
11.6552
11.0607
10.5703
10.2687
10.2288
10.4208
10.7049
12.5959
12.3239
11.7961
11.3453
11.1866
11.3193
11.6896
12.1873
12.7167
13.2599
13.7657
14.2696
14.7436
15.2128
15.5136
15.7203
15.7348
15.6501
15.3886
15.1085
14.7573
14.3341
13.7785
13.1754
12.5931
12.1022
11.7913
11.7524
11.9642
12.272
14.1965
13.8618
13.3034
12.842
12.6776
12.7958
13.1334
13.5796
14.0629
14.5648
15.0357
15.5167
15.9898
16.4803
16.8044
17.0416
17.0784
17.0112
16.7555
16.4962
16.1764
15.7867
15.2587
14.6809
14.1267
13.6575
13.3587
13.3383
13.5834
13.9277
15.7328
15.334
14.7406
14.2675
14.0884
14.1725
14.4574
14.8519
15.2948
15.76
16.2086
16.6811
17.1698
17.7009
18.0629
18.3407
18.4015
18.3418
18.0735
17.8165
17.5085
17.1268
16.6247
16.0689
15.5465
15.1132
14.8483
14.8598
15.1472
15.5321
17.046
16.5885
15.9662
15.4833
15.2802
15.3152
15.5436
15.8912
16.3039
16.7553
17.2127
17.7098
18.2453
18.8463
19.266
19.5953
19.6798
19.6102
19.2985
19.0108
18.6786
18.2725
17.7713
17.2238
16.7251
16.3338
16.1194
16.169
16.4984
16.9209
17.9685
17.4616
16.8214
16.333
16.1026
16.091
16.2793
16.607
17.0226
17.5061
18.0227
18.5962
19.2278
19.9383
20.4392
20.8304
20.9362
20.8301
20.4284
20.0578
19.6453
19.1651
18.6132
18.0505
17.5525
17.1892
17.025
17.1122
17.4696
17.9167
18.3558
17.8029
17.1486
16.6629
16.4293
16.4188
16.6322
17.0134
17.5129
18.1114
18.7572
19.4655
20.2486
21.1059
21.706
22.1595
22.28
22.1038
21.5556
21.0346
20.4738
19.8538
19.1843
18.5382
17.982
17.5925
17.4418
17.5482
17.9092
18.3689
18.1325
17.559
16.908
16.4389
16.3071
16.4586
16.8546
17.4311
18.1417
18.9633
19.809
20.6935
21.6658
22.6741
23.3666
23.8503
23.972
23.6907
22.9428
22.2065
21.4332
20.6026
19.7302
18.8885
18.1493
17.6104
17.3591
17.4166
17.7474
18.1895
17.3963
16.8809
16.3599
16.134
16.5166
17.1541
17.9547
18.8563
19.806
20.7821
21.7668
22.7909
23.9243
25.0992
25.8853
26.3764
26.4734
26.0593
25.0909
24.109
23.0993
22.024
20.893
19.7556
18.6671
17.7834
17.1986
16.9773
17.102
17.4225
17.1981
17.2042
17.333
17.7248
18.4284
19.284
20.2336
21.2366
22.2618
23.2991
24.356
25.4744
26.7306
28.0552
28.921
29.4741
29.6142
29.1782
28.0913
26.9836
25.8621
24.685
23.4521
22.1953
20.9476
19.7642
18.6956
17.8005
17.2279
17.0246
19.6426
19.8811
20.312
20.9221
21.685
22.5244
23.4184
24.3504
25.3082
26.2972
27.3373
28.4788
29.8017
31.2389
32.1577
32.785
33.0017
32.602
31.4608
30.3045
29.1633
27.9955
26.7919
25.5697
24.349
23.1554
22.0078
20.9245
20.0171
19.4867
23.7566
24.0568
24.52
25.0672
25.6709
26.3115
26.9951
27.7266
28.5084
29.3577
30.3023
31.3986
32.7263
34.2261
35.1675
35.8733
36.1944
35.8728
34.7366
33.6012
32.5217
31.4585
30.393
29.3306
28.2825
27.2598
26.2635
25.2838
24.3881
23.7209
28.4353
28.6275
28.9108
29.2162
29.5369
29.8881
30.2914
30.7643
31.3189
31.9806
32.7813
33.7826
35.055
36.5626
37.5066
38.2865
38.7302
38.5113
37.4322
36.379
35.4264
34.5321
33.6701
32.8356
32.0339
31.2698
30.5343
29.8055
29.111
28.5135
32.6028
32.5875
32.5946
32.6032
32.6223
32.683
32.8101
33.0269
33.3519
33.816
34.453
35.3246
36.4839
37.9477
38.8794
39.7167
40.2887
40.1756
39.198
38.2826
37.5059
36.8156
36.1812
35.5915
35.0463
34.5473
34.0814
33.6261
33.1847
32.7584
35.6519
35.4091
35.1547
34.9016
34.6667
34.4836
34.3763
34.3685
34.486
34.7629
35.2313
35.9455
36.9581
38.3118
39.2195
40.094
40.7767
40.7692
39.9157
39.1929
38.6257
38.1504
37.7396
37.38
37.0649
36.7936
36.551
36.3192
36.0965
35.8562
7.60459
8.04685
6.41449
4.25196
2.93218
3.97194
5.12322
6.10364
6.9928
7.78932
8.41572
8.87359
9.13402
9.25451
9.27706
9.20572
9.03256
8.90189
8.7631
8.54525
8.20119
7.75918
7.19444
6.49098
5.66804
4.64352
3.4182
2.68744
4.39089
6.49547
4.01598
4.44874
3.71571
2.73092
2.33227
2.80935
3.2697
3.61922
3.90721
4.16886
4.38297
4.55469
4.67568
4.76029
4.80454
4.79148
4.74214
4.67448
4.57017
4.43504
4.26983
4.09173
3.89885
3.6868
3.44757
3.09452
2.61175
2.14
2.85915
3.8735
3.94561
4.17994
3.50099
2.66589
2.35045
2.67183
3.01692
3.31859
3.57622
3.78031
3.92973
4.03946
4.11067
4.15419
4.16877
4.14819
4.12571
4.09038
4.02574
3.93614
3.82815
3.70933
3.56856
3.39136
3.17451
2.89024
2.54406
2.31297
2.97719
3.80351
4.07928
4.1717
3.56194
2.82537
2.48728
2.65913
2.94144
3.21369
3.46456
3.66218
3.80218
3.90255
3.96547
3.99586
3.99883
3.97453
3.95672
3.92339
3.86669
3.78692
3.6936
3.58948
3.45638
3.2807
3.06773
2.83431
2.60356
2.62601
3.24814
3.8748
4.2299
4.22523
3.68399
3.04678
2.68576
2.71897
2.91613
3.1406
3.36062
3.54128
3.6686
3.76229
3.82283
3.84611
3.84553
3.81607
3.79838
3.76167
3.7082
3.63408
3.55172
3.46292
3.34364
3.18665
3.01119
2.83748
2.76287
2.96592
3.52575
3.99769
4.38162
4.32513
3.8477
3.27602
2.90751
2.8349
2.93441
3.10834
3.28003
3.42942
3.53437
3.61415
3.6684
3.68326
3.67918
3.64716
3.62638
3.58612
3.53809
3.47404
3.40838
3.34293
3.2506
3.13208
3.00597
2.92385
2.97145
3.27174
3.77651
4.14917
4.5392
4.46003
4.03626
3.51316
3.13691
2.99516
3.01952
3.12548
3.25434
3.36547
3.44372
3.50296
3.54611
3.5496
3.54026
3.5024
3.4779
3.43494
3.39543
3.34698
3.30548
3.26824
3.21118
3.13636
3.07233
3.07328
3.2075
3.55159
4.00665
4.31829
4.71165
4.62678
4.24732
3.7645
3.38822
3.20118
3.16843
3.21893
3.29813
3.37402
3.42976
3.46699
3.49774
3.48857
3.47317
3.42529
3.39416
3.34701
3.31678
3.28617
3.27293
3.2641
3.24308
3.21601
3.21134
3.2762
3.46794
3.8243
4.23425
4.50753
4.91199
4.83322
4.48979
4.0457
3.67742
3.46212
3.38704
3.39022
3.42819
3.47118
3.50834
3.53292
3.5574
3.53297
3.50608
3.44778
3.41393
3.35785
3.33367
3.31729
3.3286
3.34311
3.3572
3.37502
3.42019
3.53325
3.75988
4.11094
4.48128
4.72691
5.15685
5.09065
4.7835
4.37535
4.02197
3.79178
3.68451
3.65006
3.65222
3.66675
3.68829
3.71123
3.71638
3.68013
3.64427
3.58022
3.54681
3.49421
3.47586
3.46137
3.48268
3.51567
3.56009
3.61626
3.70168
3.84914
4.09385
4.43037
4.76681
4.99091
5.46678
5.41791
5.14767
4.77483
4.44135
4.20536
4.07522
4.00929
3.98015
3.96796
3.96878
3.96678
3.94931
3.90236
3.8612
3.79952
3.77328
3.73507
3.72757
3.72583
3.74531
3.79215
3.86065
3.94707
4.06282
4.23299
4.48463
4.80378
5.1113
5.31744
5.86605
5.8382
5.60463
5.26749
4.95608
4.72067
4.57449
4.48126
4.42162
4.37972
4.35031
4.31704
4.27666
4.21853
4.17047
4.10801
4.08736
4.06265
4.06949
4.08867
4.12534
4.18516
4.27094
4.37977
4.5173
4.7009
4.95203
5.25437
5.53753
5.72829
6.3816
6.37513
6.17717
5.87403
5.58324
5.35253
5.19459
5.07687
4.98668
4.91104
4.84428
4.7735
4.70539
4.63023
4.57244
4.50718
4.49245
4.4823
4.50736
4.5534
4.62027
4.70461
4.80819
4.93164
5.08251
5.27177
5.51745
5.80483
6.06955
6.24919
7.03659
7.0481
6.87883
6.60275
6.32921
6.10488
5.93795
5.79842
5.676
5.56079
5.45271
5.33763
5.23601
5.13769
5.06708
4.99785
4.99046
4.99704
5.0448
5.12312
5.22964
5.34884
5.47654
5.61615
5.77445
5.96134
6.19758
6.47278
6.72677
6.90289
7.83896
7.86032
7.70361
7.43889
7.17449
6.95774
6.78458
6.62316
6.46755
6.31498
6.17089
6.00548
5.86417
5.73656
5.65036
5.57701
5.57956
5.60607
5.68216
5.79812
5.95104
6.10978
6.26413
6.42252
6.58915
6.77316
6.99826
7.26381
7.5153
7.69711
8.76599
8.78038
8.60776
8.33427
8.07599
7.87315
7.70064
7.52071
7.33618
7.15607
6.98066
6.76313
6.57764
6.41546
6.3116
6.23427
6.24891
6.29979
6.40999
6.56814
6.77076
6.96021
7.13325
7.31288
7.49197
7.67721
7.89317
8.15382
8.41218
8.61068
9.73965
9.72346
9.51241
9.22697
8.98077
8.79282
8.63129
8.45037
8.2507
8.06034
7.85132
7.58564
7.35502
7.15643
7.03373
6.95155
6.97923
7.05689
7.20459
7.40731
7.65791
7.86277
8.02348
8.21415
8.40407
8.59096
8.79693
9.05605
9.33399
9.56685
10.6372
10.5759
10.3469
10.0698
9.84136
9.66823
9.51563
9.35154
9.16569
8.97608
8.74222
8.43988
8.16867
7.93718
7.79659
7.70838
7.74799
7.85041
8.03356
8.27796
8.5667
8.76943
8.90488
9.08332
9.26766
9.43854
9.63047
9.884
10.1779
10.4432
11.3782
11.2954
11.0702
10.8166
10.6116
10.4532
10.3097
10.1613
10.0104
9.8421
9.60394
9.28714
8.98981
8.73614
8.58256
8.48828
8.53681
8.6568
8.86551
9.14032
9.44025
9.62809
9.73912
9.87038
10.0181
10.1728
10.3559
10.6017
10.9041
11.1898
11.9406
11.8513
11.6483
11.432
11.2572
11.1161
10.9843
10.8516
10.7262
10.5756
10.3711
10.081
9.78974
9.5348
9.37937
9.28206
9.33531
9.46023
9.67442
9.95637
10.2303
10.3798
10.4531
10.5278
10.6437
10.7803
10.9515
11.1805
11.4764
11.768
12.3258
12.2451
12.0813
11.9141
11.7765
11.6583
11.5443
11.4368
11.3334
11.2028
11.0269
10.7819
10.5282
10.3061
10.1697
10.0809
10.1357
10.2449
10.4297
10.6809
10.8928
11.0045
11.0498
11.0875
11.1689
11.2798
11.4296
11.6292
11.8968
12.1739
12.593
12.5363
12.4252
12.3144
12.2206
12.1337
12.0491
11.9772
11.9065
11.8123
11.6797
11.4983
11.314
11.1527
11.0487
10.9737
11.0246
11.1098
11.2426
11.4296
11.5632
11.6253
11.6346
11.6407
11.6732
11.7436
11.8573
12.0129
12.2278
12.4656
12.8685
12.848
12.7968
12.7434
12.6978
12.653
12.6157
12.5907
12.5737
12.5436
12.4838
12.3928
12.3236
12.2562
12.2036
12.1813
12.2344
12.2762
12.3066
12.3917
12.4275
12.4207
12.3713
12.3296
12.2992
12.3033
12.3617
12.4562
12.5965
12.7686
13.3161
13.3381
13.3451
13.347
13.3575
13.3713
13.3943
13.4352
13.4949
13.5511
13.5897
13.6015
13.6898
13.8062
13.868
13.9076
13.9549
13.9419
13.8481
13.7951
13.6899
13.5542
13.4192
13.3123
13.1998
13.1144
13.0981
13.1131
13.161
13.2469
14.0879
14.1537
14.2103
14.2539
14.3014
14.3617
14.4397
14.545
14.6812
14.8286
14.9856
15.1617
15.3946
15.6589
15.8183
15.9312
15.9892
15.936
15.7267
15.558
15.3577
15.1288
14.894
14.6743
14.4729
14.2981
14.1924
14.1143
14.0592
14.0477
15.217
15.2773
15.3326
15.3782
15.4394
15.5242
15.6401
15.7931
15.9827
16.2024
16.4533
16.7429
17.1053
17.5148
17.766
17.956
18.0376
17.9587
17.6522
17.3892
17.1099
16.8015
16.4913
16.1981
15.9355
15.7114
15.5368
15.3997
15.2828
15.2051
16.4282
16.437
16.4358
16.4461
16.4861
16.5614
16.6808
16.848
17.0618
17.3214
17.628
17.9841
18.4367
18.9544
19.2738
19.5365
19.6534
19.5618
19.1935
18.8665
18.5468
18.1894
17.8359
17.5074
17.2206
16.9828
16.7919
16.643
16.5336
16.4451
17.2031
17.1162
17.0428
16.9929
16.9814
17.0161
17.1041
17.2497
17.4528
17.7122
18.0283
18.4055
18.8927
19.4611
19.8155
20.1361
20.2959
20.1999
19.8152
19.4635
19.1438
18.7837
18.4239
18.0973
17.8263
17.6149
17.4526
17.3362
17.2692
17.2413
16.842
16.6784
16.531
16.4153
16.3436
16.3275
16.3705
16.4779
16.6528
16.8875
17.1817
17.5581
18.0376
18.5951
18.9394
19.2539
19.4242
19.3387
18.994
18.6722
18.3858
18.0883
17.7616
17.47
17.2398
17.0729
16.952
16.8801
16.8625
16.8862
14.5791
14.4034
14.2407
14.1125
14.0289
14.0006
14.0196
14.1027
14.2549
14.4762
14.7669
15.1278
15.568
16.0611
16.3489
16.5885
16.7195
16.6528
16.3754
16.1143
15.8919
15.6463
15.3707
15.1253
14.9309
14.7912
14.6759
14.5989
14.581
14.6167
8.43135
9.20304
8.29143
6.87993
6.24046
7.06994
8.15474
9.16518
10.0359
10.7489
11.2525
11.5926
11.7298
11.7969
11.739
11.6924
11.579
11.5612
11.5171
11.4366
11.1936
10.8411
10.3086
9.60099
8.68938
7.52589
6.20095
5.25627
6.19292
7.54112
3.98537
4.41132
4.17802
3.71571
3.54575
3.86284
4.2745
4.62323
4.88636
5.06766
5.17332
5.22374
5.22591
5.20854
5.16568
5.11989
5.11606
5.13294
5.12539
5.10387
5.05508
4.98658
4.88002
4.72
4.48207
4.11359
3.64475
3.23659
3.51784
3.95696
3.53441
3.767
3.54093
3.15064
3.00331
3.18892
3.46235
3.71691
3.92314
4.06395
4.13954
4.16416
4.15248
4.11622
4.0587
4.00379
4.01117
4.02985
4.0307
4.01598
3.99067
3.9519
3.88592
3.77711
3.61275
3.37946
3.11295
2.95088
3.21362
3.53418
3.39949
3.50588
3.26779
2.91766
2.75891
2.84357
3.01632
3.20157
3.36687
3.48762
3.55733
3.58136
3.57365
3.53599
3.48075
3.42715
3.43425
3.44424
3.44185
3.42483
3.40309
3.37025
3.31683
3.23221
3.11643
2.97894
2.86127
2.86788
3.14489
3.38032
3.31121
3.3343
3.0832
2.76344
2.58241
2.58459
2.6715
2.78669
2.90051
2.98957
3.04553
3.06715
3.06434
3.03206
2.98625
2.94234
2.94715
2.94825
2.94095
2.92238
2.90391
2.87957
2.84457
2.79333
2.73303
2.68093
2.67673
2.80282
3.08834
3.28353
3.24221
3.20494
2.9407
2.63666
2.43534
2.37251
2.39173
2.44515
2.50757
2.56006
2.59543
2.60907
2.60699
2.58035
2.54574
2.51308
2.51608
2.51184
2.50277
2.4866
2.47493
2.46443
2.45349
2.43955
2.4318
2.44871
2.52925
2.72481
3.01537
3.20832
3.19762
3.11426
2.84052
2.53768
2.32109
2.2117
2.17845
2.1828
2.202
2.22116
2.23488
2.23735
2.23196
2.20814
2.18236
2.15871
2.16105
2.15541
2.14843
2.13827
2.13637
2.142
2.15535
2.17523
2.2114
2.28259
2.41917
2.65544
2.95034
3.15308
3.18761
3.08696
2.80938
2.49487
2.25154
2.11042
2.03667
2.00243
1.98768
1.97979
1.97438
1.96499
1.95373
1.92953
1.90878
1.8909
1.89353
1.88898
1.88686
1.88466
1.89408
1.91561
1.95064
1.99936
2.07056
2.18214
2.35876
2.631
2.9326
3.13811
3.22513
3.12659
2.84827
2.52499
2.25826
2.07449
1.96612
1.90223
1.86004
1.83031
1.8087
1.78798
1.76933
1.74185
1.72254
1.70763
1.7112
1.70912
1.71334
1.72017
1.74119
1.77732
1.83152
1.90509
2.00415
2.15536
2.37739
2.66761
2.97304
3.17614
3.31734
3.21321
2.93657
2.60357
2.31898
2.11255
1.97379
1.87785
1.81171
1.76289
1.72725
1.695
1.66712
1.63408
1.61333
1.59936
1.60434
1.60603
1.61767
1.63411
1.66678
1.71609
1.78897
1.88657
2.02114
2.20006
2.4438
2.74923
3.05846
3.25917
3.46919
3.35685
3.07772
2.73551
2.43148
2.20163
2.039
1.92247
1.83691
1.77126
1.71966
1.67383
1.63462
1.5938
1.56924
1.55461
1.56144
1.56846
1.58884
1.61634
1.66136
1.72753
1.81685
1.93315
2.08747
2.29225
2.55959
2.88006
3.19347
3.40275
3.68849
3.57102
3.28203
2.92812
2.60795
2.35738
2.17289
2.03478
1.92901
1.84533
1.77777
1.71575
1.6631
1.61164
1.58053
1.56345
1.57244
1.58656
1.61722
1.65734
1.71659
1.79692
1.90356
2.03969
2.21419
2.44006
2.72741
3.06367
3.38905
3.61287
3.9855
3.86466
3.56559
3.19748
2.85839
2.58605
2.37873
2.21791
2.09072
1.98705
1.90037
1.81835
1.74866
1.68316
1.64318
1.61811
1.62993
1.65284
1.69674
1.75256
1.82974
1.92816
2.05356
2.2099
2.40561
2.65295
2.96133
3.31631
3.65842
3.89826
4.37351
4.25001
3.93922
3.55391
3.19311
2.89692
2.66475
2.47897
2.32733
2.19983
2.0906
1.9895
1.90411
1.81929
1.7653
1.72346
1.73336
1.76385
1.82482
1.90066
2.00083
2.12252
2.27079
2.45014
2.66911
2.93964
3.27129
3.64902
4.01239
4.2712
4.86676
4.74032
4.41508
4.00898
3.62354
3.30105
3.0414
2.8272
2.64678
2.49086
2.35532
2.23234
2.13038
2.02979
1.96072
1.89046
1.8939
1.92598
2.00257
2.10423
2.23331
2.38429
2.56097
2.76812
3.01424
3.31104
3.66917
4.07416
4.46381
4.74552
5.47583
5.34527
5.00239
4.57219
4.15986
3.80908
3.51923
3.27255
3.05865
2.86931
2.70217
2.55131
2.42689
2.30944
2.2278
2.13357
2.12747
2.15623
2.24636
2.36964
2.53337
2.71942
2.93042
3.17126
3.44975
3.77711
4.16538
4.60209
5.02316
5.33214
6.20016
6.064
5.70185
5.24677
4.80737
4.42769
4.10562
3.82337
3.57183
3.34412
3.13928
2.95384
2.80061
2.65845
2.55927
2.44129
2.42679
2.45917
2.56664
2.71413
2.90931
3.13357
3.38392
3.66374
3.9798
4.34213
4.76342
5.23486
5.69137
6.03149
7.0219
6.87998
6.5012
6.02507
5.56216
5.15552
4.80111
4.48234
4.19079
3.92034
3.6726
3.44659
3.25826
3.08339
2.95903
2.8024
2.77599
2.81431
2.9433
3.12322
3.35929
3.62785
3.92237
4.24459
4.60121
5.00077
5.45582
5.96176
6.45455
6.82743
7.90491
7.76007
7.37227
6.88454
6.40666
5.97869
5.59523
5.24178
4.91049
4.59545
4.30227
4.03189
3.80376
3.5891
3.43217
3.22173
3.18304
3.22712
3.37654
3.59468
3.8787
4.19647
4.53902
4.90461
5.30056
5.73557
6.22181
6.75769
7.28322
7.68706
8.79635
8.6534
8.26904
7.78515
7.3063
6.86711
6.46274
6.08012
5.71235
5.35532
5.01868
4.70442
4.43511
4.1764
3.9815
3.70844
3.65779
3.70557
3.87219
4.12469
4.45901
4.82652
5.21703
5.62353
6.05292
6.51593
7.02515
7.58084
8.13028
8.55986
9.62906
9.49443
9.13027
8.67084
8.20958
7.77466
7.3622
6.96046
6.56467
6.17383
5.80101
5.44867
5.14207
4.84041
4.60626
4.27249
4.21363
4.26197
4.43842
4.71518
5.08912
5.50005
5.93162
6.37137
6.82335
7.29979
7.81633
8.37538
8.93403
9.38062
10.3322
10.2144
9.88967
9.47726
9.05463
8.64356
8.23958
7.83353
7.42454
7.01445
6.61881
6.24032
5.90664
5.57033
5.30232
4.92684
4.86766
4.91412
5.08721
5.36897
5.75888
6.19915
6.6565
7.11384
7.57152
8.04121
8.54207
9.08155
9.62955
10.0807
10.8507
10.7595
10.4912
10.145
9.781
9.4133
9.0356
8.64406
8.2417
7.83231
7.43253
7.04552
6.70213
6.34963
6.06375
5.69109
5.64412
5.68894
5.83483
6.09378
6.46778
6.90956
7.36858
7.8197
8.26058
8.70023
9.15923
9.65171
10.1663
10.6084
11.1634
11.1059
10.9015
10.6314
10.338
10.0265
9.6911
9.33359
8.95955
8.57336
8.19247
7.82001
7.48954
7.14884
6.87309
6.59075
6.55479
6.58935
6.70219
6.90081
7.21682
7.61818
8.04894
8.46427
8.86218
9.24746
9.64173
10.0621
10.5215
10.9457
11.2753
11.251
11.1017
10.9013
10.6774
10.4266
10.1452
9.83749
9.51076
9.17011
8.83228
8.4992
8.20701
7.91144
7.68419
7.52451
7.47779
7.49339
7.58519
7.75115
8.00547
8.30582
8.66238
9.01241
9.34434
9.64998
9.96462
10.3082
10.6908
11.0859
11.1654
11.1645
11.0612
10.9124
10.7399
10.5473
10.3262
10.0789
9.81216
9.53687
9.26325
8.99097
8.76184
8.54334
8.41093
8.29119
8.23193
8.22738
8.28483
8.41092
8.61793
8.86088
9.12756
9.38884
9.64187
9.87146
10.0885
10.3591
10.6793
11.0201
10.7556
10.7527
10.6696
10.557
10.4337
10.3
10.1468
9.97031
9.78107
9.57582
9.38109
9.18644
9.03888
8.91145
8.85277
8.78036
8.71909
8.69272
8.70555
8.7783
8.92382
9.10055
9.28784
9.46956
9.65118
9.81887
9.94337
10.1134
10.3608
10.6536
9.91415
9.88438
9.82279
9.74119
9.66405
9.59596
9.50809
9.40776
9.30267
9.19112
9.08786
8.98352
8.92532
8.89018
8.89584
8.88324
8.83488
8.78809
8.74815
8.75557
8.82616
8.92166
9.02396
9.12269
9.22404
9.31868
9.38307
9.46659
9.6321
9.85895
8.55836
8.50481
8.45842
8.4259
8.4099
8.40293
8.38401
8.36473
8.35036
8.33626
8.33047
8.32674
8.35864
8.41301
8.48158
8.54169
8.51521
8.45151
8.3596
8.29552
8.27386
8.27148
8.27603
8.28265
8.29766
8.31558
8.32164
8.32615
8.3952
8.53718
6.77203
6.732
6.71745
6.73241
6.77672
6.83228
6.88338
6.9416
7.01075
7.08735
7.17286
7.26429
7.37832
7.51386
7.65035
7.79215
7.79447
7.71907
7.57856
7.44008
7.32222
7.21391
7.11374
7.02205
6.94317
6.87461
6.80673
6.7387
6.7194
6.77108
9.49894
10.37
10.0947
9.45803
9.20143
9.712
10.4358
11.3052
12.1924
13.0302
13.6676
14.1707
14.4258
14.6459
14.6131
14.6174
14.4403
14.3931
14.2327
14.0407
13.6335
13.1466
12.5026
11.754
10.903
9.94968
8.89799
7.97874
8.17024
8.67124
4.076
4.42797
4.4606
4.2967
4.24875
4.46938
4.79014
5.12858
5.43632
5.67903
5.83484
5.92162
5.94254
5.93742
5.88145
5.83434
5.81847
5.83636
5.81829
5.78067
5.7004
5.59377
5.44718
5.25334
5.00214
4.67434
4.27924
3.93016
3.91999
4.01635
3.21915
3.38609
3.37109
3.23262
3.20206
3.34384
3.56801
3.81202
4.03874
4.21446
4.32332
4.36888
4.36673
4.32696
4.25974
4.19391
4.1915
4.20393
4.20044
4.17741
4.13739
4.07748
3.98959
3.86426
3.69853
3.49391
3.27488
3.11813
3.14406
3.21418
2.81721
2.88537
2.82936
2.70421
2.66892
2.75097
2.90029
3.07411
3.24402
3.38148
3.47155
3.50969
3.5105
3.47108
3.41269
3.35339
3.35189
3.35073
3.34191
3.31681
3.28398
3.23657
3.17073
3.08095
2.97073
2.84978
2.7427
2.69674
2.75991
2.82035
2.5171
2.5287
2.44484
2.32624
2.27515
2.3073
2.39205
2.50124
2.61458
2.71085
2.77808
2.80888
2.81389
2.78488
2.74354
2.70082
2.69916
2.68959
2.67492
2.64877
2.62034
2.58405
2.53954
2.48462
2.42506
2.37119
2.34228
2.3679
2.46048
2.52441
2.27374
2.24906
2.14541
2.0251
1.95525
1.94852
1.98295
2.03958
2.1042
2.16203
2.20484
2.22537
2.23082
2.21233
2.18775
2.16212
2.16136
2.1495
2.13364
2.11073
2.08895
2.06564
2.04218
2.01823
1.99949
1.99427
2.01753
2.09006
2.20372
2.28037
2.08683
2.03814
1.91856
1.79117
1.70465
1.66781
1.66646
1.68485
1.71302
1.74066
1.76237
1.77228
1.77542
1.76385
1.75163
1.73902
1.74001
1.72998
1.71686
1.69999
1.68637
1.67564
1.66989
1.66962
1.68007
1.70842
1.76649
1.8676
1.99702
2.08904
1.95987
1.89535
1.76229
1.62534
1.52385
1.46517
1.43751
1.4297
1.43272
1.43896
1.44474
1.44563
1.44525
1.4371
1.43231
1.42797
1.43098
1.42432
1.41589
1.40572
1.40019
1.40004
1.40787
1.42469
1.45596
1.50718
1.58843
1.70836
1.85005
1.95613
1.89214
1.81557
1.67092
1.52482
1.40983
1.33391
1.28699
1.26018
1.24595
1.23737
1.23176
1.22537
1.22133
1.21405
1.213
1.21317
1.21791
1.21486
1.21146
1.20757
1.20923
1.21792
1.23622
1.2657
1.31233
1.38011
1.47925
1.61157
1.7628
1.88137
1.87911
1.80575
1.65383
1.48884
1.35538
1.26462
1.20256
1.16083
1.134
1.11447
1.1002
1.08784
1.08014
1.07207
1.07227
1.07436
1.08043
1.08062
1.08208
1.08379
1.09211
1.10835
1.13523
1.17514
1.23483
1.31522
1.43083
1.58392
1.74693
1.86293
1.92116
1.84609
1.69036
1.51497
1.3665
1.25274
1.17329
1.1181
1.08102
1.05239
1.0307
1.01274
1.00122
0.991104
0.99093
0.993134
0.99996
1.0031
1.00915
1.01628
1.031
1.05449
1.08885
1.13909
1.21128
1.31403
1.44843
1.61348
1.78354
1.89877
2.01649
1.93215
1.76631
1.57791
1.41266
1.28454
1.19243
1.12612
1.0761
1.03831
1.00925
0.985343
0.969424
0.956161
0.954354
0.95516
0.962145
0.967922
0.978461
0.991285
1.01294
1.04403
1.0894
1.15092
1.23454
1.34941
1.49977
1.67951
1.85926
1.98647
2.16467
2.07198
1.88906
1.6819
1.4986
1.35531
1.24925
1.1703
1.1101
1.06324
1.02637
0.995936
0.974817
0.957368
0.952608
0.950324
0.956671
0.964831
0.98033
0.999193
1.0282
1.06754
1.12142
1.19358
1.28965
1.41826
1.58525
1.78362
1.98244
2.12619
2.36884
2.26788
2.06616
1.83658
1.6315
1.46921
1.3466
1.25339
1.18116
1.12352
1.07739
1.03902
1.01163
0.988337
0.979705
0.972032
0.976636
0.986565
1.00705
1.03321
1.07124
1.1206
1.18555
1.2702
1.38107
1.52695
1.71423
1.93569
2.1577
2.32028
2.6353
2.5258
2.30268
2.04647
1.8151
1.62954
1.48695
1.37655
1.28939
1.21845
1.16093
1.11274
1.0776
1.04686
1.03307
1.01704
1.0182
1.02908
1.05495
1.08968
1.13894
1.20089
1.27995
1.38036
1.50957
1.67698
1.8894
2.1392
2.38938
2.5743
2.97179
2.85323
2.60562
2.31813
2.05551
1.84192
1.67505
1.54345
1.4376
1.35004
1.27824
1.21772
1.17284
1.13282
1.11249
1.08477
1.07968
1.09066
1.12218
1.16699
1.23021
1.30802
1.40497
1.52544
1.67768
1.87179
2.11514
2.39941
2.68363
2.8954
3.38412
3.25606
2.98106
2.65802
2.35934
2.11286
1.91687
1.75937
1.63038
1.52214
1.43249
1.35649
1.29946
1.24799
1.21958
1.17599
1.16067
1.17085
1.20824
1.26513
1.34536
1.44276
1.56201
1.70757
1.88837
2.11511
2.39565
2.72091
3.04552
3.28916
3.87147
3.73397
3.43012
3.06885
2.73068
2.44721
2.21752
2.02941
1.87262
1.73926
1.6278
1.53289
1.46113
1.39591
1.35783
1.29256
1.26128
1.26925
1.3125
1.38396
1.48486
1.60596
1.75222
1.92807
2.14306
2.40825
2.7318
3.10391
3.47473
3.75503
4.42132
4.27561
3.94414
3.54524
3.16712
2.84485
2.5784
2.35594
2.16736
2.00485
1.86795
1.75097
1.66231
1.58147
1.53252
1.43752
1.38223
1.38566
1.43421
1.52346
1.64875
1.79747
1.97506
2.18567
2.43927
2.74711
3.11748
3.54008
3.96105
4.28147
5.00587
4.85472
4.50067
4.06957
3.65579
3.29676
2.99375
2.73567
2.51313
2.31907
2.15448
2.01362
1.90721
1.8101
1.75031
1.61421
1.52397
1.51966
1.57237
1.68389
1.83623
2.01525
2.22696
2.47467
2.7684
3.1195
3.53628
4.00897
4.48075
4.84233
5.58154
5.42927
5.06196
4.60971
4.17059
3.78253
3.4478
3.1568
2.90161
2.67659
2.48476
2.32071
2.19809
2.08647
2.01827
1.82865
1.69472
1.66983
1.72508
1.86612
2.04576
2.25508
2.50055
2.78395
3.11468
3.50398
3.96025
4.47673
4.99576
5.39642
6.09287
5.94532
5.57781
5.12053
4.67263
4.26957
3.91362
3.59758
3.31582
3.06488
2.8502
2.66738
2.53341
2.41255
2.34214
2.08924
1.90682
1.84741
1.90834
2.07241
2.27515
2.51078
2.78499
3.09735
3.45585
3.87157
4.3522
4.89908
5.45761
5.89191
6.48145
6.3456
5.99262
5.54919
5.11423
4.71569
4.35444
4.02686
3.73003
3.46345
3.23499
3.04211
2.90554
2.78501
2.72326
2.40235
2.16932
2.0628
2.1301
2.30443
2.52112
2.7743
3.06693
3.39547
3.76625
4.19037
4.67809
5.23067
5.80729
6.27624
6.6972
6.58041
6.25306
5.84733
5.44607
5.07422
4.72726
4.4064
4.11113
3.84392
3.61552
3.42553
3.29836
3.19197
3.15435
2.76921
2.48422
2.31922
2.3872
2.55947
2.77778
3.03492
3.33093
3.65819
4.02418
4.43771
4.90667
5.43974
6.00497
6.49282
6.70885
6.61277
6.33456
5.97899
5.63156
5.30321
4.98838
4.69454
4.42102
4.1715
3.96064
3.78913
3.68533
3.60967
3.61487
3.18086
2.83924
2.60852
2.66636
2.82477
3.0319
3.27714
3.5591
3.86881
4.2091
4.58965
5.0263
5.52479
6.0553
6.52737
6.48883
6.41767
6.2006
5.93509
5.65225
5.37214
5.10443
4.85328
4.62034
4.40757
4.23305
4.09598
4.02961
4.0008
4.06878
3.61085
3.20822
2.91053
2.94175
3.07395
3.25622
3.47647
3.72893
4.00318
4.30018
4.64236
5.02458
5.44272
5.89204
6.32494
6.04938
6.00193
5.84648
5.65234
5.44943
5.24787
5.05431
4.86107
4.67838
4.51691
4.39323
4.30499
4.28783
4.32275
4.46218
4.01693
3.56009
3.20041
3.18414
3.27694
3.41989
3.60061
3.80872
4.0391
4.28666
4.5455
4.83602
5.16867
5.54062
5.91563
5.41119
5.37982
5.28253
5.16399
5.04274
4.92208
4.80194
4.68156
4.57081
4.47496
4.41075
4.3791
4.42101
4.53065
4.74535
4.35549
3.86352
3.45384
3.36821
3.40643
3.49672
3.62299
3.77797
3.93773
4.1089
4.2926
4.49674
4.73578
5.01601
5.3118
4.6019
4.588
4.54636
4.49965
4.45585
4.41364
4.37092
4.32871
4.29345
4.26929
4.27193
4.30259
4.40321
4.58985
4.88344
4.59675
4.09708
3.64882
3.48401
3.44704
3.47321
3.52768
3.60836
3.69693
3.78809
3.88856
4.005
4.14779
4.32934
4.53404
3.68632
3.70038
3.71423
3.73247
3.7566
3.78392
3.81231
3.84247
3.87761
3.92185
3.9856
4.07703
4.23688
4.49722
4.86437
4.73369
4.25755
3.78266
3.53371
3.4111
3.35347
3.32662
3.3238
3.33307
3.34529
3.36399
3.39705
3.44976
3.53203
3.64033
10.6233
11.4088
11.3718
11.0035
10.7668
10.9768
11.4315
12.1298
12.9578
13.8536
14.5908
15.2869
15.7095
16.2409
16.3962
16.7833
16.5813
16.533
16.107
15.7264
15.0521
14.3957
13.6254
12.8393
12.0402
11.2613
10.53
9.89091
9.7164
9.75626
4.26859
4.5463
4.64521
4.59635
4.58325
4.73427
4.98927
5.30947
5.64388
5.94075
6.15621
6.30486
6.376
6.42941
6.41458
6.43285
6.39755
6.39011
6.30881
6.21344
6.06711
5.90452
5.71163
5.48726
5.22747
4.93052
4.61457
4.33034
4.20484
4.16107
3.10411
3.22755
3.27608
3.25513
3.27937
3.41079
3.61824
3.86818
4.1247
4.34454
4.50053
4.58521
4.60946
4.58684
4.53539
4.48609
4.46639
4.44825
4.40946
4.35062
4.27446
4.17953
4.06112
3.91142
3.73129
3.52906
3.32735
3.16479
3.09456
3.07222
2.52983
2.58234
2.60058
2.59039
2.61998
2.72112
2.87854
3.06874
3.26685
3.44019
3.56749
3.6333
3.6503
3.61276
3.56126
3.5028
3.48721
3.45746
3.42396
3.37266
3.31516