/*--------------------------------*- C++ -*----------------------------------*\
  =========                 |
  \\      /  F ield         | OpenFOAM: The Open Source CFD Toolbox
   \\    /   O peration     | Website:  https://openfoam.org
    \\  /    A nd           | Version:  12
     \\/     M anipulation  |
\*---------------------------------------------------------------------------*/
FoamFile
{
    format      ascii;
    class       volScalarField;
    location    "50/air";
    object      k;
}
// * * * * * * * * * * * * * * * * * * * * * * * * * * * * * * * * * * * * * //

dimensions      [0 2 -2 0 0 0 0];

internalField   nonuniform List<scalar> 
243000
(
0.10356
0.0898198
0.0657633
0.0434976
0.0289218
0.0419755
0.0557296
0.0690247
0.0821516
0.0931298
0.101939
0.108652
0.113298
0.116491
0.118392
0.119113
0.117246
0.115507
0.112945
0.10923
0.103934
0.0972058
0.0889555
0.0789701
0.0671323
0.055057
0.0419299
0.0296157
0.0514702
0.0808439
0.161173
0.144147
0.105732
0.0629741
0.04855
0.069301
0.0906135
0.110623
0.128435
0.143699
0.156368
0.166616
0.174472
0.18058
0.184853
0.186661
0.184019
0.180041
0.174338
0.167181
0.158347
0.148049
0.136076
0.122156
0.106031
0.0877704
0.0674914
0.0508055
0.0793307
0.129872
0.186622
0.168817
0.124439
0.0760852
0.0674014
0.0911586
0.115015
0.137407
0.156893
0.173673
0.187654
0.198983
0.207699
0.214457
0.219143
0.220952
0.218364
0.213938
0.207467
0.199351
0.189448
0.177941
0.164603
0.149111
0.131217
0.110565
0.0878445
0.0705988
0.0952596
0.151212
0.201533
0.183897
0.138441
0.090925
0.0846283
0.106816
0.129385
0.151566
0.171324
0.188649
0.203294
0.215298
0.224595
0.231826
0.236838
0.238735
0.236279
0.231572
0.224562
0.215807
0.205247
0.193158
0.179336
0.163461
0.145397
0.125088
0.103806
0.0900868
0.1146
0.16608
0.212514
0.19625
0.154108
0.108953
0.101923
0.120269
0.140607
0.162028
0.18166
0.199372
0.214633
0.227331
0.237223
0.244937
0.250267
0.252284
0.24998
0.245041
0.237532
0.228154
0.216928
0.204326
0.190197
0.174294
0.156687
0.137748
0.119118
0.110773
0.137274
0.180308
0.222283
0.207742
0.170297
0.12936
0.119964
0.133785
0.151999
0.172012
0.191133
0.209013
0.224745
0.238036
0.248428
0.256543
0.262122
0.264248
0.262116
0.257059
0.249171
0.23929
0.227495
0.214506
0.200258
0.184655
0.168036
0.151524
0.135935
0.132964
0.158859
0.193846
0.231623
0.218794
0.186217
0.152056
0.139223
0.148874
0.164645
0.182874
0.201164
0.218968
0.234987
0.248723
0.25949
0.26792
0.273678
0.275896
0.273936
0.268886
0.260751
0.25052
0.238286
0.225041
0.210834
0.195788
0.180497
0.166585
0.15589
0.157448
0.17864
0.206669
0.24095
0.229681
0.201361
0.173927
0.160087
0.166088
0.178602
0.195022
0.212351
0.229894
0.246046
0.260097
0.271148
0.279841
0.285732
0.288045
0.286243
0.281314
0.273044
0.2626
0.250035
0.236607
0.222513
0.208123
0.194221
0.182649
0.176024
0.179648
0.196358
0.218972
0.250651
0.240807
0.21608
0.193159
0.181379
0.183708
0.193728
0.208572
0.225002
0.242209
0.258388
0.272668
0.283957
0.292921
0.298926
0.301367
0.299708
0.294993
0.28669
0.276141
0.263308
0.249695
0.235675
0.22187
0.20916
0.199375
0.194987
0.199026
0.212701
0.23118
0.261145
0.252638
0.230877
0.211176
0.200841
0.201553
0.209998
0.223656
0.239386
0.256277
0.272421
0.286883
0.298403
0.307711
0.313853
0.316491
0.314972
0.31052
0.302307
0.291749
0.278672
0.264811
0.250717
0.237261
0.225355
0.21671
0.213426
0.217243
0.228588
0.243887
0.272913
0.265587
0.246334
0.229091
0.219925
0.220007
0.227591
0.240523
0.25584
0.272522
0.288594
0.303217
0.315012
0.324802
0.331134
0.33407
0.332708
0.328548
0.320521
0.310089
0.296784
0.282584
0.26815
0.254661
0.243058
0.234919
0.231988
0.235308
0.244791
0.257552
0.286515
0.280195
0.263058
0.247737
0.239594
0.239611
0.246938
0.259641
0.274911
0.291561
0.307596
0.322432
0.334542
0.344792
0.351202
0.354361
0.353182
0.349308
0.341584
0.331679
0.318522
0.30394
0.288749
0.274712
0.262804
0.254546
0.251403
0.254066
0.262039
0.272773
0.302677
0.297169
0.281763
0.267921
0.260732
0.261134
0.268832
0.281925
0.297714
0.314525
0.330192
0.344691
0.356688
0.36705
0.373429
0.376777
0.375818
0.372267
0.364943
0.355805
0.343466
0.329321
0.313834
0.298634
0.285578
0.27647
0.272563
0.274425
0.281167
0.290316
0.322467
0.31751
0.303458
0.290734
0.284541
0.285921
0.294965
0.309033
0.32478
0.340864
0.355488
0.369209
0.380822
0.391129
0.397436
0.400987
0.400292
0.39714
0.390291
0.381979
0.370896
0.357755
0.342765
0.327431
0.313262
0.302299
0.296801
0.297635
0.303351
0.311294
0.347637
0.342861
0.329942
0.318238
0.313416
0.316169
0.325747
0.339505
0.354439
0.369264
0.382701
0.395434
0.406488
0.416626
0.422862
0.426647
0.426277
0.4236
0.417289
0.409871
0.400171
0.388386
0.374286
0.359378
0.345122
0.333458
0.326544
0.325918
0.330667
0.337603
0.379022
0.37384
0.36152
0.350463
0.346275
0.349422
0.358788
0.371633
0.38519
0.398631
0.410868
0.422569
0.433024
0.442953
0.449178
0.453243
0.453252
0.451109
0.445364
0.438861
0.430468
0.420136
0.407056
0.392906
0.379121
0.367496
0.360193
0.359166
0.363717
0.370402
0.413142
0.407069
0.394903
0.384218
0.380339
0.383445
0.392144
0.403672
0.415675
0.427764
0.438791
0.449513
0.459446
0.469267
0.475602
0.48004
0.480475
0.478855
0.473611
0.46794
0.460675
0.451637
0.439555
0.426363
0.413449
0.40235
0.395178
0.394239
0.399021
0.405939
0.447039
0.439912
0.427625
0.417242
0.413472
0.416164
0.423797
0.433763
0.444375
0.455187
0.465122
0.475025
0.484613
0.494569
0.501214
0.506171
0.507061
0.505857
0.500915
0.495851
0.489437
0.481338
0.47021
0.457978
0.446106
0.43587
0.429238
0.42872
0.433979
0.441322
0.477955
0.469841
0.457383
0.447285
0.44343
0.445333
0.45155
0.460025
0.469417
0.479169
0.48839
0.497871
0.507488
0.51797
0.525204
0.530853
0.532202
0.531194
0.526174
0.521317
0.515292
0.507575
0.497274
0.485802
0.474916
0.465766
0.460064
0.460184
0.466046
0.473871
0.503186
0.494213
0.481698
0.471865
0.467711
0.468509
0.473279
0.480435
0.488869
0.498055
0.507267
0.517084
0.527416
0.539019
0.547222
0.553745
0.555522
0.554354
0.548655
0.543331
0.53693
0.528884
0.518847
0.507832
0.497758
0.489754
0.485259
0.486086
0.492492
0.500717
0.520007
0.510319
0.497852
0.488241
0.483622
0.483301
0.486957
0.49341
0.501664
0.511306
0.521533
0.532717
0.544748
0.558243
0.567849
0.575411
0.577548
0.575707
0.568442
0.561633
0.553762
0.544428
0.533637
0.5226
0.51282
0.505649
0.502344
0.503905
0.510648
0.519065
0.526134
0.515632
0.503044
0.493513
0.488645
0.488049
0.49192
0.499298
0.509201
0.521129
0.533858
0.547561
0.562337
0.57835
0.589631
0.598144
0.600488
0.597372
0.587539
0.578004
0.567405
0.555513
0.54259
0.530088
0.51933
0.511932
0.509115
0.51118
0.517995
0.526562
0.519898
0.508657
0.49581
0.486252
0.482967
0.485415
0.493109
0.504648
0.519116
0.535619
0.552234
0.569169
0.587239
0.605635
0.618327
0.626952
0.629221
0.624234
0.610989
0.597634
0.583191
0.567402
0.550599
0.534213
0.51973
0.509288
0.504924
0.506364
0.512906
0.521305
0.502281
0.491386
0.479996
0.475091
0.482694
0.495832
0.512333
0.530687
0.549691
0.568812
0.587606
0.606599
0.626977
0.647666
0.661585
0.670195
0.671875
0.664648
0.647925
0.630525
0.612113
0.592057
0.570495
0.548307
0.526572
0.508539
0.497183
0.49348
0.496546
0.503151
0.494623
0.494145
0.49595
0.503804
0.518444
0.536097
0.555297
0.575088
0.594814
0.614282
0.633589
0.653446
0.675087
0.69743
0.712127
0.721411
0.723704
0.716376
0.698371
0.679556
0.65998
0.63894
0.616374
0.592778
0.568727
0.545336
0.52382
0.505787
0.494726
0.491033
0.541153
0.545533
0.553673
0.56563
0.580711
0.597103
0.614213
0.631627
0.649097
0.666712
0.684776
0.704083
0.725855
0.749045
0.763988
0.774082
0.777497
0.771062
0.753004
0.734296
0.71537
0.695547
0.674651
0.652925
0.630694
0.608428
0.586534
0.565542
0.547917
0.537867
0.618333
0.623749
0.632207
0.642325
0.653488
0.665205
0.677483
0.690342
0.703797
0.718114
0.733699
0.751378
0.772309
0.795532
0.810288
0.82125
0.826166
0.821211
0.804002
0.786499
0.769506
0.752397
0.734898
0.717088
0.699156
0.681298
0.663549
0.645853
0.629543
0.617515
0.701122
0.704422
0.709331
0.714665
0.720256
0.7263
0.733094
0.740897
0.749894
0.760464
0.773057
0.788538
0.807871
0.830434
0.844824
0.856628
0.863283
0.860065
0.844332
0.828818
0.814555
0.800889
0.787471
0.77426
0.761353
0.748832
0.736564
0.724271
0.71247
0.702363
0.770853
0.770613
0.770743
0.770899
0.77121
0.772135
0.77404
0.777289
0.782184
0.789184
0.798762
0.81177
0.828889
0.85023
0.864168
0.876639
0.885119
0.883592
0.869794
0.856895
0.845826
0.835812
0.826461
0.817652
0.809398
0.801721
0.794416
0.787186
0.78013
0.773313
0.820051
0.816216
0.812151
0.808063
0.804215
0.801105
0.799095
0.798569
0.799956
0.803772
0.810474
0.820811
0.83545
0.854803
0.868219
0.881161
0.891244
0.89137
0.879671
0.870006
0.862376
0.855911
0.850283
0.845325
0.840944
0.837123
0.833624
0.830199
0.826856
0.823205
0.124544
0.126792
0.106548
0.0791548
0.0596674
0.0711457
0.082703
0.0911778
0.0980108
0.103785
0.107886
0.110608
0.111863
0.112233
0.112087
0.111534
0.110401
0.109902
0.109643
0.108975
0.107414
0.105112
0.101686
0.096862
0.0903991
0.0809606
0.0676059
0.0589569
0.083954
0.111978
0.222695
0.239937
0.21389
0.165719
0.140791
0.153629
0.168073
0.177906
0.184859
0.189352
0.192466
0.194887
0.196312
0.197602
0.198545
0.199188
0.198886
0.198248
0.1968
0.194857
0.192184
0.189523
0.186367
0.181924
0.17499
0.163649
0.14631
0.136366
0.178536
0.216712
0.273451
0.289967
0.265011
0.219425
0.196605
0.207144
0.220861
0.231855
0.239695
0.245033
0.248206
0.250291
0.251231
0.251952
0.252203
0.252564
0.252987
0.253412
0.252661
0.250992
0.248463
0.24568
0.241788
0.236031
0.227519
0.215375
0.199725
0.194234
0.231868
0.266293
0.306199
0.319356
0.299018
0.262682
0.241065
0.246529
0.257204
0.26751
0.275972
0.282006
0.285428
0.287574
0.288453
0.288846
0.288626
0.288943
0.289845
0.290883
0.290509
0.288833
0.286167
0.283033
0.27825
0.27116
0.262083
0.25128
0.240898
0.243441
0.273989
0.297392
0.332313
0.342305
0.326757
0.299121
0.2789
0.278853
0.285439
0.294264
0.302672
0.309061
0.312801
0.315437
0.316881
0.317474
0.317323
0.317608
0.318672
0.319773
0.319256
0.317085
0.313891
0.310283
0.304741
0.296948
0.288099
0.280323
0.276506
0.285697
0.308836
0.322985
0.355406
0.363249
0.351415
0.329014
0.311162
0.306845
0.3102
0.317452
0.325211
0.331567
0.335523
0.338746
0.341042
0.342116
0.342259
0.342632
0.3435
0.344268
0.343313
0.340487
0.336748
0.33282
0.326909
0.319152
0.31137
0.306557
0.307794
0.319784
0.337787
0.346241
0.377269
0.383805
0.3745
0.355459
0.339224
0.332953
0.334333
0.340268
0.347231
0.353391
0.35763
0.361392
0.364611
0.366266
0.36678
0.367028
0.367479
0.367612
0.366101
0.362706
0.358682
0.354562
0.348575
0.341294
0.334827
0.33245
0.336327
0.348731
0.363109
0.368514
0.399408
0.405138
0.397568
0.381037
0.366207
0.359376
0.35974
0.364756
0.37116
0.37725
0.38215
0.386532
0.390779
0.393063
0.394001
0.393811
0.393531
0.392669
0.390503
0.386643
0.38258
0.378233
0.37229
0.365526
0.360166
0.359293
0.364242
0.375775
0.387312
0.391088
0.423381
0.428687
0.422448
0.408037
0.39474
0.388113
0.388102
0.392629
0.398845
0.405161
0.411132
0.416785
0.422515
0.425203
0.426193
0.425463
0.424645
0.422292
0.419263
0.414788
0.410552
0.405716
0.399808
0.393471
0.388798
0.388453
0.393443
0.403488
0.41272
0.41558
0.450866
0.456076
0.451067
0.43863
0.427077
0.421139
0.421194
0.425595
0.431913
0.438702
0.445932
0.453624
0.459846
0.462909
0.463978
0.462911
0.461774
0.458712
0.45497
0.449169
0.443985
0.43853
0.432563
0.426448
0.421949
0.421459
0.42582
0.434076
0.441396
0.443709
0.483605
0.489048
0.485278
0.474837
0.465258
0.460309
0.46077
0.465248
0.471711
0.478946
0.486933
0.49478
0.500798
0.50382
0.50488
0.503779
0.502848
0.49986
0.496163
0.490294
0.483737
0.477738
0.471699
0.465629
0.460972
0.459884
0.463183
0.469604
0.475257
0.477133
0.523325
0.529288
0.526815
0.518467
0.51089
0.507084
0.508176
0.512743
0.519093
0.526224
0.533785
0.540608
0.545775
0.548189
0.548924
0.547514
0.546658
0.543831
0.540621
0.53559
0.529561
0.523671
0.517886
0.511942
0.507054
0.505131
0.507178
0.511893
0.51605
0.51747
0.571571
0.578105
0.57696
0.570631
0.564809
0.562172
0.563894
0.568316
0.573981
0.580058
0.586204
0.591364
0.595291
0.596762
0.596937
0.595051
0.594223
0.591723
0.589327
0.585616
0.581083
0.576125
0.570964
0.565592
0.560757
0.558021
0.558867
0.56213
0.565112
0.566194
0.629048
0.63596
0.635798
0.63103
0.626587
0.624908
0.626899
0.630728
0.63537
0.639977
0.644447
0.647523
0.649827
0.649998
0.649398
0.646913
0.646088
0.644131
0.64282
0.640774
0.638346
0.635021
0.630791
0.625962
0.621336
0.618165
0.61818
0.620437
0.62278
0.623951
0.694478
0.701387
0.70139
0.697256
0.693486
0.692532
0.694908
0.698264
0.701801
0.705055
0.708226
0.708885
0.709167
0.707727
0.706144
0.703011
0.702246
0.701108
0.70118
0.701093
0.701112
0.699701
0.696531
0.692297
0.687713
0.683975
0.683325
0.685184
0.687528
0.689363
0.764801
0.771037
0.770062
0.765614
0.762485
0.762792
0.765976
0.769006
0.77161
0.77407
0.776184
0.774353
0.772323
0.7689
0.766178
0.76238
0.761765
0.761794
0.763589
0.765703
0.768255
0.768196
0.765646
0.76221
0.757884
0.753764
0.752319
0.753817
0.75648
0.759263
0.836645
0.84101
0.838061
0.833097
0.83084
0.832454
0.836835
0.840368
0.8427
0.845318
0.846062
0.841914
0.837396
0.831751
0.827744
0.82318
0.822775
0.824148
0.827971
0.832476
0.837493
0.837927
0.834163
0.831116
0.827172
0.822894
0.820682
0.822061
0.825739
0.83028
0.903938
0.905529
0.90166
0.897058
0.895758
0.898496
0.903634
0.908442
0.911999
0.915144
0.914815
0.908787
0.901822
0.893974
0.888617
0.88314
0.882873
0.885504
0.891398
0.898285
0.905357
0.90553
0.899948
0.896081
0.891917
0.886877
0.88397
0.885281
0.89001
0.896316
0.961937
0.961916
0.957999
0.954272
0.953929
0.957465
0.963036
0.968828
0.974635
0.979089
0.978532
0.971573
0.962702
0.953044
0.946485
0.940039
0.939731
0.943271
0.950864
0.95972
0.967545
0.967063
0.960082
0.953453
0.947613
0.942224
0.939348
0.940875
0.94663
0.954318
1.00796
1.00718
1.00374
1.00126
1.00194
1.00604
1.01193
1.01851
1.02576
1.03099
1.03198
1.02608
1.01684
1.00634
0.999122
0.991925
0.991377
0.995195
1.00357
1.01332
1.02009
1.01785
1.00906
0.999278
0.992168
0.986616
0.984064
0.985772
0.992252
1.00092
1.03985
1.03886
1.03643
1.03549
1.03734
1.04199
1.04834
1.05614
1.06435
1.07031
1.0723
1.06812
1.05997
1.05042
1.04374
1.03667
1.03584
1.03886
1.04623
1.05497
1.05893
1.05505
1.04511
1.03354
1.02498
1.01892
1.01643
1.01806
1.0246
1.03361
1.05765
1.05694
1.05591
1.05676
1.05995
1.06541
1.07281
1.08225
1.09193
1.09952
1.10335
1.10181
1.09644
1.08942
1.08419
1.07795
1.07677
1.07865
1.08393
1.08987
1.09013
1.08369
1.07198
1.0591
1.04822
1.04066
1.03736
1.03833
1.04399
1.05244
1.0649
1.06477
1.0653
1.06812
1.07266
1.07948
1.08891
1.10058
1.11292
1.1238
1.13137
1.1342
1.13424
1.13178
1.12947
1.12706
1.12619
1.1259
1.12634
1.12734
1.12242
1.11197
1.09695
1.08169
1.0677
1.0569
1.05131
1.05052
1.0542
1.06103
1.06804
1.06848
1.07063
1.07523
1.08147
1.09062
1.1028
1.11783
1.13455
1.1508
1.16425
1.1728
1.18093
1.1878
1.19199
1.19384
1.19308
1.19015
1.18484
1.17877
1.16579
1.14772
1.12755
1.1086
1.09037
1.07492
1.06544
1.06122
1.06183
1.06586
1.07436
1.07551
1.07897
1.08543
1.09494
1.10794
1.12432
1.14407
1.16629
1.18884
1.20985
1.22798
1.24386
1.25833
1.26825
1.2742
1.27362
1.2679
1.25662
1.24382
1.22441
1.19974
1.17267
1.14627
1.12194
1.10095
1.08655
1.07761
1.07381
1.07412
1.09134
1.09479
1.10059
1.10938
1.12202
1.13859
1.159
1.18316
1.2101
1.23828
1.26588
1.29122
1.31446
1.33657
1.35201
1.36183
1.36188
1.35398
1.33737
1.31879
1.29374
1.26314
1.23017
1.19786
1.16815
1.14233
1.12192
1.10717
1.09738
1.09213
1.12708
1.1316
1.13807
1.14811
1.16247
1.18104
1.20373
1.2305
1.26046
1.29237
1.32435
1.35443
1.3833
1.41156
1.43143
1.44501
1.44637
1.43734
1.41695
1.39417
1.36566
1.331
1.29406
1.25784
1.22452
1.19531
1.17084
1.15177
1.13822
1.12866
1.17656
1.18005
1.18652
1.19649
1.21063
1.22897
1.25131
1.27787
1.30802
1.34058
1.37374
1.40576
1.4376
1.46967
1.49246
1.50973
1.5132
1.5044
1.4823
1.45758
1.42829
1.3926
1.3544
1.31703
1.28285
1.25276
1.22666
1.20545
1.18974
1.17874
1.23247
1.23501
1.23987
1.2477
1.25906
1.27432
1.2931
1.31617
1.3432
1.3729
1.40379
1.43537
1.4676
1.5008
1.52465
1.54365
1.54901
1.54196
1.52158
1.49838
1.47139
1.4396
1.40397
1.3691
1.33744
1.30958
1.28448
1.2633
1.24716
1.23537
1.29157
1.2916
1.29283
1.29611
1.30206
1.31129
1.32278
1.33835
1.35828
1.38202
1.40866
1.43705
1.46697
1.4986
1.5214
1.53978
1.5468
1.54289
1.52704
1.50873
1.48824
1.46327
1.43473
1.40705
1.38203
1.36014
1.33898
1.31998
1.30523
1.2949
0.133781
0.138842
0.126488
0.109061
0.0994385
0.105523
0.113547
0.120357
0.125605
0.129433
0.131654
0.132835
0.132773
0.132568
0.131762
0.131487
0.131003
0.13161
0.132371
0.133208
0.133063
0.132292
0.130185
0.126588
0.12095
0.112353
0.101054
0.0927628
0.106104
0.124164
0.248949
0.266084
0.257794
0.239261
0.226691
0.232237
0.238214
0.242608
0.245667
0.247621
0.248214
0.248453
0.248166
0.248978
0.249489
0.251057
0.252102
0.253227
0.252826
0.252366
0.251204
0.250323
0.248903
0.246854
0.243485
0.237172
0.224001
0.213768
0.231419
0.245858
0.31193
0.328823
0.322499
0.305985
0.293859
0.295393
0.299969
0.304818
0.309085
0.312238
0.313656
0.314285
0.314282
0.315144
0.315374
0.316674
0.318281
0.319933
0.319536
0.318458
0.316634
0.314867
0.312449
0.309275
0.305019
0.299129
0.290681
0.286435
0.298833
0.308529
0.354023
0.368483
0.364337
0.350693
0.339205
0.337532
0.339838
0.343784
0.348058
0.351672
0.353761
0.354942
0.355493
0.356612
0.35704
0.358237
0.360091
0.361744
0.36104
0.359279
0.356788
0.354209
0.35109
0.347506
0.343635
0.339781
0.336202
0.337515
0.346406
0.350478
0.385355
0.397224
0.394479
0.3833
0.372421
0.368221
0.36802
0.370253
0.37351
0.376695
0.37893
0.380489
0.381613
0.383156
0.38403
0.385456
0.38739
0.388783
0.38763
0.385269
0.382282
0.379273
0.376096
0.373025
0.370579
0.36945
0.37023
0.374975
0.381832
0.382204
0.410238
0.419788
0.417527
0.407758
0.397286
0.391314
0.389159
0.389546
0.391364
0.393597
0.395484
0.397092
0.398596
0.400502
0.401922
0.403703
0.405644
0.406743
0.405255
0.402546
0.399393
0.396436
0.393776
0.391789
0.391129
0.392446
0.396189
0.402812
0.408683
0.407505
0.431467
0.438889
0.436375
0.427124
0.416776
0.409695
0.406127
0.405048
0.405479
0.406652
0.407948
0.40934
0.410971
0.413046
0.414921
0.417019
0.418957
0.41984
0.418267
0.415524
0.412535
0.409997
0.408133
0.407353
0.408231
0.411365
0.416949
0.424455
0.429972
0.428938
0.451183
0.456598
0.453373
0.444009
0.433557
0.425759
0.421198
0.419029
0.418394
0.41863
0.419307
0.420349
0.421892
0.423894
0.426029
0.428332
0.430276
0.431042
0.429629
0.42713
0.42456
0.422634
0.421615
0.421862
0.423905
0.428297
0.43498
0.442945
0.448557
0.44855
0.471182
0.474784
0.470624
0.460719
0.449921
0.441548
0.436244
0.43326
0.43183
0.431352
0.431475
0.432112
0.433391
0.435071
0.437221
0.439613
0.4416
0.44234
0.441282
0.439224
0.437249
0.436016
0.435789
0.436852
0.439767
0.44502
0.452444
0.460853
0.466966
0.468176
0.493027
0.495149
0.489955
0.479247
0.46786
0.458856
0.452891
0.449242
0.447183
0.446139
0.445792
0.44595
0.446751
0.447845
0.44975
0.452141
0.454233
0.455091
0.454573
0.453096
0.451833
0.451341
0.451827
0.453608
0.457223
0.46316
0.471266
0.480248
0.48714
0.489603
0.518084
0.519049
0.512787
0.501133
0.488993
0.479273
0.47262
0.468343
0.465717
0.46416
0.463309
0.462772
0.462815
0.463028
0.464398
0.466704
0.46899
0.470192
0.470446
0.469759
0.469332
0.469609
0.470825
0.4733
0.477582
0.48417
0.492961
0.502678
0.510542
0.514232
0.547613
0.547682
0.540344
0.527677
0.514648
0.504121
0.496767
0.491857
0.488643
0.486505
0.484982
0.48338
0.482342
0.481266
0.481707
0.483782
0.48635
0.488207
0.48955
0.489975
0.490626
0.491796
0.493833
0.497029
0.501959
0.509211
0.518785
0.529416
0.538384
0.543308
0.582838
0.58219
0.573758
0.560048
0.546068
0.534702
0.526621
0.521028
0.517131
0.514242
0.511803
0.508725
0.506185
0.503481
0.502688
0.503666
0.506618
0.509495
0.51239
0.514347
0.516481
0.518832
0.521837
0.525833
0.531459
0.539411
0.549859
0.561569
0.571776
0.577996
0.624965
0.623687
0.614161
0.599401
0.584461
0.572263
0.563434
0.557082
0.552352
0.548484
0.544939
0.540867
0.537338
0.532438
0.529794
0.528234
0.530698
0.534378
0.539373
0.543433
0.547599
0.551584
0.555833
0.560797
0.567211
0.575909
0.5873
0.600221
0.611815
0.619434
0.675065
0.67322
0.662592
0.646783
0.630926
0.617947
0.608373
0.601166
0.595406
0.590326
0.585547
0.580506
0.57623
0.570125
0.565764
0.559862
0.560998
0.564351
0.570976
0.577852
0.584651
0.590795
0.596683
0.602898
0.610275
0.619793
0.63217
0.646404
0.659531
0.668657
0.733898
0.731522
0.719801
0.702977
0.686317
0.672671
0.662383
0.654199
0.647212
0.640675
0.634383
0.627966
0.622448
0.615409
0.610053
0.600892
0.600132
0.602187
0.609754
0.618393
0.628289
0.637031
0.644979
0.652819
0.661432
0.671912
0.685306
0.700918
0.715692
0.726429
0.801544
0.798652
0.785926
0.768244
0.750982
0.73685
0.725887
0.716672
0.708294
0.700056
0.691878
0.683583
0.676295
0.667555
0.660745
0.648756
0.646244
0.648054
0.656828
0.667168
0.679178
0.690526
0.700865
0.710675
0.720845
0.7325
0.746941
0.76394
0.780436
0.792872
0.876863
0.873527
0.86008
0.841895
0.824388
0.810028
0.798493
0.788299
0.778473
0.768314
0.757934
0.747308
0.7377
0.726463
0.71734
0.700635
0.695827
0.697766
0.7082
0.72115
0.736233
0.750673
0.76377
0.775813
0.787773
0.800781
0.816288
0.834591
0.85278
0.86693
0.957214
0.95365
0.939977
0.921892
0.904702
0.890503
0.878643
0.867651
0.856463
0.844332
0.831625
0.81838
0.806021
0.791551
0.779255
0.75596
0.748776
0.75085
0.762702
0.778891
0.797811
0.815836
0.832064
0.846515
0.860297
0.874684
0.891237
0.910645
0.930355
0.94613
1.03834
1.03486
1.02168
1.00458
0.988513
0.975036
0.963349
0.951915
0.939611
0.925762
0.910924
0.895099
0.879802
0.861604
0.845476
0.814625
0.805055
0.807012
0.819858
0.838745
0.861781
0.8835
0.902967
0.919828
0.935221
0.950739
0.968099
0.988223
1.0091
1.0263
1.1144
1.1114
1.09969
1.08476
1.07085
1.05895
1.04817
1.0369
1.02406
1.00912
0.992718
0.974738
0.956722
0.934765
0.914572
0.876572
0.865075
0.866536
0.879538
0.899952
0.92591
0.950747
0.972953
0.991826
1.00832
1.02428
1.04178
1.06193
1.08333
1.10164
1.17873
1.17683
1.16778
1.15636
1.14581
1.1366
1.12769
1.1175
1.10512
1.09013
1.07316
1.0539
1.03387
1.00876
0.984972
0.942251
0.929875
0.930565
0.942309
0.962138
0.98846
1.01501
1.03864
1.05839
1.075
1.09026
1.10669
1.12574
1.14668
1.16551
1.22556
1.22558
1.22041
1.21376
1.20778
1.20244
1.19646
1.18853
1.17795
1.1643
1.14807
1.1288
1.10805
1.08139
1.05554
1.01334
1.00179
1.00174
1.00976
1.02608
1.04942
1.07485
1.09767
1.11636
1.13146
1.14452
1.15824
1.17458
1.19374
1.21226
1.25202
1.25484
1.25434
1.25326
1.2527
1.25199
1.24992
1.24552
1.23815
1.22733
1.21346
1.19587
1.17614
1.15037
1.12535
1.09318
1.08283
1.08106
1.08497
1.09402
1.11016
1.13035
1.14953
1.16453
1.17596
1.18495
1.19424
1.206
1.22195
1.23932
1.25932
1.26496
1.26924
1.27361
1.27845
1.28267
1.2852
1.28524
1.2822
1.2756
1.26565
1.2515
1.23483
1.21297
1.19284
1.17416
1.16337
1.15905
1.16038
1.16507
1.1737
1.18309
1.19441
1.20303
1.20866
1.2114
1.21453
1.22063
1.23191
1.24813
1.25059
1.25853
1.26642
1.27515
1.28444
1.2933
1.30062
1.30551
1.30734
1.30585
1.30102
1.29178
1.2802
1.26521
1.25463
1.24168
1.23059
1.22404
1.22199
1.22245
1.22577
1.22873
1.23113
1.23148
1.23012
1.22616
1.22141
1.22155
1.22815
1.24096
1.22826
1.2375
1.24764
1.25887
1.27106
1.28352
1.2949
1.30412
1.31111
1.31511
1.31605
1.31275
1.30769
1.30092
1.29822
1.29133
1.28121
1.27312
1.26716
1.26291
1.26086
1.25786
1.25327
1.24664
1.23867
1.22928
1.21832
1.2113
1.21194
1.22072
1.19219
1.20059
1.21193
1.22421
1.23813
1.25349
1.26753
1.2803
1.29163
1.30076
1.30747
1.31057
1.31262
1.31417
1.31888
1.3192
1.31194
1.30315
1.2932
1.28394
1.27597
1.26693
1.25635
1.24407
1.23125
1.21752
1.20252
1.18968
1.18417
1.18741
1.14303
1.14901
1.15927
1.17233
1.18756
1.20381
1.2191
1.23402
1.24855
1.26191
1.27377
1.28318
1.29226
1.30189
1.31414
1.32343
1.32056
1.31215
1.29867
1.28433
1.27037
1.25544
1.23943
1.22257
1.2057
1.1888
1.1715
1.15452
1.14357
1.14114
1.08523
1.08861
1.09663
1.10824
1.12291
1.1386
1.15363
1.16902
1.18503
1.20109
1.21683
1.23172
1.24718
1.26465
1.28507
1.30498
1.30789
1.30091
1.28477
1.26567
1.24588
1.22505
1.20393
1.18303
1.16297
1.1438
1.12478
1.10577
1.0919
1.08598
0.144944
0.150226
0.144089
0.134823
0.129159
0.130794
0.13426
0.138813
0.143392
0.147559
0.150316
0.152342
0.152927
0.153711
0.153109
0.153267
0.152478
0.153021
0.153122
0.153377
0.152352
0.15098
0.148555
0.14533
0.141149
0.135781
0.128944
0.122794
0.127855
0.13637
0.272431
0.285542
0.285394
0.278469
0.270802
0.269134
0.269519
0.271458
0.27403
0.276719
0.27834
0.280013
0.280937
0.283454
0.284792
0.287355
0.288155
0.289149
0.28764
0.286152
0.283623
0.281726
0.279745
0.278043
0.276276
0.273742
0.268891
0.263893
0.266299
0.268715
0.339259
0.351243
0.351435
0.344388
0.336119
0.332916
0.332419
0.33417
0.337123
0.340414
0.34273
0.344858
0.346303
0.34896
0.35053
0.352707
0.353882
0.35479
0.35298
0.350678
0.347568
0.345015
0.342541
0.340472
0.338708
0.337079
0.334792
0.333234
0.335226
0.335772
0.381718
0.391103
0.391181
0.384713
0.37667
0.372161
0.370415
0.37107
0.373337
0.376292
0.378707
0.381011
0.382893
0.385665
0.38762
0.389762
0.391156
0.391709
0.389563
0.386706
0.383285
0.380441
0.377998
0.376342
0.375566
0.375734
0.376334
0.377715
0.379657
0.378619
0.410429
0.417366
0.417108
0.411228
0.403466
0.397839
0.394699
0.39381
0.394662
0.396517
0.398378
0.400435
0.402498
0.405378
0.407839
0.410303
0.411883
0.412162
0.409827
0.406758
0.403352
0.40068
0.39884
0.398235
0.399008
0.401146
0.404155
0.407527
0.409696
0.407991
0.430569
0.435509
0.434661
0.428975
0.4213
0.414824
0.410443
0.408099
0.407406
0.407874
0.408799
0.41026
0.412193
0.415044
0.417966
0.420881
0.42265
0.422852
0.420618
0.41771
0.414671
0.412562
0.41167
0.412301
0.414552
0.41834
0.423026
0.427619
0.430167
0.428719
0.445751
0.449042
0.447398
0.441487
0.433673
0.426564
0.421221
0.417701
0.415726
0.414932
0.414855
0.41557
0.417142
0.419785
0.422995
0.426289
0.428238
0.428539
0.426686
0.424221
0.421799
0.420463
0.420554
0.422263
0.425689
0.430657
0.436425
0.44179
0.444826
0.444207
0.458656
0.460533
0.45796
0.451497
0.443335
0.435697
0.429629
0.425236
0.422293
0.420507
0.419581
0.419558
0.420654
0.422928
0.426247
0.429746
0.431839
0.432343
0.431046
0.429178
0.427501
0.426985
0.42791
0.430487
0.434773
0.440559
0.447066
0.45304
0.456702
0.457109
0.471263
0.471908
0.468308
0.461043
0.452338
0.444174
0.437509
0.432454
0.428791
0.426253
0.424636
0.423979
0.424554
0.426331
0.429618
0.433132
0.435319
0.436071
0.435414
0.434205
0.43332
0.433562
0.435213
0.438487
0.443432
0.449842
0.456967
0.463584
0.468058
0.469483
0.485012
0.484621
0.479883
0.471617
0.462171
0.453406
0.44617
0.440549
0.436303
0.433153
0.430956
0.429724
0.429778
0.430963
0.43408
0.437436
0.439676
0.440697
0.440707
0.44019
0.440106
0.441063
0.443392
0.447283
0.452813
0.459809
0.467592
0.474994
0.480451
0.482927
0.501019
0.499769
0.493809
0.484357
0.473961
0.464463
0.456596
0.450404
0.445611
0.441889
0.439134
0.437311
0.436842
0.437351
0.440139
0.443174
0.445425
0.446733
0.447425
0.447646
0.448379
0.45009
0.453112
0.457629
0.463781
0.47144
0.480026
0.488433
0.495043
0.498593
0.520187
0.518157
0.510937
0.500177
0.488645
0.478221
0.469612
0.462768
0.457369
0.453021
0.449649
0.447145
0.446084
0.445832
0.448124
0.450637
0.452832
0.454429
0.455855
0.456876
0.458542
0.461104
0.464907
0.470148
0.477029
0.485525
0.495135
0.50476
0.512675
0.517359
0.54326
0.540469
0.531922
0.519724
0.506892
0.495407
0.485931
0.478313
0.472168
0.467062
0.462941
0.459614
0.457834
0.45671
0.458317
0.460024
0.462048
0.463917
0.466147
0.468101
0.470879
0.474457
0.479225
0.485364
0.493133
0.502636
0.513484
0.524568
0.53398
0.53994
0.570944
0.567417
0.557457
0.543677
0.529389
0.516686
0.506184
0.49763
0.490576
0.484533
0.479481
0.475171
0.47253
0.470345
0.471057
0.471543
0.47318
0.475269
0.478383
0.481465
0.485594
0.490436
0.496409
0.503668
0.512555
0.5233
0.535636
0.548444
0.559609
0.567021
0.603961
0.599729
0.588275
0.572775
0.556871
0.542772
0.53106
0.521372
0.513188
0.505985
0.499794
0.494319
0.490645
0.487182
0.486776
0.485457
0.486369
0.488565
0.492609
0.49706
0.502851
0.509284
0.516782
0.525471
0.535785
0.548067
0.562182
0.57701
0.590213
0.599277
0.642985
0.638088
0.625068
0.607712
0.590031
0.574355
0.561232
0.550173
0.540606
0.531983
0.524416
0.517557
0.512636
0.507645
0.505923
0.502101
0.50177
0.503939
0.508919
0.514965
0.522782
0.531199
0.540607
0.551118
0.563236
0.577415
0.593649
0.610832
0.62639
0.637345
0.688455
0.682944
0.668314
0.649001
0.629414
0.612002
0.597259
0.584588
0.573367
0.563052
0.55384
0.545338
0.538932
0.532151
0.52886
0.521735
0.519405
0.521467
0.527372
0.535265
0.545483
0.556288
0.568036
0.580804
0.595164
0.61165
0.630376
0.650271
0.668526
0.681641
0.740226
0.734178
0.71798
0.696709
0.675179
0.655944
0.639424
0.62494
0.61183
0.599564
0.588451
0.578053
0.569928
0.561086
0.555927
0.544407
0.539098
0.540956
0.547762
0.557824
0.570867
0.584481
0.599001
0.614457
0.631488
0.650685
0.672264
0.695202
0.716477
0.732024
0.797158
0.790714
0.77314
0.750101
0.72678
0.705792
0.687473
0.671092
0.65597
0.64159
0.628403
0.615932
0.605931
0.594803
0.587465
0.570018
0.560412
0.561948
0.569589
0.582302
0.598609
0.615414
0.633071
0.651561
0.671582
0.693776
0.718457
0.744659
0.769193
0.787399
0.856769
0.850158
0.83162
0.8073
0.782638
0.760226
0.740345
0.72221
0.705145
0.688693
0.673452
0.658924
0.647052
0.633544
0.623785
0.598191
0.582553
0.583741
0.592107
0.608274
0.628153
0.648374
0.66936
0.691011
0.714078
0.739292
0.767065
0.796519
0.824374
0.845354
0.915123
0.90867
0.88986
0.865116
0.839957
0.816843
0.795979
0.776558
0.757945
0.73977
0.722797
0.706513
0.693047
0.677318
0.665082
0.629002
0.606235
0.60534
0.614306
0.6354
0.658838
0.68236
0.706514
0.731078
0.756838
0.784638
0.815059
0.84737
0.878332
0.902046
0.967124
0.961285
0.94318
0.919247
0.894857
0.872199
0.851343
0.831499
0.812133
0.792993
0.774993
0.757625
0.743171
0.725723
0.711304
0.663034
0.633158
0.628425
0.638981
0.663781
0.690066
0.716267
0.742885
0.769574
0.79712
0.826508
0.858571
0.892827
0.926324
0.952526
1.00739
1.00272
0.9865
0.964907
0.94291