/*--------------------------------*- C++ -*----------------------------------*\
  =========                 |
  \\      /  F ield         | OpenFOAM: The Open Source CFD Toolbox
   \\    /   O peration     | Website:  https://openfoam.org
    \\  /    A nd           | Version:  12
     \\/     M anipulation  |
\*---------------------------------------------------------------------------*/
FoamFile
{
    format      ascii;
    class       volScalarField;
    location    "50/air";
    object      nut;
}
// * * * * * * * * * * * * * * * * * * * * * * * * * * * * * * * * * * * * * //

dimensions      [0 2 -1 0 0 0 0];

internalField   nonuniform List<scalar> 
243000
(
0.000165843
0.000148917
0.000122351
9.64201e-05
7.58182e-05
8.78333e-05
9.7774e-05
0.000105541
0.00011267
0.000117605
0.00012089
0.000122986
0.000124164
0.000124927
0.000125416
0.000125828
0.000125309
0.000125369
0.000125468
0.000125341
0.000124616
0.000123227
0.00012089
0.000117098
0.000111293
0.000104571
9.48731e-05
8.20065e-05
0.000110602
0.000144568
0.000623549
0.000568645
0.000466379
0.00034722
0.000292173
0.000337337
0.000374828
0.000403335
0.000425163
0.000440941
0.00045212
0.000460121
0.000465757
0.000470439
0.000474317
0.000476921
0.000475335
0.000473713
0.000471452
0.000468644
0.000464546
0.000458992
0.000450976
0.000439085
0.000421549
0.000396838
0.000361097
0.000322105
0.00040659
0.000551961
0.000792902
0.000755118
0.000642685
0.000500967
0.000469205
0.000546694
0.000615727
0.000674938
0.000723567
0.000763402
0.000795242
0.000820285
0.000839141
0.000853571
0.000863469
0.000867509
0.000862179
0.000852816
0.000839088
0.000821718
0.000800154
0.000774589
0.000744147
0.000707507
0.000663244
0.00060899
0.000543078
0.000481268
0.000546469
0.000703066
0.000824052
0.000788382
0.000676695
0.000545349
0.000525473
0.000592915
0.000654112
0.000710014
0.000757362
0.00079704
0.000829272
0.00085495
0.000874418
0.000889384
0.000899651
0.000903733
0.000898895
0.000889292
0.000874911
0.000856794
0.00083455
0.000808594
0.00077814
0.000741977
0.000699113
0.000648146
0.00058964
0.000541925
0.000597625
0.000737508
0.000846352
0.000814621
0.000714345
0.000595161
0.000576372
0.000629509
0.000681653
0.00073477
0.000780806
0.000820582
0.000853506
0.000880129
0.000900427
0.000916083
0.000926782
0.000931007
0.000926645
0.000916836
0.000901779
0.000882807
0.000859652
0.000833144
0.00080262
0.000767126
0.000726301
0.000679423
0.000630296
0.000599962
0.000659948
0.00077056
0.000866126
0.000838713
0.000752386
0.000647233
0.000625078
0.000663444
0.000708567
0.000757756
0.000801892
0.000841469
0.000874905
0.000902343
0.000923343
0.000939591
0.00095062
0.000954983
0.000951075
0.000941285
0.000925759
0.000906134
0.000882203
0.000855289
0.000824929
0.000790617
0.00075276
0.000712841
0.000671938
0.000657121
0.000717184
0.000801685
0.000885016
0.000861702
0.000789006
0.000701208
0.000673227
0.000698505
0.000738512
0.000782431
0.00082398
0.00086284
0.000896422
0.00092438
0.000945852
0.000962546
0.000973789
0.000978273
0.000974781
0.00096525
0.000949515
0.000929539
0.000905096
0.000878003
0.000848086
0.000815454
0.000781212
0.000748283
0.000718862
0.000716739
0.000766551
0.000830537
0.000903835
0.000884109
0.000823123
0.000756876
0.000721214
0.000739379
0.000770947
0.000809671
0.000848374
0.000886078
0.000919454
0.000947649
0.000969409
0.000986451
0.000997826
0.00100245
0.000999326
0.000990268
0.000974563
0.000954528
0.000929814
0.000902686
0.000873355
0.000842584
0.000811978
0.000785226
0.000767554
0.000772679
0.000808831
0.00085754
0.000923352
0.000906791
0.00085531
0.000802785
0.000774321
0.000781263
0.00080537
0.000839572
0.000875584
0.000911926
0.000944816
0.000973048
0.000994984
0.00101237
0.00102383
0.00102869
0.00102588
0.00101746
0.00100203
0.000982184
0.000957368
0.000930233
0.000901418
0.000872317
0.00084479
0.000822682
0.000811193
0.000817925
0.000845901
0.000883694
0.000944391
0.00093063
0.00088673
0.000843493
0.000819685
0.000821872
0.000841468
0.000872189
0.000905978
0.000940952
0.000973147
0.00100128
0.00102329
0.00104112
0.0010527
0.00105791
0.00105544
0.0010477
0.00103285
0.00101345
0.000988631
0.000961473
0.000932908
0.000904947
0.00087955
0.000860409
0.000851926
0.000858352
0.000880488
0.000910362
0.000967874
0.000956444
0.000918724
0.000882209
0.000861901
0.000862318
0.000879406
0.000907827
0.000940057
0.000973842
0.00100522
0.00103309
0.00105511
0.00107363
0.00108534
0.00109103
0.00108894
0.00108195
0.00106791
0.00104935
0.00102458
0.000997446
0.000968635
0.000941038
0.000916637
0.000898908
0.000891481
0.000896888
0.000914623
0.000938506
0.000994816
0.000985264
0.000952577
0.000921056
0.000903605
0.0009038
0.000919933
0.000947282
0.00097888
0.00101173
0.00104246
0.00106989
0.00109165
0.00111001
0.00112135
0.00112719
0.00112551
0.0011192
0.00110623
0.00108954
0.00106654
0.00103984
0.00100993
0.000981814
0.000957052
0.000939296
0.000931575
0.000935626
0.000949982
0.000969311
0.00102651
0.00101839
0.000989681
0.00096185
0.000946875
0.000947974
0.000964737
0.000992518
0.00102499
0.00105678
0.00108479
0.00111
0.00113048
0.0011482
0.00115909
0.00116508
0.00116385
0.00115829
0.0011465
0.00113178
0.00111136
0.00108703
0.00105908
0.00102993
0.00100275
0.000983445
0.000974132
0.000976569
0.0009883
0.00100423
0.00106487
0.00105759
0.00103196
0.00100692
0.000994371
0.000998064
0.00101784
0.00104598
0.0010757
0.00110439
0.00112921
0.00115184
0.0011707
0.00118753
0.00119792
0.00120409
0.00120338
0.00119867
0.00118815
0.00117536
0.00115793
0.00113653
0.00111108
0.00108392
0.00105737
0.00103504
0.00102187
0.00102232
0.00103193
0.00104532
0.0011131
0.00110593
0.00108299
0.00106072
0.0010513
0.00105664
0.00107496
0.00110042
0.0011269
0.00115223
0.00117424
0.00119428
0.0012114
0.00122725
0.00123715
0.00124352
0.00124339
0.00123967
0.00123047
0.00121961
0.00120505
0.00118666
0.00116374
0.00113873
0.00111393
0.00109268
0.00107934
0.00107736
0.00108506
0.0010963
0.00116719
0.00115898
0.00113758
0.00111718
0.00110895
0.00111446
0.00113123
0.00115371
0.00117652
0.00119861
0.00121802
0.00123573
0.00125124
0.00126616
0.00127571
0.00128233
0.00128285
0.00128013
0.00127223
0.0012632
0.00125112
0.00123537
0.00121469
0.00119206
0.00116954
0.0011499
0.0011371
0.00113503
0.00114253
0.00115347
0.00121958
0.00121013
0.00118983
0.00117107
0.00116382
0.00116904
0.00118396
0.00120335
0.00122286
0.00124197
0.00125881
0.00127443
0.00128857
0.00130279
0.00131225
0.00131927
0.00132045
0.00131866
0.00131186
0.00130437
0.00129428
0.00128071
0.00126202
0.00124176
0.00122167
0.00120389
0.00119198
0.00119024
0.00119771
0.00120851
0.00126693
0.00125647
0.0012371
0.00122007
0.00121366
0.00121816
0.00123079
0.00124698
0.00126376
0.00128032
0.00129494
0.00130881
0.00132187
0.00133577
0.00134545
0.00135309
0.00135492
0.00135383
0.00134776
0.00134141
0.00133277
0.00132084
0.00130409
0.00128582
0.00126788
0.00125194
0.00124129
0.0012402
0.00124788
0.00125856
0.0013068
0.00129565
0.00127729
0.00126201
0.00125612
0.0012594
0.0012693
0.0012824
0.00129663
0.00131118
0.00132444
0.00133737
0.00134998
0.00136413
0.0013744
0.00138285
0.00138529
0.00138454
0.00137866
0.00137285
0.0013649
0.00135383
0.00133869
0.00132183
0.0013057
0.00129188
0.00128293
0.0012826
0.00129053
0.00130116
0.00133683
0.00132515
0.00130795
0.00129424
0.00128846
0.0012899
0.00129696
0.00130724
0.00131928
0.00133243
0.00134545
0.00135878
0.00137214
0.00138747
0.00139888
0.00140835
0.00141131
0.00141038
0.00140384
0.00139756
0.0013891
0.00137774
0.00136333
0.00134758
0.00133324
0.00132163
0.00131474
0.00131518
0.00132312
0.00133353
0.00135441
0.00134227
0.00132612
0.00131354
0.00130725
0.00130646
0.00131096
0.00131937
0.00133059
0.00134405
0.00135827
0.00137345
0.00138901
0.00140669
0.00141985
0.00143055
0.0014339
0.00143204
0.00142358
0.00141535
0.00140485
0.00139192
0.00137693
0.00136173
0.00134845
0.00133871
0.001334
0.00133547
0.00134339
0.00135341
0.00135726
0.0013441
0.00132808
0.0013155
0.00130801
0.00130565
0.00130943
0.00131877
0.00133249
0.00134952
0.0013675
0.00138625
0.00140553
0.00142633
0.00144153
0.00145309
0.00145659
0.001453
0.00144131
0.00142945
0.00141524
0.0013989
0.00138115
0.00136418
0.00134987
0.00134072
0.00133747
0.00134016
0.0013484
0.00135849
0.00134159
0.00132615
0.00130852
0.00129448
0.00128736
0.00128847
0.0012984
0.0013149
0.00133688
0.00136158
0.00138556
0.00140893
0.00143251
0.00145591
0.0014726
0.00148326
0.00148643
0.00148033
0.00146441
0.00144754
0.00142816
0.00140637
0.00138287
0.0013598
0.00133948
0.00132556
0.00132181
0.00132497
0.00133408
0.00134464
0.0013052
0.00128734
0.00126747
0.00125908
0.0012696
0.00128986
0.00131574
0.0013442
0.00137304
0.00140117
0.00142765
0.00145306
0.00147879
0.00150413
0.00152181
0.0015326
0.00153465
0.00152568
0.00150583
0.00148412
0.00145984
0.00143243
0.00140199
0.00136962
0.00133685
0.00130881
0.00129354
0.00129096
0.00129752
0.00130777
0.0012803
0.00127737
0.00127716
0.00128879
0.00131268
0.00134132
0.00137158
0.00140161
0.00143036
0.0014576
0.00148338
0.00150855
0.00153445
0.00156038
0.00157814
0.00158916
0.00159171
0.00158295
0.00156258
0.00154026
0.0015158
0.00148844
0.00145797
0.00142484
0.00138968
0.00135422
0.00132089
0.00129344
0.00127862
0.00127464
0.00134179
0.00134724
0.00135831
0.00137626
0.00139959
0.00142458
0.00144985
0.00147454
0.00149831
0.00152128
0.00154377
0.00156664
0.00159112
0.00161645
0.00163354
0.00164491
0.00164855
0.00164126
0.00162206
0.00160132
0.0015793
0.00155528
0.00152896
0.00150052
0.00147027
0.00143883
0.00140686
0.00137568
0.00134981
0.00133614
0.00144845
0.00145554
0.00146704
0.00148131
0.00149719
0.00151359
0.00153023
0.00154694
0.00156374
0.00158091
0.00159883
0.00161827
0.00164031
0.00166418
0.00168028
0.00169208
0.00169721
0.00169195
0.00167482
0.00165685
0.00163868
0.00161956
0.00159927
0.00157785
0.00155551
0.00153248
0.00150881
0.0014848
0.00146257
0.00144679
0.00155587
0.00156
0.00156632
0.00157335
0.00158071
0.00158846
0.00159677
0.00160587
0.00161598
0.00162747
0.00164074
0.00165651
0.00167562
0.00169753
0.00171264
0.00172497
0.00173181
0.00172869
0.00171405
0.00169946
0.00168561
0.00167172
0.00165756
0.00164312
0.00162856
0.00161394
0.0015991
0.00158397
0.00156935
0.0015571
0.00164033
0.00164008
0.00164027
0.00164051
0.00164087
0.00164175
0.00164347
0.00164641
0.00165097
0.00165759
0.00166668
0.00167893
0.00169486
0.00171447
0.0017287
0.00174145
0.0017501
0.00174897
0.00173705
0.00172622
0.00171674
0.00170776
0.00169904
0.00169057
0.00168238
0.00167446
0.00166656
0.00165852
0.00165059
0.00164297
0.00169762
0.00169332
0.00168862
0.00168379
0.00167909
0.00167498
0.00167179
0.00166996
0.00167006
0.0016726
0.001678
0.00168688
0.00169971
0.00171649
0.00172981
0.0017429
0.00175317
0.00175399
0.00174477
0.00173812
0.00173284
0.00172823
0.00172414
0.00172048
0.00171717
0.00171415
0.00171113
0.00170793
0.00170466
0.00170096
0.000183573
0.000179805
0.000159285
0.000132619
0.000109276
0.000114693
0.000120155
0.000122583
0.000123634
0.000124455
0.000124475
0.000124083
0.000123296
0.000122498
0.000121882
0.000121618
0.000121445
0.000122115
0.000123465
0.000125074
0.000126616
0.000128153
0.00012935
0.000130089
0.000129759
0.000127041
0.000120341
0.000116405
0.000144468
0.00017374
0.00111141
0.00116466
0.00110811
0.000905062
0.000764921
0.000756103
0.000777551
0.000787062
0.000787152
0.00077404
0.000760649
0.0007505
0.00074181
0.000738228
0.000738425
0.000745246
0.000750718
0.000756707
0.000762708
0.000770503
0.000778516
0.00079006
0.000801756
0.000807928
0.000799383
0.000778886
0.000737661
0.000782065
0.00100336
0.0010912
0.00170565
0.00181038
0.00180542
0.00162544
0.00148006
0.00144536
0.00145518
0.00145788
0.00144589
0.00142944
0.00141093
0.00139576
0.0013819
0.00137529
0.0013732
0.00138397
0.00139618
0.00141297
0.00142716
0.00144043
0.00145136
0.00146449
0.00147441
0.00147845
0.00146758
0.00144445
0.00141117
0.00146799
0.00162524
0.00167795
0.00206856
0.00220029
0.00225918
0.002198
0.00210274
0.00205703
0.00202413
0.0020041
0.00197844
0.00195443
0.00192842
0.00190719
0.00188842
0.00187916
0.00187491
0.00189052
0.0019109
0.00194097
0.00196437
0.00198267
0.00199541
0.00200856
0.002016
0.0020171
0.00201513
0.00200499
0.00200604
0.00203111
0.00208006
0.00205425
0.00234967
0.00249585
0.00260839
0.00264298
0.00260658
0.00257389
0.00251457
0.00248145
0.0024534
0.00242757
0.00240037
0.00238021
0.00236402
0.00235851
0.00235662
0.00237908
0.00240621
0.00244651
0.00247375
0.00249001
0.00249667
0.00250217
0.00249969
0.0024904
0.00248077
0.00249245
0.00249053
0.00247682
0.0024347
0.00234855
0.00259452
0.00274569
0.00288856
0.00297389
0.00299705
0.00298912
0.00295125
0.0029179
0.00290199
0.00288512
0.00286666
0.00285748
0.00285354
0.00285994
0.0028655
0.00289697
0.00292835
0.00297447
0.00299815
0.00300337
0.00299436
0.00298218
0.00295892
0.00292689
0.00290275
0.00289276
0.00286942
0.00281306
0.00271918
0.00260039
0.00282206
0.00297252
0.00312728
0.00323686
0.00330151
0.00333109
0.00333168
0.00333403
0.00333439
0.00333971
0.0033426
0.00335555
0.00337403
0.00340139
0.00341995
0.00346158
0.00349453
0.0035408
0.00355262
0.00353753
0.00350289
0.00346189
0.00340541
0.00334252
0.0032841
0.00323663
0.00317393
0.00308178
0.00296167
0.00283034
0.00304721
0.00319279
0.00334927
0.00347111
0.00356225
0.00363104
0.00367601
0.00371994
0.00375921
0.00379624
0.00383218
0.00387847
0.00392933
0.00398583
0.00402265
0.00407493
0.00410646
0.00414609
0.00413785
0.00409423
0.00402485
0.00394455
0.00384635
0.00373906
0.00363548
0.00354625
0.00344311
0.00332311
0.00318851
0.00305388
0.00328435
0.00342205
0.00357736
0.0037038
0.00381347
0.00391576
0.00400234
0.00409243
0.00417624
0.00425619
0.00433614
0.00442521
0.00451642
0.00460569
0.00466266
0.00472528
0.00475379
0.00477977
0.00474561
0.00466779
0.00455741
0.00443135
0.00428516
0.00412849
0.00397777
0.00384366
0.00370538
0.0035642
0.00342099
0.00328832
0.00354774
0.00367742
0.00382807
0.00395754
0.00408146
0.0042097
0.00433339
0.00446618
0.00459703
0.00472389
0.00485237
0.00499018
0.00512091
0.00524048
0.0053165
0.00538677
0.00541082
0.0054197
0.00535977
0.00524582
0.00509406
0.00492304
0.00473022
0.004526
0.00432878
0.00415326
0.00398624
0.00382766
0.0036785
0.00355026
0.00385027
0.00397296
0.00411731
0.00424985
0.00438648
0.0045346
0.00468879
0.00485897
0.00503149
0.00520294
0.00537681
0.00555429
0.0057154
0.00585417
0.00594149
0.00601165
0.0060311
0.0060206
0.00594382
0.00580673
0.00562305
0.00541672
0.00518695
0.00494366
0.00470722
0.00449667
0.00430549
0.00413165
0.00397712
0.00385318
0.00420184
0.00431864
0.00445668
0.00459284
0.00473978
0.00490228
0.00508076
0.0052801
0.00548468
0.00569034
0.0058946
0.00609288
0.00626853
0.00641124
0.00650253
0.00656751
0.00658008
0.0065518
0.0064638
0.00631431
0.00611809
0.00589722
0.00565179
0.00538557
0.00512238
0.00488506
0.00467497
0.00448829
0.00432823
0.00420715
0.00460736
0.0047181
0.00485003
0.00498904
0.00514233
0.00531401
0.00550917
0.00572565
0.00594601
0.00616612
0.00638425
0.00659349
0.00677805
0.00692217
0.00701378
0.00707045
0.00707389
0.00703038
0.00693479
0.00677848
0.00657736
0.00634967
0.00610209
0.00583791
0.00556819
0.00531603
0.00509473
0.00489921
0.00473537
0.0046169
0.00506113
0.00516452
0.00528891
0.00542772
0.00558284
0.00575701
0.00595664
0.0061747
0.00640109
0.0066288
0.00685495
0.00706975
0.00725835
0.00740114
0.00749043
0.00753618
0.00752809
0.0074727
0.00737187
0.00721303
0.00701267
0.00678515
0.00653893
0.00627913
0.00601706
0.0057691
0.00554946
0.00535238
0.00518925
0.00507589
0.00553734
0.00563271
0.00574734
0.00588192
0.00603291
0.00620374
0.00640581
0.00662547
0.00685379
0.00708461
0.0073154
0.00753089
0.0077185
0.00785819
0.00794243
0.00797563
0.00795465
0.00789139
0.00778733
0.00762968
0.00743402
0.00721176
0.00697047
0.00671616
0.00645992
0.00621629
0.00600492
0.00581691
0.00566079
0.00555662
0.00600534
0.00609369
0.00620017
0.00632986
0.00647901
0.00665131
0.00685719
0.00707691
0.00730412
0.00753578
0.0077674
0.00797943
0.00816151
0.00829382
0.00837071
0.00839073
0.00835758
0.0082907
0.00818662
0.0080338
0.00784542
0.0076307
0.00739624
0.00714995
0.00690005
0.00666056
0.0064535
0.00627209
0.00612251
0.00602545
0.00646817
0.00654672
0.00664512
0.00676978
0.00691774
0.00709309
0.00730207
0.00752153
0.00774635
0.00797866
0.00820549
0.00840979
0.00858067
0.00870026
0.00876697
0.00877305
0.00872967
0.00866242
0.00856374
0.00842027
0.00824317
0.00803672
0.00780516
0.00756838
0.00732731
0.00709395
0.00689067
0.00671602
0.00657446
0.0064852
0.00691338
0.00697797
0.00707158
0.00719224
0.00733784
0.00751498
0.00772308
0.00794243
0.00816706
0.00839721
0.00861564
0.00880705
0.00896052
0.00906205
0.00911523
0.00910623
0.00905419
0.00898941
0.00890179
0.00877299
0.00861129
0.00841544
0.00818558
0.00795595
0.00772541
0.00750006
0.00730248
0.00713628
0.00700445
0.00692359
0.00731917
0.0073725
0.00746136
0.00757696
0.00771783
0.00789297
0.00809621
0.00831352
0.00854032
0.00876595
0.00897311
0.0091477
0.00927845
0.00935726
0.00939406
0.00936947
0.0093101
0.00925035
0.00917858
0.00906921
0.00892486
0.00874202
0.00851804
0.0082891
0.00806713
0.00785436
0.00766846
0.00751501
0.0073963
0.007325
0.00765787
0.00770355
0.00778443
0.00789245
0.00802588
0.00819444
0.00839009
0.00860362
0.00882857
0.00904583
0.00924193
0.00939947
0.00950548
0.00955922
0.00957869
0.00954016
0.00947526
0.0094223
0.00936934
0.00928184
0.00915434
0.00898299
0.00876662
0.00853643
0.00832375
0.00812661
0.00795819
0.0078223
0.0077211
0.00766189
0.00789531
0.00793225
0.00800219
0.00809972
0.00822372
0.00838169
0.00856808
0.00877765
0.00899612
0.00920321
0.00938477
0.00952329
0.00960455
0.0096355
0.00964088
0.00959447
0.00952744
0.0094809
0.00944551
0.00937809
0.00926484
0.00910371
0.00889624
0.00867083
0.00846582
0.00828367
0.00813523
0.00802127
0.00794185
0.0078981
0.00799464
0.00802005
0.00807595
0.0081618
0.00827406
0.00841942
0.00859673
0.00880124
0.00901255
0.0092111
0.00938078
0.00950223
0.00956309
0.00957755
0.00957518
0.00952984
0.00946506
0.00942534
0.00940538
0.00935319
0.00924958
0.00909173
0.00888921
0.00867228
0.00847149
0.00829968
0.00816799
0.00807727
0.00802199
0.00799698
0.00793115
0.00794175
0.00798157
0.00805748
0.0081553
0.00828853
0.00845895
0.00865832
0.00886564
0.00906138
0.0092279
0.00934231
0.00939533
0.00940604
0.0094082
0.00938519
0.00933009
0.0092935
0.00927773
0.00923046
0.00912368
0.00895948
0.00875387
0.00854082
0.00834192
0.00817125
0.00804678
0.0079738
0.00794039
0.00793513
0.00770978
0.00770335
0.00773038
0.00779581
0.00788034
0.00800609
0.00817181
0.00837046
0.0085847
0.00879569
0.00897679
0.00910126
0.0091684
0.00919715
0.00922096
0.00922313
0.00918027
0.00914368
0.00912375
0.00906516
0.00893473
0.0087466
0.00852682
0.00830876
0.00810626
0.00792947
0.00779999
0.00772944
0.00771014
0.00771839
0.00737391
0.00735531
0.00737321
0.007439
0.00754469
0.00769253
0.00787894
0.00809909
0.00833854
0.00857807
0.00879092
0.00895111
0.00904521
0.00910053
0.00915153
0.00917206
0.00913058
0.0090789
0.0090368
0.00894958
0.00878551
0.00856281
0.00830964
0.00805863
0.00782756
0.00762956
0.00748666
0.00740465
0.00738143
0.00739166
0.00704419
0.00706088
0.00711015
0.00720269
0.00733856
0.00751562
0.00772987
0.0079775
0.00824587
0.00851734
0.0087654
0.00896219
0.00909087
0.00917951
0.00925999
0.00929561
0.00925426
0.00918737
0.00911902
0.00900149
0.00880411
0.00854666
0.00825885
0.0079724
0.00770683
0.00747496
0.00729126
0.00716405
0.00709176
0.00705992
0.00695921
0.00701146
0.00709238
0.00721349
0.00737715
0.00758007
0.00781786
0.00808831
0.00838057
0.00867828
0.00895463
0.00918046
0.00934092
0.00946094
0.00956792
0.00961911
0.00957991
0.00950507
0.00941449
0.00927223
0.00905018
0.00876551
0.00844999
0.00813344
0.00783657
0.00757173
0.00734744
0.00717369
0.00705228
0.00697154
0.00724208
0.00732209
0.00743447
0.00758218
0.00776764
0.00798846
0.00823887
0.00851993
0.00882279
0.00913175
0.00942103
0.00966308
0.00984526
0.00998878
0.0101169
0.0101874
0.0101538
0.0100837
0.00997963
0.00982397
0.00959063
0.00929209
0.00896102
0.0086262
0.0083087
0.00801854
0.00775941
0.0075438
0.00737694
0.00725283
0.00811706
0.00823053
0.00836945
0.00853527
0.00872949
0.00895118
0.00919272
0.00946159
0.0097508
0.0100451
0.0103224
0.0105606
0.0107468
0.0109016
0.0110463
0.0111384
0.0111175
0.0110652
0.0109702
0.0108216
0.0105978
0.0103117
0.00998794
0.00965655
0.00933806
0.00904064
0.00875947
0.00850907
0.00830171
0.00813404
0.0102978
0.010424
0.0105632
0.0107133
0.0108763
0.0110534
0.0112327
0.0114309
0.011648
0.0118746
0.0120939
0.012286
0.012441
0.0125845
0.012742
0.0128633
0.0128791
0.0128655
0.0128161
0.0127133
0.0125433
0.0123162
0.0120529
0.0117804
0.0115131
0.0112566
0.0109948
0.0107413
0.0105155
0.0103245
0.000191045
0.000188519
0.000173665
0.000155596
0.000142605
0.000141749
0.000142292
0.000142246
0.000141482
0.00014027
0.000138632
0.000136988
0.00013526
0.000134076
0.000133104
0.000133076
0.000133392
0.000134839
0.000136926
0.00013964
0.000142359
0.00014529
0.000147967
0.000150215
0.00015152
0.000150956
0.000148214
0.000147337
0.00016361
0.000183993
0.00139956
0.00144448
0.00143158
0.00138657
0.00130438
0.00125661
0.00119479
0.00114579
0.0011116
0.00108895
0.00107183
0.00106353
0.00106063
0.00107115
0.00108447
0.00110797
0.00111805
0.00112434
0.00112243
0.00112307
0.00112348
0.00113095
0.00114257
0.00116194
0.00119044
0.00123069
0.00123901
0.0012707
0.00137014
0.00137483
0.00247766
0.00258327
0.00264351
0.00267451
0.00258774
0.00246264
0.00233896
0.00224979
0.00219161
0.00215907
0.00213894
0.00213482
0.00214078
0.00217151
0.0022055
0.00225422
0.00227296
0.00228598
0.00227982
0.00227277
0.00226106
0.00225783
0.00226103
0.00227915
0.0023177
0.00238294
0.00244288
0.00250232
0.00250095
0.00242408
0.00331811
0.00348562
0.00365591
0.0037937
0.00375344
0.00360586
0.00344594
0.0033224
0.00323832
0.00319147
0.0031662
0.00316599
0.00318268
0.00323685
0.00329613
0.00337015
0.00339809
0.00341942
0.00340848
0.0033921
0.00336658
0.00335043
0.0033447
0.00336255
0.0034102
0.00348803
0.00355536
0.00357494
0.00343405
0.00327045
0.00403624
0.004259
0.00454243
0.00478488
0.00483377
0.00472138
0.00456279
0.00442742
0.00432885
0.00427183
0.00424324
0.00424807
0.00427711
0.00435767
0.00444474
0.00454464
0.00458286
0.00461416
0.00459823
0.00457125
0.00452926
0.00449593
0.0044753
0.00448329
0.0045223
0.00458214
0.00460875
0.00451494
0.00424876
0.00400398
0.00467168
0.00494861
0.00533531
0.00567536
0.00583295
0.00580877
0.00569881
0.0055854
0.00549731
0.00544622
0.00542364
0.00543924
0.00548489
0.00559464
0.00571099
0.0058366
0.00588584
0.00592777
0.00590577
0.00586499
0.0058007
0.00573946
0.00568796
0.00566289
0.0056618
0.00566062
0.00558541
0.00535932
0.00498513
0.00465832
0.00523975
0.00556669
0.00603344
0.00647012
0.00673528
0.00683027
0.00681424
0.00676459
0.0067199
0.00670051
0.00670192
0.00674028
0.00681051
0.00695364
0.00709981
0.00725035
0.00731
0.00736005
0.00732874
0.00726729
0.0071695
0.00706292
0.0069555
0.00686559
0.00678246
0.00667221
0.00646758
0.00610618
0.00563964
0.00525166
0.00574756
0.00607824
0.00658481
0.00711179
0.00751371
0.00773041
0.00783963
0.00789175
0.00792623
0.0079668
0.00801451
0.00809286
0.00819937
0.00838117
0.00855786
0.0087324
0.00879964
0.0088523
0.00880419
0.00871221
0.00856491
0.008392
0.00820157
0.00801107
0.00781075
0.0075657
0.00721934
0.00671154
0.00617481
0.00577029
0.00619545
0.00648879
0.00699857
0.00756579
0.00806756
0.00845839
0.00871149
0.00888131
0.0090229
0.00914916
0.00926372
0.00939881
0.00955418
0.00978027
0.0099879
0.0101857
0.0102565
0.0103034
0.010229
0.0100935
0.00988223
0.00962679
0.00933217
0.00901559
0.00868473
0.00826953
0.00774947
0.00716549
0.00660104
0.006211
0.00659468
0.00686714
0.00735721
0.00793949
0.00849525
0.0089699
0.00935254
0.0096726
0.00993402
0.0101615
0.010355
0.0105595
0.0107748
0.0110465
0.0112839
0.0115039
0.0115745
0.0116061
0.0114963
0.0113068
0.0110235
0.0106835
0.0102703
0.00981592
0.00930897
0.00877549
0.00817917
0.00755028
0.00698308
0.00661948
0.0069633
0.00722314
0.0076893
0.0082625
0.00885069
0.00938997
0.0098594
0.0102686
0.0106267
0.010947
0.0112342
0.011515
0.0117934
0.0121067
0.012369
0.0126097
0.0126778
0.0126859
0.0125367
0.0122874
0.0119328
0.0114892
0.010981
0.0104292
0.00983374
0.009204
0.00854471
0.00789625
0.00734587
0.00699409
0.00731714
0.00755975
0.00800645
0.00855834
0.00914037
0.00970246
0.0102214
0.0107005
0.0111402
0.0115436
0.0119074
0.0122565
0.0125903
0.0129343
0.0132131
0.0134728
0.0135384
0.0135205
0.0133373
0.013037
0.0126205
0.0121139
0.0115301
0.0109003
0.0102415
0.00956395
0.00888109
0.00823369
0.00769749
0.00735329
0.00767106
0.00789333
0.00830938
0.00882846
0.0093889
0.00995014
0.0104928
0.0110159
0.0115119
0.0119776
0.0124054
0.0128095
0.0131873
0.0135545
0.0138406
0.0141098
0.0141722
0.0141349
0.013926
0.0135857
0.0131208
0.0125647
0.0119345
0.0112607
0.0105671
0.0098708
0.00918878
0.00855842
0.00804266
0.00771298
0.00803755
0.00823733
0.00861781
0.00909853
0.00962808
0.0101742
0.0107219
0.0112671
0.0117982
0.0123078
0.012784
0.0132337
0.0136473
0.0140242
0.0143099
0.0145711
0.0146234
0.0145707
0.0143483
0.0139839
0.0134883
0.0129007
0.0122449
0.0115522
0.0108484
0.0101545
0.00948951
0.00888563
0.00839616
0.00808504
0.00842741
0.00860494
0.00894947
0.00939131
0.00988704
0.010411
0.0109524
0.0115047
0.0120545
0.0125915
0.0131013
0.0135861
0.0140274
0.0144123
0.0146925
0.0149224
0.0149557
0.0148829
0.0146518
0.0142818
0.0137749
0.0131752
0.012512
0.011818
0.0111203
0.0104417
0.00980261
0.00923023
0.00877014
0.00847941
0.00885247
0.00901005
0.00932159
0.00972748
0.0101909
0.0106912
0.0112205
0.01177
0.0123255
0.0128748
0.013404
0.0139108
0.0143681
0.0147592
0.0150349
0.015231
0.0152361
0.015136
0.0148961
0.0145241
0.0140237
0.0134303
0.0127763
0.0120947
0.0114137
0.0107574
0.0101475
0.00960776
0.00917735
0.00890692
0.00932598
0.0094667
0.00974968
0.0101239
0.0105583
0.0110363
0.0115505
0.0120903
0.0126409
0.0131894
0.0137237
0.0142376
0.0146981
0.0150865
0.0153531
0.0155162
0.0154883
0.0153701
0.015128
0.0147598
0.0142699
0.013695
0.0130644
0.0124068
0.0117507
0.0111213
0.0105413
0.0100336
0.00963165
0.00938047
0.00985488
0.00998178
0.0102406
0.0105876
0.0109967
0.0114543
0.0119521
0.0124773
0.0130147
0.0135518
0.0140777
0.0145831
0.015032
0.0154043
0.0156511
0.015765
0.0156973
0.01557
0.0153362
0.0149862
0.014522
0.0139796
0.013385
0.012762
0.0121387
0.0115407
0.0109918
0.0105152
0.0101403
0.00990727
0.0104319
0.0105476
0.0107864
0.0111103
0.011498
0.0119373
0.0124179
0.0129257
0.0134442
0.0139618
0.0144677
0.0149501
0.0153717
0.0157114
0.0159233
0.0159643
0.0158527
0.0157229
0.0155053
0.0151893
0.0147692
0.0142746
0.0137276
0.0131494
0.0125666
0.0120052
0.0114898
0.0110444
0.0106959
0.0104805
0.0110311
0.0111382
0.011361
0.0116666
0.0120368
0.0124598
0.0129239
0.013413
0.0139099
0.0144031
0.0148805
0.0153278
0.0157076
0.0159976
0.0161584
0.0161052
0.0159469
0.0158178
0.0156229
0.0153501
0.0149899
0.0145553
0.0140657
0.0135409
0.0130049
0.012485
0.0120068
0.011594
0.011272
0.0110745
0.0116075
0.0117089
0.0119207
0.0122138
0.0125712
0.012981
0.0134307
0.0139021
0.0143774
0.0148446
0.0152894
0.0156938
0.0160205
0.0162467
0.0163429
0.0161859
0.0159843
0.0158564
0.0156864
0.015459
0.0151613
0.0147913
0.0143632
0.0138957
0.0134105
0.012935
0.0124966
0.012118
0.0118227
0.0116436
0.0121027
0.0122028
0.0124104
0.0126984
0.0130495
0.0134514
0.0138905
0.0143476
0.0148046
0.0152477
0.0156599
0.0160188
0.0162866
0.0164415
0.0164674
0.0162184
0.0159872
0.0158595
0.0157091
0.0155177
0.0152694
0.0149571
0.0145856
0.0141721
0.0137364
0.0133039
0.0129041
0.0125591
0.0122891
0.0121279
0.0124583
0.0125642
0.012777
0.0130693
0.0134226
0.0138238
0.0142587
0.0147078
0.0151524
0.0155768
0.0159605
0.0162767
0.0164873
0.0165753
0.0165369
0.0162388
0.016003
0.0158752
0.0157272
0.0155495
0.0153245
0.0150483
0.0147164
0.0143438
0.013948
0.0135507
0.0131819
0.0128649
0.0126153
0.0124677
0.0126379
0.0127604
0.0129893
0.0132964
0.0136615
0.0140702
0.014509
0.0149588
0.0153992
0.0158131
0.0161763
0.0164591
0.0166229
0.0166603
0.0165831
0.0163188
0.0160993
0.0159624
0.0158074
0.0156096
0.0153697
0.0150945
0.0147755
0.0144196
0.0140438
0.0136654
0.0133128
0.013009
0.0127724
0.0126289
0.0126586
0.0127998
0.01306
0.0133916
0.0137768
0.0142013
0.0146529
0.0151121
0.0155576
0.0159697
0.0163229
0.0165855
0.0167214
0.0167374
0.0166652
0.01649
0.0162894
0.016135
0.0159764
0.0157608
0.0154871
0.0151667
0.0148221
0.014453
0.0140702
0.0136864
0.0133228
0.0130085
0.0127759
0.0126471
0.0126065
0.0127682
0.0130497
0.0134105
0.0138251
0.0142724
0.0147436
0.015219
0.0156768
0.0160926
0.0164455
0.0167038
0.0168345
0.0168632
0.0168434
0.0167357
0.0165564
0.0163898
0.0162217
0.0159904
0.0156913
0.0153347
0.0149451
0.0145375
0.0141247
0.0137074
0.0133088
0.012964
0.0127118
0.012577
0.0126236
0.012818
0.0131302
0.0135102
0.0139359
0.0143951
0.0148727
0.015352
0.0158174
0.0162551
0.0166162
0.0168835
0.0170269
0.0170922
0.0171341
0.0170924
0.0169439
0.0167812
0.0166
0.0163521
0.0160334
0.0156474
0.0152201
0.0147704
0.0143078
0.013851
0.0134348
0.0130571
0.0127589
0.0125886
0.0129025
0.0131244
0.0134575
0.0138466
0.0142762
0.0147365
0.0152079
0.0156813
0.0161404
0.0165679
0.0169295
0.0172073
0.0173738
0.0174837
0.017598
0.0176317
0.0175336
0.0173916
0.017205
0.0169453
0.0166017
0.0161921
0.0157423
0.015269
0.0147915
0.0143167
0.0138702
0.0134559
0.0131023
0.0128711
0.0137393
0.013971
0.0142995
0.01468
0.0150926
0.0155214
0.0159539
0.0163845
0.0168015
0.0171921
0.0175288
0.0177967
0.0179806
0.0181317
0.0183252
0.0184544
0.0184317
0.0183346
0.0181576
0.017896
0.0175548
0.0171494
0.0167057
0.0162413
0.0157677
0.0152957
0.0148428
0.0144079
0.0140197
0.013728
0.0156519
0.0158431
0.0161124
0.0164187
0.0167462
0.0170772
0.017401
0.0177186
0.0180276
0.0183194
0.0185786
0.0187964
0.0189732
0.0191566
0.0194274
0.0196694
0.0197513
0.0197319
0.0196021
0.019378
0.0190788
0.0187231
0.0183379
0.0179378
0.0175315
0.0171274
0.0167278
0.0163304
0.0159689
0.0156756
0.000199054
0.000195864
0.000185103
0.00017297
0.000163168
0.000158529
0.000155457
0.000153401
0.000151775
0.000150391