/*--------------------------------*- C++ -*----------------------------------*\
  =========                 |
  \\      /  F ield         | OpenFOAM: The Open Source CFD Toolbox
   \\    /   O peration     | Website:  https://openfoam.org
    \\  /    A nd           | Version:  12
     \\/     M anipulation  |
\*---------------------------------------------------------------------------*/
FoamFile
{
    format      ascii;
    class       volScalarField;
    location    "50/air";
    object      p_rgh;
}
// * * * * * * * * * * * * * * * * * * * * * * * * * * * * * * * * * * * * * //

dimensions      [1 -1 -2 0 0 0 0];

internalField   nonuniform List<scalar> 
243000
(
47.3538
47.3063
46.9497
46.8284
46.8439
46.707
46.6092
46.5372
46.5442
46.628
46.7898
47.0402
47.3305
47.6612
47.9395
48.1016
48.0393
47.873
47.5962
47.3343
47.0941
46.9273
46.8191
46.7706
46.7731
46.8291
46.9177
47.0077
47.0238
47.1957
47.231
47.1366
46.84
46.7973
46.8453
46.6992
46.5945
46.5198
46.5264
46.6016
46.7481
46.9781
47.244
47.5482
47.8036
47.9562
47.9062
47.7601
47.5113
47.2746
47.0538
46.8993
46.8007
46.7573
46.7584
46.819
46.9125
47.0009
46.9664
47.0515
47.13
47.0066
46.7658
46.7714
46.8054
46.6612
46.562
46.4925
46.4979
46.5668
46.7006
46.9121
47.1545
47.4312
47.6605
47.8015
47.7637
47.6423
47.4237
47.2123
47.0103
46.8683
46.7765
46.7358
46.7353
46.7889
46.8781
46.9624
46.9339
46.9541
47.0365
46.9015
46.7241
46.7493
46.7559
46.6176
46.5256
46.4592
46.4617
46.5227
46.6433
46.8365
47.0564
47.3076
47.5142
47.647
47.6199
47.5192
47.3267
47.1386
46.9553
46.8267
46.7437
46.7079
46.7084
46.7578
46.84
46.9188
46.912
46.8885
46.9542
46.8225
46.7022
46.7261
46.7084
46.574
46.488
46.4218
46.4196
46.4722
46.5788
46.7533
46.951
47.177
47.3617
47.4875
47.4703
47.389
47.2219
47.0571
46.8928
46.7787
46.7051
46.6748
46.6781
46.7257
46.8031
46.8767
46.883
46.8454
46.8793
46.7648
46.6738
46.699
46.6618
46.5311
46.4476
46.3792
46.3696
46.4127
46.5036
46.6573
46.8315
47.0322
47.1948
47.3146
47.3069
47.2446
47.1031
46.9628
46.8197
46.7216
46.6581
46.6344
46.6428
46.691
46.7673
46.8381
46.8423
46.8033
46.8041
46.7109
46.641
46.6631
46.6141
46.4869
46.4011
46.3295
46.3115
46.3438
46.4185
46.5507
46.7007
46.8768
47.018
47.1324
47.1339
47.0899
46.9726
46.8569
46.7358
46.6547
46.6024
46.5863
46.6004
46.65
46.7263
46.7941
46.7939
46.757
46.7259
46.6561
46.6002
46.6134
46.5598
46.4349
46.3459
46.2698
46.2425
46.2629
46.3209
46.4318
46.5581
46.7108
46.8319
46.9409
46.9515
46.9258
46.8313
46.7394
46.6399
46.5755
46.5356
46.5282
46.5485
46.599
46.6744
46.7365
46.736
46.7033
46.643
46.596
46.548
46.5504
46.4926
46.3704
46.279
46.1974
46.1608
46.1698
46.2119
46.3022
46.4062
46.5374
46.6401
46.7435
46.7626
46.7543
46.682
46.6125
46.533
46.4841
46.4558
46.4571
46.4845
46.5372
46.6103
46.667
46.6686
46.6403
46.5538
46.5263
46.4816
46.4735
46.4089
46.2901
46.1969
46.1114
46.0667
46.0655
46.0929
46.1641
46.2474
46.3588
46.4443
46.5418
46.5684
46.5758
46.5251
46.4765
46.4163
46.3817
46.3634
46.3726
46.406
46.4621
46.5329
46.5853
46.5902
46.5669
46.4549
46.4438
46.3985
46.379
46.3068
46.1924
46.0991
46.0124
45.961
45.949
45.9623
46.0158
46.08
46.1732
46.2431
46.335
46.3678
46.3906
46.359
46.3298
46.2877
46.2672
46.2587
46.2753
46.3132
46.3712
46.4398
46.4906
46.4985
46.4801
46.3456
46.3475
46.2988
46.2673
46.188
46.0787
45.9863
45.8996
45.8419
45.8192
45.8188
45.8558
45.9025
45.9805
46.0372
46.1241
46.162
46.1989
46.1829
46.1714
46.1458
46.1385
46.1401
46.1642
46.2067
46.265
46.3316
46.3823
46.3947
46.3803
46.2295
46.2376
46.184
46.1399
46.0548
45.9492
45.8568
45.7702
45.7075
45.6746
45.6603
45.6828
45.7134
45.778
45.8243
45.9066
45.9483
45.9974
45.9942
45.9984
45.9888
45.9933
46.0055
46.0377
46.0845
46.1431
46.2088
46.2609
46.2801
46.269
46.1038
46.1118
46.053
45.9956
45.905
45.8016
45.7074
45.6185
45.5516
45.5089
45.4822
45.4925
45.5085
45.56
45.5981
45.6762
45.721
45.7803
45.7886
45.8075
45.8123
45.8283
45.8501
45.8902
45.9419
46.003
46.0693
46.1244
46.1507
46.1445
45.9633
45.9644
45.9008
45.8299
45.7321
45.628
45.5301
45.437
45.3645
45.3139
45.2775
45.2779
45.2825
45.3224
45.3532
45.4276
45.4747
45.5432
45.5622
45.5941
45.6105
45.6375
45.6666
45.7125
45.7698
45.8369
45.9071
45.9677
46.0025
46.0031
45.7964
45.7844
45.7142
45.6304
45.5248
45.4177
45.3159
45.22
45.1403
45.0828
45.0393
45.0318
45.0275
45.0581
45.0817
45.1527
45.2012
45.2781
45.3065
45.3497
45.3761
45.4122
45.4459
45.4963
45.5601
45.6346
45.7114
45.7797
45.8241
45.8335
45.5875
45.5604
45.4796
45.3867
45.2743
45.1644
45.0598
44.9616
44.8765
44.8123
44.7623
44.7482
44.7357
44.7584
44.7751
44.8424
44.8915
44.9753
45.0115
45.0644
45.0996
45.143
45.1816
45.2366
45.3062
45.3873
45.4714
45.5487
45.603
45.6214
45.3252
45.2837
45.1905
45.0912
44.9751
44.8639
44.7574
44.6566
44.568
44.499
44.4433
44.4226
44.4021
44.4181
44.428
44.4914
44.5398
44.6276
44.6696
44.7301
44.7728
44.8229
44.8687
44.9267
44.9996
45.0861
45.1779
45.265
45.3303
45.3584
44.9984
44.9415
44.8382
44.7338
44.6193
44.5101
44.4039
44.302
44.2113
44.1405
44.0815
44.0555
44.0272
44.0367
44.0388
44.0968
44.1433
44.2315
44.2771
44.3429
44.3916
44.4471
44.4989
44.5581
44.6321
44.7225
44.8205
44.9159
44.9918
45.0316
44.5915
44.5208
44.4121
44.3072
44.2007
44.0989
43.9987
43.9007
43.8117
43.7414
43.6812
43.6518
43.6168
43.6197
43.6122
43.6617
43.7042
43.7892
43.8365
43.9053
43.9571
44.015
44.0692
44.1293
44.2003
44.2897
44.3896
44.4897
44.5726
44.624
44.0927
44.014
43.9086
43.8127
43.723
43.6376
43.5509
43.4628
43.3801
43.3125
43.2517
43.219
43.1777
43.1736
43.1557
43.194
43.2299
43.3093
43.3561
43.4251
43.4774
43.5348
43.5885
43.6465
43.7098
43.7887
43.8824
43.9813
44.0655
44.1255
43.5053
43.4256
43.3372
43.2649
43.2053
43.1469
43.0812
43.0086
42.9361
42.8733
42.8121
42.775
42.7266
42.7136
42.6843
42.7075
42.7338
42.8057
42.8508
42.9175
42.9683
43.0229
43.0728
43.1237
43.1759
43.2361
43.3108
43.3972
43.4732
43.5389
42.851
42.7872
42.7364
42.7073
42.6949
42.6751
42.6375
42.5846
42.5215
42.4573
42.3906
42.3467
42.2874
42.2597
42.2132
42.22
42.2332
42.2936
42.3359
42.4034
42.4571
42.5136
42.559
42.5988
42.6349
42.6721
42.7143
42.7695
42.8212
42.8836
42.2067
42.1951
42.2073
42.2295
42.247
42.2495
42.2227
42.1731
42.1053
42.0296
41.9492
41.8873
41.8164
41.7777
41.7162
41.7141
41.7195
41.777
41.8234
41.9003
41.9634
42.0294
42.0826
42.1295
42.1629
42.183
42.1882
42.1948
42.1979
42.2314
41.6799
41.6983
41.7421
41.7865
41.8078
41.8058
41.767
41.7014
41.6169
41.5253
41.4279
41.3442
41.2582
41.2104
41.1393
41.1317
41.1343
41.1987
41.2567
41.3475
41.4244
41.5067
41.5805
41.6501
41.7
41.7256
41.7217
41.709
41.6901
41.703
41.1446
41.1625
41.2044
41.2425
41.2584
41.2438
41.1883
41.1039
41.0009
40.8919
40.7773
40.6785
40.575
40.5127
40.4287
40.4121
40.4089
40.4758
40.5423
40.6465
40.7414
40.8436
40.9374
41.0267
41.0991
41.1492
41.1703
41.1752
41.164
41.1794
40.3979
40.4186
40.4583
40.4899
40.4987
40.4708
40.4019
40.304
40.1886
40.0691
39.9435
39.8348
39.7199
39.6476
39.5545
39.5288
39.5176
39.5823
39.6516
39.762
39.8669
39.9809
40.0878
40.1927
40.2833
40.3542
40.396
40.4237
40.4241
40.4432
39.384
39.4
39.4293
39.4511
39.4549
39.4226
39.3536
39.2565
39.1416
39.0219
38.8953
38.7852
38.6656
38.5883
38.4879
38.457
38.4391
38.4999
38.5677
38.6763
38.7791
38.8919
38.9983
39.105
39.2
39.2799
39.3341
39.3813
39.3995
39.4327
37.0315
37.0572
37.1178
37.1754
37.2214
37.2385
37.2232
37.1754
37.1049
37.0223
36.927
36.8394
36.7313
36.6548
36.5474
36.5103
36.4805
36.5246
36.5714
36.6512
36.7159
36.787
36.8487
36.9088
36.9567
36.9939
37.0099
37.0293
37.0269
37.0728
30.8754
31.0927
31.4294
31.7762
32.1104
32.4052
32.6541
32.8547
33.0098
33.128
33.2023
33.2516
33.2418
33.2275
33.1518
33.099
33.0081
32.9743
32.9189
32.8599
32.7529
32.622
32.4571
32.2695
32.0544
31.8192
31.5611
31.3135
31.0574
30.9284
47.3301
47.3276
47.1083
46.9779
46.9468
46.8702
46.8039
46.7705
46.7806
46.8335
46.9187
47.0553
47.2067
47.3914
47.5401
47.6382
47.6242
47.5667
47.4271
47.2979
47.1661
47.0719
46.9998
46.9602
46.9523
46.9811
47.0477
47.1021
47.1586
47.2601
47.2444
47.1926
47.0156
46.9508
46.9513
46.872
46.8051
46.7654
46.7742
46.8218
46.8991
47.0242
47.1611
47.3312
47.4686
47.5623
47.5546
47.5074
47.3822
47.2677
47.1468
47.0592
46.9921
46.9568
46.9508
46.9838
47.0505
47.1014
47.1115
47.1521
47.1801
47.0855
46.9448
46.9234
46.9307
46.8472
46.7849
46.7473
46.7543
46.7961
46.8648
46.9783
47.1014
47.2562
47.3798
47.4671
47.465
47.4306
47.3213
47.2217
47.1132
47.0348
46.9739
46.9422
46.9362
46.9655
47.0287
47.0764
47.0743
47.0752
47.1134
47
46.8921
46.8946
46.8955
46.8112
46.7537
46.7176
46.7218
46.7571
46.816
46.9169
47.0254
47.1643
47.2748
47.3581
47.3608
47.3371
47.2433
47.1593
47.0642
46.9964
46.943
46.9163
46.9118
46.9381
46.9951
47.0418
47.0396
47.0154
47.0465
46.9293
46.8558
46.8665
46.8591
46.7719
46.7162
46.6795
46.6793
46.7079
46.7571
46.8453
46.9393
47.0639
47.1617
47.2421
47.249
47.2348
47.1557
47.0865
47.0049
46.9481
46.9025
46.8814
46.8799
46.9061
46.9603
47.0053
47.0036
46.9674
46.9788
46.8711
46.8243
46.8362
46.8212
46.7311
46.6747
46.635
46.6286
46.6503
46.6894
46.7652
46.8454
46.9565
47.0429
47.1209
47.1317
47.1255
47.0599
47.0049
46.9367
46.8907
46.8534
46.8384
46.8417
46.8704
46.9244
46.9644
46.9627
46.9231
46.9076
46.8189
46.7885
46.8015
46.7792
46.6888
46.6299
46.5848
46.5709
46.5854
46.6146
46.6791
46.7469
46.8453
46.921
46.9973
47.0117
47.0126
46.9591
46.9169
46.8612
46.8258
46.7965
46.788
46.7974
46.8298
46.8844
46.9194
46.9151
46.8769
46.8323
46.7651
46.7435
46.7573
46.731
46.642
46.5804
46.5293
46.5076
46.5146
46.5338
46.5885
46.6439
46.7308
46.7961
46.8719
46.89
46.8987
46.8563
46.825
46.7801
46.7544
46.7328
46.7311
46.7468
46.7823
46.8358
46.8657
46.8593
46.8235
46.7526
46.7061
46.6886
46.7032
46.673
46.5879
46.5248
46.4687
46.4395
46.4393
46.4493
46.4933
46.5363
46.6127
46.6689
46.7449
46.766
46.7836
46.7521
46.7311
46.695
46.6782
46.6632
46.6678
46.6886
46.726
46.7772
46.8031
46.7957
46.7619
46.6686
46.6402
46.6264
46.639
46.6048
46.5247
46.4615
46.4015
46.3668
46.3603
46.363
46.3956
46.4289
46.4962
46.5442
46.6195
46.642
46.668
46.6458
46.6349
46.608
46.5984
46.5882
46.5971
46.6213
46.6588
46.7078
46.7318
46.7245
46.6932
46.5805
46.5691
46.5574
46.5646
46.5264
46.4524
46.3897
46.3264
46.2881
46.2776
46.276
46.3014
46.3293
46.3913
46.4316
46.5049
46.5278
46.5607
46.5441
46.5401
46.5211
46.5154
46.5083
46.5191
46.5445
46.5806
46.6274
46.6505
46.645
46.6165
46.4877
46.4914
46.4781
46.4795
46.4388
46.3709
46.3095
46.2431
46.2024
46.1905
46.1876
46.2112
46.237
46.297
46.3317
46.4029
46.4266
46.466
46.4523
46.4511
46.4352
46.4299
46.423
46.4334
46.4581
46.4926
46.5368
46.5586
46.5557
46.5301
46.3892
46.4022
46.3858
46.3835
46.3414
46.2782
46.2191
46.1527
46.1092
46.0986
46.0974
46.1203
46.1448
46.2036
46.2345
46.3047
46.3294
46.3751
46.3631
46.3633
46.3476
46.3415
46.3323
46.3391
46.3627
46.3959
46.4368
46.4574
46.4558
46.4329
46.2825
46.3001
46.2802
46.2753
46.2302
46.1713
46.1168
46.0565
46.0128
46.0036
46.0025
46.0242
46.0479
46.1057
46.1342
46.2043
46.2289
46.2805
46.2691
46.2699
46.2542
46.2464
46.2348
46.2391
46.261
46.2908
46.3274
46.3471
46.3462
46.3242
46.1676
46.1841
46.1621
46.1519
46.1044
46.0519
46.0037
45.9518
45.9135
45.9066
45.9007
45.9215
45.9441
46.0004
46.0275
46.0987
46.1219
46.1783
46.1666
46.1679
46.1521
46.1433
46.1297
46.1336
46.153
46.1772
46.2073
46.2264
46.2277
46.2061
46.0449
46.0573
46.0326
46.0145
45.9654
45.9184
45.875
45.831
45.8025
45.8
45.7902
45.8135
45.8356
45.8902
45.9175
45.9903
46.0111
46.0693
46.0563
46.0578
46.0419
46.0345
46.018
46.0161
46.0294
46.0476
46.072
46.0922
46.099
46.0805
45.9064
45.9128
45.8811
45.8556
45.8042
45.7605
45.7211
45.6855
45.6671
45.6681
45.6659
45.6988
45.7236
45.7785
45.8083
45.8841
45.9013
45.9583
45.9425
45.942
45.9227
45.9144
45.8936
45.88
45.8827
45.8942
45.9138
45.937
45.9516
45.9404
45.7363
45.733
45.6921
45.6583
45.606
45.5669
45.5335
45.5092
45.499
45.5048
45.5202
45.5682
45.6022
45.6639
45.6996
45.7803
45.7932
45.8452
45.8251
45.8181
45.7862
45.767
45.7399
45.7164
45.7084
45.713
45.728
45.7527
45.7722
45.7684
45.516
45.4998
45.451
45.4083
45.3586
45.327
45.3048
45.2967
45.2966
45.3146
45.3486
45.4144
45.4639
45.5403
45.5872
45.6756
45.6838
45.7251
45.698
45.6774
45.6254
45.5849
45.5467
45.5165
45.4961
45.4932
45.5018
45.5242
45.5459
45.5456
45.2313
45.2021
45.1444
45.0951
45.0525
45.0322
45.0285
45.0413
45.0609
45.1045
45.1623
45.2479
45.3137
45.4085
45.4686
45.5659
45.5692
45.5954
45.5575
45.5189
45.4468
45.3806
45.3209
45.2752
45.2352
45.2175
45.2169
45.2308
45.2547
45.2608
44.8733
44.8278
44.7623
44.7121
44.6826
44.6803
44.7012
44.7423
44.7968
44.8787
44.9728
45.086
45.1721
45.2893
45.361
45.4719
45.4721
45.4799
45.4176
45.3587
45.2648
45.1669
45.0708
44.9911
44.9215
44.878
44.8628
44.8639
44.8856
44.9041
44.4343
44.3703
44.302
44.259
44.251
44.2767
44.3327
44.4144
44.5154
44.6443
44.7832
44.9328
45.0541
45.2127
45.3126
45.4347
45.4298
45.4188
45.3235
45.2295
45.0948
44.946
44.8002
44.6711
44.5617
44.4809
44.4388
44.4241
44.4336
44.4657
43.9118
43.8343
43.7722
43.75
43.7719
43.8392
43.9432
44.0812
44.239
44.4252
44.6166
44.8203
44.9787
45.1739
45.2999
45.4088
45.3925
45.369
45.2518
45.1202
44.9388
44.7407
44.5376
44.3426
44.1781
44.0458
43.958
43.9157
43.9064
43.945
43.3276
43.2489
43.2093
43.2252
43.3131
43.4543
43.6349
43.8512
44.0766
44.328
44.5701
44.8237
45.0103
45.2114
45.3296
45.4167
45.3889
45.3452
45.1998
45.0419
44.8298
44.5986
44.3294
44.0512
43.8095
43.6069
43.4562
43.3673
43.331
43.361
42.7946
42.7647
42.7969
42.8882
43.0642
43.2971
43.5634
43.8454
44.1539
44.4579
44.7354
45.0055
45.215
45.4308
45.5404
45.6239
45.5841
45.5225
45.3461
45.1596
44.9112
44.62
44.2914
43.9648
43.6407
43.3487
43.1114
42.9396
42.8322
42.8167
42.6026
42.6376
42.764
42.9581
43.2233
43.5307
43.8591
44.1972
44.539
44.8695
45.1651
45.441
45.6582
45.8885
45.9968
46.081
46.0313
45.9621
45.7757
45.573
45.3004
44.9801
44.6168
44.2476
43.8633
43.4937
43.1533
42.8895
42.692
42.6135
43.0029
43.0947
43.2955
43.5577
43.8764
44.2213
44.5761
44.9308
45.2739
45.5994
45.8837
46.1604
46.3631
46.5871
46.6869
46.7646
46.7102
46.6437
46.4642
46.2724
45.9981
45.6917
45.3276
44.9436
44.539
44.1359
43.7464
43.4193
43.1516
43.0158
44.16
44.2809
44.5073
44.7803
45.091
45.4121
45.7346
46.0503
46.3479
46.6333
46.8796
47.1316
47.3033
47.5101
47.5967
47.673
47.622
47.5715
47.4171
47.2592
47.0089
46.7431
46.4251
46.0832
45.7148
45.3373
44.9585
44.626
44.3421
44.1801
45.9205
46.0178
46.2043
46.4196
46.6593
46.9043
47.1485
47.3853
47.6053
47.8251
48.0167
48.2162
48.3432
48.5234
48.5897
48.6674
48.6284
48.6094
48.5022
48.4012
48.2191
48.0152
47.772
47.5052
47.2121
46.9079
46.5949
46.3167
46.0776
45.9479
47.1803
47.2482
47.4091
47.5909
47.789
47.9881
48.1785
48.3643
48.5381
48.7124
48.8638
49.023
49.1173
49.277
49.3246
49.4076
49.3864
49.4048
49.3455
49.3008
49.1798
49.0229
48.8199
48.5888
48.3346
48.0756
47.8005
47.5484
47.3341
47.226
47.2446
47.2632
47.1948
47.1234
47.0818
47.0273
46.9972
46.9992
47.0255
47.0894
47.1749
47.3136
47.4547
47.6533
47.8017
47.9276
47.926
47.9006
47.7587
47.6236
47.4616
47.339
47.2331
47.1645
47.1251
47.1158
47.141
47.1787
47.2075
47.2082
47.1879
47.18
47.1343
47.0955
47.068
47.0112
46.986
46.9892
47.0155
47.0769
47.1596
47.2953
47.4295
47.621
47.7639
47.8877
47.8879
47.8667
47.7322
47.6042
47.4452
47.3257
47.2222
47.1563
47.1195
47.1088
47.132
47.1646
47.1775
47.1462
47.1398
47.1054
47.078
47.0628
47.0427
46.9859
46.9647
46.9692
46.9957
47.0561
47.1354
47.2668
47.3942
47.5784
47.7131
47.833
47.8341
47.8195
47.6943
47.5756
47.4214
47.3057
47.2049
47.1419
47.1053
47.0927
47.1129
47.1399
47.1447
47.0951
47.0917
47.0458
47.0297
47.0277
47.0083
46.9548
46.9372
46.9429
46.9697
47.0291
47.1053
47.2316
47.3511
47.5273
47.6534
47.7716
47.773
47.7632
47.6472
47.5383
47.392
47.2816
47.1838
47.1223
47.0851
47.0704
47.0852
47.1052
47.1083
47.0526
47.0449
46.9956
46.9891
46.9935
46.9735
46.9222
46.9062
46.9119
46.9381
46.9965
47.0696
47.1909
47.3026
47.4711
47.5879
47.7051
47.7066
47.7014
47.5941
47.4945
47.3567
47.2522
47.1574
47.0973
47.0603
47.045
47.0564
47.0701
47.0707
47.0157
46.999
46.9524
46.9521
46.9578
46.9381
46.8879
46.8718
46.8764
46.901
46.9576
47.0274
47.1437
47.2477
47.4088
47.5163
47.6327
47.634
47.6333
47.5343
47.4439
47.3145
47.216
47.1247
47.0669
47.0311
47.0164
47.026
47.0331
47.0316
46.9811
46.9551
46.9158
46.9167
46.921
46.9011
46.8523
46.8351
46.838
46.8598
46.9139
46.98
47.0915
47.1883
47.3424
47.4407
47.5567
47.5573
47.5612
47.4696
47.3881
47.2668
47.1743
47.0872
47.0325
46.9989
46.9852
46.993
46.9945
46.9918
46.9478
46.9142
46.8842
46.8836
46.885
46.8635
46.8163
46.7978
46.7986
46.8173
46.8683
46.9301
47.0372
47.1276
47.2746
47.3634
47.4796
47.4801
47.489
47.4036
47.33
47.2163
47.1298
47.0476
46.9963
46.9649
46.9522
46.9581
46.9563
46.9531
46.9154
46.8765
46.8565
46.8535
46.8519
46.8276
46.7821
46.7624
46.7612
46.7769
46.8244
46.8811
46.9845
47.0677
47.208
47.2868
47.4039
47.4048
47.421
47.3409
47.2742
47.1665
47.0859
47.0086
46.9606
46.9313
46.9195
46.924
46.9203
46.9168
46.884
46.8418
46.8305
46.8252
46.8208
46.7945
46.7514
46.7311
46.7285
46.7418
46.786
46.8369
46.9354
47.0099
47.1439
47.2126
47.3316
47.3328
47.3585
47.2837
47.2243
47.1213
47.0464
46.9734
46.9277
46.9001
46.8885
46.891
46.886
46.8821
46.8531
46.81
46.8052
46.7979
46.7911
46.7637
46.7242
46.705
46.7027
46.7144
46.7557
46.801
46.8942
46.96
47.0886
47.147
47.2665
47.2678
47.3031
47.2331
47.1821
47.0837
47.0139
46.9438
46.899
46.8711
46.8586
46.8588
46.8528
46.8487
46.8226
46.7807
46.7808
46.7718
46.7634
46.7361
46.7013
46.6848
46.6841
46.6952
46.735
46.7759
46.8675
46.9282
47.0527
47.1013
47.2192
47.218
47.2613
47.1946
47.1506
47.056
46.9893
46.9199
46.8746
46.8447
46.8299
46.8276
46.8207
46.8168
46.7925
46.7535
46.7565
46.7473
46.7384
46.7125
46.6833
46.6706
46.6724
46.6839
46.7242
46.7626
46.8561
46.9146
47.0417
47.083
47.2001
47.1942
47.2411
47.1732
47.134
47.04
46.9729
46.9024
46.8548
46.8217
46.8035
46.7981
46.7899
46.7863
46.7626
46.7269
46.7317
46.7236
46.7152
46.692
46.6693
46.6612
46.6665
46.6795
46.7209
46.758
46.8533
46.9093
47.0429
47.0828
47.2094
47.1991
47.2467
47.1719
47.1303
47.0326
46.9635
46.8902
46.8396
46.8017
46.7789
46.7698
46.7599
46.7565
46.7323
46.699
46.7046
46.6991
46.6925
46.6735
46.6579
46.6555
46.6652
46.6802
46.7262
46.7635
46.8643
46.9134
47.054
47.0899
47.2347
47.2226
47.2748
47.1974
47.1518
47.0375
46.9615
46.8835
46.8286
46.7843
46.7549
46.7414
46.7292
46.7256
46.7001
46.6676
46.6741
46.6725
46.669
46.6561
46.6493
46.6532
46.6682
46.6907
46.7444
46.7856
46.8941
46.9429
47.0839
47.1116
47.267
47.2533
47.3147
47.2353
47.1918
47.0658
46.9738
46.8829
46.8219
46.7708
46.7329
46.7128
46.6971
46.6924
46.6647
46.6335
46.641
46.643
46.6433
46.6387
46.6423
46.6533
46.6788
46.7097
46.7729
46.8203
46.9402
46.9917
47.1407
47.1609
47.3213
47.3082
47.3757
47.2884
47.2455
47.1101
47.0057
46.8949
46.8201
46.7612
46.7142
46.6856
46.6652
46.6584
46.6278
46.5955
46.6029
46.6082
46.6132
46.6189
46.6352
46.6564
46.6969
46.7382
46.8136
46.8693
47.002
47.0582
47.221
47.2389
47.4203
47.4109
47.48
47.3796
47.3227
47.175
47.0553
46.9263
46.8282
46.7562
46.6998
46.6593
46.6314
46.6213
46.5883
46.5497
46.5569
46.5667
46.5786
46.5968
46.6275
46.6638
46.7233
46.7795
46.8694
46.9349
47.0826
47.1454
47.3243
47.343
47.5634
47.5563
47.6271
47.5134
47.4345
47.2644
47.1278
46.9778
46.8555
46.757
46.6878
46.6319
46.5926
46.577
46.5415
46.495
46.5039
46.5205
46.5425
46.5757
46.6216
46.6776
46.7583
46.8345
46.9426
47.0208
47.1854
47.2566
47.4542
47.4748
47.7427
47.7358
47.8103
47.6827
47.586
47.383
47.2287
47.0541
46.9053
46.7734
46.6792
46.6068
46.5505
46.5265
46.4885
46.4364
46.4485
46.4743
46.5092
46.5605
46.6208
46.7037
46.8054
46.9041
47.0328
47.1275
47.3116
47.3933
47.6124
47.6354
47.9562
47.9507
48.0319
47.8833
47.775
47.5376
47.3585
47.157
46.9767
46.8118
46.6783
46.5874
46.5112
46.4752
46.4346
46.3801
46.3966
46.4338
46.4866
46.5538
46.6374
46.747
46.8715
46.9922
47.1412
47.2531
47.4573
47.5505
47.7931
47.8205
48.2011
48.1921
48.2758
48.1091
47.9958
47.7283
47.5128
47.2856
47.0745
46.8779
46.7049
46.5796
46.4839
46.4288
46.3858
46.3329
46.3532
46.4061
46.4756
46.5612
46.6776
46.8117
46.9601
47.102
47.2704
47.3981
47.6198
47.7231
47.9945
48.0362
48.4514
48.424
48.5053
48.3407
48.2387
47.954
47.6964
47.4396
47.2023
46.9741
46.7676
46.5965
46.4714
46.3942
46.3471
46.2977
46.3209
46.3892
46.4741
46.5886
46.7379
46.8992
47.0715
47.2351
47.4226
47.5674
47.8106
47.9173
48.2126
48.267
48.65
48.6051
48.6921
48.5279
48.4483
48.1806
47.9135
47.6263
47.359
47.099
46.8564
46.6427
46.4779
46.3728
46.3212
46.2692
46.2989
46.3804
46.4878
46.6421
46.8228
47.0116
47.207
47.3925
47.5983
47.7583
48.0186
48.1283
48.4395
48.4836
48.8321
48.7876
48.8878
48.7086
48.6307
48.3827
48.1346
47.8327
47.5381
47.2495
46.9762
46.7204
46.5115
46.3641
46.3012
46.2554
46.2919
46.3927
46.5381
46.7242
46.9338
47.1478
47.3646
47.5688
47.7902
47.9645
48.2296
48.3436
48.6699
48.6887
49.0621
49.0228
49.1352
48.9472
48.8634
48.6105
48.356
48.0484
47.7372
47.422
47.1219
46.8333
46.583
46.3898
46.2945
46.2885
46.3326
46.4544
46.6258
46.8373
47.07
47.3034
47.5382
47.7578
47.9912
48.178
48.4455
48.5625
48.8995
48.8997
49.3093
49.2705
49.3958
49.2124
49.1356
48.8762
48.6083
48.2879
47.9566
47.6155
47.2831
46.9729
46.6922
46.4696
46.338
46.4072
46.4556
46.5901
46.7745
46.9979
47.2384
47.4818
47.7273
47.9573
48.1998
48.3948
48.6613
48.7819
49.1264
49.1174
49.5566
49.5161
49.6583
49.4885
49.423
49.1648
48.8932
48.5622
48.2163
47.8566
47.4984
47.1599
46.8624
46.6205
46.4652
46.6738
46.7139
46.8422
47.0197
47.2333
47.4627
47.7033
47.948
48.1794
48.4238
48.6193
48.8849
49.0087
49.3595
49.3423
49.82
49.7768
49.9415
49.7956
49.7452
49.4995
49.2315
48.8984
48.5486
48.1816
47.8181
47.4619
47.1568
46.9078
46.7427
47.1073
47.122
47.2262
47.3865
47.5813
47.7934
48.0122
48.239
48.4549
48.6864
48.8701
49.1316
49.2528
49.6088
49.5931
50.1261
50.088
50.2862
50.1723
50.1416
49.9124
49.6601
49.335
48.9915
48.6312
48.2771
47.9266
47.6146
47.3525
47.1856
47.3203
47.3396
47.3298
47.3069
47.2944
47.2716
47.264
47.2735
47.2947
47.3465
47.4074
47.5294
47.6392
47.8356
47.9736
48.1232
48.1205
48.111
47.9735
47.8543
47.6937
47.5826
47.4791
47.4104
47.3619
47.3344
47.3232
47.3164
47.3136
47.2884
47.276
47.2818
47.2832
47.2751
47.2686
47.2466
47.2418
47.2516
47.2725
47.3233
47.3825
47.5011
47.605
47.7934
47.9245
48.0695
48.0679
48.0616
47.932
47.822
47.6678
47.56
47.459
47.393
47.3463
47.319
47.3073
47.2977
47.2913
47.2466
47.2292
47.2234
47.233
47.2363
47.2348
47.2147
47.2131
47.2244
47.2457
47.296
47.3527
47.4676
47.5647
47.7448
47.8651
48.0034
48.0009
48.0011
47.8813
47.7812
47.6349
47.5333
47.4358
47.3714
47.3249
47.2963
47.284
47.2703
47.2606
47.2047
47.1826
47.1742
47.1866
47.1953
47.1966
47.1801
47.1814
47.1945
47.217
47.2679
47.3228
47.4351
47.5255
47.6983
47.8081
47.9425
47.9387
47.9434
47.8323
47.7414
47.6022
47.5059
47.4109
47.3474
47.3
47.2694
47.2547
47.2365
47.2251
47.167
47.1374
47.1305
47.1427
47.1542
47.1572
47.1437
47.1469
47.1617
47.1851
47.2375
47.291
47.4018
47.4861
47.6531
47.7529
47.8846
47.8791
47.888
47.7838
47.701
47.5681
47.4762
47.3827
47.3196
47.2713
47.2392
47.2228
47.2014
47.188
47.1316
47.0943
47.0896
47.1002
47.112
47.1157
47.1047
47.109
47.125
47.1489
47.2029
47.2551
47.365
47.444
47.6062
47.6961
47.8262
47.8187
47.8319
47.7332
47.6578
47.5304
47.4422
47.3498
47.2872
47.2385
47.2056
47.1879
47.1643
47.1497
47.097
47.0556
47.0525
47.0598
47.0702
47.0734
47.064
47.0688
47.0856
47.1098
47.1652
47.2161
47.3257
47.3999
47.558
47.6386
47.7683
47.7585
47.7764
47.6821
47.6136
47.4907
47.4056
47.3143
47.252
47.2032
47.17
47.1514
47.1266
47.112
47.0643
47.0235
47.0205
47.0239
47.0317
47.0334
47.0247
47.0293
47.0465
47.0711
47.1276
47.1772
47.2872
47.3574
47.5125
47.5844
47.7152
47.7031
47.7263
47.6351
47.573
47.4531
47.3704
47.28
47.2175
47.1686
47.1349
47.116
47.0911
47.0777
47.0354
46.9996
46.9962
46.9955
46.9999
46.999
46.9909
46.9949
47.0125
47.0378
47.0956
47.144
47.2557
47.3225
47.4767
47.5402
47.6742
47.6594
47.6889
47.5995
47.5433
47.4244
47.343
47.2518
47.1883
47.1387
47.1041
47.0849
47.061
47.0498
47.0123
46.9847
46.9813
46.9781
46.9789
46.9748
46.9666
46.9702
46.9884
47.0148
47.0755
47.1234
47.2385
47.3025
47.4587
47.5144
47.6536
47.6358
47.6718
47.5831
47.5305
47.4092
47.327
47.2337
47.1689
47.1174
47.0817
47.0624
47.04
47.0312
46.9963
46.9785
46.9749
46.9718
46.9701
46.9636
46.955
46.9587
46.9788
47.006
47.0698
47.1175
47.2371
47.3001
47.4655
47.5133
47.6605
47.6388
47.6812
47.5904
47.54
47.4086
47.3237
47.2266
47.1595
47.1059
47.0701
47.0507
47.0291
47.0217
46.9873
46.9804
46.9766
46.9738
46.9707
46.9635
46.9561
46.9595
46.9854
47.015
47.0875
47.1372
47.2656
47.3273
47.5008
47.5419
47.698
47.6713
47.7205
47.6263
47.5803
47.442
47.3512
47.2406
47.1626
47.1033
47.0656
47.0455
47.0241
47.0176
46.9839
46.9907
46.9861
46.9838
46.9792
46.9724
46.9687
46.977
47.0094
47.0447
47.1259
47.179
47.3199
47.3818
47.5666
47.6012
47.7668
47.7331
47.7884
47.6896
47.6463
47.4982
47.3999
47.2791
47.1905
47.1169
47.0694
47.0453
47.0241
47.0198
46.9877
47.0086
47.0034
47.0028
46.9976
46.9923
46.9934
47.0085
47.0493
47.0926
47.1839
47.2421
47.3978
47.4615
47.6616
47.6904
47.8662
47.8233
47.8832
47.7767
47.7352
47.5756
47.4675
47.3343
47.2332
47.1479
47.09
47.0595
47.0357
47.0346
46.9993
47.033
47.0274
47.0299
47.0252
47.0226
47.0303
47.0539
47.105
47.1575
47.2601
47.3244
47.4951
47.5601
47.7786
47.8026
47.9927
47.9396
48.0032
47.8861
47.8448
47.6721
47.5527
47.4059
47.2908
47.192
47.1224
47.0836
47.0558
47.0561
47.0176
47.0628
47.0568
47.0636
47.0602
47.0622
47.0783
47.112
47.1747
47.2377
47.3525
47.4238
47.6097
47.6751
47.9119
47.9301
48.138
48.0744
48.1436
48.0157
47.9751
47.7866
47.6542
47.4928
47.3626
47.2489
47.1659
47.117
47.0833
47.0835
47.0413
47.0962
47.09
47.1017
47.1007
47.1096
47.1359
47.1811
47.2569
47.3311
47.4588
47.5378
47.7397
47.8053
48.0607
48.0703
48.294
48.2186
48.2956
48.1569
48.1223
47.9172
47.7711
47.5941
47.4475
47.3177
47.2197
47.1588
47.1171
47.1156
47.0693
47.1304
47.1241
47.141
47.144
47.162
47.2006
47.2592
47.3491
47.4357
47.577
47.6643
47.8822
47.9476
48.223
48.2221
48.4595
48.3707
48.4572
48.3065
48.2811
48.063
47.902
47.7087
47.5447
47.3972
47.2825
47.2073
47.1552
47.1498
47.0992
47.1618
47.1553
47.1776
47.187
47.2166
47.2695
47.3435
47.4489
47.5488
47.7046
47.801
48.0344
48.0986
48.395
48.382
48.6346
48.5356
48.6298
48.4684
48.4516
48.2225
48.046
47.8355
47.6529
47.4859
47.3526
47.2602
47.1949
47.1822
47.1281
47.1868
47.1804
47.2087
47.227
47.2708
47.34
47.4315
47.5535
47.6681
47.839
47.9451
48.1934
48.2548
48.5726
48.5446
48.8182
48.7176
48.8172
48.6535
48.6365
48.3934
48.203
47.9738
47.7711
47.5827
47.428
47.3156
47.2341
47.2103
47.1533
47.2043
47.1985
47.233
47.2631
47.3233
47.4108
47.5211
47.6607
47.7912
47.9775
48.094
48.3564
48.4125
48.7512
48.7034
49.0082
48.9117
49.0239
48.8624
48.831
48.5792
48.3702
48.1231
47.8982
47.6866
47.5084
47.373
47.2732
47.2341
47.174
47.2151
47.2107
47.2518
47.2967
47.3749
47.4821
47.612
47.7694
47.9163
48.1179
48.2447
48.5199
48.5672
48.9253
48.8501
49.1979
49.1061
49.2438
49.0754
49.0318
48.7749
48.548
48.2825
48.0351
47.7997
47.596
47.4347
47.3129
47.2553
47.1912
47.2224
47.2201
47.2703
47.3312
47.4288
47.5564
47.7052
47.8799
48.0436
48.2581
48.3946
48.6804
48.7143
49.089
48.9774
49.3833
49.2931
49.4632
49.2839
49.2416
48.9732
48.7371
48.4527
48.1849
47.9251
47.6955
47.5054
47.3573
47.2763
47.2077
47.2324
47.2331
47.2943
47.3725
47.49
47.6375
47.8039
47.9946
48.1732
48.3984
48.5427
48.8356
48.8494
49.2364
49.0807
49.5517
49.4579
49.6644
49.4849
49.455
49.1782
48.9321
48.6356
48.3486
48.0663
47.8115
47.5921
47.415
47.3063
47.23
47.2533
47.2576
47.3314
47.4283
47.5644
47.7291
47.9108
48.115
48.305
48.5386
48.687
48.9816
48.9701
49.3642
49.1612
49.6788
49.5837
49.8287
49.6615
49.6503
49.3776
49.1285
48.8254
48.5273
48.2259
47.9489
47.701
47.4937
47.3527
47.2652
47.2945
47.3015
47.3857
47.4995
47.6519
47.8311
48.0254
48.2391
48.4372
48.6761
48.8236
49.1141
49.0743
49.4691
49.21
49.7647
49.678
49.961
49.8121
49.8206
49.5633
49.3228
49.0163
48.7131
48.4011
48.1072
47.8349
47.5997
47.4256
47.3217
47.3609
47.3664
47.4549
47.5799
47.7452
47.9368
48.1407
48.3612
48.5646
48.805
48.9468
49.2294
49.1553
49.5454
49.2225
49.822
49.7516
50.0711
49.942
49.9756
49.7394
49.511
49.2069
48.8991
48.5791
48.2745
47.9901
47.734
47.5324
47.4057
47.4506
47.4488
47.5349
47.6656
47.8386
48.0364
48.2445
48.4703
48.6768
48.9156
49.0476
49.3185
49.202
49.5882
49.2005
49.8515
49.8059
50.1567
50.0487
50.1092
49.9025
49.6921
49.3944
49.0844
48.7555
48.4426
48.1517
47.8862
47.6662
47.5172
47.5556
47.5421
47.6128
47.7394
47.9116
48.1082
48.3177
48.5474
48.756
48.9919
49.1114
49.3673
49.2079
49.5947
49.1507
49.8577
49.8438
50.2217
50.1397
50.2213
50.0453
49.8542
49.5642
49.2543
48.9215
48.6014
48.3036
48.0375
47.8103
47.6486
47.5733
47.5539
47.6197
47.7459
47.921
48.1261
48.3486
48.591
48.8019
49.0323
49.1337
49.3703
49.1723
49.5615
49.0834
49.8439
49.869
50.2751
50.2236
50.328
50.1725
49.9957
49.7088
49.394
49.0509
48.7143
48.3969
48.115
47.8703
47.689
47.3896
47.4054
47.4095
47.4079
47.4068
47.397
47.3882
47.3931
47.401
47.4403
47.4787
47.5988
47.6943
47.9328
48.0933
48.3307
48.3462
48.378
48.2201
48.0962
47.9019
47.779
47.6559
47.576
47.5143
47.4723
47.4421
47.411
47.391
47.3526
47.3439
47.3532
47.3647
47.3707
47.3727
47.3643
47.3585
47.3651
47.3739
47.4134
47.4516
47.569
47.6589
47.8882
48.0398
48.2688
48.2842
48.3182
48.1691
48.0547
47.8695
47.7512
47.6309
47.5537
47.4933
47.451
47.4206
47.3878
47.3677
47.316
47.2922
47.2992
47.3154
47.3268
47.3317
47.326
47.3239
47.3333
47.3438
47.3846
47.422
47.538
47.6221
47.8447
47.9833
48.2037
48.2155
48.2556
48.1164
48.013
47.8355
47.7229
47.6049
47.5293
47.4684
47.424
47.3925
47.3567
47.3359
47.277
47.243
47.2529
47.2691
47.2826
47.289
47.2867
47.2878
47.3001
47.3127
47.3564
47.3935
47.5104
47.5891
47.8079
47.9349
48.1522
48.1603
48.205
48.0723
47.978
47.8057
47.6966
47.5795
47.5044
47.4419
47.3949
47.3614
47.3227
47.3008
47.2409