/*--------------------------------*- C++ -*----------------------------------*\
  =========                 |
  \\      /  F ield         | OpenFOAM: The Open Source CFD Toolbox
   \\    /   O peration     | Website:  https://openfoam.org
    \\  /    A nd           | Version:  12
     \\/     M anipulation  |
\*---------------------------------------------------------------------------*/
FoamFile
{
    format      ascii;
    class       volScalarField;
    location    "50/air";
    object      T;
}
// * * * * * * * * * * * * * * * * * * * * * * * * * * * * * * * * * * * * * //

dimensions      [0 0 0 1 0 0 0];

internalField   nonuniform List<scalar> 
243000
(
300.047
300.014
299.964
299.922
299.908
299.939
299.961
299.98
299.997
300.016
300.036
300.055
300.074
300.093
300.11
300.122
300.114
300.095
300.076
300.056
300.037
300.02
300.004
299.989
299.977
299.966
299.954
299.952
300.009
300.042
300.08
300.043
299.964
299.894
299.895
299.927
299.954
299.98
300.006
300.032
300.057
300.082
300.104
300.125
300.144
300.154
300.147
300.128
300.107
300.084
300.06
300.038
300.017
299.998
299.98
299.964
299.949
299.941
299.986
300.055
300.131
300.086
299.978
299.879
299.888
299.925
299.96
299.995
300.028
300.061
300.093
300.122
300.148
300.171
300.191
300.201
300.195
300.175
300.152
300.125
300.097
300.069
300.042
300.017
299.994
299.972
299.952
299.942
299.981
300.078
300.191
300.141
300.005
299.882
299.887
299.932
299.977
300.021
300.063
300.104
300.143
300.177
300.206
300.231
300.252
300.261
300.255
300.235
300.211
300.181
300.148
300.114
300.08
300.047
300.017
299.989
299.962
299.95
300
300.112
300.255
300.206
300.056
299.908
299.901
299.954
300.009
300.062
300.113
300.162
300.207
300.245
300.276
300.302
300.322
300.33
300.325
300.306
300.281
300.25
300.214
300.174
300.133
300.092
300.054
300.019
299.984
299.973
300.043
300.162
300.328
300.283
300.13
299.967
299.939
299.995
300.058
300.118
300.176
300.232
300.28
300.32
300.351
300.377
300.396
300.402
300.397
300.379
300.355
300.325
300.288
300.245
300.199
300.152
300.107
300.067
300.026
300.021
300.105
300.226
300.408
300.368
300.222
300.075
300.013
300.065
300.126
300.189
300.251
300.31
300.36
300.399
300.429
300.452
300.469
300.474
300.469
300.452
300.431
300.403
300.367
300.323
300.275
300.225
300.176
300.134
300.102
300.11
300.187
300.302
300.491
300.458
300.323
300.199
300.13
300.162
300.211
300.273
300.335
300.393
300.441
300.478
300.505
300.525
300.539
300.542
300.536
300.521
300.503
300.479
300.446
300.406
300.359
300.309
300.26
300.219
300.196
300.212
300.281
300.389
300.572
300.547
300.427
300.319
300.262
300.269
300.308
300.365
300.423
300.477
300.521
300.553
300.575
300.591
300.602
300.602
300.596
300.583
300.568
300.549
300.522
300.486
300.444
300.398
300.353
300.317
300.301
300.319
300.383
300.479
300.648
300.629
300.527
300.434
300.382
300.38
300.41
300.458
300.509
300.557
300.593
300.619
300.636
300.647
300.655
300.652
300.647
300.634
300.622
300.608
300.588
300.56
300.525
300.487
300.449
300.419
300.409
300.429
300.485
300.568
300.714
300.701
300.618
300.539
300.493
300.485
300.507
300.546
300.588
300.626
300.655
300.673
300.684
300.69
300.694
300.69
300.684
300.672
300.663
300.654
300.64
300.621
300.596
300.567
300.538
300.517
300.512
300.532
300.58
300.648
300.764
300.756
300.692
300.628
300.589
300.578
300.592
300.621
300.653
300.681
300.701
300.711
300.717
300.717
300.719
300.713
300.709
300.697
300.69
300.683
300.675
300.664
300.649
300.632
300.614
300.601
300.602
300.622
300.661
300.713
300.796
300.792
300.745
300.696
300.663
300.651
300.658
300.678
300.699
300.717
300.729
300.734
300.737
300.734
300.734
300.728
300.724
300.714
300.707
300.701
300.695
300.689
300.682
300.676
300.668
300.665
300.671
300.689
300.721
300.758
300.809
300.807
300.775
300.739
300.713
300.701
300.701
300.711
300.724
300.736
300.744
300.747
300.748
300.744
300.742
300.736
300.733
300.723
300.717
300.71
300.706
300.7
300.697
300.696
300.698
300.704
300.714
300.731
300.755
300.781
300.801
300.803
300.781
300.756
300.735
300.723
300.72
300.726
300.736
300.745
300.751
300.752
300.752
300.747
300.745
300.739
300.736
300.727
300.721
300.714
300.709
300.703
300.7
300.701
300.706
300.716
300.729
300.746
300.764
300.781
300.777
300.781
300.769
300.752
300.736
300.727
300.726
300.731
300.74
300.747
300.752
300.753
300.752
300.746
300.743
300.737
300.736
300.728
300.721
300.714
300.708
300.702
300.698
300.698
300.703
300.712
300.725
300.739
300.75
300.76
300.748
300.754
300.749
300.738
300.728
300.723
300.724
300.731
300.74
300.747
300.751
300.751
300.749
300.743
300.739
300.734
300.733
300.726
300.719
300.712
300.706
300.699
300.693
300.692
300.695
300.702
300.711
300.721
300.728
300.733
300.721
300.728
300.728
300.722
300.717
300.717
300.721
300.729
300.738
300.744
300.748
300.747
300.745
300.738
300.734
300.729
300.729
300.722
300.716
300.709
300.703
300.695
300.689
300.686
300.686
300.69
300.696
300.702
300.705
300.707
300.698
300.707
300.71
300.709
300.708
300.711
300.718
300.727
300.736
300.741
300.744
300.743
300.74
300.732
300.728
300.724
300.724
300.718
300.713
300.706
300.7
300.693
300.686
300.681
300.678
300.679
300.682
300.685
300.685
300.685
300.68
300.689
300.695
300.698
300.701
300.708
300.717
300.726
300.733
300.738
300.739
300.736
300.733
300.725
300.72
300.717
300.718
300.714
300.709
300.703
300.698
300.692
300.685
300.678
300.674
300.672
300.671
300.671
300.669
300.668
300.666
300.676
300.684
300.69
300.697
300.705
300.715
300.723
300.729
300.731
300.73
300.726
300.721
300.714
300.709
300.706
300.708
300.705
300.702
300.698
300.694
300.689
300.684
300.677
300.671
300.667
300.664
300.661
300.657
300.655
300.654
300.664
300.674
300.683
300.692
300.701
300.709
300.715
300.717
300.716
300.713
300.708
300.702
300.695
300.69
300.688
300.691
300.69
300.688
300.686
300.684
300.682
300.678
300.673
300.667
300.662
300.657
300.653
300.648
300.645
300.641
300.651
300.663
300.673
300.682
300.689
300.693
300.694
300.692
300.687
300.681
300.675
300.669
300.663
300.659
300.658
300.662
300.663
300.663
300.663
300.663
300.663
300.663
300.661
300.657
300.653
300.648
300.644
300.638
300.635
300.621
300.63
300.641
300.65
300.654
300.655
300.653
300.65
300.645
300.638
300.632
300.626
300.62
300.615
300.611
300.613
300.617
300.62
300.621
300.623
300.625
300.627
300.629
300.631
300.631
300.63
300.628
300.625
300.621
300.617
300.585
300.59
300.596
300.6
300.601
300.599
300.595
300.59
300.585
300.579
300.573
300.568
300.564
300.56
300.557
300.559
300.563
300.565
300.567
300.569
300.572
300.574
300.577
300.58
300.582
300.583
300.584
300.584
300.584
300.583
300.528
300.531
300.533
300.534
300.533
300.531
300.528
300.524
300.52
300.515
300.511
300.507
300.504
300.502
300.5
300.502
300.505
300.507
300.509
300.51
300.512
300.515
300.517
300.52
300.522
300.524
300.525
300.526
300.526
300.527
300.464
300.466
300.466
300.466
300.465
300.463
300.461
300.458
300.455
300.452
300.449
300.447
300.445
300.444
300.444
300.445
300.448
300.449
300.45
300.451
300.453
300.455
300.457
300.458
300.46
300.461
300.462
300.463
300.463
300.464
300.405
300.406
300.405
300.404
300.403
300.401
300.399
300.397
300.395
300.393
300.391
300.39
300.389
300.389
300.389
300.391
300.393
300.394
300.395
300.396
300.397
300.398
300.4
300.401
300.402
300.404
300.404
300.405
300.405
300.405
300.354
300.354
300.353
300.351
300.35
300.348
300.346
300.344
300.342
300.341
300.339
300.338
300.338
300.338
300.339
300.341
300.342
300.343
300.344
300.345
300.346
300.347
300.349
300.35
300.351
300.353
300.354
300.354
300.354
300.354
300.308
300.307
300.306
300.305
300.303
300.301
300.299
300.297
300.295
300.294
300.293
300.292
300.292
300.292
300.293
300.295
300.296
300.297
300.297
300.298
300.299
300.301
300.302
300.304
300.305
300.307
300.308
300.308
300.309
300.308
299.979
299.954
299.919
299.883
299.881
299.919
299.941
299.958
299.973
299.987
300.001
300.015
300.029
300.043
300.056
300.065
300.058
300.045
300.03
300.016
300.003
299.991
299.981
299.971
299.963
299.954
299.945
299.944
299.98
300.004
299.982
299.959
299.917
299.875
299.88
299.914
299.937
299.955
299.971
299.986
300
300.014
300.028
300.041
300.052
300.058
300.053
300.041
300.028
300.015
300.002
299.991
299.981
299.972
299.964
299.955
299.945
299.943
299.972
300.005
299.998
299.973
299.926
299.883
299.889
299.918
299.941
299.96
299.976
299.991
300.006
300.019
300.032
300.043
300.053
300.057
300.053
300.042
300.03
300.018
300.007
299.996
299.987
299.978
299.97
299.962
299.952
299.95
299.975
300.012
300.02
299.994
299.944
299.901
299.904
299.929
299.951
299.969
299.985
300
300.014
300.027
300.038
300.048
300.056
300.059
300.056
300.046
300.036
300.025
300.015
300.005
299.996
299.987
299.979
299.971
299.963
299.963
299.987
300.025
300.046
300.02
299.969
299.929
299.925
299.946
299.965
299.982
299.997
300.011
300.024
300.035
300.045
300.053
300.06
300.061
300.058
300.05
300.042
300.033
300.024
300.015
300.007
299.999
299.991
299.984
299.978
299.98
300.005
300.043
300.075
300.05
300
299.961
299.952
299.966
299.982
299.996
300.01
300.023
300.034
300.044
300.052
300.058
300.063
300.063
300.06
300.054
300.047
300.04
300.033
300.026
300.019
300.012
300.006
300
299.996
300.002
300.028
300.066
300.105
300.081
300.033
299.997
299.983
299.99
300.001
300.013
300.024
300.035
300.044
300.051
300.057
300.06
300.064
300.063
300.061
300.056
300.051
300.046
300.042
300.037
300.032
300.027
300.022
300.018
300.018
300.028
300.054
300.093
300.136
300.114
300.068
300.033
300.016
300.016
300.022
300.031
300.039
300.047
300.053
300.057
300.061
300.062
300.064
300.063
300.061
300.057
300.054
300.052
300.05
300.047
300.045
300.043
300.04
300.039
300.043
300.056
300.084
300.122
300.166
300.146
300.102
300.068
300.049
300.043
300.044
300.049
300.053
300.058
300.061
300.062
300.063
300.063
300.063
300.061
300.06
300.057
300.056
300.056
300.056
300.057
300.057
300.058
300.059
300.062
300.069
300.086
300.114
300.152
300.194
300.175
300.134
300.101
300.08
300.069
300.066
300.066
300.067
300.067
300.067
300.066
300.065
300.063
300.062
300.061
300.06
300.058
300.058
300.06
300.062
300.065
300.068
300.072
300.077
300.084
300.095
300.115
300.144
300.18
300.218
300.2
300.163
300.13
300.107
300.093
300.086
300.081
300.078
300.076
300.073
300.07
300.067
300.064
300.063
300.062
300.061
300.06
300.061
300.064
300.067
300.072
300.078
300.085
300.094
300.104
300.119
300.141
300.171
300.205
300.238
300.222
300.187
300.156
300.131
300.114
300.103
300.095
300.089
300.084
300.079
300.075
300.072
300.069
300.068
300.066
300.066
300.066
300.067
300.07
300.074
300.08
300.087
300.096
300.108
300.122
300.14
300.165
300.195
300.226
300.254
300.24
300.208
300.177
300.152
300.134
300.12
300.109
300.101
300.094
300.088
300.083
300.079
300.076
300.075
300.073
300.073
300.074
300.076
300.079
300.084
300.09
300.098
300.108
300.122
300.138
300.159
300.185
300.215
300.243
300.269
300.256
300.228
300.198
300.173
300.153
300.137
300.125
300.115
300.107
300.1
300.094
300.089
300.086
300.084
300.083
300.083
300.084
300.087
300.091
300.097
300.104
300.113
300.124
300.138
300.155
300.177
300.203
300.232
300.259
300.286
300.275
300.249
300.221
300.196
300.175
300.159
300.145
300.134
300.124
300.116
300.108
300.103
300.099
300.097
300.096
300.096
300.098
300.101
300.106
300.113
300.121
300.131
300.143
300.158
300.176
300.199
300.225
300.252
300.276
300.309
300.3
300.276
300.249
300.224
300.203
300.185
300.17
300.157
300.145
300.135
300.126
300.119
300.115
300.112
300.111
300.112
300.114
300.118
300.124
300.132
300.142
300.154
300.167
300.183
300.203
300.225
300.251
300.278
300.299
300.337
300.328
300.307
300.281
300.257
300.235
300.216
300.199
300.184
300.171
300.158
300.148
300.14
300.134
300.131
300.13
300.131
300.134
300.139
300.147
300.156
300.168
300.181
300.196
300.214
300.234
300.257
300.282
300.307
300.327
300.368
300.36
300.341
300.317
300.294
300.272
300.252
300.233
300.216
300.201
300.187
300.175
300.165
300.159
300.155
300.153
300.155
300.159
300.165
300.174
300.185
300.198
300.213
300.23
300.249
300.269
300.292
300.317
300.34
300.358
300.4
300.394
300.377
300.356
300.333
300.312
300.291
300.272
300.253
300.236
300.22
300.206
300.195
300.188
300.183
300.182
300.184
300.188
300.196
300.206
300.219
300.234
300.25
300.268
300.288
300.309
300.331
300.354
300.375
300.391
300.432
300.428
300.414
300.395
300.375
300.354
300.334
300.314
300.294
300.275
300.258
300.243
300.231
300.222
300.217
300.215
300.218
300.223
300.231
300.243
300.257
300.273
300.291
300.31
300.33
300.351
300.372
300.392
300.411
300.425
300.463
300.46
300.449
300.433
300.416
300.397
300.378
300.358
300.338
300.318
300.3
300.284
300.271
300.261
300.256
300.254
300.257
300.263
300.272
300.284
300.299
300.316
300.335
300.354
300.374
300.393
300.412
300.43
300.445
300.456
300.489
300.488
300.48
300.468
300.454
300.438
300.42
300.401
300.382
300.362
300.344
300.328
300.314
300.305
300.299
300.297
300.3
300.306
300.315
300.327
300.343
300.36
300.379
300.398
300.416
300.433
300.449
300.464
300.476
300.484
300.51
300.51
300.505
300.497
300.486
300.472
300.457
300.441
300.423
300.405
300.388
300.372
300.359
300.35
300.344
300.341
300.344
300.35
300.359
300.371
300.386
300.403
300.42
300.437
300.453
300.468
300.481
300.492
300.501
300.506
300.524
300.525
300.522
300.516
300.509
300.499
300.487
300.474
300.459
300.443
300.427
300.413
300.402
300.393
300.387
300.385
300.387
300.393
300.401
300.412
300.425
300.44
300.455
300.469
300.482
300.494
300.504
300.512
300.518
300.521
300.529
300.531
300.53
300.526
300.521
300.514
300.505
300.495
300.483
300.47
300.458
300.446
300.436
300.428
300.423
300.421
300.424
300.429
300.436
300.445
300.456
300.469
300.481
300.492
300.502
300.51
300.517
300.522
300.526
300.528
300.526
300.527
300.527
300.525
300.522
300.517
300.511
300.504
300.496
300.486
300.476
300.467
300.459
300.453
300.45
300.448
300.45
300.454
300.46
300.467
300.476
300.485
300.494
300.502
300.509
300.515
300.519
300.522
300.524
300.525
300.515
300.517
300.517
300.516
300.515
300.512
300.509
300.504
300.499
300.492
300.486
300.479
300.474
300.469
300.466
300.465
300.467
300.47
300.474
300.48
300.486
300.492
300.498
300.503
300.507
300.51
300.513
300.514
300.515
300.515
300.503
300.504
300.505
300.505
300.505
300.504
300.502
300.5
300.497
300.493
300.489
300.485
300.481
300.478
300.477
300.476
300.477
300.479
300.482
300.485
300.489
300.493
300.496
300.499
300.501
300.503
300.503
300.504
300.504
300.503
300.496
300.497
300.498
300.498
300.498
300.498
300.498
300.497
300.495
300.493
300.491
300.488
300.486
300.485
300.483
300.483
300.484
300.485
300.487
300.489
300.491
300.493
300.495
300.497
300.497
300.498
300.498
300.497
300.497
300.496
300.5
300.501
300.501
300.502
300.502
300.501
300.501
300.5
300.499
300.497
300.495
300.494
300.493
300.492
300.491
300.491
300.491
300.492
300.493
300.494
300.496
300.497
300.499
300.5
300.501
300.501
300.502
300.502
300.501
300.5
299.939
299.922
299.899
299.875
299.889
299.922
299.94
299.953
299.963
299.972
299.981
299.99
299.998
300.007
300.014
300.018
300.014
300.006
299.998
299.99
299.983
299.977
299.971
299.966
299.961
299.956
299.949
299.945
299.964
299.981
299.936
299.924
299.903
299.883
299.899
299.925
299.943
299.955
299.965
299.973
299.98
299.987
299.994
300
300.005
300.007
300.005
299.999
299.993
299.987
299.982
299.978
299.974
299.97
299.966
299.961
299.954
299.95
299.963
299.979
299.945
299.934
299.915
299.9
299.914
299.935
299.95
299.962
299.97
299.978
299.984
299.989
299.994
299.999
300.002
300.003
300.002
299.997
299.993
299.989
299.985
299.982
299.979
299.975
299.972
299.968
299.962
299.959
299.968
299.982
299.958
299.948
299.931
299.92
299.93
299.947
299.959
299.969
299.977
299.983
299.988
299.992
299.996
299.999
300.002
300.002
300.001
299.998
299.995
299.992
299.989
299.986
299.984
299.981
299.979
299.975
299.971
299.969
299.976
299.989
299.972
299.963
299.948
299.94
299.946
299.958
299.968
299.976
299.983
299.988
299.992
299.996
299.998
300.001
300.002
300.002
300.002
299.999
299.997
299.995
299.993
299.991
299.989
299.987
299.985
299.983
299.98
299.979
299.986
299.997
299.987
299.979
299.965
299.958
299.961
299.969
299.977
299.983
299.988
299.992
299.996
299.998
300
300.002
300.003
300.003
300.002
300.001
299.999
299.998
299.996
299.995
299.994
299.992
299.991
299.989
299.988
299.989
299.995
300.006
300.001
299.993
299.981
299.974
299.974
299.979
299.985
299.989
299.993
299.996
299.999
300.001
300.002
300.003
300.004
300.004
300.003
300.002
300.001
300
299.999
299.998
299.998
299.997
299.996
299.995
299.995
299.998
300.005
300.015
300.015
300.007
299.995
299.988
299.986
299.988
299.991
299.995
299.997
300
300.001
300.003
300.004
300.004
300.004
300.004
300.004
300.003
300.002
300.002
300.002
300.001
300.001
300.001
300.001
300.001
300.002
300.006
300.014
300.025
300.027
300.02
300.008
300
299.996
299.996
299.997
299.999
300.001
300.003
300.004
300.004
300.005
300.005
300.005
300.005
300.004
300.004
300.004
300.003
300.003
300.004
300.004
300.004
300.005
300.006
300.009
300.015
300.024
300.035
300.04
300.032
300.02
300.01
300.005
300.003
300.003
300.004
300.005
300.005
300.005
300.006
300.006
300.005
300.005
300.005
300.005
300.004
300.005
300.005
300.005
300.006
300.007
300.008
300.01
300.012
300.016
300.023
300.033
300.045
300.052
300.044
300.032
300.021
300.014
300.01
300.009
300.008
300.008
300.008
300.007
300.007
300.007
300.006
300.006
300.006
300.006
300.005
300.006
300.006
300.007
300.008
300.009
300.011
300.014
300.018
300.023
300.032
300.043
300.055
300.064
300.056
300.043
300.031
300.023
300.017
300.014
300.012
300.011
300.01
300.009
300.008
300.008
300.007
300.007
300.006
300.006
300.006
300.007
300.007
300.009
300.01
300.012
300.015
300.019
300.024
300.031
300.041
300.053
300.066
300.075
300.068
300.054
300.041
300.032
300.025
300.02
300.017
300.015
300.013
300.011
300.01
300.009
300.009
300.008
300.008
300.008
300.008
300.008
300.009
300.011
300.013
300.015
300.019
300.023
300.03
300.038
300.05
300.064
300.076
300.088
300.081
300.067
300.052
300.041
300.033
300.027
300.022
300.019
300.016
300.014
300.013
300.011
300.01
300.01
300.009
300.009
300.01
300.01
300.011
300.013
300.016
300.019
300.023
300.029
300.037
300.047
300.06
300.075
300.088
300.102
300.094
300.08
300.065
300.052
300.042
300.035
300.029
300.024
300.021
300.018
300.016
300.014
300.013
300.012
300.011
300.011
300.012
300.013
300.014
300.017
300.02
300.024
300.029
300.036
300.045
300.057
300.071
300.087
300.1
300.117
300.11
300.095
300.079
300.065
300.053
300.044
300.037
300.031
300.026
300.023
300.02
300.018
300.016
300.015
300.014
300.014
300.015
300.016
300.018
300.021
300.025
300.03
300.037
300.045
300.056
300.069
300.085
300.102
300.115
300.135
300.128
300.113
300.096
300.08
300.067
300.056
300.047
300.04
300.034
300.029
300.025
300.022
300.02
300.019
300.018
300.018
300.019
300.021
300.023
300.027
300.032
300.038
300.046
300.056
300.068
300.083
300.101
300.118
300.132
300.155
300.148
300.133
300.115
300.098
300.083
300.07
300.059
300.05
300.043
300.037
300.032
300.028
300.026
300.024
300.023
300.023
300.024
300.027
300.03
300.034
300.04
300.048
300.058
300.069
300.084
300.1
300.119
300.137
300.151
300.177
300.17
300.155
300.137
300.118
300.102
300.087
300.074
300.064
300.055
300.047
300.041
300.036
300.033
300.031
300.03
300.03
300.032
300.034
300.038
300.044
300.051
300.061
300.072
300.086
300.102
300.12
300.14
300.158
300.172
300.2
300.194
300.179
300.161
300.141
300.123
300.107
300.092
300.08
300.069
300.06
300.053
300.047
300.043
300.04
300.039
300.039
300.041
300.044
300.049
300.056
300.065
300.076
300.089
300.105
300.122
300.142
300.162
300.181
300.195
300.224
300.219
300.205
300.186
300.167
300.147
300.13
300.113
300.099
300.086
300.076
300.067
300.06
300.055
300.052
300.05
300.051
300.053
300.057
300.063
300.072
300.082
300.095
300.11
300.127
300.146
300.166
300.187
300.206
300.219
300.248
300.243
300.23
300.212
300.193
300.173
300.155
300.137
300.121
300.107
300.095
300.084
300.077
300.071
300.067
300.065
300.066
300.069
300.074
300.081
300.09
300.102
300.117
300.133
300.151
300.171
300.192
300.212
300.231
300.243
300.272
300.267
300.255
300.239
300.22
300.2
300.181
300.163
300.145
300.13
300.116
300.105
300.096
300.09
300.086
300.084
300.085
300.088
300.093
300.102
300.112
300.126
300.141
300.159
300.177
300.198
300.218
300.238
300.255
300.267
300.293
300.289
300.278
300.263
300.245
300.227
300.208
300.189
300.171
300.155
300.141
300.128
300.119
300.112
300.108
300.105
300.106
300.11
300.116
300.125
300.137
300.151
300.167
300.185
300.204
300.224
300.244
300.262
300.278
300.289
300.311
300.308
300.298
300.285
300.269
300.251
300.233
300.215
300.198
300.181
300.166
300.154
300.144
300.136
300.132
300.129
300.131
300.134
300.141
300.151
300.163
300.178
300.194
300.212
300.23
300.249
300.267
300.284
300.298
300.308
300.325
300.322
300.314
300.302
300.288
300.272
300.256
300.239
300.222
300.207
300.192
300.18
300.17
300.162
300.158
300.155
300.156
300.16
300.167
300.176
300.189
300.203
300.219
300.236
300.253
300.27
300.286
300.301
300.314
300.322
300.333
300.331
300.324
300.314
300.302
300.289
300.274
300.26
300.245
300.23
300.217
300.205
300.196
300.188
300.184
300.181
300.182
300.185
300.192
300.201
300.213
300.226
300.241
300.256
300.271
300.286
300.3
300.313
300.324
300.331
300.336
300.333
300.328
300.32
300.31
300.3
300.288
300.276
300.263
300.251
300.239
300.229
300.22
300.214
300.209
300.206
300.207
300.21
300.215
300.223
300.234
300.245
300.258
300.271
300.284
300.296
300.308
300.318
300.328
300.334
300.333
300.331
300.327
300.321
300.314
300.306
300.297
300.288
300.278
300.269
300.259
300.251
300.243
300.237
300.233
300.23
300.23
300.232
300.236
300.243
300.251
300.261
300.271
300.282
300.292
300.302
300.311
300.319
300.326
300.332
300.326
300.325
300.322
300.318
300.314
300.309
300.303
300.297
300.29
300.283
300.276
300.27
300.264
300.259
300.255
300.252
300.251
300.252
300.254
300.259
300.265
300.272
300.28
300.288
300.295
300.303
300.309
300.315
300.321
300.325
299.92
299.91
299.896
299.883
299.905
299.931
299.947
299.957
299.964
299.97
299.975
299.98
299.986
299.99
299.994
299.996
299.994
299.99
299.986
299.982
299.978
299.975
299.972
299.969
299.966
299.962
299.956
299.95
299.959
299.969
299.923
299.918
299.908
299.902
299.92
299.94
299.954
299.963
299.969
299.974
299.979
299.982
299.986
299.989
299.991
299.992
299.991
299.989
299.986
299.983
299.981
299.979
299.977
299.974
299.972
299.968
299.963
299.958
299.963
299.97
299.935
299.931
299.924
299.922
299.937
299.952
299.962
299.97
299.976
299.98
299.983
299.986
299.988
299.99
299.992
299.993
299.992
299.99
299.989
299.987
299.985
299.983
299.982
299.98
299.978
299.976
299.972
299.968
299.97
299.975
299.949
299.946
299.941
299.941
299.952
299.963
299.971
299.977
299.982
299.985
299.987
299.989
299.991
299.993
299.994
299.994
299.994
299.993
299.991
299.99
299.989
299.988
299.987
299.985
299.984
299.982
299.979
299.976
299.977
299.981
299.962
299.959
299.956
299.957
299.965
299.973
299.979
299.983
299.987
299.989
299.991
299.993
299.994
299.995
299.995
299.996
299.995
299.995
299.994
299.993
299.992
299.992
299.991
299.99
299.989
299.987
299.985
299.984
299.984
299.987
299.973
299.971
299.969
299.97
299.975
299.98
299.985
299.988
299.991
299.993
299.994
299.995
299.996
299.996
299.997
299.997
299.997
299.996
299.996
299.995
299.995
299.994
299.994
299.993
299.992
299.992
299.99
299.989
299.99
299.992
299.982
299.98
299.979
299.98
299.983
299.986
299.989
299.992
299.994
299.995
299.996
299.997
299.997
299.998
299.998
299.998
299.998
299.998
299.997
299.997
299.997
299.996
299.996
299.996
299.995
299.995
299.994
299.994
299.994
299.996
299.989
299.988
299.986
299.986
299.988
299.99
299.993
299.994
299.996
299.997
299.997
299.998
299.998
299.999
299.999
299.999
299.999
299.998
299.998
299.998
299.998
299.998
299.998
299.997
299.997
299.997
299.997
299.997
299.998
300
299.995
299.993
299.992
299.991
299.992
299.994
299.995
299.996
299.997
299.998
299.998
299.999
299.999
299.999
299.999
299.999
299.999
299.999
299.999
299.999
299.999
299.999
299.999
299.999
299.999
299.999
299.999
300
300.001
300.003
300
299.998
299.996
299.995
299.995
299.996
299.997
299.998
299.998
299.999
299.999
299.999
299.999
300
300
300
300
299.999
299.999
299.999
299.999
299.999
300
300
300
300
300.001
300.002
300.004
300.007
300.005
300.003
300
299.999
299.998
299.998
299.998
299.999
299.999
299.999
300
300
300
300
300
300
300
300
300
300
300
300
300
300.001
300.001
300.002
300.003
300.005
300.007
300.01
300.009
300.007
300.004
300.002
300.001
300
300
300
300
300
300
300
300
300
300
300
300
300
300
300
300
300.001
300.001
300.001
300.002
300.003
300.005
300.007
300.011
300.014
300.015
300.012
300.009
300.005
300.003
300.002
300.001
300.001
300.001
300.001
300.001
300.001
300.001
300
300
300
300
300
300
300.001
300.001
300.001
300.002
300.002
300.003
300.005
300.007
300.01
300.014
300.018
300.02
300.018
300.013
300.009
300.006
300.004
300.003
300.002
300.002
300.002
300.001
300.001
300.001
300.001
300.001
300.001
300.001
300.001
300.001
300.001
300.002
300.002
300.003
300.004
300.005
300.007
300.01
300.014
300.019
300.023
300.027
300.024
300.019
300.014
300.01
300.007
300.005
300.004
300.003
300.003
300.002
300.002
300.002
300.001
300.001
300.001
300.001
300.001
300.001
300.002
300.002
300.003
300.004
300.005
300.007
300.01
300.013
300.018
300.024
300.029
300.035
300.032
300.026
300.019
300.014
300.011
300.008
300.006
300.005
300.004
300.003
300.003
300.002
300.002
300.002
300.002
300.002
300.002
300.002
300.003
300.003
300.004
300.005
300.007
300.01
300.013
300.018
300.024
300.031
300.036
300.044
300.041
300.034
300.026
300.02
300.015
300.012
300.009
300.007
300.006
300.005
300.004
300.003
300.003
300.003
300.002
300.003
300.003
300.003
300.004
300.005
300.006
300.008
300.01
300.013
300.018
300.023
300.031
300.039
300.045
300.055
300.051
300.044
300.035
300.027
300.021
300.016
300.013
300.01
300.008
300.006
300.005
300.005
300.004
300.004
300.004
300.004
300.004
300.004
300.005
300.006
300.008
300.01
300.013
300.018
300.023
300.03
300.039
300.048
300.055
300.068
300.064
300.055
300.045
300.036
300.028
300.022
300.017
300.014
300.011
300.009
300.008
300.006
300.006
300.005
300.005
300.005
300.005
300.006
300.007
300.009
300.011
300.014
300.018
300.023
300.03
300.039
300.049
300.059
300.067
300.082
300.078
300.068
300.057
300.046
300.037
300.029
300.023
300.019
300.015
300.012
300.01
300.009
300.008
300.007
300.007
300.007
300.007
300.008
300.01
300.012
300.015
300.018
300.023
300.03
300.038
300.049
300.06
300.072
300.081
300.097
300.092
300.082
300.07
300.058
300.047
300.038
300.031
300.025
300.02
300.017
300.014
300.012
300.011
300.01
300.01
300.01
300.01
300.011
300.013
300.016
300.019
300.024
300.03
300.038
300.048
300.06
300.073
300.086
300.095
300.113
300.108
300.097
300.084
300.07
300.058
300.048
300.039
300.032
300.027
300.022
300.019
300.017
300.015
300.014
300.013
300.013
300.014
300.015
300.018
300.021
300.025
300.031
300.039
300.048
300.059
300.072
300.087
300.1
300.11
300.128
300.123
300.112
300.098
300.084
300.071
300.059
300.049
300.041
300.034
300.029
300.025
300.022
300.02
300.019
300.018
300.018
300.019
300.021
300.023
300.027
300.033
300.04
300.048
300.059
300.071
300.085
300.1
300.115
300.125
300.141
300.136
300.125
300.111
300.097
300.083
300.071
300.06
300.051
300.043
300.037
300.032
300.029
300.026
300.025
300.024
300.024
300.025
300.027
300.03
300.035
300.041
300.049
300.058
300.07
300.083
300.098
300.113
300.128
300.138
300.152
300.148
300.137
300.123
300.109
300.095
300.082
300.071
300.061
300.053
300.046
300.04
300.037
300.034
300.032
300.031
300.031
300.032
300.034
300.038
300.043
300.05
300.059
300.069
300.081
300.094
300.109
300.125
300.139
300.15
300.16
300.155
300.145
300.132
300.119
300.106
300.093
300.082
300.071
300.063
300.055
300.05
300.045
300.043
300.041
300.04
300.04
300.04
300.043
300.046
300.052
300.059
300.068
300.079
300.091
300.104
300.118
300.133
300.147
300.157
300.162
300.158
300.149
300.138
300.126
300.114
300.102
300.091
300.081
300.072
300.065
300.059
300.055
300.052
300.051
300.049
300.049
300.049
300.051
300.055
300.061
300.068
300.077
300.087
300.099
300.111
300.124
300.138
300.15
300.16
300.159
300.155
300.148
300.139
300.129
300.118
300.108
300.098
300.089
300.082
300.075
300.069
300.065
300.062
300.061
300.06
300.059
300.059
300.06
300.064
300.069
300.076
300.084
300.093
300.104
300.115
300.127
300.138
300.149
300.158
300.15
300.147
300.142
300.135
300.127
300.119
300.111
300.103
300.096
300.089
300.084
300.079
300.075
300.073
300.071
300.07
300.068
300.068
300.069
300.071
300.076
300.082
300.089
300.097
300.106
300.115
300.124
300.133
300.142
300.149
300.134
300.133
300.129
300.125
300.121
300.115
300.11
300.105
300.1
300.095
300.091
300.088
300.085
300.083
300.082
300.08
300.078
300.076
300.076
300.078
300.081
300.086
300.091
300.097
300.103
300.11
300.116
300.122
300.128
300.133
299.915
299.91
299.902
299.896
299.917
299.939
299.952
299.961
299.967
299.971
299.975
299.979
299.982
299.985
299.988
299.989
299.988
299.986
299.983
299.981
299.979
299.976
299.974
299.972
299.969
299.966
299.961
299.955
299.958
299.965
299.926
299.924
299.92
299.919
299.935
299.951
299.961
299.968
299.973
299.977
299.98
299.983
299.985
299.987
299.989
299.99
299.989
299.988
299.986
299.985
299.983
299.981
299.98
299.978
299.976
299.974
299.97
299.965
299.966
299.97
299.941
299.94
299.938
299.939
299.951
299.962
299.97
299.976
299.98
299.983
299.985
299.987
299.989
299.99
299.991
299.992
299.992
299.991
299.99
299.989
299.987
299.986
299.985
299.984
299.982
299.981
299.978
299.974
299.974
299.976
299.956
299.955
299.954
299.957
299.965
299.973
299.978
299.983
299.986
299.988
299.989
299.991
299.992
299.993
299.994
299.994
299.994
299.993
299.993
299.992
299.991
299.99
299.989
299.989
299.988
299.986
299.984
299.982
299.981
299.982
299.968
299.968
299.967
299.97
299.976
299.981
299.985
299.988
299.99
299.992
299.993
299.994
299.994
299.995
299.996
299.996
299.996