/*--------------------------------*- C++ -*----------------------------------*\
  =========                 |
  \\      /  F ield         | OpenFOAM: The Open Source CFD Toolbox
   \\    /   O peration     | Website:  https://openfoam.org
    \\  /    A nd           | Version:  12
     \\/     M anipulation  |
\*---------------------------------------------------------------------------*/
FoamFile
{
    format      ascii;
    class       volScalarField;
    location    "1750/air";
    object      alphat;
}
// * * * * * * * * * * * * * * * * * * * * * * * * * * * * * * * * * * * * * //

dimensions      [1 -1 -1 0 0 0 0];

internalField   nonuniform List<scalar> 
243000
(
0.000138074
0.000143378
0.000144607
0.000143549
0.000140895
0.000137156
0.000132757
0.000128032
0.000123226
0.000118532
0.00011406
0.000109886
0.000106083
0.000102733
9.98128e-05
9.72807e-05
9.50589e-05
9.31268e-05
9.14888e-05
9.01605e-05
8.91138e-05
8.82171e-05
8.69168e-05
8.56367e-05
0.000385154
8.21242e-05
0.000363126
0.000327079
0.000265047
0.000226355
0.00051261
0.000530835
0.00052726
0.000513056
0.00049407
0.000473089
0.000451593
0.00043053
0.000410491
0.000391846
0.000374782
0.000359456
0.000345963
0.000334358
0.000324603
0.00031661
0.000310211
0.000305502
0.000302532
0.000301456
0.000302195
0.000304304
0.000307476
0.000309197
0.000309539
0.000301122
0.000293209
0.000275851
0.000252262
0.000222957
0.000624176
0.000689288
0.000717864
0.000727723
0.000727438
0.000720871
0.000710238
0.000697029
0.000682224
0.000666541
0.000650415
0.000634303
0.000618507
0.000603297
0.000588832
0.000575209
0.000562392
0.000550824
0.000540658
0.000532112
0.000525019
0.000518739
0.000511953
0.000502681
0.000488839
0.000467855
0.000440209
0.000402472
0.000359455
0.000306882
0.00061048
0.000681605
0.000721447
0.0007406
0.000746651
0.000744124
0.000736243
0.000724926
0.000711435
0.000696654
0.000681173
0.000665531
0.000650072
0.000635152
0.00062101
0.000607821
0.000595617
0.000584895
0.000575709
0.000568074
0.000561647
0.000555792
0.000549385
0.000540624
0.000527437
0.000507777
0.000480974
0.000444576
0.000402569
0.000350805
0.00058726
0.000651326
0.000699647
0.000728709
0.000743278
0.000747526
0.00074471
0.000737245
0.000726837
0.0007144
0.00070079
0.00068663
0.000672353
0.000658434
0.000645203
0.000632933
0.000621729
0.000612106
0.000604004
0.000597229
0.000591266
0.000585488
0.000578987
0.000570278
0.00055755
0.000538951
0.000513552
0.000479432
0.000439449
0.000390581
0.000574821
0.000613307
0.000660647
0.000698071
0.000722061
0.000734826
0.000739031
0.00073728
0.000731033
0.000722041
0.000711366
0.000699534
0.000687154
0.000674825
0.00066297
0.000651997
0.000642072
0.000633705
0.000626721
0.000620756
0.000615179
0.000609367
0.00060259
0.000593698
0.000581196
0.000563471
0.00053953
0.000507873
0.000470367
0.000424852
0.000593257
0.000601806
0.000630417
0.000663147
0.000689855
0.000709943
0.000721652
0.000726394
0.000725814
0.000721491
0.000714356
0.000705498
0.000695671
0.000685454
0.00067537
0.000666007
0.000657576
0.000650559
0.000644702
0.000639517
0.000634301
0.000628447
0.000621366
0.000612194
0.000599765
0.000582727
0.000560146
0.000530838
0.000495959
0.00045382
0.000622665
0.000611192
0.000617964
0.000638225
0.000661888
0.000682988
0.000698115
0.000707863
0.000712803
0.000713534
0.000710819
0.000705686
0.000698813
0.000691116
0.000683166
0.000675678
0.000668918
0.00066332
0.000658595
0.000654179
0.000649333
0.000643483
0.000636141
0.000626685
0.000614245
0.000597746
0.000576379
0.000549205
0.000517002
0.000478021
0.000654505
0.000634012
0.000623048
0.000626833
0.000641168
0.000659231
0.00067538
0.000687591
0.000695482
0.000700225
0.000701831
0.000700672
0.000697253
0.000692443
0.000686934
0.00068155
0.000676608
0.00067249
0.000668911
0.000665271
0.000660829
0.000655052
0.000647541
0.000637857
0.000625387
0.00060932
0.000589045
0.000563838
0.000534048
0.000498027
0.000687487
0.000665537
0.000643759
0.000631678
0.000632105
0.000641932
0.000655319
0.000667989
0.000677889
0.000684863
0.00068921
0.000691573
0.000691678
0.000689996
0.000687152
0.000684053
0.000681047
0.000678474
0.000676065
0.000673224
0.000669239
0.000663625
0.000656057
0.000646239
0.000633775
0.000618117
0.000598804
0.000575199
0.000547587
0.000514352
0.000720248
0.000698152
0.000672868
0.000651031
0.000637846
0.000635461
0.00064139
0.000651127
0.000661052
0.00066941
0.000675616
0.000679942
0.000682977
0.000684341
0.000684268
0.000683558
0.000682576
0.000681604
0.000680403
0.000678402
0.000674941
0.000669585
0.000662085
0.000652255
0.0006399
0.000624588
0.00060602
0.000583804
0.000558134
0.000527615
0.000752245
0.000730373
0.000705447
0.000679639
0.00065738
0.000642848
0.000637815
0.000640444
0.000647188
0.000655021
0.000662138
0.000667874
0.000672421
0.000676242
0.000678763
0.000680439
0.000681503
0.000682174
0.000682225
0.000681128
0.000678264
0.000673266
0.000665959
0.000656267
0.000644039
0.000629044
0.00061115
0.000590126
0.000566146
0.000538031
0.000783156
0.000761767
0.000738459
0.000712091
0.000685909
0.000663112
0.00064721
0.000639781
0.00063961
0.000643923
0.000650038
0.000656197
0.000661692
0.000666722
0.000671275
0.000675122
0.000678168
0.000680475
0.0006818
0.000681649
0.000679468
0.000674981
0.000668
0.000658499
0.000646467
0.000631815
0.000614544
0.000594556
0.00057203
0.000546022
0.000812811
0.000792006
0.000769694
0.000744599
0.000718096
0.000691737
0.000668397
0.000651177
0.00064167
0.000639168
0.000641471
0.000646185
0.00065163
0.000657103
0.000662644
0.000668153
0.000672952
0.000676816
0.000679408
0.000680237
0.000678797
0.000674795
0.000668212
0.00065907
0.000647393
0.000633182
0.000616515
0.000597449
0.000576185
0.000552037
0.000841076
0.000820917
0.000799601
0.000776306
0.000750908
0.000724106
0.000697383
0.000673348
0.000654859
0.00064357
0.000639165
0.000639841
0.000643453
0.00064841
0.000653947
0.000660234
0.000666328
0.000671548
0.000675339
0.000677163
0.000676511
0.000673165
0.000667058
0.000658333
0.000647073
0.000633382
0.000617365
0.000599316
0.000579322
0.000557003
0.000867805
0.000848361
0.000828107
0.000806546
0.000782771
0.000757057
0.000729847
0.000702591
0.000677781
0.000658158
0.000645432
0.000639539
0.000638966
0.000641764
0.000646399
0.000652267
0.000658918
0.000665105
0.000669921
0.000672698
0.000672861
0.000670229
0.000664771
0.000656588
0.000645889
0.000633066
0.00061811
0.000601135
0.000582332
0.000561567
0.000892822
0.00087413
0.000854939
0.000834729
0.000812795
0.000788802
0.000762659
0.000734894
0.000707012
0.000681473
0.00066094
0.000647158
0.0006402
0.000638756
0.000641
0.000645569
0.000651589
0.000658067
0.000663569
0.000667148
0.000668113
0.000666246
0.000661521
0.000654245
0.000644558
0.000632686
0.000618753
0.000602831
0.000585149
0.000565741
0.000915886
0.000897943
0.000879774
0.000860861
0.000840707
0.000818575
0.000794142
0.000767391
0.000738953
0.00071043
0.000684279
0.000663129
0.000648686
0.000641105
0.000639121
0.000641084
0.000645544
0.000651243
0.000656843
0.000660936
0.000662608
0.000661646
0.000657978
0.00065175
0.000643071
0.000632172
0.000619238
0.000604345
0.000587732
0.000569542
0.000936745
0.000919529
0.000902352
0.000884897
0.000866379
0.000846069
0.000823538
0.000798491
0.000770998
0.000741839
0.000712729
0.000686169
0.000664738
0.000650074
0.000642218
0.000639993
0.000641737
0.00064582
0.000650694
0.000654836
0.000657119
0.000656992
0.000654294
0.000649078
0.0006414
0.000631477
0.000619526
0.000605634
0.000590048
0.000572975
0.000955208
0.00093877
0.000922644
0.000906683
0.000889684
0.000871123
0.000850515
0.000827431
0.000801633
0.000773335
0.000743479
0.000713929
0.000687261
0.000665925
0.00065137
0.00064355
0.00064121
0.000642599
0.000645946
0.000649527
0.000651974
0.000652434
0.000650554
0.000646264
0.000639557
0.000630601
0.000619599
0.000606682
0.000592081
0.000576035
0.000971227
0.000955719
0.000941058
0.000926243
0.000910636
0.000893714
0.000874963
0.000853893
0.000830115
0.000803494
0.000774397
0.000743967
0.000714274
0.000687795
0.000666858
0.000652718
0.000645077
0.000642563
0.000643342
0.000645556
0.000647571
0.00064823
0.000646927
0.000643421
0.000637615
0.000629584
0.0006195
0.000607515
0.00059385
0.000578763
0.000984909
0.000970826
0.000957188
0.000943461
0.000929176
0.000913817
0.000896862
0.000877806
0.000856182
0.000831663
0.000804229
0.000774445
0.000743729
0.000714113
0.000688122
0.000667894
0.000654299
0.00064677
0.00064386
0.000643706
0.0006445
0.000644799
0.000643711
0.000640761
0.000635715
0.000628524
0.000619307
0.000608201
0.000595423
0.000581233
0.0009961
0.000983042
0.000970515
0.000958037
0.000945167
0.000931432
0.000916345
0.000899396
0.000880068
0.000857906
0.000832649
0.000804461
0.000774227
0.000743389
0.000714167
0.000688967
0.000669547
0.000656354
0.000648697
0.000645063
0.000643649
0.000642823
0.00064142
0.00063866
0.000634134
0.000627638
0.000619188
0.000608894
0.000596945
0.000583592
0.00100461
0.000992759
0.000981422
0.000970279
0.000958927
0.000947107
0.000934337
0.000919919
0.000903181
0.000883562
0.00086062
0.000834316
0.000805547
0.000775046
0.000744444
0.000715896
0.000691516
0.000672623
0.000659469
0.000651248
0.00064647
0.000643501
0.000640932
0.000637759
0.000633321
0.000627244
0.000619402
0.000609824
0.000598627
0.000586047
0.00101111
0.00100065
0.000990685
0.000981009
0.000971662
0.000962169
0.000951839
0.000940011
0.000925998
0.000909187
0.000889005
0.000865402
0.000839096
0.00081032
0.000780066
0.000749977
0.00072202
0.000697967
0.000678989
0.000665183
0.000655705
0.000649212
0.000644281
0.000639709
0.00063458
0.000628351
0.000620723
0.000611578
0.000600946
0.000589023
0.00101633
0.00100763
0.000999474
0.000991697
0.000984171
0.000976663
0.000968761
0.000959906
0.000949444
0.000936677
0.000920922
0.000901767
0.000879278
0.000853702
0.000825525
0.000795776
0.000765928
0.000737785
0.000713181
0.000693043
0.000677396
0.000665527
0.000656323
0.000648612
0.000641371
0.000633844
0.000625513
0.000616098
0.000605502
0.000593835
0.00102343
0.00101765
0.00101244
0.00100772
0.00100343
0.000999427
0.0009954
0.000990865
0.000985205
0.000977659
0.000967433
0.000953877
0.000936654
0.000915729
0.000891485
0.000864081
0.000834231
0.000803694
0.000774409
0.00074789
0.000724951
0.000705708
0.00068968
0.000676088
0.000664073
0.000652836
0.000641734
0.000630322
0.000618328
0.000605799
0.00104578
0.00104515
0.00104496
0.00104534
0.00104646
0.0010483
0.0010506
0.0010528
0.00105421
0.0010539
0.00105097
0.00104462
0.00103433
0.00101986
0.00100144
0.000978574
0.000951005
0.000920561
0.000888913
0.000857745
0.000828236
0.000801094
0.000776508
0.000754357
0.000734312
0.000715787
0.000698245
0.00068129
0.000664631
0.000648775
0.00114185
0.001148
0.00115371
0.00116073
0.0011698
0.00118065
0.00119225
0.00120343
0.00121336
0.0012215
0.00122633
0.00122744
0.00122456
0.00121772
0.00120669
0.00119067
0.00116841
0.00114222
0.00111366
0.00108405
0.00105434
0.00102518
0.000997031
0.000970181
0.000944849
0.000919971
0.000895436
0.000871398
0.000848175
0.000827512
0.00151711
0.0015167
0.00151843
0.00152669
0.00153872
0.0015513
0.00156117
0.00156886
0.0015749
0.00158038
0.00158204
0.00158197
0.00158036
0.00157765
0.00157277
0.00156552
0.00155296
0.0015401
0.00152734
0.0015156
0.00150471
0.00149488
0.00148605
0.00147827
0.00147173
0.00146132
0.00144901
0.00143607
0.00142393
0.00141401
0.000181848
0.000186955
0.000185558
0.000181391
0.000175536
0.000168685
0.000161349
0.000153935
0.000146737
0.00013998
0.000133771
0.000128207
0.000123361
0.000119316
0.00011603
0.000113486
0.000111616
0.000110501
0.000110334
0.000111272
0.000113025
0.000114852
0.000115885
0.000115302
0.000112496
0.00010667
9.78524e-05
0.000420937
0.000374277
0.000354624
0.000777368
0.000877787
0.000858331
0.000795445
0.000720884
0.00064869
0.000584415
0.000529094
0.000482105
0.000442364
0.000408477
0.000380387
0.000357073
0.000337805
0.000321507
0.000307784
0.00029552
0.000285498
0.000277752
0.000273237
0.00027293
0.000277437
0.000285248
0.000292462
0.00029412
0.000287365
0.000273299
0.000263862
0.000283209
0.000348337
0.00122138
0.00139933
0.00141643
0.00135715
0.00126674
0.00116698
0.00107037
0.000982625
0.000905223
0.000838126
0.000780013
0.000731112
0.000690146
0.000656212
0.000627673
0.000603087
0.00058003
0.000559166
0.000538433
0.000518601
0.000503404
0.000497139
0.000499603
0.000504295
0.000504288
0.000491774
0.000466071
0.000427217
0.000403228
0.000415824
0.00151178
0.00172641
0.00177147
0.00173396
0.00165454
0.00155453
0.00145078
0.00135202
0.0012612
0.00118028
0.0011092
0.0010485
0.000997323
0.000955273
0.000920783
0.000891411
0.000863748
0.000837535
0.000807734
0.000774331
0.000742655
0.000720802
0.000711357
0.000708522
0.00070203
0.000682858
0.000647983
0.000594018
0.000543888
0.000521698
0.00167734
0.0018887
0.00196699
0.00195876
0.00190047
0.00181185
0.0017168
0.00162287
0.00153104
0.00144733
0.00137293
0.00130831
0.00125364
0.00120937
0.00117406
0.00114497
0.00111803
0.00109113
0.00105703
0.00101391
0.000968809
0.000932082
0.000909665
0.000896501
0.000882529
0.000857146
0.00081583
0.000753409
0.000687647
0.000643267
0.0017544
0.00195531
0.00204608
0.0020647
0.00203295
0.00197549
0.00189391
0.00180595
0.00171922
0.00164203
0.00157285
0.00151068
0.00145826
0.00141658
0.00138464
0.00135956
0.00133715
0.00131295
0.00127695
0.00122791
0.00117308
0.00112457
0.00109046
0.001068
0.00104579
0.00101477
0.000968723
0.000901773
0.000827701
0.000769389
0.00179872
0.00194147
0.00202364
0.00206085
0.00206196
0.00203012
0.0019766
0.00191136
0.001846
0.00177837
0.00171549
0.00165969
0.00161494
0.00158002
0.00155483
0.00153686
0.00152187
0.00150229
0.00146661
0.00141438
0.00135378
0.00129725
0.00125283
0.00122102
0.00119267
0.00115651
0.00110707
0.00103847
0.000960135
0.000892278
0.00182129
0.00189175
0.00194347
0.001979
0.00199689
0.0019965
0.00197903
0.00194416
0.00190141
0.00185398
0.00180682
0.00176502
0.00172895
0.00170345
0.00168779
0.00167978
0.0016739
0.00166046
0.00162826
0.00157582
0.00151237
0.00144959
0.00139697
0.00135666
0.00132214
0.00128324
0.00123163
0.00116324
0.00108406
0.00100991
0.00184189
0.00185406
0.00186803
0.00188571
0.00190322
0.00191515
0.0019188
0.00191088
0.00189822
0.00187642
0.00185038
0.00182544
0.00180404
0.00179093
0.00178694
0.00179112
0.00179536
0.00178937
0.00176217
0.0017124
0.00164821
0.00158224
0.00152366
0.00147622
0.00143561
0.00139413
0.00134405
0.00127751
0.00119945
0.00112033
0.00189098
0.001857
0.00182035
0.00180626
0.00180819
0.00181863
0.001831
0.00184078
0.0018482
0.00185048
0.00185062
0.0018469
0.00184376
0.0018462
0.00185564
0.00187303
0.00188842
0.00189153
0.00187075
0.00182515
0.00176282
0.0016961
0.00163385
0.00158104
0.00153542
0.00149238
0.00144193
0.00137848
0.00130234
0.00122191
0.00195805
0.0018904
0.00181735
0.00176038
0.00173544
0.00172992
0.00173902
0.00175451
0.00177369
0.00179337
0.00181313
0.00183355
0.00185158
0.00187211
0.00189644
0.00192808
0.00195595
0.00196844
0.00195567
0.00191584
0.00185778
0.0017922
0.00172865
0.00167276
0.00162301
0.00157622
0.00152511
0.00146521
0.00139302
0.00131539
0.00205355
0.00195484
0.00185121
0.00176506
0.00170427
0.00167009
0.00166418
0.00167305
0.00169375
0.00172147
0.00175419
0.00179107
0.00183127
0.00187126
0.00191222
0.00195887
0.00199928
0.0020222
0.00201915
0.00198893
0.0019359
0.00187163
0.00180626
0.00174719
0.00169412
0.00164554
0.00159495
0.00153819
0.00147205
0.0013989
0.00217002
0.0020517
0.00192734
0.00181343
0.00172264
0.00166282
0.00162864
0.00161599
0.00162727
0.00165242
0.00168903
0.00173492
0.0017884
0.00184771
0.00190608
0.00196818
0.00202142
0.00205526
0.00206248
0.00204169
0.00199651
0.00193606
0.00187169
0.00181051
0.00175384
0.00170206
0.00165273
0.00159916
0.00153913
0.0014732
0.00230971
0.00218479
0.00204811
0.00191436
0.00179749
0.00170691
0.00164334
0.0016067
0.00159478
0.0016038
0.00163388
0.0016794
0.00173806
0.00180698
0.00188239
0.00195941
0.00202525
0.0020702
0.00208848
0.00207765
0.00204122
0.00198662
0.00192491
0.00186463
0.00180633
0.00175278
0.00170221
0.00165282
0.00159946
0.00154063
0.00247153
0.00234716
0.00220749
0.00206359
0.00192822
0.00181168
0.00171822
0.00164992
0.00160886
0.00159439
0.00160582
0.00163942
0.00169358
0.00176364
0.00184769
0.00193708
0.00201418
0.00206989
0.00209906
0.00209863
0.00207162
0.00202453
0.00196704
0.00190934
0.00185271
0.00179927
0.00174876
0.00170057
0.00165163
0.0015984
0.00264666
0.00253288
0.00239934
0.00225347
0.00210761
0.00197284
0.00185335
0.00175432
0.00168091
0.00163568
0.00161965
0.00163157
0.00166861
0.00173051
0.00181218
0.00190728
0.00199252
0.00205751
0.00209683
0.00210682
0.0020897
0.00205157
0.00200004
0.00194676
0.00189362
0.0018406
0.00178925
0.00173963
0.00169298
0.00164414
0.0028319
0.00273339
0.00261205
0.00247181
0.00232398
0.00217848
0.00204039
0.00191634
0.00181279
0.00173486
0.00168593
0.00166783
0.00167928
0.00172085
0.00178924
0.001877
0.00196559
0.00203715
0.00208499
0.00210508
0.00209824
0.00207074
0.00202723
0.00197767
0.00192638
0.00187487
0.00182357
0.001773
0.0017254
0.00167972
0.00301738
0.00293648
0.00283099
0.00270267
0.00256074
0.00241337
0.00226618
0.00212546
0.00199798
0.00189035
0.00180791
0.00175517
0.00173339
0.00174556
0.00178946
0.00185963
0.00194025
0.00201392
0.00206776
0.00209748
0.00210144
0.00208281
0.00204578
0.00199999
0.00195164
0.00190254
0.00185227
0.00180134
0.00175291
0.0017081
0.00319389
0.00313053
0.00304413
0.00293346
0.00280448
0.00266342
0.00251572
0.00236691
0.00222344
0.00209226
0.00197983
0.00189238
0.0018341
0.00180907
0.00182028
0.001862
0.001925
0.00199089
0.00204695
0.00208322
0.00209512
0.00208486
0.00205559
0.00201478
0.00197028
0.00192412
0.00187599
0.00182546
0.00177668
0.00173159
0.00335445
0.00330975
0.00324408
0.00315416
0.00304294
0.00291435
0.00277301
0.00262356
0.00247167
0.00232394
0.00218706
0.00206807
0.00197325
0.00190906
0.00188064
0.0018864
0.00192036
0.00197131
0.00202158
0.0020589
0.00207755
0.00207698
0.0020564
0.00202226
0.00198288
0.00194086
0.00189507
0.00184564
0.00179725
0.00175185
0.00349738
0.00346954
0.00342373
0.00335496
0.00326355
0.00315106
0.00302058
0.0028757
0.00272104
0.00256242
0.00240631
0.00226005
0.00213144
0.00202981
0.00195839
0.00192422
0.00192264
0.00194809
0.00198595
0.00202218
0.00204617
0.00205324
0.00204421
0.00202044
0.00198877
0.00195088
0.00190769
0.00186116
0.00181406
0.00176985
0.00361908
0.00360417
0.00357472
0.00352466
0.00345194
0.00335576
0.00323725
0.0030987
0.00294352
0.00277668
0.00260452
0.00243482
0.00227652
0.00214106
0.00203117
0.00195544
0.00191621
0.00190994
0.00192804
0.00195747
0.00198577
0.0020045
0.00200971
0.00199968
0.00197702
0.00194664
0.00191091
0.00187082
0.00182874
0.00178828
0.00370989
0.00370222
0.00368345
0.00364679
0.00358811
0.0035043
0.00339429
0.00325915
0.00310136
0.00292569
0.00273912
0.00255022
0.00236878
0.00220615
0.0020682
0.00195835
0.00188163
0.00184093
0.00183273
0.00184834
0.00187662
0.00190682
0.00193016
0.00194013
0.00193671
0.00192264
0.00189969
0.00186945
0.0018361
0.00180318
0.00374972
0.0037419
0.0037258
0.0036942
0.00364102
0.00356094
0.00345133
0.00331309
0.00314924
0.00296569
0.00277095
0.00257396
0.00238358
0.00220941
0.00205933
0.00192991
0.00182348
0.00174968
0.00170847
0.00169773
0.00171199
0.00174293
0.00178012
0.00181231
0.0018348
0.0018464
0.00184713
0.00183793
0.00182088
0.00180149
0.00369971
0.00368252
0.00365975
0.00362387
0.00356663
0.00348321
0.00337091
0.00323118
0.00306895
0.0028921
0.0027097
0.00252865
0.00235554
0.00219593
0.00205574
0.00192817
0.00180914
0.00170881
0.00163162
0.00158057
0.00155691
0.00155927
0.00158209
0.00161604
0.0016537
0.00168919
0.00171825
0.00173859
0.00174961
0.00175466
0.00349418
0.00346369
0.00343156
0.00339202
0.00333869
0.0032662
0.00317187
0.00305785
0.00292971
0.00279443
0.00265773
0.0025218
0.0023906
0.00226666
0.00215597
0.00204869
0.00193642
0.00182707
0.00172519
0.00163592
0.00156337
0.00151124
0.0014811
0.00147159
0.00147971
0.00150105
0.00153045
0.00156297
0.00159452
0.00162552
0.00310595
0.0030877
0.00307848
0.00307273
0.00306192
0.00303906
0.00300051
0.00294723
0.00288291
0.00281084
0.00273314
0.00265098
0.00256622
0.00247945
0.00239915
0.00231814
0.00222443
0.00212409
0.00202048
0.00191809
0.00181963
0.00172888
0.00164909
0.00158287
0.00153184
0.00149621
0.00147516
0.00146684
0.00146912
0.00148793
0.00278685
0.00283688
0.00289858
0.00295798
0.00300331
0.00303055
0.00303924
0.00303141
0.00301077
0.00297699
0.00293261
0.0028803
0.00282144
0.00275894
0.00269923
0.002638
0.00256723
0.00249033
0.00240927
0.00232544
0.0022404
0.00215626
0.00207378
0.00199428
0.00191939
0.00185038
0.00178846
0.00173415
0.00168857
0.00167125
0.00286304
0.00292955
0.00300007
0.00306596
0.00311644
0.00314788
0.00316439
0.0031633
0.0031488
0.00312312
0.00308913
0.0030485
0.00299952
0.00295145
0.00290417
0.00285455
0.00280456
0.00275242
0.0027027
0.00265356
0.00260746
0.00256519
0.00252574
0.00248818
0.00245124
0.00241352
0.00237499
0.00233716
0.0023013
0.00228835
0.00305997
0.00310165
0.00314157
0.00317845
0.00320014
0.00320816
0.00320654
0.00319561
0.00317719
0.0031532
0.00312485
0.00309208
0.00305399
0.0030181
0.00298124
0.00294723
0.0029184
0.00289178
0.00287022
0.00285566
0.00284895
0.00285013
0.00285775
0.00286987
0.00288374
0.00289569
0.00290503
0.0029152
0.00292222
0.00292139
0.000218858
0.000221915
0.000216643
0.00020951
0.000201328
0.000192391
0.000183107
0.00017388
0.000165022
0.000156778
0.000149269
0.000142637
0.000136925
0.000132238
0.000128536
0.000125873
0.000124243
0.000124044
0.000126059
0.000130569
0.000136285
0.000141309
0.000144328
0.000144617
0.00014181
0.000135413
0.000125164
0.000109888
9.21689e-05
7.90314e-05
0.00101929
0.00114335
0.00113695
0.00107188
0.000980372
0.000887963
0.000804414
0.000732033
0.000670482
0.000618293
0.000573765
0.000536742
0.000505187
0.000478911
0.000455552
0.000434559
0.000413257
0.000395774
0.000384267
0.00038249
0.000391867
0.00040965
0.000429687
0.000444131
0.000445573
0.000429022
0.000397906
0.000354837
0.000316271
0.0002819
0.00162302
0.00186871
0.00191534
0.00185506
0.00174721
0.00162233
0.00149802
0.00138325
0.00128145
0.00119296
0.00111633
0.00105182
0.00099678
0.000951151
0.000911767
0.000875957
0.00083821
0.000802736
0.000768041
0.000741684
0.000733192
0.00074365
0.000764621
0.000782439
0.000780096
0.000753865
0.000701116
0.000623991
0.000546507
0.000486651
0.00205543
0.00234656
0.00243052
0.00239587
0.00230032
0.00217506
0.00203998
0.0019082
0.00178699
0.00167878
0.00158353
0.00150238
0.00143335
0.00137687
0.00132991
0.00128828
0.00124433
0.00119921
0.00114692
0.00109732
0.00106482
0.00105785
0.00106937
0.00108333
0.00107813
0.00104332
0.000976807
0.000878266
0.000772007
0.000684617
0.00236331
0.00265916
0.00276276
0.00275303
0.00267777
0.00256642
0.0024359
0.00230283
0.00217751
0.00206236
0.00195928
0.00187066
0.00179565
0.00173491
0.00168654
0.00164509
0.00160112
0.00154999
0.00148226
0.00141587
0.00136382
0.00133718
0.00133503
0.00134158
0.00133365
0.00129472
0.00122169
0.00111205
0.000988323
0.000878132
0.00257951
0.00284688
0.00296444
0.00298424
0.00292957
0.00283222
0.00270838
0.0025843
0.00246767
0.00235515
0.00225276
0.00216443
0.00208988
0.0020306
0.00198561
0.00194844
0.00190794
0.00185355
0.00177511
0.00169146
0.00162313
0.00157978
0.00156355
0.00156093
0.00154973
0.00151206
0.00143729
0.00132494
0.00119266
0.00106679
0.00274422
0.00296179
0.00307187
0.00309988
0.00306732
0.00299349
0.00290279
0.00279376
0.00268034
0.00256859
0.00247414
0.00239318
0.00232427
0.00227152
0.00223367
0.0022041
0.00216898
0.00211248
0.00202593
0.00192813
0.00184626
0.0017886
0.00175935
0.00174653
0.00173101
0.00169546
0.00162748
0.00151832
0.00138517
0.00124738
0.00286392
0.00302145
0.00310276
0.00312856
0.0031131
0.00306303
0.00299367
0.00290918
0.00281687
0.00272891
0.00264217
0.00256646
0.00250631
0.00246378
0.00243647
0.00241747
0.00238868
0.00232973
0.00223661
0.00212986
0.00203857
0.00196842
0.00192726
0.00190387
0.0018826
0.00185026
0.00179172
0.00169154
0.00156117
0.00141692
0.00295757
0.00303506
0.00307465
0.00309075
0.00308547
0.00305711
0.00301294
0.00295654
0.00288934
0.00282082
0.00275274
0.00269115
0.00264342
0.00261355
0.00259931
0.002593
0.00257052
0.00250907
0.00241168
0.0023024
0.0022031
0.00212378
0.00207165
0.00203792
0.00201177
0.00197925
0.00192522
0.00183808
0.00171575
0.00157289
0.00302532
0.00303701
0.00303989
0.0030377
0.00302996
0.00301277
0.0029866
0.00295161
0.0029081
0.00286352
0.00281686
0.00277437
0.0027423
0.00272704
0.0027269
0.00273393
0.00271843
0.00265871
0.00256141
0.00244968
0.00234436
0.0022582
0.00219689
0.00215323
0.00211688
0.00208142
0.00203181
0.00195667
0.0018497
0.0017181
0.00310308
0.00306791
0.00302504
0.00299612
0.00297221
0.00295373
0.00293634
0.00291671
0.00289293
0.00286802
0.00284233
0.00282145
0.00280818
0.00280978
0.00282408
0.00284383
0.00283512
0.00277997
0.00268518
0.00257398
0.00246649
0.00237431
0.00230239
0.00224738
0.00220273
0.00216119
0.00211595
0.00205215
0.00196321
0.00184836
0.00319537
0.00313861
0.0030639
0.00298911
0.00293422
0.00290378
0.00288384
0.00287037
0.00285925
0.00285022
0.00284265
0.00283977
0.00284688
0.00286635
0.00289493
0.00292672
0.00292649
0.00287609
0.0027871
0.00267965
0.00257203
0.00247527
0.00239724
0.0023335
0.00228114
0.0022342
0.00218718
0.00213263
0.00206171
0.00196387
0.00329387
0.003216
0.00311867
0.00302234
0.00294363
0.00288544
0.00285041
0.00283243
0.00282436
0.00282434
0.00282986
0.00284222
0.00286542
0.00290106
0.00294394
0.00298661
0.00299378
0.00295146
0.00287049
0.00277012
0.00266376
0.00256516
0.00248287
0.00241356
0.00235443
0.0023031
0.00225473
0.00220573
0.00214703
0.00206495
0.00341932
0.00332554
0.0032082
0.00308829
0.00298566
0.00290716
0.00285279
0.00282249
0.00280575
0.0028059
0.00281701
0.00283935
0.00287296
0.00292032
0.00297577
0.00302758
0.00304244
0.00300959
0.00293903
0.00284676
0.00274378
0.00264525
0.00256039
0.00248707
0.00242442
0.00237017
0.00232013
0.00226993
0.00221804
0.00214842
0.00356826
0.003462
0.00333591
0.00320586
0.00308355
0.00298061
0.00290199
0.00284762
0.0028179
0.0028102
0.00281735
0.00284123
0.00287926
0.00293013
0.00299478
0.00305337
0.00307563
0.00305317
0.00299415
0.0029114
0.00281381
0.00271716
0.0026317
0.00255649
0.00249257
0.00243507
0.00238232
0.00233049
0.00227918
0.00221826
0.00373355
0.00363379
0.00351062
0.00337307
0.00323607
0.00311146
0.00300724
0.0029276
0.00287473
0.00284772
0.00284232
0.00285773
0.00289171
0.00294062
0.00300427
0.00306648
0.00309518
0.00308335
0.00303673
0.00296494
0.00287497
0.00278216
0.00269815
0.0026223
0.00255613
0.00249679
0.00244184
0.00238794
0.00233485
0.0022786
0.00392681
0.00383481
0.00371766
0.00358028
0.00343564
0.00329507
0.00316806
0.00306168
0.00298079
0.00292723
0.00289967
0.00289682
0.00291621
0.00295395
0.00300851
0.00306682
0.00310001
0.0030984
0.00306529
0.00300622
0.00292639
0.00283904
0.00275706
0.00268201
0.00261521
0.00255537
0.00249886
0.00244258
0.00238781
0.00233267
0.00413231
0.00405068
0.00394417
0.00381337
0.0036683
0.00351883
0.00337456
0.00324399
0.00313404
0.00304924
0.00299116
0.0029599
0.00295385
0.00297049
0.00300568
0.00305107
0.00308393
0.00309086
0.00307298
0.00302857
0.00296113
0.00288271
0.00280601
0.00273421
0.00266908
0.00261
0.00255266
0.00249455
0.00243787
0.00238211
0.00433446
0.00426728
0.00417511
0.0040556
0.00391598
0.0037642
0.003609
0.00345903
0.00332215
0.0032046
0.00311043
0.00304189
0.00299951
0.00298289
0.00298916
0.0030123
0.00303668
0.00305002
0.00304396
0.00301891
0.00297014
0.00290581
0.00283933
0.0027751
0.002715
0.00265732
0.00259998
0.00254076
0.00248343
0.00242708
0.00452495
0.00447239
0.00439525
0.00428905
0.00415838
0.00400897
0.00384809
0.00368347
0.00352286
0.00337317
0.00324011
0.00312815
0.00304065
0.00298004
0.00294731
0.00293708
0.00294317
0.00295497
0.00296151
0.00295654
0.00293193
0.00289174
0.00284256
0.00279108
0.00273952
0.00268578
0.00263172
0.00257676
0.00252116
0.00246596
0.00469362
0.00465279
0.00458835
0.00449449
0.00437328
0.0042281
0.00406419
0.00388775
0.00370566
0.00352484
0.00335235
0.0031948
0.00305852
0.00294873
0.0028708
0.00281983
0.00279609
0.00279482
0.00280596
0.00281894
0.00282264
0.00281343
0.00279282
0.0027643
0.0027267
0.00268665
0.0026429
0.00259675
0.00254658
0.00249664
0.00482669
0.00479167
0.00473479
0.00464932
0.00453488
0.00439246
0.00422497
0.00403681
0.00383399
0.00362368
0.0034148
0.00321636
0.0030372
0.0028843
0.00276555
0.00267586
0.00261697
0.00258981
0.00258858
0.00260447
0.00262648
0.00264627
0.00265929
0.0026638
0.00265783
0.00264328
0.00261819
0.00258606
0.00255054
0.00251351
0.00490022
0.00486372
0.00480732
0.00472385
0.0046108
0.00446724
0.00429369
0.00409333
0.00387235
0.00363944
0.00340633
0.00318431
0.00298282
0.00280868
0.00266867
0.00255745
0.00247124
0.00241282
0.00238092
0.00237303
0.00238437
0.00240894
0.00244048
0.00247295
0.00250081
0.00252067
0.00252914
0.00252522
0.00251179
0.00249554
0.00487715
0.00483157
0.0047679
0.00467953
0.00456304
0.00441683
0.00423887
0.00403305
0.00380732
0.00357295
0.00334354
0.00313051
0.00294149
0.00277986
0.00264708
0.00254109
0.00244606
0.00236427
0.00229656
0.00224555
0.00221416
0.00220353
0.00221298
0.00223896
0.00227581
0.00231682
0.00235504
0.0023852
0.00240485
0.00241461
0.00470714
0.00464858
0.00457376
0.00448116
0.00436676
0.00422744
0.00406288
0.00387762
0.00368085
0.00348399
0.00329835
0.00313092
0.00298602
0.00286338
0.00276048
0.00267569
0.00258714
0.00249636
0.00240417
0.00231481
0.00223428
0.00216784
0.0021206
0.00209583
0.00209372
0.00211139
0.00214301
0.00218169
0.00222089
0.00225712
0.0043495
0.00428311
0.00421839
0.00414899
0.00407
0.00397538
0.00386365
0.00373835
0.00360697
0.00347795
0.00335799
0.00324966
0.00315511
0.00307337
0.00300173
0.00293632
0.00285781
0.00276886
0.00267009
0.00256487
0.00245787
0.002353
0.00225542
0.00217158
0.00210626
0.0020625
0.00204021
0.00203665
0.00204803
0.00207729
0.00389509
0.00386603
0.00385655
0.00385846
0.00385472
0.00383421
0.00379521
0.00374042
0.00367569
0.00360737
0.00353955
0.00347302
0.0034094
0.00334933
0.00329158
0.00323163
0.00315743
0.00307451