/*--------------------------------*- C++ -*----------------------------------*\
  =========                 |
  \\      /  F ield         | OpenFOAM: The Open Source CFD Toolbox
   \\    /   O peration     | Website:  https://openfoam.org
    \\  /    A nd           | Version:  12
     \\/     M anipulation  |
\*---------------------------------------------------------------------------*/
FoamFile
{
    format      ascii;
    class       volScalarField;
    location    "1750/air";
    object      epsilon;
}
// * * * * * * * * * * * * * * * * * * * * * * * * * * * * * * * * * * * * * //

dimensions      [0 2 -3 0 0 0 0];

internalField   nonuniform List<scalar> 
243000
(
1.98011
2.57714
3.06404
3.45872
3.75271
3.94526
4.04406
4.06188
4.01226
3.90883
3.76271
3.58404
3.38381
3.1743
2.95896
2.73879
2.51304
2.2867
2.06547
1.85538
1.65826
1.46979
1.3278
1.16083
1.0488
0.20695
0.181916
0.141381
0.0988128
0.0724904
1.24793
1.60826
1.82514
1.93956
1.98691
1.9874
1.95349
1.89497
1.81915
1.73181
1.63678
1.53804
1.43868
1.34141
1.24738
1.15719
1.07046
0.989452
0.91551
0.850261
0.792895
0.739746
0.684299
0.621515
0.546618
0.454047
0.361408
0.260459
0.171847
0.101995
1.16259
1.56015
1.75862
1.82992
1.82632
1.77627
1.69806
1.60446
1.50388
1.40209
1.30238
1.20762
1.11931
1.03845
0.965271
0.899575
0.84057
0.789614
0.746631
0.711818
0.683857
0.659778
0.634359
0.600619
0.552024
0.484742
0.403587
0.308511
0.21991
0.13692
1.08973
1.51185
1.78832
1.93127
1.97666
1.95506
1.89245
1.80564
1.70599
1.60126
1.49636
1.39517
1.29979
1.21197
1.13247
1.06155
0.998631
0.945491
0.901554
0.866186
0.837245
0.811516
0.783959
0.747189
0.693907
0.619314
0.52637
0.415777
0.308821
0.204446
0.9707
1.32218
1.6346
1.84292
1.95256
1.98395
1.95993
1.90037
1.82
1.72736
1.62984
1.53245
1.43833
1.35039
1.27021
1.19876
1.13592
1.08378
1.0412
1.00656
0.976832
0.948659
0.917593
0.876979
0.819695
0.740474
0.640703
0.521379
0.401606
0.282064
0.909448
1.10453
1.37913
1.62352
1.79317
1.88707
1.91741
1.90206
1.85279
1.78416
1.70536
1.62095
1.53577
1.45403
1.37825
1.31052
1.25122
1.20269
1.16322
1.13031
1.10021
1.0695
1.03441
0.989486
0.928435
0.846159
0.742884
0.619717
0.492381
0.362913
0.998329
1.043
1.19889
1.3936
1.56614
1.70445
1.78758
1.8209
1.81481
1.78124
1.72779
1.6634
1.59404
1.52416
1.45728
1.39701
1.34421
1.30133
1.26632
1.23595
1.20603
1.1731
1.13409
1.08481
1.02023
0.935842
0.83128
0.707578
0.57712
0.442233
1.15464
1.09177
1.12891
1.2431
1.38493
1.51938
1.62007
1.68693
1.72055
1.72424
1.70326
1.66546
1.61631
1.56266
1.50865
1.45898
1.41514
1.37954
1.35004
1.32297
1.29381
1.25928
1.21686
1.1636
1.09584
1.01001
0.905605
0.783529
0.653668
0.516748
1.34146
1.21853
1.15627
1.17763
1.25968
1.36765
1.46851
1.54754
1.59944
1.63084
1.6406
1.63114
1.60622
1.57222
1.53415
1.49765
1.46472
1.4377
1.41457
1.39145
1.36375
1.32839
1.28338
1.22685
1.15647
1.06974
0.966555
0.847778
0.720418
0.584317
1.55529
1.40969
1.27518
1.20458
1.20703
1.26351
1.34275
1.42031
1.48246
1.52696
1.5548
1.56943
1.56883
1.55626
1.53611
1.51458
1.49402
1.47661
1.46057
1.44202
1.41648
1.38118
1.3346
1.27575
1.20353
1.11665
1.01532
0.899997
0.776557
0.643624
1.78923
1.62856
1.45681
1.31875
1.23993
1.22579
1.25965
1.31655
1.37598
1.42709
1.46559
1.49258
1.51127
1.51907
1.51744
1.51175
1.50444
1.49738
1.48902
1.47563
1.45301
1.41869
1.37165
1.31161
1.23865
1.15199
1.05239
0.940931
0.822242
0.694658
2.0394
1.86572
1.6797
1.50097
1.35748
1.26894
1.23889
1.25346
1.29222
1.33816
1.38067
1.41538
1.44317
1.46658
1.48179
1.49169
1.49777
1.50144
1.50121
1.4936
1.47462
1.44219
1.3958
1.33586
1.26273
1.17672
1.07925
0.97176
0.858109
0.736569
2.30233
2.11796
1.92841
1.72783
1.54291
1.39312
1.29455
1.24982
1.24797
1.27217
1.30733
1.34336
1.37598
1.40631
1.43402
1.4576
1.47636
1.49061
1.49865
1.49717
1.48255
1.45323
1.4086
1.34944
1.27695
1.19222
1.09723
0.993725
0.885078
0.769831
2.57503
2.38153
2.18495
1.97687
1.77183
1.58241
1.42639
1.31804
1.26035
1.24475
1.25709
1.28366
1.31498
1.34702
1.38012
1.41357
1.44309
1.4671
1.48323
1.48807
1.47825
1.45205
1.40988
1.35285
1.28231
1.19985
1.10771
1.00821
0.904431
0.795496
2.85428
2.65318
2.45093
2.24155
2.0274
1.8165
1.6212
1.45792
1.34
1.27096
1.24408
1.2469
1.26684
1.29499
1.32712
1.36455
1.40147
1.43358
1.45708
1.46823
1.4635
1.44159
1.40258
1.34824
1.2803
1.20084
1.11217
1.01752
0.919119
0.81701
3.13632
2.92947
2.72377
2.51548
2.29823
2.0776
1.85985
1.65744
1.48643
1.35977
1.28137
1.24559
1.24112
1.25624
1.28234
1.31638
1.35583
1.39322
1.4227
1.43966
1.44011
1.42289
1.3882
1.33749
1.27319
1.19888
1.116
1.02664
0.933357
0.837108
3.41659
3.20576
2.99841
2.78981
2.57441
2.35166
2.12382
1.89831
1.68842
1.51027
1.37643
1.29097
1.24874
1.23918
1.25106
1.27678
1.31166
1.34999
1.38305
1.40465
1.41006
1.39779
1.36796
1.32315
1.2652
1.19658
1.11931
1.03518
0.946804
0.855766
3.68932
3.47603
3.26849
3.06131
2.85017
2.62959
2.39946
2.16316
1.92939
1.71239
1.5283
1.38942
1.29941
1.25329
1.24056
1.25086
1.27598
1.30894
1.34188
1.36614
1.37575
1.36917
1.34614
1.30804
1.25637
1.19353
1.12179
1.04283
0.959239
0.87298
3.94805
3.73373
3.52765
3.32609
3.12052
2.90487
2.67737
2.43859
2.19316
1.95134
1.72827
1.5402
1.39878
1.30698
1.25905
1.24491
1.25398
1.27695
1.30496
1.32903
1.34212
1.34067
1.32374
1.29202
1.24654
1.1895
1.12321
1.04936
0.970469
0.888706
4.18678
3.97376
3.77183
3.57865
3.38012
3.17173
2.95043
2.7149
2.46675
2.21231
1.96338
1.73609
1.54667
1.40544
1.31401
1.26614
1.2513
1.25837
1.27703
1.29734
1.31115
1.31319
1.30131
1.27534
1.2358
1.18447
1.12348
1.05468
0.980385
0.902873
4.4013
4.19332
4.00269
3.81586
3.62526
3.42575
3.21324
2.985
2.74055
2.48299
2.22037
1.96616
1.73756
1.54932
1.41049
1.32139
1.27443
1.25852
1.26205
1.27409
1.28511
1.28823
1.27985
1.25868
1.2246
1.17871
1.12287
1.05892
0.989065
0.915616
4.58983
4.39532
4.21216
4.03287
3.8516
3.66268
3.46129
3.24376
3.00806
2.75477
2.48857
2.2195
1.96303
1.73525
1.55055
1.4162
1.33023
1.28376
1.26548
1.26355
1.26728
1.2682
1.26109
1.24329
1.21376
1.17277
1.12177
1.06241
0.996825
0.927256
4.74751
4.56291
4.39027
4.22254
4.0539
3.87875
3.69208
3.4895
3.26756
3.02479
2.76301
2.48918
2.21615
1.95899
1.73447
1.55527
1.42589
1.34204
1.29456
1.27192
1.26263
1.25691
1.24793
1.23128
1.20484
1.16786
1.12112
1.066
1.00439
0.938474
4.86914
4.69858
4.53915
4.38588
4.23309
4.07719
3.9131
3.73317
3.53127
3.30402
3.05088
2.77759
2.4975
2.22161
1.96595
1.74592
1.57161
1.44479
1.36049
1.3092
1.27964
1.26122
1.2454
1.22634
1.2004
1.16578
1.12232
1.07086
1.01284
0.95027
4.96248
4.80991
4.66758
4.5319
4.40279
4.27394
4.13646
3.98264
3.80539
3.59976
3.36292
3.10045
2.82392
2.54047
2.26346
2.0087
1.78992
1.61501
1.48534
1.39539
1.33558
1.2954
1.2653
1.23787
1.20775
1.17208
1.12957
1.08013
1.02461
0.964741
5.0371
4.90914
4.791
4.68005
4.57402
4.46956
4.36102
4.24128
4.10252
3.93727
3.73964
3.50897
3.25052
2.97224
2.68442
2.40135
2.13818
1.90854
1.72192
1.57861
1.47286
1.39579
1.33782
1.29048
1.24712
1.20322
1.156
1.10429
1.04808
0.988532
5.13999
5.05402
4.97715
4.90823
4.84593
4.78787
4.72962
4.66426
4.58335
4.477
4.33575
4.15364
3.93009
3.66958
3.38243
3.07641
2.76486
2.46892
2.20596
1.98477
1.80594
1.66455
1.5526
1.46172
1.38444
1.31476
1.24836
1.18258
1.1161
1.04945
5.47919
5.47005
5.46768
5.47417
5.49206
5.52096
5.55682
5.59087
5.61175
5.60491
5.55581
5.453
5.29049
5.0684
4.79501
4.46994
4.09835
3.71289
3.33896
2.99642
2.69478
2.43612
2.2168
2.03103
1.87226
1.73323
1.60822
1.49337
1.38611
1.28901
7.11589
7.23189
7.341
7.47619
7.65291
7.86714
8.09998
8.32804
8.53316
8.70281
8.80272
8.82249
8.75661
8.60684
8.37101
8.03759
7.59029
7.08595
6.56227
6.04757
5.55904
5.10621
4.69353
4.32151
3.98935
3.68046
3.39217
3.12501
2.88085
2.67476
16.5221
16.507
16.5664
16.8409
17.243
17.6671
18.0033
18.2672
18.4748
18.6634
18.7162
18.7088
18.6475
18.5475
18.3719
18.1155
17.6795
17.2397
16.8104
16.4212
16.0649
15.7474
15.4655
15.22
15.0152
14.6953
14.3235
13.9408
13.5883
13.3045
4.50729
5.69989
6.46314
6.96973
7.25008
7.33395
7.25606
7.05667
6.77288
6.43672
6.0694
5.69226
5.32159
4.97381
4.64911
4.34908
4.06919
3.82129
3.62411
3.48914
3.38442
3.24366
3.00538
2.64263
2.16982
1.62565
1.09202
0.736763
0.578819
0.113706
3.0679
3.44559
3.66061
3.77767
3.80398
3.75052
3.6306
3.46313
3.26676
3.05791
2.85025
2.65113
2.46652
2.30286
2.16359
2.05023
1.96427
1.913
1.90957
1.95804
2.03024
2.07191
2.03415
1.89483
1.66233
1.35658
1.01691
0.673092
0.419475
0.222057
2.85527
3.09475
3.18984
3.21026
3.17016
3.0829
2.95685
2.80251
2.63167
2.4554
2.283
2.12102
1.97382
1.84573
1.73985
1.66032
1.61014
1.59676
1.6315
1.71662
1.82583
1.91036
1.92415
1.84619
1.67428
1.42822
1.13952
0.82946
0.564638
0.347476
2.74676
2.91232
2.95562
2.93976
2.87899
2.78608
2.66712
2.5288
2.37895
2.22569
2.07615
1.93618
1.80969
1.70037
1.61133
1.54804
1.51449
1.51809
1.56786
1.66314
1.78078
1.87792
1.91286
1.86227
1.72538
1.51359
1.25465
0.963894
0.701432
0.470279
2.63312
2.72896
2.74051
2.70955
2.64689
2.56115
2.45676
2.33797
2.20984
2.07866
1.95023
1.82977
1.721
1.62752
1.55284
1.50279
1.48205
1.49837
1.55701
1.65612
1.7732
1.87155
1.91386
1.87956
1.76529
1.5795
1.34523
1.07348
0.819013
0.584086
2.47867
2.50858
2.49706
2.46379
2.41142
2.34246
2.25832
2.16196
2.05713
1.94883
1.84182
1.74071
1.64929
1.57135
1.51058
1.47329
1.46433
1.49146
1.55768
1.65769
1.77076
1.8647
1.90738
1.88034
1.78349
1.61999
1.40856
1.1582
0.915815
0.685568
2.29204
2.23586
2.20553
2.18404
2.15525
2.11076
2.05233
1.98172
1.90228
1.81784
1.73269
1.65121
1.57738
1.51518
1.46832
1.44371
1.44604
1.4827
1.55506
1.65482
1.76162
1.84808
1.88871
1.86641
1.7802
1.63624
1.44647
1.21875
0.992472
0.773069
2.12647
1.97787
1.9116
1.89207
1.88243
1.86706
1.83844
1.79524
1.74167
1.68119
1.61802
1.55633
1.50005
1.45355
1.42067
1.40843
1.42157
1.46657
1.54246
1.64046
1.74049
1.8203
1.85753
1.83832
1.76129
1.63203
1.46262
1.25769
1.04936
0.843988
2.00116
1.79802
1.69696
1.65816
1.64968
1.64712
1.63679
1.61326
1.58108
1.54202
1.49897
1.45603
1.41676
1.38557
1.36628
1.36585
1.38896
1.44106
1.51948
1.61447
1.70834
1.78127
1.81489
1.79789
1.72953
1.61368
1.46064
1.27807
1.08847
0.898669
1.97102
1.72951
1.57458
1.49999
1.47168
1.46584
1.46345
1.45395
1.43601
1.40969
1.38125
1.35363
1.32945
1.3123
1.30557
1.31608
1.34801
1.40572
1.48547
1.57733
1.66514
1.73182
1.76226
1.7473
1.68692
1.58366
1.44652
1.28279
1.11195
0.938213
2.00826
1.74836
1.55271
1.42668
1.36376
1.33623
1.32663
1.32055
1.31105
1.29508
1.27476
1.25526
1.24199
1.23639
1.24024
1.26036
1.29961
1.36133
1.44135
1.5297
1.61185
1.67317
1.70121
1.68855
1.63566
1.54444
1.42244
1.27608
1.1226
0.964559
2.09901
1.8246
1.60416
1.44288
1.33449
1.27251
1.2397
1.22272
1.21149
1.19942
1.18495
1.16949
1.1601
1.16169
1.17315
1.20063
1.24532
1.30936
1.38841
1.47296
1.54992
1.6068
1.63328
1.6233
1.57768
1.49819
1.39051
1.26079
1.12239
0.979578
2.23586
1.95076
1.71401
1.52689
1.38459
1.28577
1.21729
1.17461
1.148
1.12944
1.11456
1.10066
1.09113
1.0932
1.10779
1.13962
1.18732
1.2518
1.32857
1.40893
1.4811
1.53437
1.56016
1.55329
1.5148
1.44636
1.35246
1.23883
1.1156
0.98732
2.41058
2.12156
1.88
1.67611
1.50693
1.37285
1.26839
1.18961
1.13465
1.097
1.07117
1.05255
1.03993
1.03691
1.04912
1.08105
1.12859
1.19128
1.26435
1.33991
1.40748
1.45777
1.48358
1.48024
1.44884
1.39113
1.31097
1.21335
1.10515
0.99009
2.61463
2.33275
2.09306
1.88125
1.69348
1.53123
1.39256
1.27481
1.18225
1.1139
1.06606
1.03284
1.01035
0.999075
1.00384
1.02997
1.07314
1.13121
1.19885
1.26875
1.33158
1.37923
1.40553
1.40616
1.382
1.33565
1.26938
1.1859
1.09115
0.988144
2.84655
2.58335
2.35418
2.13911
1.93656
1.75358
1.58396
1.42926
1.29676
1.19015
1.10962
1.05134
1.01065
0.986051
0.979025
0.992571
1.02618
1.07597
1.13595
1.19894
1.25651
1.30163
1.32871
1.33454
1.31863
1.28244
1.22776
1.15666
1.07391
0.982293
3.10253
2.86284
2.64822
2.43582
2.22624
2.02493
1.82922
1.64355
1.47472
1.32888
1.21005
1.11844
1.0501
1.0051
0.980339
0.976416
0.994371
1.03129
1.08065
1.13501
1.18651
1.22975
1.2585
1.26887
1.25966
1.23207
1.18727
1.12677
1.05465
0.973465
3.36456
3.1482
2.94705
2.74062
2.53104
2.32056
2.11
1.90295
1.70575
1.52558
1.36908
1.24004
1.13724
1.06377
1.01486
0.989069
0.986518
1.0052
1.04015
1.08397
1.12873
1.16834
1.19688
1.21035
1.20639
1.18574
1.14915
1.09779
1.03485
0.96284
3.60933
3.41078
3.22632
3.03439
2.83423
2.62606
2.41127
2.19315
1.97752
1.77164
1.5834
1.41875
1.28074
1.17108
1.09215
1.03907
1.01111
1.00783
1.0238
1.05283
1.0873
1.1204
1.14678
1.1614
1.16072
1.14518
1.11504
1.07127
1.01604
0.951803
3.8169
3.64462
3.48391
3.3135
3.13047
2.93351
2.72393
2.50485
2.28161
2.06096
1.85071
1.65733
1.48635
1.34056
1.22599
1.13988
1.08083
1.04937
1.04129
1.05015
1.06869
1.09156
1.11287
1.12554
1.12574
1.11311
1.08745
1.04934
1.00002
0.942042
3.99829
3.85552
3.72283
3.57918
3.41994
3.24255
3.04789
2.83906
2.62091
2.39916
2.18026
1.96961
1.77326
1.59633
1.44049
1.31619
1.21852
1.15049
1.1091
1.08937
1.08593
1.09315
1.10356
1.1096
1.1071
1.09448
1.07053
1.03492
0.989156
0.935607
4.16179
4.05305
3.95294
3.84187
3.71402
3.56623
3.39928
3.21653
3.02202
2.81938
2.61204
2.40209
2.19382
1.99223
1.80174
1.62734
1.47915
1.35915
1.26813
1.20466
1.16572
1.1458
1.13661
1.12846
1.11648
1.09725
1.06902
1.03181
0.98638
0.934806
4.32747
4.2593
4.19926
4.13045
4.04691
3.94606
3.82947
3.70115
3.56361
3.4164
3.25681
3.07989
2.88492
2.67387
2.45404
2.22599
2.0018
1.79703
1.62113
1.48044
1.37627
1.30399
1.2545
1.21508
1.17959
1.14314
1.10273
1.05698
1.00531
0.950608
4.54292
4.52802
4.52434
4.51887
4.50759
4.49084
4.47288
4.45847
4.44717
4.43069
4.3945
4.31996
4.19442
4.01183
3.78017
3.48956
3.14462
2.78716
2.44647
2.14811
1.90459
1.71572
1.57247
1.45822
1.36433
1.28312
1.20891
1.13802
1.06819
1.00113
4.92348
4.99375
5.08786
5.19919
5.32954
5.48677
5.68099
5.91751
6.19014
6.47395
6.73096
6.91586
6.99341
6.93945
6.75376
6.41
5.87652
5.22269
4.53685
3.88668
3.3123
2.83105
2.43992
2.12489
1.87298
1.66961
1.50222
1.36126
1.23929
1.13691
5.7916
6.03384
6.33902
6.71174
7.16804
7.72702
8.40568
9.20531
10.1063
11.0467
11.9406
12.6999
13.2591
13.5573
13.5656
13.2209
12.4305
11.2904
9.94847
8.55639
7.21399
5.99683
4.94662
4.07482
3.37085
2.81133
2.36976
2.0214
1.74388
1.53505
8.22515
8.90098
9.73325
10.735
11.9429
13.3812
15.0732
16.9992
19.106
21.2425
23.2487
24.9847
26.3516
27.2643
27.6613
27.3972
26.316
24.528
22.2324
19.6742
16.9991
14.3737
11.9326
9.76919
7.92933
6.41362
5.19658
4.23474
3.48033
2.93976
15.9639
17.6845
19.5555
21.6892
24.1784
26.9984
30.1941
33.6636
37.291
40.7301
43.8118
46.4018
48.3771
49.6934
50.2865
49.9337
48.6058
46.4064
43.4705
39.9848
36.0603
31.9157
27.739
23.7225
20.0392
16.7916
14.0168
11.6863
9.75859
8.36121
35.0413
36.8255
39.1866
42.1079
45.4103
49.0014
53.0805
57.0698
60.7674
63.9428
66.429
68.3321
69.3771
69.7103
69.3051
67.8928
66.0435
63.8553
61.4299
58.4401
55.0688
51.4748
47.7453
43.9857
40.2946
36.7226
33.2984
30.0585
27.0452
24.7302
49.4215
48.335
48.9827
50.8429
53.3334
55.9341
58.3635
60.4079
62.0369
63.2049
63.9094
64.2403
64.088
63.52
62.1706
59.7372
57.4969
55.1821
52.9949
50.9685
49.1445
47.5878
46.4046
45.6395
45.23
44.9447
44.6749
44.3693
43.8839
43.1044
7.85014
9.52662
10.2809
10.7351
10.935
10.8782
10.6031
10.169
9.63247
9.04274
8.43291
7.83921
7.27779
6.77181
6.32081
5.93477
5.61264
5.40584
5.40535
5.63765
5.93257
6.03874
5.80423
5.21184
4.34528
3.31799
2.28206
1.336
0.678823
0.112707
4.66577
5.14905
5.3291
5.41197
5.40554
5.29931
5.10181
4.83676
4.52953
4.20483
3.88305
3.57707
3.29821
3.05331
2.85098
2.69639
2.60389
2.60505
2.75993
3.08055
3.44837
3.68915
3.69655
3.4658
3.05129
2.52106
1.9292
1.31534
0.817182
0.458018
4.30039
4.5455
4.61397
4.60466
4.52482
4.3857
4.19273
3.95769
3.69619
3.42423
3.15646
2.90378
2.67453
2.47493
2.3123
2.19571
2.13818
2.1689
2.33787
2.6537
3.01904
3.28728
3.36143
3.22981
2.93778
2.51698
2.02847
1.49761
1.03006
0.643724
4.20186
4.31026
4.31395
4.26129
4.15879
4.01528
3.83401
3.62198
3.38987
3.14954
2.91268
2.68879
2.48523
2.30839
2.16633
2.06916
2.03005
2.07612
2.24425
2.53799
2.88013
3.14362
3.24106
3.15628
2.92132
2.56927
2.14157
1.66089
1.21478
0.814453
4.14445
4.12551
4.06885
3.98951
3.88233
3.74749
3.58452
3.39723
3.19307
2.98125
2.77154
2.57226
2.3904
2.23348
2.10968
2.03029
2.00878
2.0712
2.24266
2.51114
2.81794
3.0618
3.16221
3.10139
2.9024
2.59852
2.22036
1.78509
1.36533
0.968456
4.06352
3.92056
3.80841
3.71004
3.60673
3.48798
3.34834
3.18897
3.01454
2.83197
2.64964
2.47505
2.31521
2.17827
2.07311
2.0123
2.0094
2.08679
2.25875
2.50941
2.78086
2.99511
3.08659
3.03718
2.8637
2.5935
2.25963
1.86849
1.48089
1.10171
3.93985
3.68926
3.52206
3.40544
3.3097
3.21162
3.09982
2.97137
2.82842
2.67631
2.52256
2.37382
2.23727
2.12111
2.03549
1.99421
2.01078
2.10232
2.27416
2.50757
2.74559
2.92827
3.00453
2.95925
2.80497
2.5637
2.26264
1.91521
1.56249
1.20803
3.78622
3.43846
3.21366
3.07613
2.98897
2.91343
2.83182
2.73706
2.62768
2.50764
2.38341
2.26144
2.14918
2.05488
1.98948
1.96828
2.00412
2.10981
2.28146
2.49615
2.70158
2.85446
2.91341
2.86814
2.72942
2.51261
2.24205
1.93145
1.61398
1.28817
3.62421
3.17316
2.88961
2.73244
2.6508
2.59692
2.54649
2.48808
2.41358
2.32607
2.23184
2.13705
2.04951
1.97778
1.93298
1.9317
1.98592
2.1049
2.27534
2.46879
2.64637
2.77127
2.81307
2.76589
2.63917
2.44412
2.20224
1.9237
1.63996
1.34435
3.45221
2.9386
2.62423
2.44327
2.35236
2.30593
2.27414
2.23965
2.19292
2.13655
2.07126
2.0031
1.93987
1.89043
1.86621
1.88381
1.95448
2.082
2.24786
2.42386
2.57744
2.6777
2.70412
2.65482
2.53809
2.36349
2.14753
1.89969
1.64507
1.37953
3.31932
2.79783
2.44308
2.23068
2.11584
2.05958
2.03214
2.01167
1.98544
1.95069
1.90803
1.86434
1.82378
1.79539
1.79048
1.82516
1.90946
2.0425
2.20254
2.36231
2.49394
2.57361
2.58735
2.53679
2.4294
2.27367
2.0815
1.86311
1.63753
1.40188
3.2634
2.74991
2.36921
2.1092
1.96116
1.87833
1.83868
1.8182
1.80156
1.78138
1.7558
1.72779
1.7065
1.69668
1.70814
1.75729
1.85169
1.98665
2.13899
2.28373
2.39642
2.45964
2.46405
2.41398
2.31619
2.17794
2.00843
1.81893
1.62232
1.4129
3.27858
2.78113
2.39385
2.10593
1.90388
1.77861
1.71278
1.67604
1.65519
1.63914
1.62293
1.60596
1.59521
1.59936
1.6231
1.6829
1.78288
1.91573
2.05903
2.18941
2.28637
2.33717
2.33587
2.28846
2.20103
2.0798
1.93399
1.77122
1.59934
1.41161
3.34917
2.87252
2.4857
2.17714
1.94402
1.78165
1.67147
1.60139
1.56212
1.53729
1.52001
1.5067
1.50062
1.51038
1.54086
1.60619
1.70665
1.8334
1.96579
2.0825
2.16654
2.20853
2.205
2.16256
2.08667
1.98439
1.86076
1.71938
1.56833
1.40115
3.47898
3.02439
2.64176
2.31912
2.06025
1.8612
1.71309
1.60902
1.53762
1.49026
1.45953
1.44025
1.43166
1.43825
1.46873
1.53334
1.62865
1.74518
1.86446
1.96784
2.04119
2.07741
2.0749
2.04059
1.9796
1.89355
1.78747
1.66452
1.53187
1.38349
3.66547
3.23324
2.86158
2.53533
2.25734
2.02702
1.84118
1.69645
1.58751
1.50869
1.45438
1.41866
1.39865
1.39595
1.41657
1.47316
1.55722
1.65904
1.7628
1.85257
1.91695
1.95011
1.95346
1.92833
1.8787
1.80663
1.71599
1.60927
1.49259
1.36094
3.90134
3.49606
3.14061
2.81602
2.52558
2.2703
2.0506
1.8666
1.71748
1.60114
1.51458
1.4532
1.4137
1.39474
1.39937
1.43813
1.50445
1.58665
1.67211
1.74735
1.80533
1.8378
1.84394
1.8258
1.78589
1.72578
1.64841
1.55602
1.45299
1.3357
4.17646
3.80115
3.46504
3.14718
2.85101
2.5782
2.33142
2.1134
1.92658
1.77204
1.64972
1.55697
1.49118
1.44981
1.4334
1.4468
1.48825
1.54594
1.61
1.67052
1.71776
1.74552
1.7518
1.73787
1.70504
1.65422
1.58748
1.50683
1.41523
1.30998
4.47665
4.13245
3.81898
3.51358
3.21916
2.93763
2.67291
2.42958
2.21248
2.02508
1.86977
1.74563
1.65134
1.58396
1.54313
1.52854
1.54028
1.56817
1.60468
1.64091
1.67005
1.6867
1.68771
1.67306
1.64284
1.59737
1.53778
1.46564
1.38217
1.28633
4.78264
4.4736
4.18789
3.9022
3.61871
3.33936
3.06896
2.81333
2.57898
2.37107
2.19347
2.04601
1.92837
1.83729
1.7724
1.72909
1.70615
1.69597
1.69359
1.69379
1.69224
1.68587
1.67173
1.64711
1.61162
1.56545
1.50714
1.43705
1.35741
1.2677
5.08486
4.81615
4.56492
4.30848
4.04821
3.78601
3.52739
3.27924
3.04921
2.84316
2.66524
2.5145
2.39065
2.28911
2.20895
2.14128
2.07892
2.01694
1.95532
1.89621
1.84096
1.78993
1.74073
1.68989
1.63472
1.57176
1.50205
1.42639
1.34534
1.25775
5.3904
5.16904
4.96177
4.74835
4.5295
4.30718
4.08771
3.8792
3.69007
3.52585
3.38924
3.2764
3.18546
3.10834
3.04103
2.96579
2.86135
2.72407
2.56391
2.3981
2.24071
2.09899
1.97349
1.86113
1.7573
1.6575
1.5597
1.46196
1.3636
1.26695
5.73827
5.57515
5.42815
5.28105
5.13423
4.99023
4.85724
4.74524
4.66338
4.61601
4.60129
4.60928
4.63559
4.66367
4.68085
4.64517
4.50594
4.25451
3.91917
3.54733
3.18074
2.8442
2.54953
2.29711
2.08064
1.89304
1.72818
1.58091
1.44667
1.32495
6.23082
6.14873
6.09539
6.05985
6.04294
6.04905
6.0925
6.18571
6.33907
6.55468
6.82111
7.11574
7.42826
7.72672
7.98547
8.09182
7.94735
7.52773
6.88586
6.11761
5.32227
4.56656
3.89408
3.32163
2.84512
2.4538
2.13433
1.87281
1.65545
1.47868
7.11419
7.16694
7.28407
7.45844
7.69318
8.00022
8.40033
8.91028
9.54196
10.2897
11.1201
11.9856
12.8689
13.7072
14.4536
14.8543
14.7511
14.0984
12.9726
11.5363
9.96824
8.40107
6.94888
5.6846
4.62838
3.7746
3.10081
2.57607
2.16743
1.86575
9.02038
9.36834
9.83647
10.4312
11.1593
12.0496
13.1321
14.4208
15.9187
17.5958
19.3675
21.1446
22.9114
24.5475
25.9759
26.732
26.6414
25.6685
23.9208
21.6047
18.9521
16.1402
13.3836
10.8703
8.69432
6.89486
5.46591
4.35989
3.51481
2.92456
13.6871
14.7082
15.9108
17.2552
18.8209
20.6805
22.8442
25.2995
28.0115
30.8942
33.7881
36.5609
39.2154
41.5246
43.379
44.132
43.7395
42.2933
39.9566
36.9022
33.2935
29.2558
25.0631
21.0065
17.2479
13.9529
11.2346
9.0477
7.32228
6.12518
25.0536
26.9244
29.0322
31.4249
34.0761
36.9938
40.2368
43.7299
47.3603
50.966
54.3425
57.3237
59.7057
61.293
62.1088
61.3924
59.8221
57.606
55.0332
52.1039
48.8245
45.2625
41.2108
36.776
32.2582
27.8682
23.9675
20.5516
17.636
15.5183
45.2518
46.3116
48.1899
50.8044
53.9428
57.3592
60.8754
64.2374
67.2886
69.9085
72.0209
73.5701
74.4176
74.2813
73.2144
70.4333
67.4261
64.2992
61.4207
58.6907
56.1126
53.6871
51.4755
49.4502
47.5981
45.6899
43.2698
40.6781
38.0226
35.7206
55.3904
54.7615
55.6604
57.6834
60.3595
63.1934
65.8417
68.0709
69.7752
70.8849
71.414
71.3968
70.6627
69.008
66.1971
61.981
58.1066
54.4798
51.4749
49.0696
47.3041
46.1168
45.5737
45.6714
46.3404
47.2981
48.3689
49.2962
49.8204
49.7545
11.6527
13.9284
14.653
14.8738
14.9042
14.6603
14.1567
13.4604
12.6428
11.7725
10.8933
10.0518
9.25964
8.55418
7.93557
7.43201
7.0624
7.00931
7.58883
8.79073
9.98291
10.5232
10.216
9.19439
7.71549
6.00503
4.28639
2.70373
1.56404
0.847293
6.47266
7.06163
7.20918
7.19202
7.11669
6.94162
6.66002
6.29152
5.86725
5.42028
4.97638
4.55248
4.1653
3.82131
3.53714
3.3234
3.22246
3.33575
3.847
4.74073
5.62531
6.10857
6.0774
5.63959
4.94922
4.12855
3.25402
2.34168
1.55463
0.979583
5.92023
6.14739
6.1603
6.07963
5.93904
5.73965
5.47868
5.16393
4.81256
4.44485
4.07995
3.73132
3.41154
3.12835
2.89666
2.73106
2.66441
2.78475
3.2416
4.01135
4.79217
5.26901
5.33183
5.05555
4.56115
3.94238
3.23568
2.4728
1.77742
1.19862
5.82561
5.84471
5.77023
5.6476
5.48631
5.28629
5.04376
4.7618
4.45111
4.12614
3.80249
3.49137
3.2043
2.95051
2.74572
2.60561
2.56317
2.70078
3.1259
3.79527
4.48856
4.93428
5.02948
4.82777
4.42669
3.89827
3.29077
2.61598
1.97393
1.40435
5.80527
5.64714
5.49252
5.33648
5.1691
4.98003
4.7609
4.51073
4.23582
3.94706
3.65749
3.37632
3.11681
2.88835
2.70753
2.59272
2.57851
2.74103
3.15639
3.74888
4.34335
4.7379
4.83235
4.66748
4.32008
3.8539
3.3149
2.71381
2.12192
1.57112
5.76609
5.4469
5.21344
5.02678
4.85978
4.68868
4.49833
4.28291
4.04501
3.79272
3.53707
3.28621
3.05445
2.85199
2.69681
2.61037
2.62918
2.82183
3.22477
3.75861
4.25995
4.59077
4.66485
4.51577
4.20402
3.78545
3.29818
2.76194
2.22113
1.69858
5.67544
5.21691
4.90823
4.69157
4.52745
4.37777
4.21923
4.04072
3.84177
3.62782
3.40798
3.18997
2.9877
2.8133
2.68669
2.63247
2.6883
2.91304
3.30562
3.77914
4.20032
4.46198
4.50463
4.359
4.07406
3.69185
3.24991
2.76255
2.27556
1.78867
5.53054
4.95593
4.57732
4.33034
4.16778
4.03993
3.91482
3.77509
3.61654
3.4421
3.25962
3.07686
2.90677
2.76254
2.66742
2.64869
2.74437
2.99948
3.38013
3.79567
4.14075
4.33609
4.34326
4.19437
3.92811
3.57643
3.17519
2.73498
2.29453
1.84681
5.3529
4.67387
4.23413
3.95524
3.79056
3.68244
3.58971
3.4877
3.36957
3.23528
3.09144
2.94513
2.80929
2.69722
2.63579
2.65463
2.79074
3.07115
3.4347
3.7994
4.07175
4.2045
4.17772
4.02263
3.77033
3.4458
3.08143
2.68644
2.29024
1.88522
5.1566
4.39803
3.89769
3.59228
3.42255
3.32576
3.25722
3.18792
3.10781
3.01288
2.90713
2.7972
2.69617
2.61805
2.59145
2.64826
2.82248
3.11979
3.46403
3.77434
3.98533
4.06242
4.00628
3.84598
3.60619
3.30801
2.9767
2.62615
2.27485
1.90722
4.95136
4.16165
3.61939
3.28654
3.10036
3.0021
2.94623
2.90009
2.84811
2.78461
2.71392
2.6384
2.57133
2.52738
2.53523
2.62868
2.83555
3.14142
3.4665
3.72064
3.87631
3.90715
3.82861
3.66627
3.43968
3.16659
2.86937
2.56204
2.24744
1.9085
4.78192
3.99219
3.42333
3.05788
2.8453
2.73174
2.67426
2.63863
2.60572
2.56635
2.52162
2.47587
2.44056
2.42939
2.46891
2.59584
2.82958
3.13513
3.42325
3.63464
3.7426
3.73827
3.64517
3.48541
3.2746
3.02782
2.76778
2.49388
2.20893
1.89745
4.67997
3.90955
3.33288
2.92376
2.67608
2.53467
2.46051
2.42045
2.39443
2.3698
2.34472
2.31995
2.31174
2.32858
2.39643
2.55082
2.79752
3.08816
3.3434
3.51537
3.58532
3.55786
3.45852
3.30724
3.11677
2.90223
2.67032
2.42251
2.16362
1.87768
4.65795
3.9221
3.34976
2.92122
2.6196
2.42813
2.32338
2.26294
2.23003
2.20882
2.19454
2.18516
2.19377
2.23238
2.32347
2.49715
2.74452
3.01104
3.23136
3.36821
3.41052
3.37103
3.27488
3.14085
2.97676
2.78562
2.57627
2.35109
2.11482
1.85174
4.70027
3.99854
3.43615
2.99393
2.66411
2.43403
2.27781
2.18127
2.12843
2.09811
2.08401
2.08206
2.10125
2.15133
2.25864
2.44217
2.67829
2.91375
3.09861
3.20555
3.23041
3.18914
3.1098
2.99494
2.84851
2.67668
2.48735
2.28161
2.06465
1.82188
4.80969
4.14404
3.59522
3.14207
2.78437
2.51533
2.32143
2.19038
2.10419
2.05251
2.02733
2.02338
2.04609
2.10015
2.21503
2.39908
2.61445
2.81457
2.96472
3.04861
3.06757
3.03877
2.96906
2.86612
2.73407
2.57819
2.40567
2.21591
2.01494
1.79
4.98983
4.35879
3.82394
3.36924
2.99261
2.69039
2.45677
2.28423
2.16256
2.08294
2.03945
2.02464
2.04424
2.09895
2.2118
2.38976
2.57889
2.74178
2.86166
2.93393
2.9522
2.92366
2.85808
2.76229
2.63953
2.4952
2.3341
2.15625
1.96762
1.75778
5.23464
4.63549
4.1237
3.67253
3.2828
2.95359
2.68422
2.47217
2.31333
2.20233
2.13581
2.10659
2.11961
2.17384
2.28473
2.45001
2.61254
2.74474
2.8446
2.89978
2.90359
2.86363
2.79294
2.69792
2.57598
2.43476
2.27718
2.10582
1.92525
1.72736
5.5311
4.96979
4.48226
4.03982
3.6446
3.29745
3.00097
2.75678
2.56592
2.42686
2.33942
2.2977
2.30711
2.36468
2.48343
2.64141
2.78503
2.89812
2.97248
2.99497
2.9609
2.89013
2.80382
2.68682
2.55036
2.4017
2.24031
2.06884
1.89125
1.70151
5.86262
5.34671
4.88669
4.46025
4.07018
3.71817
3.40893
3.14728
2.93842
2.78459
2.68888
2.64692
2.66755
2.74506
2.89208
3.06847
3.21216
3.30607
3.33799
3.2947
3.19678
3.07983
2.94645
2.78457
2.60653
2.41742
2.23195
2.05082
1.87025
1.68382
6.23033
5.75849
5.33244
4.93329
4.56393
4.22644
3.92702
3.67307
3.47305
3.3327
3.25831
3.2472
3.31536
3.45195
3.67317
3.91103
4.08377
4.15598
4.1109
3.96572
3.7667
3.55621
3.31314
3.05176
2.79066
2.53805
2.29646
2.07292
1.8698
1.67851
6.64812
6.22216
5.84005
5.48534
5.16031
4.86722
4.61367
4.40936
4.26528
4.19125
4.19627
4.28447
4.47425
4.75104
5.14064
5.51642
5.76024
5.80972
5.64702
5.3386
4.97047
4.55256
4.08392
3.62104
3.19404
2.81381
2.47941
2.18584
1.92953
1.70921
7.16782
6.79938
6.48037
6.19876
5.95696
5.75733
5.60965
5.52655
5.51986
5.60949
5.80966
6.12186
6.57395
7.14207
7.87209
8.50775
8.89043
8.93582
8.60836
8.06564
7.35447
6.49015
5.59119
4.74259
3.99828
3.3735
2.8599
2.4406
2.09557
1.82036
7.93114
7.64432
7.42581
7.27073
7.18215
7.16104
7.22409
7.38813
7.67192
8.09683
8.6828
9.42953
10.373
11.469
12.792
13.831
14.4552
14.5489
14.0645
13.0467
11.6576
10.0399
8.39728
6.8699
5.55152
4.47614
3.62784
2.96986
2.46046
2.08179
9.25902
9.11328
9.07044
9.14587
9.34235
9.66276
10.1236
10.7445
11.5535
12.5738
13.8185
15.2779
16.9915
18.8826
21.027
22.5298
23.351
23.3927
22.5107
20.874
18.642
16.0041
13.3042
10.7342
8.49199
6.64815
5.20311
4.1028
3.27802
2.70564
11.8789
12.0218
12.332
12.8399
13.5386
14.4395
15.5596
16.9142
18.5304
20.4231
22.5696
24.9491
27.5871
30.3634
33.1907
34.2092
34.452
33.8009
32.4315
30.4287
27.8639
24.7346
21.0603
17.2815
13.8615
10.911
8.52153
6.66136
5.25604
4.31744
17.4196
18.1296
19.1059
20.2859
21.6907
23.3873
25.3619
27.6109
30.1399
32.9368
35.906
39.0574
42.2852
44.9765
47.3075
46.8645
45.7776
44.0304
42.0308
39.7149
37.0676
34.0645
30.7036
26.9886
22.8513
18.8718
15.4072
12.512
10.2183
8.67857
28.6058
29.8317
31.4175
33.3417
35.5286
37.9093
40.5343
43.3699
46.3752
49.4983
52.5714
55.2634
57.7863
59.3523
60.0632
57.2276
54.263
51.1968
48.606
46.2042
43.9107
41.6788
39.3799
36.9619
34.3722
31.3276
27.8422
24.4275
21.4522
19.3012
44.8058
45.4671
46.9135
48.9836
51.4687
54.1695
56.9225
59.5855
62.0658
64.2905
66.177
67.6057
68.4244
67.9534
66.212
60.6563
55.9656
51.802
48.6412
46.2677
44.557
43.377
42.6769
42.3714
42.3017
42.2282
41.8025
40.8224
39.1848
37.5205
50.7333
50.9775
52.2344
54.3051
56.8607
59.5117
61.9995
64.1453
65.8514
67.0419
67.6769
67.7195
66.8761
64.5328
60.5449
53.3411
47.8773
43.3396
40.0719
37.7316
36.3871
35.8912
36.2139
37.3231
39.0591
41.1465
43.3062
45.2389
46.6482
47.2822
16.0374
18.9733
19.5784
19.6012
19.3328
18.8364
18.0566
17.0546
15.9132
14.7174
13.5109
12.349
11.2419
10.2493
9.37904
8.69466
8.2708
8.61574
10.5888
13.8309
16.5316
17.5164
16.8191
14.9941
12.5957
9.97458
7.39363
4.98844
3.15817
1.85032
8.49615
9.21056
9.30845
9.20542
8.99881
8.7278
8.34788
7.86497
7.31647
6.73677
6.15801
5.59438
5.0713
4.59144
4.19484
3.88912
3.7652
4.0811
5.33694
7.2712
8.87732
9.52177
9.26263
8.44787
7.37572
6.21181
5.03816
3.83368
2.75852
1.89297
7.70443
7.93091
7.87007
7.70616
7.47401
7.19531
6.85497
6.45371
6.00909
5.5419
5.07383
4.61689
4.19024
3.8017
3.48033
3.24334
3.16137
3.46295
4.51521
6.08863
7.42294
8.02842
7.92081
7.35953
6.57331
5.71011
4.8064
3.8207
2.91816
2.15308
7.59416
7.53263
7.36537
7.15956