/*--------------------------------*- C++ -*----------------------------------*\
  =========                 |
  \\      /  F ield         | OpenFOAM: The Open Source CFD Toolbox
   \\    /   O peration     | Website:  https://openfoam.org
    \\  /    A nd           | Version:  12
     \\/     M anipulation  |
\*---------------------------------------------------------------------------*/
FoamFile
{
    format      ascii;
    class       volScalarField;
    location    "1750/air";
    object      k;
}
// * * * * * * * * * * * * * * * * * * * * * * * * * * * * * * * * * * * * * //

dimensions      [0 2 -2 0 0 0 0];

internalField   nonuniform List<scalar> 
243000
(
0.0512343
0.059559
0.0652182
0.0690361
0.071241
0.072069
0.071785
0.0706502
0.068886
0.0666838
0.0641789
0.0614792
0.0586936
0.055942
0.0532374
0.0505639
0.047878
0.0452034
0.0425802
0.0400608
0.0376501
0.0352645
0.0332834
0.0308658
0.0292127
0.0271418
0.0251922
0.0210529
0.0158168
0.0125374
0.078395
0.0905457
0.0961231
0.0977405
0.0970746
0.0949996
0.0920184
0.088489
0.0846572
0.0807009
0.0767268
0.072839
0.069111
0.0656042
0.0623326
0.059292
0.0564465
0.0538541
0.0515486
0.0495871
0.0479409
0.046464
0.0449007
0.0429019
0.0400225
0.0364076
0.0318821
0.0262415
0.0203776
0.0147588
0.0835264
0.101643
0.11011
0.113076
0.112935
0.110867
0.107592
0.103605
0.0992315
0.0947048
0.0901625
0.0857368
0.081507
0.0775353
0.0738507
0.0704625
0.067348
0.0645983
0.0622311
0.0602783
0.0586841
0.0572922
0.0558067
0.0538021
0.0508436
0.0466379
0.0412652
0.0344949
0.0275191
0.0200626
0.0800075
0.0995238
0.111329
0.1172
0.11904
0.118179
0.115648
0.112088
0.10793
0.103469
0.098903
0.0943958
0.090046
0.0859456
0.0821477
0.0786831
0.0755442
0.0728403
0.0705646
0.0687035
0.0671593
0.0657696
0.064265
0.062232
0.0592312
0.0549036
0.0492582
0.0420867
0.0345126
0.026212
0.0740965
0.0910132
0.104841
0.113582
0.118056
0.119328
0.118371
0.115967
0.11268
0.108828
0.104697
0.100487
0.0963333
0.0923689
0.0886782
0.0853234
0.0823168
0.0797784
0.0776739
0.0759382
0.07443
0.0729851
0.0713756
0.0692461
0.0661908
0.0618492
0.0561559
0.0489425
0.0411216
0.0324877
0.0709896
0.0807614
0.0936092
0.104364
0.111524
0.115396
0.11664
0.116026
0.114021
0.111195
0.107901
0.104316
0.100633
0.0970339
0.0936361
0.0905457
0.0877956
0.0855109
0.0836286
0.0820403
0.0805723
0.0790589
0.0773128
0.0750501
0.0719238
0.0676038
0.0619797
0.0549197
0.0471081
0.0384345
0.0755835
0.0777741
0.0852955
0.0942745
0.101899
0.107813
0.1113
0.112689
0.112448
0.111064
0.108839
0.106124
0.103159
0.100126
0.0971802
0.0944852
0.0920917
0.0901236
0.0884988
0.0870755
0.0856591
0.0840864
0.0822043
0.0797977
0.0765916
0.0723017
0.0668055
0.0599971
0.0523711
0.043851
0.0832831
0.0802148
0.0819814
0.0873837
0.0938891
0.0998638
0.104232
0.107083
0.10851
0.108673
0.107799
0.106206
0.104113
0.101802
0.0994478
0.0972575
0.0953021
0.0936985
0.092357
0.0911156
0.0897675
0.0881569
0.0861584
0.0836181
0.0803328
0.076075
0.0707325
0.0642192
0.0569075
0.0486502
0.0920383
0.0863263
0.0833385
0.0843232
0.0881628
0.0931115
0.097629
0.101101
0.103354
0.104706
0.105131
0.104735
0.103673
0.102213
0.100562
0.0989659
0.0975137
0.0963125
0.0952766
0.0942336
0.0929746
0.0913545
0.0892724
0.0866238
0.0832715
0.0790478
0.0738738
0.0676856
0.0607206
0.0528058
0.101571
0.0951405
0.0889821
0.0856431
0.0857231
0.0883465
0.0919849
0.095486
0.0982514
0.10021
0.101428
0.10207
0.102053
0.101515
0.100644
0.0997075
0.0988074
0.0980413
0.0973303
0.0965029
0.0953568
0.0937606
0.0916341
0.0889131
0.0855176
0.0813448
0.0763405
0.0704394
0.0638375
0.056323
0.111511
0.104739
0.0972458
0.0909949
0.0873094
0.0866127
0.0881726
0.0907907
0.0934947
0.095794
0.09751
0.0987061
0.0995355
0.0998857
0.0998226
0.0995798
0.099264
0.0989568
0.0985896
0.0979968
0.0969901
0.0954521
0.0933243
0.0905741
0.0871762
0.0830547
0.07819
0.0725616
0.0663193
0.0592642
0.12167
0.114667
0.106926
0.0992031
0.0927679
0.0886677
0.0872339
0.0878902
0.0896747
0.0917787
0.0937089
0.0952736
0.0965194
0.0975669
0.0982484
0.0986932
0.0989673
0.0991336
0.0991258
0.0987904
0.0979499
0.0965048
0.0944184
0.0916895
0.0883052
0.0842417
0.0795174
0.0741405
0.0682363
0.0616266
0.131908
0.124774
0.117221
0.108955
0.101041
0.0943842
0.0898593
0.0877513
0.0876394
0.088751
0.0903687
0.0920175
0.0935009
0.0948727
0.0961214
0.09718
0.0980191
0.098654
0.0990118
0.0989478
0.0983014
0.096998
0.0949972
0.0923123
0.0889698
0.084983
0.080401
0.0752561
0.0696609
0.0634702
0.142121
0.134914
0.12739
0.119178
0.110798
0.102758
0.0958823
0.0909463
0.0882487
0.0874947
0.088054
0.0892795
0.090721
0.092189
0.0936961
0.09521
0.0965379
0.0976118
0.0983301
0.0985461
0.098112
0.0969467
0.0950571
0.0924706
0.0892219
0.0853485
0.0809152
0.0759884
0.0706753
0.0648754
0.152212
0.144979
0.13752
0.129584
0.121202
0.112654
0.104432
0.0972926
0.0919573
0.088748
0.0874689
0.0875826
0.0885029
0.0898043
0.0912837
0.0929947
0.0946705
0.0961169
0.0971696
0.0976674
0.0974583
0.096482
0.0947304
0.0922631
0.0891319
0.0853992
0.0811355
0.0764596
0.0714425
0.0660437
0.162073
0.154869
0.147537
0.139923
0.131756
0.123194
0.114439
0.105984
0.0985588
0.0928626
0.0892359
0.087544
0.0873163
0.0880132
0.0892234
0.0907942
0.0926028
0.0943027
0.0956335
0.0963954
0.0964173
0.095647
0.0940837
0.0917746
0.0888043
0.0853101
0.0813264
0.0769199
0.0721825
0.0671263
0.171583
0.164452
0.157285
0.149909
0.142099
0.13379
0.125015
0.116014
0.107303
0.099612
0.0936223
0.0896847
0.0876956
0.08723
0.0877758
0.0889699
0.090582
0.0923412
0.0938473
0.0948258
0.0950715
0.0945196
0.0931689
0.0911204
0.0884361
0.0852046
0.0814913
0.0773502
0.0728782
0.068124
0.180589
0.173561
0.166585
0.159473
0.152061
0.144121
0.135598
0.126556
0.117279
0.108318
0.100405
0.0942127
0.0900772
0.0879116
0.0872988
0.0877707
0.088937
0.0904614
0.0919758
0.0930846
0.0935234
0.0932262
0.0921774
0.0904282
0.0880275
0.0850637
0.0816156
0.0777353
0.0735191
0.0690385
0.188928
0.182028
0.175269
0.16853
0.16152
0.153999
0.145862
0.13707
0.127727
0.11817
0.108989
0.100928
0.0946363
0.0904288
0.0881839
0.0875063
0.0879212
0.088987
0.0902837
0.0913923
0.0919937
0.0919291
0.091154
0.0896909
0.0875709
0.0848755
0.0816883
0.0780635
0.0740959
0.0698692
0.196461
0.18974
0.183257
0.176949
0.170348
0.163281
0.155606
0.147224
0.138127
0.128474
0.118659
0.10932
0.101211
0.0949373
0.0907537
0.0885166
0.0878086
0.08813
0.0889957
0.0899368
0.0905751
0.0906701
0.0901231
0.0889194
0.0870704
0.0846397
0.0817057
0.0783311
0.0746039
0.0706139
0.203108
0.196657
0.190652
0.184675
0.178478
0.171876
0.164702
0.156821
0.148154
0.138738
0.128791
0.118775
0.109384
0.101328
0.0951647
0.0910938
0.0889044
0.0881495
0.0883065
0.0888638
0.0893749
0.0895201
0.0891317
0.0881459
0.0865463
0.0843683
0.0816793
0.0785445
0.0750476
0.0712808
0.208859
0.202915
0.197238
0.191603
0.185822
0.179702
0.173062
0.165746
0.157632
0.148672
0.138952
0.128763
0.118654
0.109289
0.101381
0.0954212
0.0915006
0.08934
0.0884778
0.0883809
0.0885511
0.088593
0.0882612
0.0874284
0.0860374
0.0840878
0.0816296
0.0787212
0.0754436
0.0718878
0.213607
0.208032
0.202751
0.197555
0.192264
0.186692
0.180663
0.174005
0.166562
0.158224
0.148978
0.138983
0.128641
0.118495
0.109258
0.101587
0.0958558
0.0920423
0.0898431
0.0887818
0.088342
0.0880717
0.0876504
0.0868682
0.0856187
0.0838564
0.0816015
0.0789017
0.075829
0.0724705
0.217231
0.212127
0.207301
0.20261
0.197881
0.193003
0.187802
0.182014
0.175407
0.167818
0.159155
0.149517
0.139304
0.128859
0.118779
0.109739
0.102297
0.0967016
0.0928858
0.0905226
0.0891449
0.088281
0.0875375
0.0866396
0.0854118
0.08376
0.0816631
0.0791454
0.0762575
0.0730806
0.219991
0.215458
0.211186
0.207075
0.20313
0.199158
0.194876
0.19003
0.184366
0.177684
0.169825
0.160882
0.151183
0.140904
0.130477
0.120497
0.111576
0.104173
0.0985045
0.094471
0.0917389
0.0898801
0.0884763
0.0871884
0.0857658
0.0840664
0.082019
0.0796059
0.0768515
0.073825
0.222184
0.218404
0.214886
0.211556
0.208354
0.205176
0.201852
0.198153
0.193824
0.188604
0.182261
0.174706
0.166037
0.156437
0.146183
0.135727
0.125623
0.116454
0.108723
0.102589
0.0979411
0.0944819
0.0918381
0.0896521
0.0876275
0.0855554
0.0832993
0.0807935
0.0780254
0.0750383
0.225191
0.222673
0.220409
0.218371
0.216523
0.214797
0.21306
0.211105
0.208673
0.205451
0.201129
0.195479
0.188422
0.180021
0.170521
0.160089
0.149099
0.138262
0.128256
0.119523
0.112219
0.10627
0.101439
0.0974313
0.0939593
0.090774
0.0876868
0.0845752
0.0813714
0.0780956
0.234984
0.234723
0.234657
0.234845
0.235361
0.236193
0.237224
0.238204
0.238812
0.238637
0.237262
0.234348
0.22969
0.223237
0.215155
0.205334
0.193803
0.18146
0.169063
0.157289
0.146539
0.136995
0.128633
0.121332
0.114915
0.109146
0.103826
0.0988176
0.0940227
0.0895741
0.279715
0.28275
0.285591
0.28909
0.293632
0.299093
0.304975
0.310684
0.315779
0.319966
0.32243
0.322933
0.321342
0.317685
0.31187
0.303546
0.292189
0.279106
0.265182
0.251126
0.237407
0.224324
0.212059
0.20069
0.190261
0.1803
0.170751
0.161659
0.153119
0.145721
0.490516
0.490219
0.49139
0.4968
0.504675
0.512925
0.519417
0.524486
0.528461
0.532061
0.533085
0.532957
0.5318
0.529905
0.526561
0.521655
0.513254
0.504707
0.496289
0.488594
0.481492
0.475119
0.469423
0.464432
0.460249
0.453683
0.445997
0.438013
0.430592
0.42457
0.0887068
0.10114
0.107292
0.110157
0.11052
0.108964
0.105999
0.102101
0.0976583
0.0929846
0.0882658
0.0836817
0.079366
0.0754593
0.0719416
0.0688131
0.0660099
0.0636451
0.0619316
0.0610211
0.0605649
0.059764
0.0577806
0.0540415
0.0483422
0.0407818
0.0319899
0.0248084
0.020335
0.0197491
0.151328
0.170403
0.173673
0.169835
0.162235
0.152807
0.142696
0.132602
0.122933
0.113929
0.105693
0.0983649
0.0919235
0.0863904
0.0816913
0.0778058
0.0746232
0.0723813
0.0713251
0.07163
0.0728911
0.074233
0.0745745
0.0728739
0.0684442
0.061116
0.0516011
0.040494
0.0321143
0.0269645
0.183011
0.203915
0.20827
0.204506
0.19633
0.185823
0.174282
0.162564
0.151196
0.140524
0.130717
0.121978
0.114323
0.107798
0.102358
0.0980116
0.0946545
0.0925467
0.0917929
0.0924004
0.0938791
0.0954178
0.0959888
0.0944559
0.0899433
0.0820301
0.0713272
0.0582423
0.0465839
0.0371806
0.199717
0.219734
0.224214
0.221218
0.213836
0.203891
0.192711
0.181141
0.169683
0.15877
0.148651
0.139567
0.131594
0.124838
0.119309
0.11506
0.112024
0.110439
0.110215
0.111135
0.112612
0.113917
0.114204
0.112448
0.107731
0.099509
0.0882496
0.0740595
0.0604452
0.0484781
0.205992
0.222503
0.227526
0.225745
0.21976
0.211058
0.201207
0.190829
0.180194
0.169914
0.160291
0.15156
0.14388
0.137423
0.132256
0.128483
0.12608
0.125234
0.125645
0.126904
0.128349
0.129325
0.129183
0.127078
0.122181
0.11389
0.102535
0.0880188
0.0734482
0.0599916
0.204425
0.217085
0.221536
0.221032
0.216964
0.21078
0.202628
0.193589
0.184238
0.175244
0.166732
0.158851
0.151914
0.146144
0.141662
0.138627
0.137057
0.137059
0.138129
0.139724
0.141139
0.141795
0.141203
0.138734
0.13369
0.125502
0.114333
0.100024
0.0852107
0.0710802
0.199081
0.204262
0.207095
0.207941
0.206596
0.202852
0.197353
0.190688
0.183594
0.176146
0.168897
0.162169
0.156346
0.151563
0.148004
0.145904
0.145303
0.146179
0.147909
0.14983
0.151231
0.151616
0.150613
0.147794
0.142643
0.134654
0.123862
0.11011
0.0955393
0.0812846
0.192997
0.189688
0.18899
0.189703
0.190043
0.18922
0.186918
0.18306
0.178301
0.172969
0.167508
0.162366
0.157761
0.154142
0.151682
0.150665
0.151096
0.152845
0.155216
0.157464
0.158885
0.159067
0.157728
0.154615
0.14939
0.141661
0.131374
0.118386
0.104388
0.0903566
0.188311
0.179086
0.174618
0.173397
0.173724
0.174102
0.173692
0.172062
0.169752
0.166666
0.163169
0.15972
0.156619
0.154316
0.153062
0.153211
0.154679
0.157284
0.160268
0.162843
0.164331
0.164398
0.162827
0.159506
0.154264
0.146827
0.13715
0.125069
0.111833
0.0982038
0.189387
0.175812
0.16608
0.161451
0.159976
0.160087
0.160469
0.160347
0.159652
0.158263
0.156653
0.154913
0.153384
0.152487
0.152477
0.153799
0.156285
0.15972
0.163277
0.166178
0.16779
0.167835
0.166154
0.162738
0.157564
0.150498
0.141372
0.130161
0.117783
0.104793
0.194551
0.178375
0.164819
0.15548
0.150909
0.149111
0.148933
0.149222
0.149467
0.149354
0.148975
0.14865
0.148577
0.149053
0.150244
0.152709
0.156178
0.160346
0.164447
0.16767
0.169475
0.169583
0.167925
0.164559
0.159521
0.152746
0.144182
0.133846
0.1224
0.110246
0.203713
0.185323
0.169105
0.156597
0.147969
0.143013
0.140878
0.14025
0.140435
0.140846
0.141297
0.141823
0.142817
0.144457
0.146738
0.150239
0.154571
0.159394
0.164002
0.167645
0.16965
0.169832
0.168197
0.164905
0.160071
0.153722
0.145788
0.136319
0.125816
0.114576
0.216151
0.196331
0.178376
0.163308
0.151561
0.143476
0.138138
0.135138
0.134031
0.133937
0.134491
0.135432
0.13689
0.139261
0.142373
0.146727
0.15177
0.157126
0.162148
0.166126
0.168422
0.168797
0.167345
0.164212
0.159594
0.153617
0.146368
0.137784
0.128266
0.118047
0.23157
0.2113
0.192594
0.175818
0.161537
0.150237
0.141678
0.135643
0.13195
0.130078
0.129706
0.130326
0.131764
0.134138
0.1377
0.142599
0.148118
0.153845
0.159181
0.163433
0.166017
0.166671
0.165496
0.162689
0.158405
0.152889
0.146252
0.138635
0.130147
0.120892
0.249501
0.229672
0.210989
0.193406
0.177381
0.163488
0.151824
0.142328
0.135321
0.130729
0.128315
0.127584
0.128229
0.130099
0.133462
0.138406
0.144049
0.149914
0.155403
0.159843
0.162684
0.163665
0.162843
0.160462
0.156688
0.15179
0.145874
0.13903
0.131417
0.12302
0.26942
0.251093
0.233301
0.215529
0.198327
0.18259
0.168193
0.155429
0.144898
0.136906
0.131512
0.128448
0.127327
0.128053
0.130549
0.134837
0.140116
0.145781
0.151202
0.155695
0.158728
0.16006
0.15966
0.157853
0.154742
0.15044
0.14512
0.138878
0.132002
0.124402
0.290974
0.274609
0.258192
0.240888
0.223304
0.206196
0.189666
0.174225
0.160499
0.149023
0.140155
0.133986
0.130239
0.128954
0.129833
0.132689
0.137008
0.142029
0.147071
0.151435
0.154568
0.156312
0.156446
0.155145
0.152552
0.148829
0.144075
0.138386
0.132065
0.12518
0.312799
0.298494
0.28357
0.267193
0.249945
0.232341
0.21469
0.197451
0.181239
0.166703
0.154415
0.144768
0.13774
0.133648
0.132138
0.132951
0.135603
0.139436
0.143705
0.147736
0.150883
0.152812
0.153273
0.152386
0.150275
0.147085
0.142861
0.137688
0.131864
0.125548
0.333337
0.320808
0.307679
0.292916
0.2768
0.259658
0.241819
0.223698
0.205875
0.189018
0.173808
0.160823
0.150397
0.142793
0.138287
0.136386
0.136766
0.138836
0.141869
0.145117
0.147877
0.149728
0.150399
0.149832
0.148113
0.145374
0.14163
0.136929
0.131549
0.125687
0.351309
0.340992
0.330066
0.317401
0.303026
0.287077
0.269845
0.2517
0.233165
0.214873
0.197518
0.181738
0.168088
0.156979
0.148961
0.143816
0.14126
0.140993
0.142203
0.144098
0.146003
0.14752
0.148199
0.147785
0.146339
0.143955
0.140584
0.136274
0.131267
0.125776
0.367143
0.359088
0.350516
0.340219
0.328006
0.313837
0.297909
0.280546
0.262206
0.243445
0.224886
0.207133
0.19084
0.176669
0.164806
0.156115
0.15011
0.146786
0.145484
0.145468
0.146075
0.146796
0.147152
0.14668
0.145347
0.143121
0.139958
0.135909
0.131167
0.125994
0.381031
0.375241
0.36906
0.361282
0.351538
0.339644
0.325695
0.30997
0.292835
0.274714
0.256088
0.237435
0.21939
0.202725
0.187742
0.175027
0.165143
0.158003
0.153306
0.150526
0.149114
0.14851
0.148087
0.147171
0.145542
0.143155
0.139987
0.136066
0.131521
0.126602
0.39337
0.389852
0.386111
0.381025
0.374108
0.36508
0.35396
0.340986
0.326394
0.310401
0.293241
0.275151
0.256638
0.238418
0.221121
0.204889
0.190411
0.178404
0.169028
0.162176
0.157528
0.154539
0.152482
0.150437
0.148077
0.145225
0.141769
0.137675
0.133053
0.128206
0.405174
0.404085
0.40305
0.401096
0.397704
0.392575
0.385715
0.377306
0.367395
0.355869
0.34258
0.327367
0.31041
0.292261
0.273867
0.254694
0.234975
0.216648
0.200524
0.187263
0.177029
0.169501
0.163965
0.159296
0.155017
0.15079
0.146379
0.141655
0.13659
0.131515
0.418941
0.420938
0.423571
0.426078
0.427965
0.429125
0.429564
0.429235
0.427852
0.42476
0.419233
0.410517
0.39843
0.383198
0.365751
0.345058
0.319988
0.293131
0.266912
0.243099
0.222683
0.205982
0.192581
0.181606
0.172452
0.164537
0.15739
0.150692
0.144224
0.138324
0.441518
0.448685
0.457753
0.468298
0.480136
0.493068
0.506791
0.520737
0.534079
0.545338
0.55294
0.555488
0.552625
0.544121
0.530812
0.510793
0.481485
0.445679
0.406466
0.367013
0.329377
0.2952
0.265369
0.240032
0.218879
0.201295
0.186586
0.174127
0.163338
0.154713
0.495975
0.514427
0.537132
0.563571
0.593388
0.625766
0.65994
0.694599
0.728316
0.75831
0.782277
0.798685
0.807026
0.806873
0.799433
0.782024
0.750741
0.708194
0.657522
0.602585
0.545478
0.48885
0.434939
0.385497
0.341607
0.303588
0.271303
0.244188
0.221515
0.204863
0.654303
0.694807
0.73854
0.785731
0.835942
0.887364
0.939775
0.991034
1.03951
1.08027
1.112
1.13414
1.14612
1.14865
1.14287
1.12581
1.09569
1.05439
1.00367
0.945602
0.881329
0.813321
0.743504
0.67418
0.607816
0.54623
0.490586
0.441051
0.397664
0.366164
0.982067
1.01835
1.06304
1.114
1.16637
1.21772
1.27072
1.31738
1.35624
1.38551
1.40446
1.41501
1.41425
1.4062
1.39078
1.36466
1.33405
1.29943
1.26287
1.22042
1.17426
1.12596
1.07595
1.02493
0.973598
0.922197
0.871054
0.820924
0.772646
0.73671
1.20447
1.19923
1.21501
1.24514
1.27964
1.31214
1.34
1.36095
1.37519
1.38281
1.38421
1.38048
1.3703
1.35614
1.3334
1.29952
1.26862
1.23708
1.20773
1.18134
1.15858
1.14025
1.12742
1.1204
1.118
1.11673
1.11513
1.11321
1.1084
1.09832
0.128426
0.142453
0.146211
0.146922
0.145355
0.141719
0.136495
0.130258
0.123501
0.116631
0.109898
0.103576
0.097778
0.0926879
0.088284
0.0846531
0.0817866
0.0801981
0.0808378
0.0840135
0.0880415
0.0904406
0.0896024
0.0849866
0.07684
0.0656113
0.0523126
0.0374792
0.0244789
0.0210472
0.213677
0.237723
0.241156
0.235955
0.225516
0.212498
0.198443
0.184316
0.170699
0.157933
0.1462
0.135717
0.126429
0.118439
0.11162
0.10602
0.101599
0.0994448
0.100852
0.106292
0.113815
0.12035
0.12337
0.12144
0.114126
0.101789
0.0857532
0.0668618
0.0497598
0.0363426
0.258862
0.285553
0.291247
0.286325
0.275448
0.2613
0.245496
0.22919
0.213178
0.19797
0.183862
0.171176
0.159923
0.150276
0.142215
0.135833
0.131119
0.129228
0.131228
0.137378
0.145671
0.153068
0.156936
0.155603
0.148171
0.134819
0.116717
0.0946101
0.0734324
0.0548774
0.28796
0.311603
0.317246
0.313036
0.303007
0.289503
0.273959
0.257524
0.241088
0.225234
0.21036
0.196864
0.184864
0.174619
0.166249
0.159912
0.155665
0.154535
0.157119
0.163418
0.171469
0.178533
0.182245
0.181002
0.173705
0.160244
0.141555
0.118204
0.094778
0.0730887
0.306669
0.324532
0.328498
0.324692
0.31588
0.303814
0.289471
0.273993
0.258296
0.242887
0.228257
0.214863
0.202931
0.192808
0.184755
0.179001
0.17565
0.175481
0.178556
0.184647
0.191953
0.198102
0.201142
0.19967
0.192574
0.179525
0.161195
0.137893
0.113688
0.0902544
0.31726
0.327366
0.329226
0.326013
0.31847
0.307924
0.295016
0.281228
0.26718
0.252983
0.23932
0.226717
0.215461
0.206003
0.198726
0.193944
0.191774
0.192618
0.196101
0.201752
0.208031
0.212972
0.215065
0.213141
0.206206
0.193826
0.176383
0.153991
0.130066
0.1061
0.322236
0.32393
0.322316
0.31836
0.312186
0.303788
0.293886
0.282265
0.269734
0.256845
0.244724
0.233478
0.223372
0.215009
0.208858
0.20535
0.204545
0.206399
0.210214
0.21533
0.220463
0.224075
0.225089
0.222552
0.215692
0.204067
0.187819
0.166896
0.143981
0.120138
0.322731
0.315888
0.309456
0.304002
0.298908
0.292709
0.285279
0.276465
0.266541
0.256275
0.245836
0.236001
0.227351
0.220407
0.21566
0.213663
0.214303
0.217142
0.221232
0.225802
0.229802
0.232095
0.231993
0.228763
0.221896
0.21105
0.196173
0.176907
0.155355
0.132221
0.320903
0.304177
0.292147
0.284819
0.280275
0.276116
0.271421
0.265752
0.258738
0.250962
0.242832
0.234939
0.22802
0.222718
0.219573
0.219224
0.221305
0.225088
0.229424
0.233487
0.236449
0.237548
0.236357
0.232431
0.225565
0.215294
0.201542
0.184044
0.164172
0.142314
0.316802
0.292853
0.276872
0.267047
0.261681
0.25833
0.255407
0.251954
0.247451
0.242355
0.23666
0.230962
0.225961
0.222433
0.220988
0.222303
0.225781
0.230445
0.235013
0.238643
0.240721
0.240788
0.238645
0.23408
0.226919
0.217118
0.204465
0.188705
0.170728
0.150674
0.314652
0.287245
0.266533
0.253456
0.245843
0.241779
0.239433
0.237405
0.234869
0.231782
0.228189
0.22472
0.221728
0.220047
0.220293
0.223181
0.227915
0.233404
0.238195
0.241505
0.242888
0.242064
0.238985
0.233775
0.226472
0.217002
0.205431
0.19139
0.175489
0.157544
0.316634
0.288073
0.264193
0.246212
0.23521
0.228976
0.225747
0.223938
0.222457
0.220837
0.218936
0.217057
0.215972
0.216072
0.217865
0.222173
0.22804
0.234148
0.239156
0.242289
0.243141
0.24163
0.237985
0.232383
0.225042
0.21595
0.205168
0.192787
0.179006
0.163033
0.322265
0.293292
0.267964
0.24742
0.232164
0.222153
0.216656
0.21362
0.21196
0.210906
0.210045
0.209381
0.209512
0.21107
0.21418
0.219648
0.226335
0.232937
0.23814
0.241215
0.241701
0.239787
0.235825
0.23012
0.222882
0.214267
0.204423
0.193482
0.181379
0.167103
0.331902
0.303144
0.276984
0.254334
0.236304
0.223216
0.214157
0.208484
0.205275
0.203618
0.202847
0.202734
0.203498
0.205816
0.209829
0.216069
0.223253
0.230124
0.235461
0.238497
0.238802
0.236717
0.232684
0.227092
0.220227
0.212329
0.203411
0.19339
0.182564
0.169819
0.345604
0.317412
0.29121
0.267481
0.247255
0.231046
0.218707
0.209947
0.204139
0.200672
0.198821
0.198312
0.199015
0.201205
0.205535
0.212031
0.219296
0.226156
0.231468
0.23447
0.234744
0.232695
0.228849
0.223664
0.217508
0.210242
0.202028
0.192809
0.182906
0.171472
0.362915
0.336271
0.310953
0.286905
0.265167
0.246387
0.230847
0.21862
0.209545
0.203292
0.199382
0.197425
0.197163
0.198607
0.202197
0.208297
0.215135
0.22161
0.226681
0.229597
0.229961
0.228147
0.22485
0.220218
0.214588
0.207958
0.200415
0.191913
0.182745
0.172373
0.38402
0.359251
0.335264
0.31155
0.289028
0.268367
0.250083
0.234548
0.221976
0.21237
0.205549
0.201213
0.199094
0.199002
0.201137
0.205844
0.211646
0.217271
0.221828
0.224546
0.225169
0.223748
0.220842
0.216722
0.211637
0.205633
0.198719
0.190867
0.182346
0.172788
0.407637
0.385035
0.362758
0.339943
0.317341
0.295565
0.275239
0.256927
0.241102
0.228061
0.217919
0.210567
0.205829
0.203494
0.203502
0.205958
0.209982
0.214228
0.217964
0.220387
0.220957
0.219745
0.217171
0.213501
0.208923
0.203477
0.197111
0.189823
0.181846
0.172928
0.432271
0.412093
0.391856
0.370446
0.348432
0.326334
0.304798
0.284487
0.266043
0.249967
0.236613
0.226063
0.218305
0.213178
0.210599
0.210377
0.212004
0.214353
0.216591
0.218095
0.218215
0.216891
0.214439
0.211059
0.206848
0.201767
0.195801
0.188947
0.181389
0.172978
0.456545
0.438978
0.421052
0.401498
0.380706
0.359088
0.337265
0.315927
0.295808
0.277529
0.261595
0.24822
0.237554
0.229519
0.224152
0.220974
0.219694
0.219442
0.2195
0.2193
0.21826
0.216329
0.213558
0.210029
0.205806
0.200818
0.195029
0.188425
0.181127
0.173099
0.479465
0.46459
0.449169
0.431886
0.412956
0.392676
0.371607
0.350432
0.329904
0.310682
0.293335
0.27812
0.265308
0.254876
0.247005
0.240983
0.236406
0.232763
0.2296
0.226593
0.223385
0.219883
0.216021
0.211732
0.206807
0.20127
0.195128
0.188465
0.181239
0.173498
0.500619
0.488451
0.47571
0.461149
0.444821
0.426903
0.407879
0.38839
0.369161
0.350807
0.33387
0.318564
0.305211
0.293773
0.284492
0.276315
0.268359
0.260435
0.25256
0.244966
0.237755
0.230949
0.224462
0.21814
0.211709
0.205025
0.19792
0.190419
0.182617
0.174728
0.520436
0.511073
0.50136
0.49021
0.477532
0.463402
0.448217
0.432558
0.417071
0.402268
0.388539
0.375971
0.364895
0.355122
0.346757
0.338116
0.327303
0.314208
0.299521
0.284437
0.269938
0.256531
0.24443
0.233524
0.223473
0.213982
0.204775
0.195684
0.186674
0.178054
0.541013
0.534923
0.529079
0.522625
0.515362
0.507295
0.498752
0.490199
0.482149
0.474943
0.468677
0.463176
0.458706
0.454766
0.451104
0.444871
0.43251
0.413787
0.389988
0.363427
0.336547
0.31094
0.287703
0.267231
0.249315
0.233584
0.219613
0.207009
0.195405
0.185035
0.567885
0.566432
0.566427
0.567337
0.568795
0.570708
0.573312
0.576839
0.581592
0.587572
0.594316
0.601133
0.608282
0.614725
0.619752
0.618511
0.606022
0.581915
0.547734
0.506769
0.46274
0.418384
0.376283
0.338289
0.305049
0.2766
0.252536
0.232217
0.214884
0.200967
0.614598
0.62154
0.632048
0.645499
0.661261
0.679103
0.698924
0.720446
0.743519
0.767592
0.791288
0.813329
0.834193
0.852165
0.866279
0.869105
0.855889
0.82687
0.783793
0.72999
0.669228
0.604204
0.538598
0.476232
0.419395
0.36953
0.32719
0.291924
0.262807
0.241404
0.716266
0.739719
0.768415
0.800421
0.83555
0.873535
0.913428
0.954308
0.99543
1.03562
1.07279
1.10537
1.13422
1.15674
1.17197
1.1712
1.15243
1.11816
1.07071
1.01225
0.944645
0.868967
0.788175
0.706658
0.627162
0.553204
0.487941
0.431571
0.383918
0.350239
0.938644
0.979061
1.02486
1.07493
1.12648
1.1778
1.22872
1.27786
1.32398
1.36566
1.40106
1.4285
1.44658
1.45383
1.45094
1.42842
1.39421
1.35224
1.30639
1.25665
1.20296
1.14576
1.08076
1.0089
0.933219
0.856213
0.783386
0.715642
0.654618
0.611209
1.27473
1.30122
1.34004
1.38776
1.43887
1.48847
1.53375
1.57193
1.60215
1.62422
1.63818
1.64328
1.63901
1.62378
1.59639
1.54818
1.49783
1.44703
1.40085
1.3586
1.3206
1.28658
1.25646
1.23146
1.20899
1.18524
1.15258
1.11611
1.0773
1.04577
1.41445
1.41922
1.44177
1.47677
1.51628
1.55361
1.58476
1.60738
1.6209
1.62553
1.62179
1.60948
1.58788
1.55491
1.50749
1.44264
1.38251
1.32685
1.28067
1.24456
1.21968
1.20522
1.20153
1.20972
1.22697
1.24877
1.27214
1.29352
1.30798
1.31332
0.167126
0.183515
0.185183
0.182604
0.178691
0.172914
0.165504
0.157033
0.148049
0.139056
0.130347
0.122245
0.114805
0.108308
0.10274
0.0983478
0.0953214
0.0953561
0.101347
0.112962
0.124551
0.13097
0.130628
0.124092
0.112685
0.097452
0.0796476
0.0600043
0.0427081
0.0291257
0.277852
0.305994
0.305975
0.297884
0.284352
0.267952
0.250275
0.232501
0.215297
0.199099
0.184116
0.170584
0.158365
0.147677
0.138302
0.130548
0.12492
0.124975
0.134309
0.15239
0.171904
0.185735
0.190654
0.186328
0.174029
0.155265
0.131801
0.104625
0.079413
0.0586755
0.339041
0.368073
0.37016
0.362746
0.348774
0.331088
0.311405
0.291046
0.270911
0.251643
0.233608
0.217138
0.202215
0.189166
0.178035
0.169152
0.163128
0.163725
0.174427
0.194235
0.215687
0.231474
0.238027
0.234634
0.222105
0.201819
0.175533
0.143973
0.113016
0.0859691
0.380521
0.403779
0.406037
0.399227
0.386042
0.368945
0.349494
0.328899
0.308108
0.28788
0.268716
0.251024
0.234946
0.220909
0.209233
0.200301
0.194885
0.196393
0.207495
0.226873
0.24763
0.263066
0.269803
0.266998
0.255038
0.235023
0.208306
0.17541
0.141641
0.110692
0.409538
0.424306
0.424925
0.418171
0.406018
0.390275
0.372158
0.352601
0.33245
0.312549
0.293458
0.275652
0.259445
0.245369
0.233993
0.225748
0.221492
0.22399
0.23492
0.252662
0.27134
0.285119
0.291102
0.288436
0.277256
0.258322
0.232584
0.200272
0.165801
0.132548
0.428958
0.434169
0.431638
0.424447
0.413132
0.399143
0.383122
0.365467
0.346843
0.328219
0.310077
0.292999
0.277455
0.264078
0.253662
0.246681
0.243949
0.247433
0.257831
0.273312
0.289118
0.300474
0.30506
0.302086
0.291605
0.274098
0.250106
0.219611
0.186001
0.151607
0.440493
0.436546
0.430295
0.421857
0.412044
0.400093
0.3859
0.369836
0.353025
0.33647
0.319947
0.304295
0.290051
0.277989
0.269073
0.263831
0.262864
0.267271
0.276907
0.289869
0.30243
0.31095
0.313714
0.310068
0.300103
0.284149
0.26231
0.234097
0.202083
0.167857
0.44578
0.433566
0.421572
0.411038
0.401617
0.391711
0.380395
0.367791
0.353824
0.339004
0.324064
0.310448
0.298011
0.287771
0.2808
0.277685
0.278581
0.283809
0.292544
0.302925
0.312196
0.317755
0.318441
0.313923
0.304169
0.289196
0.269169
0.243607
0.21406
0.181404
0.44824
0.42616
0.408141
0.394856
0.385403
0.377335
0.368831
0.359113
0.348141
0.336154
0.324245
0.312386
0.302035
0.293977
0.289309
0.288577
0.291317
0.297207
0.304963
0.312816
0.319001
0.321722
0.320267
0.314243
0.304095
0.289902
0.271864
0.24913
0.222752
0.19263
0.448431
0.416277
0.391992
0.376009
0.366137
0.359236
0.352985
0.346039
0.338124
0.329202
0.319973
0.310706
0.302782
0.297154
0.295009
0.296744
0.301229
0.307578
0.3143
0.319783
0.323263
0.323397
0.31977
0.312756
0.302381
0.288653
0.271819
0.251976
0.229086
0.201659
0.445089
0.406591
0.37754
0.358676
0.347404
0.340637
0.335757
0.330965
0.325514
0.319249
0.312793
0.306265
0.300898
0.297833
0.298281
0.302388
0.308446
0.315017
0.320706
0.324258
0.325352
0.323094
0.317957
0.31011
0.299579
0.286387
0.270885
0.253518
0.23327
0.208242
0.441751
0.400268
0.367725
0.345297
0.331731
0.323918
0.319238
0.315654
0.312037
0.307964
0.303751
0.299799
0.297058
0.296568
0.299515
0.305767
0.31306
0.319667
0.324386
0.326361
0.325353
0.321415
0.315035
0.306619
0.296155
0.283674
0.269702
0.253835
0.235535
0.212768
0.441989
0.399994
0.365217
0.338627
0.3214
0.311434
0.305611
0.302047
0.299308
0.296735
0.294357
0.29235
0.292036
0.293889
0.299129
0.307182
0.315301
0.321712
0.325602
0.326288
0.323779
0.318554
0.311356
0.302683
0.292619
0.281189
0.268219
0.253351
0.236541
0.21574
0.445122
0.403651
0.368398
0.340109
0.31929
0.305239
0.29692
0.292129
0.289075
0.2871
0.285877
0.285381
0.286645
0.290479
0.297646
0.307055
0.315603
0.321732
0.32476
0.324369
0.320844
0.314864
0.30735
0.298934
0.289573
0.278748
0.266461
0.252447
0.236702
0.217567
0.452048
0.411848
0.376707
0.34712
0.323805
0.30687
0.295191
0.287709
0.283013
0.280638
0.279674
0.279954
0.28222
0.287198
0.295743
0.305955
0.314454
0.320024
0.322332
0.321191
0.317116
0.310926
0.303833
0.295844
0.286736
0.276339
0.264608
0.251304
0.236423
0.218611
0.463178
0.424789
0.390216
0.359736
0.33453
0.314756
0.300014
0.289691
0.282979
0.278871
0.277105
0.277229
0.279816
0.285107
0.294297
0.304729
0.312765
0.31759
0.31921
0.317682
0.313609
0.30795
0.300989
0.293143
0.284215
0.274124
0.262808
0.250062
0.235884
0.219139
0.478514
0.442208
0.409039
0.37875
0.352255
0.330032
0.312233
0.298697
0.289044
0.282671
0.279313
0.278422
0.280596
0.285675
0.294344
0.304543
0.311765
0.315666
0.31678
0.315378
0.311503
0.305826
0.298905
0.291074
0.282206
0.272263
0.2612
0.248849
0.235201
0.219319
0.497492
0.46403
0.432754
0.403131
0.375984
0.351919
0.331437
0.314779
0.301993
0.292856
0.287275
0.284782
0.285807
0.290131
0.297936
0.307082
0.313226
0.316159
0.317154
0.315436
0.31106
0.304929
0.297738
0.2899
0.280928
0.270926
0.259934
0.247796
0.234501
0.219316
0.519612
0.489087
0.459928
0.431424
0.404291