/*--------------------------------*- C++ -*----------------------------------*\
  =========                 |
  \\      /  F ield         | OpenFOAM: The Open Source CFD Toolbox
   \\    /   O peration     | Website:  https://openfoam.org
    \\  /    A nd           | Version:  12
     \\/     M anipulation  |
\*---------------------------------------------------------------------------*/
FoamFile
{
    format      ascii;
    class       volScalarField;
    location    "1750/air";
    object      nut;
}
// * * * * * * * * * * * * * * * * * * * * * * * * * * * * * * * * * * * * * //

dimensions      [0 2 -1 0 0 0 0];

internalField   nonuniform List<scalar> 
243000
(
0.00011931
0.000123879
0.000124935
0.000124017
0.000121719
0.000118485
0.000114681
0.000110597
0.000106443
0.000102385
9.85203e-05
9.49131e-05
9.16261e-05
8.87302e-05
8.6206e-05
8.40165e-05
8.20946e-05
8.04221e-05
7.90023e-05
7.7848e-05
7.69346e-05
7.61489e-05
7.5087e-05
7.38636e-05
7.32309e-05
0.000320372
0.000313981
0.000282146
0.000227859
0.000195155
0.000443229
0.000458797
0.000455619
0.000443291
0.000426849
0.000408696
0.000390105
0.000371893
0.000354569
0.000338453
0.000323704
0.000310458
0.000298796
0.000288765
0.000280332
0.000273421
0.000267885
0.000263806
0.000261224
0.000260272
0.00026088
0.000262659
0.000265156
0.000266529
0.000263735
0.000262739
0.000253128
0.000237948
0.000217474
0.000192204
0.000540085
0.000595977
0.00062047
0.000628857
0.000628522
0.000622786
0.000613554
0.000602107
0.000589289
0.000575717
0.000561768
0.000547833
0.000534173
0.000521021
0.000508513
0.000496731
0.000485644
0.000475631
0.000466823
0.000459404
0.00045323
0.00044775
0.000441855
0.000433753
0.00042146
0.000403841
0.000379728
0.000347122
0.000309932
0.000264577
0.000528673
0.00058964
0.000623756
0.000640107
0.000645204
0.000642928
0.000636053
0.000626226
0.000614534
0.000601735
0.000588337
0.000574805
0.000561433
0.000548528
0.000536297
0.000524888
0.000514327
0.000505043
0.000497078
0.000490444
0.000484844
0.000479728
0.00047413
0.000466487
0.000455032
0.000438059
0.000414866
0.000383418
0.000347129
0.000302457
0.000509041
0.000563849
0.000605189
0.000630016
0.00064241
0.000645947
0.00064342
0.000636902
0.00062786
0.000617078
0.000605291
0.000593033
0.000580679
0.000568636
0.000557189
0.000546572
0.000536872
0.000528535
0.000521504
0.00051561
0.000510409
0.00050536
0.00049968
0.000492089
0.000481044
0.000464944
0.000442973
0.000413487
0.000378951
0.00033677
0.000498717
0.000531463
0.000571841
0.000603795
0.000624253
0.000635091
0.000638591
0.000636986
0.000631521
0.000623703
0.000614441
0.000604189
0.000593469
0.000582797
0.000572535
0.000563035
0.000554438
0.000547183
0.000541115
0.00053592
0.000531052
0.000525974
0.000520058
0.000512314
0.00050146
0.000486107
0.000465393
0.000438032
0.000405633
0.000366339
0.000515019
0.000521951
0.000546152
0.000573976
0.000596697
0.000613766
0.000623693
0.000627657
0.000627064
0.000623261
0.000617048
0.000609357
0.000600837
0.000591985
0.00058325
0.000575138
0.000567829
0.000561737
0.000556641
0.000552118
0.000547561
0.000542448
0.000536271
0.000528287
0.000517496
0.000502733
0.000483192
0.000457856
0.000427721
0.000391337
0.000540641
0.000530422
0.000535814
0.000552837
0.000572855
0.000590734
0.000603546
0.000611769
0.000615904
0.00061644
0.000614028
0.000609545
0.000603568
0.000596888
0.000589992
0.000583496
0.000577628
0.00057276
0.000568639
0.00056478
0.000560543
0.000555434
0.000549033
0.000540805
0.000530005
0.000515705
0.000497212
0.000473715
0.000445887
0.000412224
0.000568333
0.000550417
0.000540598
0.000543411
0.000555332
0.000570525
0.000584148
0.000594442
0.000601074
0.000605029
0.000606319
0.00060525
0.000602246
0.000598051
0.00059326
0.000588578
0.000584276
0.000580684
0.000577551
0.000574361
0.000570474
0.000565429
0.000558884
0.00055046
0.000539635
0.000525708
0.000508155
0.000486355
0.000460607
0.000429494
0.000597002
0.000577898
0.000558825
0.000548014
0.000547924
0.000555958
0.000567126
0.000577749
0.000586054
0.00059189
0.000595501
0.000597444
0.000597467
0.000595964
0.000593466
0.000590752
0.00058812
0.00058586
0.000583737
0.000581236
0.000577742
0.000572839
0.000566246
0.000557709
0.000546888
0.000533315
0.000516593
0.000496173
0.000472303
0.000443591
0.000625477
0.000606252
0.000584227
0.000565087
0.00055331
0.000550797
0.000555471
0.000563491
0.000571747
0.000578717
0.000583888
0.000587482
0.000590005
0.000591115
0.000591
0.000590343
0.000589455
0.000588574
0.000587494
0.000585718
0.000582676
0.000577997
0.000571464
0.000562917
0.000552192
0.000538917
0.000522838
0.000503615
0.000481419
0.000455048
0.000653292
0.000634267
0.000612596
0.000590092
0.000570565
0.000557614
0.000552814
0.000554641
0.000560077
0.000566524
0.000572421
0.000577184
0.00058097
0.000584174
0.000586282
0.000587676
0.000588548
0.000589083
0.00058908
0.000588084
0.000585559
0.000581189
0.000574823
0.000566397
0.000555782
0.000542782
0.000527283
0.000509089
0.00048835
0.00046405
0.000680169
0.000661563
0.000641295
0.000618354
0.000595516
0.000575511
0.000561371
0.0005545
0.00055391
0.000557242
0.000562202
0.00056727
0.000571826
0.000576031
0.000579867
0.000583119
0.000585694
0.000587636
0.000588731
0.00058855
0.000586615
0.000582686
0.000576602
0.000568341
0.000557898
0.000545193
0.000530233
0.000512932
0.000493446
0.000470963
0.000705958
0.000687857
0.000668453
0.000646632
0.000623565
0.00060056
0.000580072
0.000564787
0.000556118
0.000553509
0.000555103
0.00055885
0.000563301
0.00056784
0.00057249
0.000577152
0.000581225
0.000584503
0.000586688
0.00058735
0.000586054
0.000582543
0.000576804
0.000568856
0.000558719
0.000546396
0.000531956
0.000515451
0.000497052
0.000476172
0.000730538
0.000712996
0.000694455
0.000674207
0.000652116
0.000628777
0.000605443
0.000584342
0.000567949
0.000557735
0.000553479
0.000553664
0.00055646
0.000560492
0.00056509
0.000570387
0.000575555
0.00057999
0.000583202
0.00058472
0.000584101
0.000581156
0.000575828
0.00056824
0.000558464
0.000546592
0.000532713
0.000517088
0.000499786
0.000480483
0.000753781
0.000736857
0.000719235
0.000700484
0.000679812
0.000657446
0.000633747
0.000609938
0.000588151
0.000570768
0.000559305
0.00055376
0.000552867
0.000554964
0.000558724
0.000563609
0.000569225
0.000574475
0.00057856
0.000580894
0.000580975
0.000578646
0.000573877
0.000566758
0.000557466
0.000546345
0.000533385
0.000518686
0.000502411
0.000484447
0.000775528
0.000759254
0.000742553
0.000724972
0.000705901
0.000685039
0.000662297
0.000638105
0.000613738
0.000591305
0.000573122
0.00056074
0.000554276
0.000552636
0.000554261
0.00055797
0.000562994
0.000568464
0.000573123
0.000576139
0.000576907
0.000575234
0.000571097
0.000564761
0.000556344
0.000546045
0.000533967
0.000520177
0.000504869
0.000488076
0.000795569
0.000779943
0.000764127
0.000747671
0.000730144
0.000710902
0.000689658
0.000666382
0.000641595
0.000616654
0.000593674
0.000574945
0.000561989
0.000554989
0.000552893
0.000554286
0.000557911
0.000562665
0.000567381
0.000570823
0.000572192
0.000571296
0.00056807
0.000562637
0.000555089
0.000545629
0.000534414
0.000521511
0.000507126
0.000491384
0.000813679
0.000798685
0.000783729
0.000768537
0.00075243
0.000734772
0.000715186
0.000693408
0.000669482
0.000644054
0.000618584
0.000595231
0.000576248
0.000563101
0.000555874
0.000553583
0.000554801
0.000558112
0.000562164
0.000565624
0.000567504
0.000567319
0.000564925
0.000560362
0.000553677
0.000545059
0.000534691
0.000522653
0.000509154
0.000494374
0.00082969
0.000815373
0.000801333
0.000787441
0.000772652
0.000756512
0.000738598
0.000718534
0.000696104
0.000671468
0.000645418
0.000619544
0.000596078
0.000577171
0.000564122
0.000556942
0.000554571
0.000555499
0.000558186
0.000561128
0.000563128
0.000563436
0.000561738
0.000557969
0.00055212
0.000544334
0.000534786
0.000523588
0.000510938
0.000497045
0.000843557
0.000830051
0.000817283
0.000804387
0.000790809
0.000776095
0.000759799
0.000741491
0.000720827
0.000697678
0.000672336
0.000645766
0.000619745
0.000596427
0.000577862
0.000565185
0.00055818
0.000555678
0.000556097
0.000557818
0.000559414
0.000559873
0.00055866
0.00055556
0.000550483
0.000543492
0.000534734
0.000524339
0.000512496
0.00049943
0.000855367
0.000843101
0.000831225
0.000819278
0.000806853
0.0007935
0.000778768
0.000762216
0.000743435
0.000722129
0.000698267
0.000672312
0.00064547
0.000619493
0.000596586
0.000578638
0.000566452
0.000559567
0.000556745
0.000556373
0.000556877
0.000556998
0.000555952
0.000553319
0.00054889
0.000542619
0.000534606
0.000524967
0.000513888
0.000501594
0.000864981
0.000853611
0.000842707
0.000831852
0.000820661
0.000808728
0.000795625
0.000780911
0.000764134
0.000744892
0.000722945
0.000698415
0.000672046
0.000645072
0.000619417
0.000597189
0.000579954
0.000568137
0.000561164
0.000557737
0.000556292
0.000555407
0.000554064
0.000551577
0.000547584
0.000541904
0.000534547
0.000525605
0.000515239
0.000503666
0.000872239
0.000861924
0.000852064
0.000842377
0.000832514
0.00082226
0.000811185
0.000798681
0.000784164
0.000767146
0.000747232
0.000724368
0.000699297
0.000672669
0.000645874
0.000620789
0.000599274
0.000582512
0.000570751
0.000563314
0.000558917
0.000556142
0.000553759
0.000550891
0.000546956
0.000541625
0.000534785
0.000526455
0.000516734
0.000505825
0.000877716
0.000868619
0.000859966
0.000851564
0.000843461
0.000835236
0.00082629
0.000816046
0.000803909
0.000789343
0.000771844
0.000751332
0.000728443
0.000703358
0.000676921
0.000650552
0.000625972
0.00060475
0.000587933
0.000575631
0.000567128
0.000561264
0.000556803
0.000552697
0.000548143
0.000542663
0.000535993
0.000528027
0.000518786
0.000508439
0.000882036
0.000874495
0.000867423
0.000860687
0.000854173
0.000847681
0.00084085
0.000833197
0.000824152
0.000813106
0.000799464
0.000782846
0.000763304
0.000741037
0.000716453
0.000690432
0.000664258
0.000639517
0.000617829
0.000600027
0.000586152
0.000575599
0.000567403
0.000560546
0.000554136
0.000547511
0.000540215
0.000532001
0.00052278
0.000512646
0.000887941
0.000882957
0.000878459
0.000874398
0.000870712
0.000867272
0.000863816
0.000859921
0.000855051
0.000848544
0.000839708
0.000827968
0.000813021
0.000794823
0.000773693
0.000749757
0.000723629
0.00069685
0.000671124
0.000647791
0.000627581
0.000610612
0.000596473
0.000584489
0.000573915
0.000564052
0.000554335
0.000544375
0.000533931
0.000523038
0.000906993
0.000906491
0.000906371
0.000906751
0.000907772
0.000909413
0.000911449
0.0009134
0.000914657
0.000914425
0.000911909
0.000906421
0.000897496
0.000884922
0.000868869
0.00084891
0.000824813
0.000798164
0.000770426
0.000743081
0.000717178
0.000693349
0.000671771
0.000652346
0.000634787
0.000618587
0.000603272
0.000588495
0.000573998
0.000560212
0.000989566
0.000994939
0.000999943
0.00100607
0.00101396
0.00102338
0.00103344
0.00104313
0.00105171
0.00105874
0.00106291
0.00106384
0.00106131
0.00105534
0.00104571
0.00103173
0.0010123
0.000989421
0.000964442
0.000938523
0.000912492
0.000886944
0.000862296
0.0008388
0.000816654
0.00079494
0.00077356
0.000752642
0.000732456
0.000714502
0.00131064
0.00131025
0.0013118
0.00131898
0.00132939
0.00134024
0.00134872
0.00135531
0.00136047
0.00136513
0.00136652
0.00136641
0.00136496
0.00136255
0.00135827
0.00135194
0.00134103
0.00132981
0.00131867
0.00130838
0.0012988
0.00129014
0.00128235
0.00127548
0.00126969
0.00126058
0.00124984
0.00123859
0.00122803
0.00121939
0.000157123
0.000161519
0.000160301
0.000156693
0.000151628
0.000145704
0.000139362
0.000132953
0.000126732
0.000120893
0.000115526
0.000110718
0.00010653
0.000103034
0.000100192
9.79915e-05
9.63724e-05
9.54032e-05
9.52501e-05
9.60469e-05
9.7544e-05
9.91028e-05
9.99786e-05
9.94628e-05
9.69328e-05
9.20763e-05
8.43406e-05
7.51815e-05
6.42968e-05
0.000308712
0.000671799
0.000758464
0.000741573
0.000687181
0.000622721
0.000560319
0.000504766
0.000456958
0.000416353
0.000382017
0.00035274
0.000328467
0.000308326
0.00029168
0.0002776
0.000265744
0.000255146
0.000246479
0.000239768
0.000235837
0.000235528
0.000239368
0.00024606
0.000252241
0.000253629
0.000247802
0.000235656
0.000219255
0.000221276
0.000294689
0.00105572
0.00120925
0.00122385
0.00117251
0.0010943
0.00100805
0.000924525
0.000848685
0.000781789
0.000723809
0.000673596
0.000631339
0.000595943
0.000566624
0.000541967
0.000520723
0.000500795
0.000482752
0.000464808
0.000447627
0.000434429
0.00042893
0.000430967
0.000434934
0.000434863
0.000424028
0.00040182
0.000368065
0.000345895
0.000358056
0.00130692
0.0014921
0.0015308
0.00149821
0.00142943
0.00134291
0.00125318
0.00116778
0.00108927
0.00101933
0.000957897
0.000905441
0.000861214
0.000824877
0.000795071
0.000769683
0.000745765
0.000723088
0.000697296
0.000668373
0.000640921
0.000621933
0.000613655
0.00061109
0.000605394
0.000588789
0.000558656
0.000512124
0.000468792
0.000449758
0.00145035
0.00163274
0.00170009
0.0016927
0.00164211
0.00156535
0.00148309
0.00140182
0.0013224
0.00125002
0.00118569
0.00112984
0.00108258
0.00104432
0.00101379
0.000988629
0.000965324
0.00094204
0.000912519
0.00087519
0.000836126
0.000804274
0.000784767
0.000773259
0.00076108
0.00073909
0.000703386
0.000649529
0.000592808
0.000554558
0.00151737
0.00169072
0.00176889
0.00178463
0.00175688
0.00170699
0.00163627
0.00156011
0.00148505
0.00141826
0.00135842
0.00130466
0.00125933
0.00122329
0.00119565
0.00117395
0.00115454
0.00113357
0.00110238
0.00105993
0.00101246
0.000970417
0.000940793
0.000921237
0.000901917
0.000875042
0.000835237
0.000777447
0.000713548
0.000663268
0.00155625
0.00167948
0.00175012
0.00178182
0.00178234
0.00175453
0.00170798
0.00165138
0.00159472
0.00153615
0.00148172
0.00143343
0.00139471
0.00136448
0.00134266
0.00132707
0.00131406
0.00129706
0.00126614
0.00122092
0.00116845
0.00111948
0.00108094
0.0010533
0.00102866
0.000997318
0.000954564
0.000895324
0.000827729
0.000769203
0.00157646
0.00163728
0.0016816
0.00171181
0.00172674
0.00172592
0.00171039
0.00167999
0.0016428
0.00160163
0.00156074
0.00152452
0.00149326
0.00147114
0.00145754
0.00145054
0.00144537
0.00143365
0.00140573
0.00136032
0.00130538
0.001251
0.00120538
0.00117037
0.00114039
0.00110667
0.00106201
0.00100293
0.000934585
0.000870615
0.00159482
0.00160535
0.00161714
0.00163193
0.00164649
0.00165624
0.00165887
0.00165161
0.00164028
0.00162123
0.00159855
0.00157685
0.00155824
0.0015468
0.00154325
0.00154675
0.0015503
0.00154501
0.00152139
0.00147827
0.00142268
0.00136554
0.00131476
0.0012736
0.00123834
0.00120237
0.00115902
0.00110151
0.0010341
0.000965828
0.00163776
0.00160848
0.00157657
0.00156399
0.00156509
0.00157351
0.00158361
0.00159153
0.00159747
0.0015991
0.001599
0.00159558
0.0015927
0.00159467
0.00160269
0.00161757
0.00163073
0.00163329
0.0016152
0.00157566
0.00152167
0.00146388
0.00140993
0.00136412
0.00132453
0.00128719
0.0012435
0.00118863
0.00112286
0.00105343
0.00169625
0.00163786
0.00157459
0.001525
0.00150292
0.00149756
0.00150479
0.00151757
0.00153361
0.00155016
0.00156689
0.00158429
0.00159966
0.00161722
0.00163807
0.00166524
0.00168915
0.00169979
0.00168859
0.00165403
0.00160372
0.00154691
0.00149183
0.00144335
0.00140019
0.00135961
0.00131532
0.0012635
0.0012011
0.00113406
0.00177937
0.00169408
0.00160438
0.00152962
0.00147663
0.00144655
0.00144082
0.00144785
0.00146513
0.00148854
0.00151637
0.00154789
0.00158237
0.0016167
0.00165187
0.00169199
0.00172671
0.00174633
0.00174352
0.00171724
0.00167125
0.00161555
0.0015589
0.00150769
0.00146167
0.00141953
0.00137567
0.00132652
0.00126932
0.00120612
0.00188067
0.00177835
0.00167071
0.00157199
0.00149312
0.00144091
0.00141084
0.00139928
0.00140836
0.00142948
0.00146058
0.00149979
0.00154564
0.00159661
0.00164679
0.00170022
0.001746
0.00177503
0.00178106
0.00176291
0.00172368
0.00167126
0.00161547
0.00156243
0.00151329
0.0014684
0.00142564
0.00137921
0.00132727
0.00127027
0.0020021
0.00189402
0.00177571
0.00165984
0.00155846
0.0014797
0.00142427
0.00139198
0.00138103
0.00138817
0.00141354
0.00145233
0.00150257
0.00156174
0.00162661
0.00169289
0.00174952
0.00178811
0.00180367
0.0017941
0.00176241
0.00171503
0.00166152
0.00160926
0.0015587
0.00151227
0.00146844
0.00142562
0.0013794
0.0013285
0.00214277
0.00203512
0.00191417
0.00178951
0.00167215
0.00157099
0.00148975
0.00143014
0.00139401
0.00138082
0.00139001
0.00141842
0.00146468
0.00152472
0.00159696
0.00167389
0.00174023
0.00178808
0.00181301
0.00181239
0.00178882
0.0017479
0.00169802
0.00164797
0.00159885
0.00155251
0.00150872
0.00146693
0.0014245
0.0013784
0.00229501
0.00219648
0.00208082
0.00195443
0.00182799
0.00171108
0.00160737
0.00152124
0.00145716
0.00141738
0.0014028
0.0014124
0.00144372
0.00149667
0.00156674
0.00164853
0.00172184
0.00177766
0.00181133
0.00181967
0.00180461
0.00177142
0.00172666
0.00168042
0.00163431
0.0015883
0.00154376
0.00150073
0.00146027
0.00141794
0.00245604
0.00237069
0.00226556
0.00214403
0.00201588
0.00188971
0.00176992
0.00166219
0.00157208
0.00150404
0.00146102
0.00144461
0.00145376
0.00148902
0.00154751
0.00162284
0.00169897
0.00176041
0.00180139
0.00181843
0.00181221
0.00178817
0.00175032
0.00170726
0.00166273
0.00161801
0.0015735
0.00152965
0.00148837
0.00144875
0.00261725
0.00254713
0.0024557
0.00234447
0.00222143
0.00209365
0.001966
0.00184388
0.00173313
0.00163944
0.00156745
0.00152108
0.00150145
0.0015112
0.00154842
0.00160842
0.00167754
0.00174075
0.00178686
0.00181217
0.00181524
0.00179882
0.00176653
0.00172672
0.00168471
0.00164207
0.00159842
0.00155423
0.00151222
0.00147335
0.00277065
0.00271569
0.00264077
0.00254481
0.00243299
0.0023107
0.00218261
0.00205353
0.00192899
0.00181499
0.00171709
0.00164071
0.00158949
0.00156701
0.00157588
0.00161116
0.00166495
0.00172133
0.00176931
0.0018002
0.00181007
0.00180085
0.00177523
0.0017397
0.00170099
0.00166089
0.00161907
0.00157519
0.00153287
0.00149374
0.00291012
0.00287131
0.00281434
0.00273636
0.00263993
0.00252844
0.00240589
0.00227629
0.0021445
0.00201622
0.00189723
0.0017936
0.00171078
0.00165441
0.00162893
0.00163304
0.0016616
0.00170495
0.0017478
0.00177952
0.00179522
0.00179431
0.00177619
0.00174639
0.00171209
0.00167555
0.00163572
0.00159278
0.00155076
0.00151136
0.00303416
0.00300996
0.0029702
0.00291056
0.00283131
0.00273378
0.00262066
0.00249503
0.00236089
0.00222323
0.00208764
0.00196047
0.00184845
0.00175969
0.00169699
0.00166653
0.00166429
0.00168549
0.00171751
0.00174824
0.00176845
0.00177417
0.00176596
0.00174507
0.00171739
0.00168439
0.00164679
0.00160632
0.0015654
0.00152703
0.00313966
0.00312667
0.0031011
0.00305768
0.00299463
0.00291126
0.00280852
0.0026884
0.00255382
0.00240908
0.00225965
0.00211224
0.00197459
0.0018566
0.00176065
0.00169423
0.0016594
0.00165312
0.001668
0.00169278
0.00171667
0.00173239
0.00173646
0.00172743
0.00170754
0.00168095
0.0016498
0.0016149
0.00157831
0.00154314
0.00321818
0.00321148
0.00319517
0.00316339
0.00311253
0.00303988
0.00294451
0.00282735
0.00269053
0.00253816
0.00237629
0.00221232
0.00205471
0.0019133
0.00179317
0.0016973
0.00163007
0.00159402
0.00158614
0.00159893
0.00162276
0.00164833
0.00166805
0.00167627
0.00167296
0.00166047
0.00164034
0.00161394
0.00158487
0.00155618
0.0032523
0.00324548
0.00323151
0.00320413
0.00315803
0.00308859
0.00299357
0.00287372
0.00273165
0.00257248
0.00240357
0.00223272
0.00206749
0.00191621
0.00178571
0.00167304
0.00158022
0.00151562
0.00147923
0.00146923
0.00148091
0.00150708
0.00153874
0.00156612
0.00158518
0.00159486
0.00159517
0.00158693
0.00157192
0.0015549
0.00320831
0.00319339
0.00317366
0.00314257
0.00309293
0.00302061
0.0029233
0.00280216
0.00266152
0.00250819
0.00235005
0.0021931
0.00204295
0.00190443
0.00178266
0.00167174
0.00156815
0.00148071
0.00141327
0.00136846
0.00134737
0.00134882
0.00136803
0.0013969
0.00142904
0.00145933
0.0014841
0.00150136
0.00151058
0.00151466
0.00302929
0.00300284
0.00297498
0.00294071
0.00289448
0.00283168
0.00274997
0.00265119
0.00254016
0.00242294
0.00230448
0.00218671
0.00207296
0.00196544
0.00186933
0.00177612
0.0016785
0.00158336
0.00149463
0.00141682
0.00135348
0.00130784
0.00128125
0.00127255
0.00127913
0.00129717
0.0013222
0.00134996
0.0013769
0.00140338
0.00269165
0.00267579
0.00266776
0.00266278
0.00265346
0.00263373
0.00260043
0.00255435
0.00249869
0.0024363
0.00236899
0.00229783
0.00222438
0.00214911
0.00207938
0.00200898
0.00192754
0.00184029
0.00175015
0.00166105
0.00157533
0.00149632
0.00142681
0.00136907
0.00132452
0.00129333
0.00127477
0.00126725
0.00126891
0.00128486
0.00241358
0.00245685
0.00251028
0.00256181
0.00260116
0.00262487
0.0026325
0.00262579
0.00260794
0.00257865
0.00254018
0.00249482
0.00244378
0.00238955
0.00233766
0.00228444
0.00222293
0.00215607
0.00208558
0.00201263
0.00193861
0.00186535
0.00179357
0.00172438
0.00165923
0.0015992
0.00154534
0.0014981
0.00145844
0.0014432
0.00247711
0.00253445
0.0025954
0.00265247
0.00269624
0.00272352
0.00273785
0.00273688
0.00272426
0.00270192
0.00267241
0.00263716
0.00259466
0.00255293
0.00251185
0.0024687
0.00242524
0.00237988
0.00233658
0.00229377
0.00225355
0.00221664
0.00218219
0.00214939
0.00211716
0.00208428
0.00205074
0.00201781
0.00198661
0.00197518
0.00264193
0.00267787
0.00271241
0.0027444
0.00276326
0.00277029
0.00276894
0.00275951
0.00274357
0.00272279
0.00269825
0.00266989
0.00263692
0.00260581
0.00257382
0.00254427
0.00251919
0.00249598
0.00247712
0.00246427
0.0024582
0.00245892
0.00246522
0.00247542
0.00248715
0.00249725
0.00250512
0.00251371
0.0025196
0.00251873
0.000189092
0.000191711
0.000187143
0.000180971
0.000173895
0.000166168
0.000158141
0.000150167
0.000142511
0.000135386
0.000128897
0.000123165
0.000118229
0.000114178
0.000110977
0.000108674
0.00010726
0.00010708
0.000108805
0.000112679
0.000117591
0.000121905
0.000124491
0.000124725
0.000122292
0.000116768
0.000107926
9.46277e-05
7.94453e-05
0.000353736
0.000880711
0.000987778
0.000982162
0.000925863
0.000846754
0.000766887
0.000694687
0.000632143
0.000578963
0.000533877
0.000495409
0.000463428
0.000436176
0.000413483
0.00039331
0.000375179
0.000356778
0.000341658
0.000331676
0.000330074
0.000338086
0.00035335
0.000370565
0.000382968
0.000384172
0.000369882
0.000343056
0.000305887
0.000272697
0.000259533
0.0014024
0.00161448
0.00165458
0.00160238
0.00150911
0.00140114
0.0012937
0.00119452
0.00110656
0.0010301
0.000963892
0.000908165
0.000860629
0.000821219
0.000787203
0.000756271
0.000723655
0.000692977
0.00066294
0.000640066
0.000632589
0.000641463
0.000659423
0.000674687
0.000672592
0.000649932
0.000604429
0.000537921
0.000471145
0.000421046
0.00177609
0.00202741
0.00209972
0.00206961
0.00198692
0.0018786
0.00176182
0.00164791
0.00154316
0.00144965
0.00136734
0.00129724
0.00123761
0.00118882
0.00114824
0.00111227
0.00107428
0.00103524
0.000989986
0.000947005
0.000918758
0.00091254
0.000922292
0.000934183
0.000929585
0.000899493
0.000842097
0.000757116
0.000665519
0.000590306
0.00204228
0.00229763
0.00238691
0.0023783
0.0023131
0.00221676
0.00210388
0.00198882
0.00188049
0.00178096
0.00169188
0.0016153
0.00155048
0.00149799
0.00145619
0.00142035
0.00138232
0.00133808
0.00127947
0.00122196
0.0011768
0.00115357
0.00115148
0.00115694
0.00114995
0.00111627
0.00105323
0.000958662
0.000851984
0.000757006
0.00222931
0.00246015
0.00256145
0.0025783
0.00253085
0.00244656
0.0023394
0.00223208
0.00213122
0.00203393
0.00194542
0.00186907
0.00180463
0.00175338
0.00171447
0.0016823
0.00164723
0.00160015
0.00153227
0.00145985
0.00140062
0.00136293
0.00134867
0.00134618
0.00133634
0.00130371
0.00123913
0.0011422
0.00102813
0.000919619
0.00237198
0.0025598
0.00265466
0.00267859
0.00265021
0.00258619
0.00250763
0.00241324
0.0023151
0.00221844
0.00213676
0.00206674
0.00200716
0.00196152
0.00192874
0.0019031
0.00187265
0.00182372
0.00174882
0.00166417
0.00159324
0.00154318
0.00151766
0.00150634
0.00149274
0.00146191
0.00140315
0.00130894
0.00119409
0.00107528
0.00247581
0.00261183
0.00268188
0.0027039
0.00269027
0.00264673
0.00258653
0.00251327
0.00243332
0.00235717
0.00228209
0.00221658
0.00216453
0.00212768
0.00210398
0.00208743
0.00206241
0.00201134
0.00193075
0.00183835
0.00175927
0.00169844
0.00166261
0.00164216
0.00162357
0.00159547
0.00154482
0.00145831
0.00134584
0.00122143
0.00255727
0.00262425
0.00265831
0.00267196
0.00266706
0.00264221
0.00260369
0.00255464
0.00249632
0.0024369
0.00237789
0.00232453
0.00228316
0.00225722
0.00224476
0.00223913
0.00221953
0.00216628
0.00208198
0.00198738
0.00190137
0.0018326
0.0017873
0.0017579
0.00173508
0.00170681
0.00166001
0.00158472
0.00147913
0.0013559
0.0026165
0.00262665
0.00262905
0.00262693
0.00261989
0.00260464
0.00258161
0.00255098
0.00251303
0.0024742
0.00243365
0.00239674
0.00236884
0.00235548
0.00235516
0.00236101
0.0023474
0.0022956
0.00221136
0.00211463
0.00202341
0.00194873
0.00189549
0.00185754
0.0018259
0.00179506
0.00175203
0.00168704
0.00159466
0.00148111
0.00268444
0.00265415
0.00261702
0.00259186
0.00257084
0.00255446
0.00253896
0.00252153
0.00250056
0.00247865
0.00245611
0.00243781
0.0024261
0.00242726
0.00243936
0.00245615
0.00244836
0.00240048
0.00231837
0.00222207
0.00212896
0.00204908
0.00198669
0.00193889
0.00190009
0.00186398
0.00182473
0.00176947
0.0016926
0.00159345
0.00276495
0.00271599
0.00265144
0.00258669
0.00253886
0.00251219
0.00249448
0.00248231
0.0024722
0.00246393
0.00245698
0.00245413
0.00245998
0.00247651
0.0025009
0.00252804
0.00252752
0.00248372
0.00240657
0.00231348
0.00222023
0.00213636
0.00206868
0.00201334
0.00196787
0.0019271
0.00188628
0.00183899
0.00177761
0.00169309
0.0028509
0.0027837
0.00269959
0.00261618
0.00254796
0.00249728
0.00246651
0.00245044
0.0024429
0.00244234
0.00244663
0.00245687
0.00247651
0.00250696
0.00254364
0.00258013
0.00258597
0.00254908
0.00247882
0.0023918
0.00229961
0.00221413
0.00214276
0.00208261
0.00203127
0.00198669
0.00194469
0.00190217
0.0018513
0.00178032
0.00296022
0.00287924
0.00277781
0.00267404
0.00258513
0.00251693
0.0024695
0.00244282
0.00242773
0.00242728
0.00243632
0.0024551
0.00248367
0.00252414
0.00257164
0.00261597
0.00262839
0.00259962
0.0025383
0.00245823
0.00236892
0.00228348
0.00220987
0.00214624
0.00209183
0.00204472
0.00200125
0.00195767
0.00191265
0.00185239
0.00308994
0.00299813
0.00288908
0.00277655
0.00267063
0.00258133
0.00251297
0.00246547
0.00243919
0.00243194
0.00243754
0.00245755
0.00248985
0.00253328
0.00258864
0.00263877
0.00265752
0.00263767
0.00258625
0.00251437
0.00242966
0.00234582
0.00227166
0.00220638
0.00215087
0.00210091
0.00205507
0.00201006
0.00196553
0.00191273
0.00323387
0.00314762
0.00304107
0.00292203
0.00280339
0.00269538
0.00260492
0.0025356
0.00248933
0.00246536
0.00246002
0.00247269
0.00250141
0.00254309
0.0025975
0.0026507
0.00267494
0.00266419
0.00262343
0.00256096
0.0024828
0.00240223
0.00232929
0.00226343
0.00220596
0.00215438
0.00210662
0.0020598
0.00201369
0.00196491
0.00340202
0.00332245
0.00322107
0.00310215
0.00297689
0.00285508
0.00274492
0.00265251
0.00258204
0.00253512
0.00251061
0.00250745
0.0025235
0.00255543
0.00260191
0.00265167
0.0026797
0.00267772
0.00264856
0.00259702
0.00252757
0.00245167
0.00238045
0.00231525
0.00225721
0.00220517
0.00215603
0.00210712
0.00205955
0.00201169
0.00358081
0.00351017
0.00341796
0.00330469
0.00317904
0.00304952
0.00292444
0.00281113
0.00271555
0.00264162
0.00259072
0.00256296
0.00255696
0.00257059
0.00260024
0.00263872
0.00266642
0.00267179
0.00265573
0.00261676
0.00255796
0.00248974
0.00242305
0.00236062
0.002304
0.00225258
0.0022027
0.00215217
0.00210292
0.00205451
0.00375666
0.00369849
0.00361866
0.00351514
0.00339419
0.00326266
0.00312812
0.00299802
0.00287917
0.00277693
0.00269482
0.00263481
0.00259736
0.00258216
0.00258675
0.00260594
0.00262622
0.00263699
0.00263108
0.00260884
0.00256616
0.00251008
0.00245218
0.00239629
0.00234396
0.0022937
0.00224377
0.00219226
0.00214243
0.00209349
0.00392232
0.00387678
0.00380994
0.00371792
0.0036047
0.00347521
0.00333575
0.00319298
0.0030536
0.00292357
0.00280783
0.00271025
0.00263376
0.00258049
0.00255131
0.00254161
0.00254602
0.00255542
0.00256038
0.0025554
0.00253356
0.00249831
0.00245531
0.00241036
0.00236535
0.00231851
0.00227137
0.00222355
0.00217518
0.00212723
0.0040689
0.00403351
0.00397767
0.00389633
0.00379129
0.00366546
0.00352336
0.00337036
0.0032124
0.00305543
0.00290559
0.00276857
0.00264989
0.00255408
0.00248581
0.00244087
0.00241947
0.00241756
0.00242644
0.00243697
0.00243953
0.00243102
0.0024127
0.00238757
0.00235467
0.0023196
0.00228138
0.00224111
0.00219742
0.00215397
0.00418442
0.00415407
0.00410479
0.00403072
0.00393155
0.0038081
0.0036629
0.00349974
0.00332383
0.00314135
0.00296002
0.00278765
0.0026319
0.00249884
0.00239531
0.00231693
0.00226518
0.00224091
0.00223908
0.0022521
0.00227047
0.00228698
0.0022977
0.0023011
0.00229549
0.00228246
0.00226038
0.00223217
0.0022011
0.00216874
0.00424811
0.0042165
0.00416764
0.00409531
0.00399735
0.00387292
0.00372245
0.00354873
0.00335708
0.00315505
0.00295279
0.00276006
0.00258507
0.00243372
0.00231189
0.002215
0.00213972
0.00208847
0.00206017
0.00205264
0.00206178
0.00208239
0.00210908
0.00213661
0.0021602
0.00217688
0.00218376
0.00217994
0.00216792
0.0021535
0.00422778
0.00418831
0.00413315
0.00405659
0.00395566
0.00382892
0.00367466
0.00349621
0.00330049
0.00309724
0.00289825
0.0027134
0.00254932
0.00240892
0.00229348
0.00220123
0.00211843
0.00204706
0.00198786
0.00194309
0.0019153
0.00190548
0.00191305
0.00193493
0.00196625
0.00200119
0.00203374
0.00205934
0.00207587
0.00208389
0.00407979
0.00402906
0.0039642
0.00388398
0.00378485
0.00366411
0.0035215
0.00336094
0.00319037
0.00301969
0.00285871
0.00271346
0.00258768
0.00248116
0.00239168
0.00231785
0.00224075
0.00216169
0.00208139
0.00200352
0.00193329
0.00187525
0.00183382
0.00181184
0.00180947
0.00182421
0.00185104
0.00188397
0.00191737
0.00194823
0.00376877
0.00371123
0.00365513
0.00359499
0.00352656
0.00344462
0.00334786
0.00323933
0.00312549
0.00301366
0.00290963
0.00281563
0.00273353
0.00266246
0.00260008
0.00254305
0.00247469
0.00239727
0.00231137
0.00221987
0.00212683
0.00203564
0.00195074
0.00187774
0.00182077
0.00178245
0.0017627
0.00175916
0.00176854
0.00179337
0.00337349
0.00334824
0.00333997
0.00334163
0.00333847
0.0033208
0.00328712
0.00323972
0.00318366
0.00312442
0.00306556