/*--------------------------------*- C++ -*----------------------------------*\
  =========                 |
  \\      /  F ield         | OpenFOAM: The Open Source CFD Toolbox
   \\    /   O peration     | Website:  https://openfoam.org
    \\  /    A nd           | Version:  12
     \\/     M anipulation  |
\*---------------------------------------------------------------------------*/
FoamFile
{
    format      ascii;
    class       volScalarField;
    location    "1750/air";
    object      p_rgh;
}
// * * * * * * * * * * * * * * * * * * * * * * * * * * * * * * * * * * * * * //

dimensions      [1 -1 -2 0 0 0 0];

internalField   nonuniform List<scalar> 
243000
(
30.2141
30.1299
30.026
29.8672
29.709
29.5681
29.4469
29.3476
29.2695
29.2128
29.1738
29.1561
29.1514
29.1619
29.1804
29.2179
29.2696
29.3408
29.424
29.5206
29.6236
29.7264
29.8219
29.904
29.9781
30.0333
30.082
30.1101
30.1519
30.1457
30.2116
30.1033
30.0102
29.8596
29.7103
29.5726
29.4536
29.3555
29.2779
29.2212
29.1839
29.1674
29.1633
29.1735
29.1912
29.2278
29.2783
29.3481
29.4313
29.528
29.6311
29.7343
29.8302
29.9138
29.9868
30.0392
30.0906
30.1142
30.1548
30.1329
30.198
30.0475
29.9547
29.8078
29.6644
29.5338
29.4217
29.3307
29.2594
29.2078
29.1743
29.1608
29.159
29.17
29.1879
29.2243
29.2738
29.3431
29.4261
29.5228
29.6261
29.7297
29.8257
29.9107
29.983
30.0367
30.0879
30.1093
30.1552
30.1275
30.1698
29.9856
29.8861
29.7376
29.6014
29.4801
29.3775
29.2945
29.2298
29.1835
29.1538
29.1432
29.1435
29.1554
29.1732
29.2091
29.2574
29.325
29.4053
29.4994
29.6006
29.7036
29.8012
29.8895
29.9661
30.0245
30.0809
30.1004
30.1513
30.1207
30.1333
29.9327
29.8189
29.6704
29.5402
29.4264
29.3314
29.2548
29.1953
29.1531
29.1266
29.1185
29.1201
29.1326
29.15
29.185
29.2318
29.2973
29.3748
29.4661
29.5651
29.6673
29.7659
29.856
29.9365
29.9992
30.0613
30.0822
30.1416
30.1104
30.089
29.887
29.7595
29.6138
29.4868
29.379
29.2899
29.218
29.1618
29.1223
29.0979
29.0912
29.0935
29.1059
29.1224
29.156
29.2008
29.2638
29.338
29.4261
29.5225
29.6238
29.7232
29.8154
29.8999
29.9672
30.035
30.0589
30.1264
30.0962
30.0365
29.8422
29.7108
29.5711
29.4463
29.3403
29.2551
29.1862
29.1314
29.0927
29.0684
29.0617
29.0637
29.0754
29.0904
29.1219
29.1642
29.2242
29.2945
29.3789
29.4728
29.5731
29.6735
29.768
29.8565
29.9286
30.0023
30.0307
30.1052
30.0764
29.9755
29.7898
29.667
29.5359
29.4175
29.3135
29.2281
29.1607
29.1059
29.0665
29.0403
29.0317
29.0317
29.0419
29.0547
29.0836
29.1227
29.179
29.2449
29.3254
29.4166
29.5161
29.6176
29.7146
29.8072
29.8841
29.9638
29.9977
30.0784
30.0523
29.9071
29.7266
29.6194
29.5044
29.3936
29.2938
29.2093
29.1407
29.0854
29.044
29.0152
29.0028
28.9988
29.0063
29.0162
29.0418
29.0771
29.1289
29.1901
29.2666
29.3552
29.4539
29.5566
29.6563
29.7531
29.8347
29.9203
29.9604
30.0467
30.0242
29.8318
29.6496
29.5605
29.4672
29.3685
29.2763
29.1946
29.1247
29.0684
29.0247
28.993
28.9762
28.9666
28.9697
28.9758
28.9973
29.0281
29.0749
29.1311
29.2035
29.2894
29.3876
29.4916
29.5941
29.6951
29.7816
29.8727
29.9194
30.0106
29.9928
29.7512
29.5666
29.4942
29.4173
29.3335
29.2531
29.1783
29.1105
29.0528
29.0075
28.9727
28.9516
28.9359
28.9331
28.9341
28.9509
28.9764
29.0177
29.0686
29.1369
29.2203
29.318
29.4236
29.5291
29.6342
29.7255
29.8218
29.8754
29.971
29.959
29.6659
29.482
29.4235
29.3612
29.2906
29.2215
29.1551
29.0925
29.0369
28.991
28.9533
28.9281
28.9068
28.8972
28.8918
28.9032
28.9228
28.9581
29.0037
29.0677
29.1488
29.2463
29.3535
29.4622
29.5713
29.6675
29.7684
29.8292
29.929
29.9237
29.5757
29.3967
29.3488
29.3012
29.242
29.1841
29.1263
29.0707
29.0189
28.9739
28.9341
28.9049
28.8782
28.862
28.8494
28.8547
28.868
28.897
28.9369
28.9969
29.0757
29.173
29.2821
29.3939
29.5071
29.6081
29.7133
29.7818
29.8848
29.8877
29.4805
29.3106
29.2706
29.2361
29.1887
29.141
29.0918
29.0432
28.9964
28.9541
28.9138
28.8813
28.8494
28.827
28.8071
28.8059
28.8126
28.835
28.8691
28.925
29.0016
29.0989
29.2098
29.325
29.4422
29.548
29.6576
29.7331
29.8381
29.8511
29.381
29.223
29.191
29.1662
29.1298
29.092
29.0517
29.0099
28.9681
28.9295
28.8904
28.8561
28.8197
28.7912
28.765
28.7568
28.7568
28.7725
28.8008
28.8524
28.927
29.0244
29.1373
29.2558
29.377
29.4877
29.6012
29.6837
29.7897
29.8139
29.2769
29.133
29.1091
29.0925
29.0651
29.0363
29.0046
28.9702
28.9338
28.8985
28.862
28.8275
28.7879
28.7539
28.7217
28.7072
28.701
28.7098
28.7322
28.7796
28.8522
28.9497
29.0646
29.1865
29.3117
29.4272
29.5444
29.6336
29.7404
29.7767
29.168
29.0402
29.0236
29.0154
28.9954
28.9742
28.9501
28.9229
28.8925
28.861
28.8271
28.7938
28.7524
28.7144
28.6764
28.6565
28.6447
28.6469
28.6634
28.7066
28.7772
28.8748
28.9918
29.1171
29.2462
29.3666
29.487
29.5829
29.6904
29.7386
29.0543
28.9447
28.934
28.9334
28.9212
28.9062
28.889
28.8679
28.8432
28.8162
28.785
28.7534
28.7116
28.6709
28.6284
28.6031
28.5868
28.5836
28.5943
28.6334
28.7019
28.7996
28.9184
29.0472
29.1802
29.3055
29.4288
29.5309
29.6394
29.6988
28.9356
28.8457
28.84
28.8446
28.8405
28.8317
28.8206
28.8056
28.786
28.7633
28.7351
28.7052
28.6638
28.6216
28.576
28.5464
28.526
28.5186
28.5242
28.5592
28.6255
28.7229
28.8437
28.9762
29.113
29.2429
29.3696
29.4773
29.5875
29.6574
28.8105
28.7416
28.7403
28.7491
28.7515
28.7488
28.7433
28.7343
28.7201
28.7018
28.6766
28.6486
28.6077
28.5649
28.5175
28.4849
28.4613
28.4502
28.4515
28.4826
28.5465
28.6439
28.7672
28.9034
29.0437
29.1783
29.3089
29.4222
29.5349
29.6134
28.6777
28.6302
28.6335
28.6467
28.6538
28.6567
28.6565
28.6526
28.6436
28.6299
28.6084
28.5827
28.5428
28.4996
28.4509
28.4169
28.3911
28.3771
28.3749
28.4022
28.4645
28.5623
28.6881
28.8273
28.9714
29.1108
29.2456
29.3646
29.4804
29.5667
28.5347
28.5092
28.5174
28.5347
28.5466
28.5548
28.5595
28.5606
28.5565
28.5473
28.5295
28.5061
28.4678
28.4248
28.3751
28.3406
28.3136
28.2977
28.2928
28.3174
28.3786
28.4768
28.6047
28.7468
28.8947
29.0389
29.1782
29.303
29.4225
29.516
28.3825
28.3764
28.3891
28.4109
28.4284
28.4426
28.4528
28.4586
28.4593
28.4543
28.44
28.4188
28.3822
28.34
28.2898
28.2547
28.2271
28.2102
28.2038
28.227
28.2875
28.3861
28.5159
28.6606
28.8121
28.9613
29.1053
29.236
29.3598
29.4604
28.2159
28.2219
28.2409
28.2692
28.2943
28.316
28.3333
28.3448
28.3503
28.35
28.3395
28.3209
28.2858
28.2445
28.1941
28.1585
28.1304
28.1135
28.107
28.1297
28.1898
28.2886
28.4196
28.5667
28.7216
28.8753
29.024
29.1605
29.2889
29.3964
28.0365
28.0518
28.0791
28.1151
28.1489
28.1792
28.2037
28.2212
28.2319
28.2362
28.2302
28.2142
28.1804
28.1399
28.0895
28.0535
28.0252
28.0086
28.0029
28.0257
28.0857
28.1845
28.3161
28.465
28.623
28.7809
28.934
29.0762
29.2093
29.3241
27.8096
27.8329
27.8726
27.9231
27.9732
28.0191
28.0565
28.0845
28.1038
28.1145
28.1142
28.1015
28.0696
28.0305
27.9801
27.9437
27.9144
27.8976
27.8917
27.9141
27.973
28.0704
28.2005
28.3493
28.5087
28.6692
28.825
28.9713
29.1078
29.2281
27.6036
27.6393
27.6931
27.7582
27.8244
27.8841
27.9319
27.968
27.9939
28.0093
28.012
28.0011
27.9699
27.9319
27.8823
27.8458
27.8155
27.7986
27.7922
27.8134
27.8703
27.9648
28.0925
28.2408
28.4013
28.5645
28.7236
28.8748
29.0166
29.1459
27.1828
27.2534
27.3524
27.4668
27.5809
27.6798
27.7561
27.8133
27.8561
27.8846
27.8964
27.8919
27.8645
27.8287
27.7788
27.7396
27.7044
27.6848
27.6752
27.6924
27.7422
27.826
27.9412
28.079
28.2321
28.3885
28.54
28.6853
28.8196
28.9463
27.1921
27.2919
27.415
27.5482
27.6723
27.7699
27.8383
27.8858
27.9166
27.9343
27.937
27.9258
27.8942
27.8548
27.8007
27.7597
27.7252
27.7094
27.705
27.7299
27.7856
27.8746
27.9945
28.1374
28.2965
28.4623
28.6233
28.7808
28.929
29.0744
25.9047
26.0876
26.3416
26.6158
26.8625
27.0486
27.1848
27.287
27.3595
27.4059
27.4251
27.4252
27.4025
27.3677
27.3156
27.2665
27.2158
27.1826
27.1567
27.1542
27.1762
27.2263
27.3039
27.4039
27.5168
27.6262
27.7274
27.8264
27.9188
28.0358
30.0028
29.8512
29.7308
29.5543
29.3989
29.2717
29.1729
29.0991
29.0453
29.0092
28.986
28.9795
28.9808
28.9945
29.0103
29.0436
29.0875
29.154
29.2352
29.3355
29.446
29.5614
29.6737
29.7779
29.8742
29.9569
30.0323
30.0776
30.1365
30.1283
29.9948
29.8241
29.7057
29.5377
29.3947
29.2738
29.1773
29.1047
29.0514
29.0157
28.9938
28.9882
28.9895
29.0028
29.0179
29.0504
29.0931
29.1589
29.2404
29.3411
29.4522
29.5683
29.681
29.7854
29.8822
29.9641
30.0417
30.0863
30.1429
30.1188
29.9828
29.7935
29.6759
29.5129
29.3763
29.2598
29.1672
29.0974
29.0457
29.0106
28.9898
28.9853
28.9869
28.9996
29.0136
29.0449
29.0856
29.149
29.2271
29.3248
29.4349
29.5519
29.6664
29.7731
29.8726
29.9559
30.036
30.076
30.1396
30.1104
29.9612
29.7582
29.6387
29.4788
29.3482
29.2378
29.151
29.0856
29.0363
29.0036
28.9843
28.9806
28.9822
28.994
29.0064
29.0359
29.0738
29.134
29.208
29.3015
29.4078
29.5228
29.6384
29.7479
29.8511
29.9371
30.0219
30.0602
30.1322
30.099
29.925
29.7213
29.6005
29.445
29.3195
29.214
29.1317
29.0698
29.024
28.9936
28.9753
28.9717
28.9726
28.9832
28.9933
29.0202
29.0544
29.1106
29.1798
29.2689
29.3716
29.4844
29.5996
29.7101
29.8157
29.9061
29.9953
30.0359
30.1182
30.0836
29.879
29.6814
29.5636
29.4142
29.2939
29.1928
29.1141
29.0548
29.0119
28.9829
28.9648
28.9605
28.9598
28.9686
28.9759
28.9994
29.029
29.0806
29.1444
29.2285
29.3274
29.4384
29.5535
29.6653
29.7736
29.8669
29.9615
30.0053
30.0979
30.0641
29.8228
29.6341
29.5267
29.3876
29.2727
29.1758
29.1004
29.0431
29.0014
28.9728
28.954
28.9481
28.9449
28.9512
28.955
28.9745
28.9989
29.0451
29.1028
29.1816
29.2768
29.3862
29.5016
29.6149
29.7263
29.8229
29.9229
29.9701
30.0719
30.04
29.7599
29.578
29.4908
29.3662
29.2583
29.1654
29.0916
29.0348
28.9925
28.964
28.9439
28.9354
28.9288
28.9317
28.9315
28.9463
28.9648
29.0047
29.056
29.1295
29.2212
29.3292
29.4451
29.5604
29.6749
29.775
29.8802
29.9316
30.041
30.012
29.6953
29.5116
29.4442
29.344
29.2487
29.1618
29.0892
29.0315
28.9865
28.9564
28.9347
28.923
28.9122
28.9112
28.9058
28.9155
28.9276
28.9606
29.0052
29.0733
29.1617
29.2687
29.3853
29.5027
29.6205
29.7242
29.8345
29.8909
30.006
29.9811
29.6286
29.4409
29.3917
29.3127
29.2351
29.1596
29.0901
29.0323
28.9849
28.9503
28.9263
28.9111
28.8957
28.8899
28.8786
28.8827
28.888
28.9137
28.9514
29.0142
29.0994
29.2056
29.3233
29.4431
29.5642
29.6715
29.7865
29.8488
29.9679
29.9481
29.5592
29.3717
29.3369
29.2735
29.213
29.152
29.0908
29.034
28.9857
28.9477
28.9193
28.8994
28.8793
28.8681
28.8504
28.8485
28.8468
28.865
28.8956
28.9532
29.0355
29.1411
29.2601
29.3823
29.5067
29.6177
29.7368
29.806
29.9273
29.9137
29.4878
29.3032
29.2807
29.2317
29.1841
29.1351
29.0861
29.0348
28.9869
28.9475
28.9134
28.8886
28.8627
28.846
28.8218
28.8132
28.8046
28.8153
28.8387
28.8912
28.9707
29.0761
29.1963
29.3212
29.4488
29.5634
29.6862
29.7628
29.8851
29.8787
29.4152
29.2353
29.2238
29.1859
29.1497
29.1114
29.0716
29.0297
28.9864
28.9468
28.9079
28.8786
28.8466
28.8234
28.7926
28.7772
28.7616
28.7651
28.7816
28.8289
28.906
29.0111
29.1329
29.2604
29.3912
29.5091
29.6351
29.7195
29.8417
29.8438
29.3421
29.168
29.1659
29.1377
29.1107
29.0821
29.0504
29.0159
28.9784
28.9417
28.9014
28.8687
28.8309
28.8008
28.7629
28.7407
28.718
28.7148
28.7248
28.7671
28.8418
28.947
29.0704
29.2006
29.3344
29.4558
29.5836
29.6755
29.7969
29.8103
29.2673
29.1001
29.1056
29.0879
29.069
29.0481
29.0236
28.9961
28.9644
28.9312
28.8922
28.8575
28.8147
28.7783
28.7331
28.7039
28.6739
28.6647
28.6687
28.7063
28.7788
28.8842
29.0092
29.1423
29.2789
29.4036
29.5318
29.631
29.7512
29.778
29.189
29.0305
29.0419
29.0343
29.0231
29.0091
28.9913
28.9701
28.9443
28.9158
28.8789
28.8436
28.7971
28.7554
28.7032
28.6664
28.6295
28.6148
28.6134
28.6467
28.7173
28.8232
28.95
29.0854
29.2246
29.3525
29.4817
29.5861
29.705
29.7471
29.107
28.9596
28.975
28.9759
28.9722
28.9649
28.9532
28.9379
28.9177
28.8943
28.8605
28.8255
28.7767
28.7309
28.6723
28.6284
28.5847
28.5652
28.5592
28.5885
28.6575
28.7637
28.892
29.0296
29.1711
29.3027
29.4334
29.542
29.6586
29.7167
29.0208
28.8873
28.9064
28.914
28.9167
28.9157
28.9097
28.8999
28.8849
28.866
28.836
28.8023
28.7523
28.7036
28.6395
28.5896
28.5393
28.5153
28.5055
28.5312
28.599
28.7059
28.8352
28.9747
29.1184
29.2542
29.3869
29.4995
29.6148
29.6854
28.9292
28.8132
28.8359
28.8495
28.8574
28.8615
28.8608
28.8561
28.8459
28.8313
28.8048
28.7731
28.7223
28.672
28.6039
28.549
28.4931
28.4651
28.452
28.4748
28.5424
28.6493
28.7786
28.9202
29.0667
29.2068
29.3416
29.4583
29.5733
29.6532
28.8313
28.7364
28.7628
28.7816
28.794
28.8028
28.8064
28.8064
28.8008
28.7903
28.7671
28.7377
28.6863
28.6353
28.5646
28.5059
28.4458
28.4147
28.3992
28.42
28.4864
28.592
28.7217
28.8661
29.0159
29.1598
29.2971
29.4177
29.533
29.6202
28.7259
28.6556
28.6855
28.7093
28.7262
28.7393
28.7473
28.7514
28.75
28.7434
28.7232
28.6958
28.6443
28.5927
28.5211
28.4608
28.397
28.3635
28.3461
28.3646
28.429
28.534
28.665
28.8119
28.965
29.1128
29.2527
29.377
29.4931
29.5861
28.6122
28.5689
28.6028
28.6317
28.6533
28.671
28.6835
28.6917
28.6944
28.6914
28.674
28.6481
28.5969
28.5449
28.4733
28.4123
28.3457
28.3099
28.2907
28.3069
28.3707
28.4757
28.6079
28.7568
28.913
29.0648
29.2077
29.3357
29.4528
29.5505
28.4909
28.4757
28.5137
28.5476
28.5745
28.5973
28.615
28.6279
28.6346
28.6352
28.6206
28.5959
28.5452
28.4935
28.4199
28.3586
28.2899
28.2525
28.2319
28.2474
28.3118
28.4171
28.5498
28.7005
28.859
29.015
29.1612
29.2929
29.4116
29.5138
28.3628
28.3721
28.4155
28.455
28.4881
28.5175
28.5418
28.561
28.5727
28.577
28.5649
28.5412
28.4913
28.4399
28.3632
28.3004
28.2289
28.1913
28.1705
28.1871
28.2521
28.3575
28.4913
28.6437
28.8039
28.9627
29.1118
29.2471
29.3676
29.4741
28.231
28.2608
28.3104
28.356
28.3968
28.4347
28.4678
28.4947
28.5118
28.5197
28.5097
28.4864
28.4379
28.387
28.3086
28.2421
28.1674
28.128
28.1079
28.1267
28.1923
28.2976
28.4327
28.5872
28.7498
28.9119
29.0638
29.2016
29.3231
29.4348
28.0837
28.1348
28.1917
28.2456
28.2976
28.3476
28.3928
28.4299
28.4539
28.466
28.458
28.4353
28.3881
28.3378
28.2582
28.19
28.1119
28.0693
28.0497
28.0712
28.1365
28.2413
28.3759
28.5305
28.6944
28.8586
29.0134
29.1544
29.2769
29.3929
27.953
28.0258
28.087
28.148
28.2117
28.2749
28.3334
28.381
28.4122
28.4268
28.4192
28.3975
28.3523
28.303
28.222
28.1514
28.0696
28.024
28.0044
28.0284
28.0929
28.1974
28.3313
28.4857
28.652
28.8194
28.977
29.1208
29.2446
29.3665
27.7952
27.8876
27.9566
28.0352
28.1244
28.2144
28.2947
28.3584
28.4032
28.4255
28.4198
28.4013
28.3614
28.316
28.2362
28.1646
28.0781
28.0272
28.0055
28.0288
28.0854
28.1789
28.3057
28.4564
28.6192
28.7829
28.9348
29.0752
29.195
29.3182
27.8409
27.937
28.0123
28.113
28.2299
28.3454
28.4432
28.5181
28.57
28.5995
28.5987
28.5858
28.5505
28.5084
28.433
28.3619
28.2683
28.2119
28.1813
28.1965
28.2448
28.3287
28.4434
28.5814
28.7338
28.8905
29.0414
29.1797
29.295
29.4175
28.481
28.577
28.6309
28.7203
28.8301
28.9365
29.0211
29.0809
29.1144
29.1243
29.1094
29.0839
29.0389
28.9919
28.9154
28.8481
28.7567
28.7027
28.6741
28.6959
28.7516
28.8435
28.9648
29.1092
29.2682
29.4312
29.5874
29.7315
29.8515
29.9821
29.9751
29.7734
29.6734
29.4766
29.3105
29.1791
29.0845
29.0199
28.9775
28.9535
28.9408
28.9432
28.9487
28.9668
28.9752
28.9981
29.0148
29.0506
29.0935
29.1595
29.2437
29.3477
29.4637
29.5861
29.7126
29.8307
29.9462
30.0239
30.1061
30.1013
29.9619
29.7259
29.6359
29.4498
29.3009
29.1803
29.0888
29.0257
28.984
28.9617
28.9502
28.9532
28.9587
28.9767
28.9848
29.008
29.0247
29.0608
29.1033
29.1693
29.2542
29.3587
29.4749
29.5972
29.7233
29.8405
29.9555
30.0309
30.1136
30.1027
29.9398
29.6839
29.6019
29.4256
29.2875
29.1734
29.0872
29.0264
28.9854
28.9634
28.9521
28.9559
28.9611
28.9787
28.9857
29.0086
29.0241
29.0583
29.0968
29.1593
29.2418
29.3471
29.4652
29.5893
29.7165
29.8334
29.9503
30.0229
30.1146
30.0964
29.8991
29.6374
29.5586
29.3902
29.2624
29.1571
29.0783
29.0229
28.9851
28.9639
28.9525
28.957
28.9616
28.9787
28.9845
29.0067
29.0195
29.051
29.0848
29.1419
29.2191
29.3211
29.4411
29.5678
29.6972
29.8145
29.934
30.0051
30.1063
30.0828
29.8434
29.5874
29.5095
29.3511
29.2336
29.1368
29.0648
29.0143
28.9793
28.9601
28.9497
28.9548
28.9585
28.9747
28.9783
28.9989
29.0078
29.0354
29.063
29.1142
29.1859
29.2842
29.4019
29.5293
29.6625
29.7818
29.9061
29.9769
30.0877
30.062
29.7772
29.5346
29.4567
29.311
29.2039
29.1154
29.05
29.0041
28.9722
28.955
28.9451
28.9505
28.9529
28.9676
28.9684
28.9867
28.9906
29.0128
29.0336
29.0781
29.1446
29.2396
29.3557
29.4828
29.6176
29.7402
29.8685
29.9417
30.0615
30.0358
29.7054
29.4803
29.4033
29.2726
29.1755
29.0953
29.0362
28.9943
28.9653
28.9496
28.9396
28.9447
28.9452
28.9583
28.9553
28.9705
28.9686
28.9845
28.9978
29.0354
29.0967
29.189
29.3043
29.4316
29.5675
29.6926
29.8247
29.9021
30.0296
30.0057
29.6303
29.4215
29.3508
29.2363
29.1497
29.0776
29.024
28.9859
28.959
28.9443
28.9338
28.9382
28.9361
28.9471
28.9395
28.951
28.9426
28.9513
28.957
28.9875
29.0438
29.134
29.249
29.3771
29.5144
29.6414
29.7771
29.8598
29.9932
29.9726
29.5536
29.3591
29.3002
29.2023
29.1268
29.0629
29.0144
28.9791
28.9534
28.9394
28.928
28.9314
28.9259
28.9346
28.9216
28.9288
28.9131
28.9142
28.9123
28.9358
28.9874
29.0759
29.1912
29.3206
29.4596
29.5883
29.7271
29.8159
29.9532
29.9376
29.4781
29.2969
29.2524
29.1694
29.1064
29.0509
29.007
28.974
28.9489
28.9349
28.9224
28.9244
28.9151
28.921
28.9021
28.9043
28.8805
28.8741
28.865
28.8816
28.9285
29.0159
29.132
29.2633
29.404
29.5345
29.6759
29.7713
29.9106
29.9015
29.4064
29.2355
29.2053
29.1354
29.0837
29.0381
28.9998
28.9699
28.9454
28.9309
28.917
28.9172
28.9037
28.9067
28.8813
28.8781
28.8456
28.8317
28.8158
28.8259
28.8683
28.9549
29.0723
29.2059
29.3485
29.4814
29.6246
29.7267
29.8668
29.8653
29.3379
29.1754
29.1582
29.1019
29.0611
29.0233
28.9911
28.9649
28.9416
28.927
28.9117
28.91
28.8919
28.8916
28.8594
28.8506
28.8088
28.7878
28.7653
28.7694
28.8075
28.8939
29.0131
29.1494
29.2937
29.4302
29.5739
29.6823
29.8215
29.8304
29.2715
29.1158
29.1109
29.0677
29.0375
29.0074
28.9808
28.9578
28.9365
28.9227
28.9061
28.9024
28.8799
28.8759
28.8366
28.8223
28.7709
28.7429
28.7142
28.7128
28.747
28.8336
28.955
29.0946
29.2403
29.3808
29.5246
29.6377
29.7749
29.7968
29.2064
29.0574
29.0623
29.0319
29.0116
28.9893
28.9684
28.9492
28.9301
28.9173
28.8997
28.8943
28.8675
28.8593
28.8131
28.7933
28.7323
28.6974
28.6627
28.6567
28.6872
28.7744
28.8985
29.0413
29.1897
29.3334
29.4767
29.5928
29.7274
29.7647
29.1408
28.9981
29.012
28.9944
28.9832
28.9684
28.953
28.9379
28.9214
28.9101
28.8919
28.8852
28.8544
28.8422
28.7888
28.7638
28.6934
28.6519
28.6114
28.6012
28.6286
28.7167
28.8438
28.9893
29.1408
29.2867
29.4303
29.5494
29.6807
29.7347
29.0748
28.9387
28.9606
28.9542
28.9513
28.9437
28.9341
28.9234
28.9098
28.9003
28.8821
28.8744
28.84
28.8244
28.7639
28.7341
28.6545
28.6063
28.5604
28.5466
28.5714
28.6605
28.7898
28.9379
29.0925
29.2413
29.3862
29.5082
29.6366
29.7057
29.0071
28.8784
28.9068
28.9105
28.9148
28.9144
28.9107
28.9047
28.8946
28.8872
28.8694
28.8614
28.8238
28.8053
28.7384
28.7042
28.6157
28.561
28.51
28.4929
28.5149
28.6053
28.7364
28.8872
29.0455
29.1977
29.3443
29.4696
29.5962
29.6763
28.9347
28.8157
28.8505
28.8629
28.874
28.8801
28.8823
28.8815
28.8753
28.8704
28.8535
28.8456
28.8052
28.7846
28.7117
28.6744
28.5773
28.516
28.4599
28.4396
28.4591
28.5504
28.6833
28.8377
28.9997
29.1555
29.304
29.4327
29.5582
29.6472
28.8555
28.7507
28.7915
28.8118
28.8293
28.8416
28.8492
28.8532
28.8515
28.8496
28.8341
28.8266
28.7841
28.7619
28.6835
28.6443
28.5393
28.4716
28.4098
28.3867
28.4038
28.4952
28.6301
28.7887
28.9545
29.1142
29.2649
29.3969
29.5217
29.6179
28.7678
28.6834
28.7295
28.7573
28.7808
28.7989
28.8119
28.8208
28.8235
28.825
28.8113
28.8047
28.7605
28.7375
28.6541
28.6136
28.5013
28.4278
28.3598
28.3335
28.3475
28.439
28.5766
28.7391
28.9091
29.073
29.2263
29.3617
29.4862
29.5882
28.6711
28.6128
28.6639
28.699
28.7286
28.7527
28.7711
28.785
28.7922
28.797
28.7859
28.7805
28.7352
28.7121
28.6242
28.583
28.4637
28.3843
28.3089
28.2784
28.2899
28.3826
28.522
28.6884
28.8627
29.0309
29.1874
29.3264
29.4512
29.5581
28.5652
28.5377
28.5942
28.637
28.6731
28.7036
28.7279
28.7471
28.759
28.7673
28.7594
28.7554
28.7096
28.6867
28.5947
28.5533
28.427
28.3407
28.257
28.2224
28.2335
28.3266
28.4663
28.6356
28.8147
28.9877
29.1475
29.2904
29.416
29.5274
28.4522
28.4574
28.5204
28.5715
28.615
28.6526
28.6836
28.7088
28.726
28.7384
28.7338
28.731
28.685
28.6626
28.5668
28.5259
28.3918
28.2977
28.2051
28.169
28.1808
28.2721
28.4108
28.5812
28.7642
28.9426
29.1068
29.2533
29.3803
29.4964
28.3348
28.3695
28.4426
28.5036
28.5559
28.6015
28.6401
28.6724
28.6955
28.7126
28.7109
28.7089
28.6626
28.6409
28.5412
28.5018
28.3598
28.2593
28.1589
28.1212
28.1321
28.2199
28.3564
28.527
28.7122
28.8946
29.0638
29.2154
29.3442
29.4646
28.2116
28.2788
28.3654
28.4368
28.4986
28.5531
28.6007
28.6409
28.6703
28.6918
28.6916
28.6897
28.6433
28.6228
28.5192
28.4813
28.3311
28.2258
28.1183
28.0759
28.0855
28.1699
28.3037
28.4739
28.6612
28.8472
29.0201
29.1762
29.3075
29.435
28.0832
28.1902
28.2901
28.3719
28.4441
28.5097
28.5677
28.6163
28.6523
28.6782
28.6783
28.6765
28.6311
28.6138
28.5078
28.4758
28.3192
28.2104
28.0936
28.0428
28.0472
28.1233
28.2525
28.4218
28.611
28.8016
28.979
29.1391
29.2727
29.4057
27.9657
28.1131
28.2237
28.3167
28.4007
28.478
28.5472
28.6043
28.6468
28.6781
28.6802
28.6805
28.6375
28.6264
28.5209
28.4964
28.3329
28.2206
28.0903
28.0349
28.036
28.1069
28.2278
28.3909
28.5799
28.7721
28.9519
29.1148
29.2491
29.3847
27.8712
28.0453
28.1635
28.2681
28.3665
28.4596
28.5412
28.6116
28.6646
28.7021
28.7055
28.7098
28.6727
28.6704
28.5675
28.5569
28.3893
28.2759
28.1354
28.0703
28.0664
28.1252
28.2386
28.3966
28.5818
28.7746
28.9556
29.1183
29.2499
29.3817
27.8517
28.0363
28.1622
28.2811
28.3928
28.4954
28.5847
28.6608
28.7181
28.7598
28.766
28.7752
28.7447
28.7571
28.663
28.678
28.5156
28.4103
28.265
28.19
28.1727
28.2189
28.3146
28.458
28.6297
28.8107
28.9825
29.1423
29.274
29.4102
27.9264
28.0954
28.2209
28.346
28.4632
28.5704
28.6615
28.7372
28.7935
28.8355
28.8462
28.8622
28.8395
28.8679
28.7886
28.837
28.6879
28.5985
28.4563
28.3799
28.3543
28.3917
28.4742
28.6023
28.7628
28.94
29.1171
29.2848
29.4252
29.5627
29.8954
29.6614
29.5899
29.3592
29.1754
29.0374
28.947
28.8975
28.8737
28.8672
28.8698
28.8908
28.902
28.9213
28.909
28.9043
28.8681
28.8522
28.8337
28.8501
28.9058
29.0099
29.1466
29.3023
29.4699
29.6338
29.7989
29.9218
30.0469
30.0565
29.8733
29.5756
29.5235
29.3095
29.1507
29.0306
28.9487
28.9016
28.8799
28.8753
28.879
28.9003
28.9108
28.9296
28.9165
28.9127
28.8779
28.8649
28.8483
28.8636
28.9176
29.0221
29.1589
29.3145
29.4813
29.6443
29.8091
29.9299
30.0559
30.0625
29.8404
29.5113
29.467
29.2722
29.1312
29.0217
28.9476
28.9033
28.8829
28.8805
28.8852
28.9062
28.9153
28.9328
28.9176
28.9127
28.8759
28.8612
28.8414
28.8515
28.9009
29.0095
29.1502
29.3073
29.4748
29.637
29.8028
29.9225
30.0566
30.0575
29.7828
29.4478
29.4051
29.2261
29.1021
29.0049
28.9404
28.9033
28.8847
28.8847
28.8905
28.9113
28.9188
28.935
28.9168
28.9097
28.8685
28.8502
28.8261
28.8305
28.8739
28.9785
29.1241
29.2845
29.4528
29.6145
29.7815
29.9022
30.0452
30.0418
29.7058
29.3832
29.3411
29.1787
29.071
28.986
28.9305
28.8998
28.8851
28.8873
28.8942
28.9145
28.9199
28.9342
28.9117
28.9007
28.8524
28.8281
28.7982
28.7968
28.8352
28.9364
29.0797
29.2448
29.4152
29.5779
29.7467
29.8698
30.0214
30.0178
29.6156
29.3161
29.2756
29.1298
29.0377
28.9658
28.9195
28.8952
28.8846
28.8892
28.8967
28.9166
28.9193
28.9313
28.9033
28.887
28.8292
28.7973
28.7605
28.7535
28.7876
28.8869
29.0289
29.1947
29.3677
29.5321
29.7035
29.8287
29.9873
29.9863
29.5184
29.247
29.2102
29.0816
29.0053
28.9457
28.9087
28.8906
28.8839
28.8907
28.8984
28.9176
28.9174
28.9268
28.8921
28.8692
28.8
28.7588
28.7145
28.7027
28.7332
28.832
28.974
29.1393
29.3146
29.4808
29.6541
29.7825
29.945
29.95
29.419
29.1772
29.147
29.0366
28.976
28.928
28.8994
28.8869
28.8835
28.8919
28.8993
28.9177
28.9144
28.9209
28.8786
28.848
28.7656
28.7139
28.662
28.6462
28.674
28.7734
28.9167
29.0819
29.2589
29.427
29.6011
29.7332
29.8973
29.9115
29.3209
29.1085
29.0877
28.9963
28.9502
28.9129
28.8918
28.8841
28.8833
28.8929
28.8998
28.9175
28.9106
28.9139
28.863
28.8237
28.7269
28.6639
28.6046
28.5848
28.6115
28.7128
28.8585
29.0241
29.2027
29.3725
29.5467
29.6827
29.8465
29.8723
29.2272
29.0444
29.0333
28.9604
28.9276
28.9001
28.8858
28.8823
28.8832
28.894
28.9001
28.9171
28.9061
28.9061
28.8458
28.7971
28.6846
28.61
28.5435
28.5201
28.5475
28.6517
28.8008
28.9682
29.1485
29.3198
29.4934
29.6335
29.7948
29.8336
29.1407
28.9851
28.9837
28.9285
28.9078
28.8895
28.8814
28.8814
28.8839
28.8958
28.9005
28.9169
28.9013
28.8975
28.8271
28.7685
28.6394
28.5534
28.48
28.4547
28.4833
28.5914
28.7447
28.915
29.0976
29.2707
29.4443
29.5857
29.7431
29.7962
29.0631
28.9291
28.9368
28.8992
28.8897
28.88
28.8777
28.8809
28.8855
28.8981
28.9011
28.9164
28.896
28.8882
28.8072
28.7384
28.5922
28.4952
28.4156
28.3897
28.4199
28.5329
28.6904
28.8651
29.0505
29.2268
29.3986
29.5395
29.6932
29.7613
28.9925
28.8761
28.8925
28.8717
28.8724
28.8709
28.8738
28.8802
28.8869
28.9005
28.9022
28.9156
28.8901
28.8784
28.7862
28.707
28.5435
28.4366
28.3513
28.325
28.3579
28.4767
28.6378
28.8189
29.0083
29.1863
29.355
29.4968
29.6469
29.7293
28.9275
28.8264
28.8506
28.8456
28.8548
28.8609
28.869
28.8787
28.8875
28.9026
28.9032
28.9148
28.8836
28.868
28.7643
28.6747
28.4942
28.3784
28.2878
28.2616
28.298
28.4228
28.5884
28.7764
28.9686
29.147
29.3154
29.4589
29.6061
29.6978
28.8668
28.778
28.8111
28.8192
28.8364
28.8496
28.8628
28.8763
28.8869
28.9039
28.9037
28.9142
28.8768
28.8568
28.7416
28.642
28.445
28.3214
28.2256
28.2001
28.2406
28.3713
28.5421
28.7352
28.9299
29.1107
29.2798
29.425
29.5694
29.6683
28.8082
28.7302
28.7727
28.7916
28.8164
28.8366
28.8549
28.8725
28.8853
28.9036
28.9035
28.9131
28.8697
28.8453
28.718
28.6091
28.3964
28.2661
28.1652
28.1409
28.1857
28.3209
28.4962
28.6945
28.8937
29.0779
29.248
29.3947
29.5365
29.6409
28.7495
28.6831
28.7344
28.7627
28.7946
28.8214
28.845
28.8669
28.8823
28.9023
28.9024
28.911
28.8622
28.8336
28.6939
28.5764
28.349
28.2126
28.1072
28.0836
28.1313
28.2696
28.4517
28.6558
28.8598
29.0479
29.2193
29.3676
29.5069
29.6151
28.6901
28.6362
28.6952
28.732
28.7706
28.8039
28.8327
28.8592
28.8777
28.8998
28.8999
28.908
28.8542
28.8221
28.67
28.5449
28.3036
28.1622
28.051
28.0263
28.0765
28.2198
28.4085
28.6181
28.8274
29.0199
29.1931
29.343
29.4802
29.5915
28.6268
28.5876
28.6541
28.6992
28.7444
28.784
28.8183
28.8495
28.8716
28.8957
28.8961
28.9042
28.8459
28.811
28.6467
28.5155
28.2607
28.1141
27.9946
27.9695
28.024
28.171
28.3629
28.58
28.7957
28.9934
29.169
29.3207
29.4561
29.57
28.556
28.5362
28.6105
28.6639
28.7158
28.7618
28.8018
28.838
28.8639
28.8904
28.8915
28.9
28.8379
28.801
28.6249
28.4889
28.2193
28.0674
27.9407
27.9172
27.9739
28.1193
28.3156
28.5412
28.7634
28.967
29.1461
29.2999
29.4341
29.5504
28.4775
28.4804
28.5635
28.6256
28.685
28.7379
28.7838
28.825
28.8552
28.8848
28.8868
28.8961
28.8309
28.7928
28.6053
28.4656
28.1807
28.0277
27.8941
27.8689
27.9216
28.0647
28.2681
28.5006
28.7296
28.9396
29.1234
29.2801
29.4136
29.5323
28.3919
28.4179
28.5118
28.5848
28.6526
28.7128
28.7648
28.8114
28.8463
28.8796
28.8833
28.8946
28.8258
28.7879
28.5885
28.4466
28.1501
27.9968
27.8536
27.8229
27.8681
28.0105
28.2191
28.4576
28.6935
28.9095
29.0991
29.261
29.3944
29.5157
28.2967
28.3503
28.4571
28.5423
28.6192
28.6871
28.7459
28.7985
28.8381
28.8756
28.8815
28.8954
28.8252
28.7882
28.5744
28.434
28.1273
27.9692
27.812
27.7751
27.8189
27.9613
28.1683
28.4124
28.6549
28.8774
29.0719
29.2395
29.3759
29.5006
28.1932
28.2809
28.4012
28.4992
28.5859
28.6623
28.7283
28.7867
28.8312
28.8728
28.881
28.8977
28.8266
28.791
28.5644
28.4305
28.1095
27.9464
27.7766
27.7365
27.7803
27.9164
28.1195
28.364
28.6141
28.8437
29.044
29.2163
29.3556
29.4868
28.0837
28.2133
28.347
28.4577
28.5545
28.6392
28.7121
28.7764
28.8256
28.8713
28.8824
28.9019
28.8299
28.7976
28.564
28.4361
28.0956
27.9317
27.7529
27.7106
27.7513
27.8826
28.0795
28.3198
28.5729
28.8104
29.0173
29.1952
29.3379
29.4743
27.9756
28.1487
28.2959
28.419
28.5251
28.6178
28.6977
28.7679
28.8216
28.8722
28.8879
28.9109
28.8387
28.8114
28.5716
28.452
28.09
27.9292
27.743
27.6987
27.7338
27.8608
28.0507
28.2899
28.5397
28.7815
28.9957
29.1795
29.3258
29.4656
27.878
28.0907
28.2498
28.3838
28.4987
28.5993
28.6863
28.7622
28.8208
28.8809
28.9013
28.93
28.8567
28.8388
28.5958
28.4997
28.1257
27.9731
27.773
27.7204
27.7452
27.8677
28.053
28.2818
28.525
28.7658
28.9847
29.1748
29.3247
29.4653
27.8082
28.0423
28.2087
28.3537
28.4771
28.5857
28.6803
28.7632
28.8336
28.8994
28.9232
28.9596
28.8873
28.8846
28.6397
28.5795
28.197
28.0547
27.8442
27.7865
27.8026
27.9092
28.0805
28.2993
28.5349
28.7685
28.9849
29.1786
29.3325
29.4752
27.7631
28.0042
28.1769
28.3298
28.4623
28.5795
28.6817
28.7747
28.8503
28.9193
28.9459
28.9897
28.9223
28.9409
28.6984
28.6877
28.3033
28.1758
27.9579
27.8951
27.899
27.9866
28.1371
28.341
28.5677
28.797
29.0073
29.1948
29.3459
29.4917
27.7656
27.988
28.1601
28.3165
28.4534
28.5761
28.6841
28.7831
28.8631
28.9348
28.966
29.0154
28.9556
28.9966
28.766
28.8169
28.4415
28.335
28.1161
28.0507
28.041
28.1123
28.239
28.4188
28.6244
28.8396
29.0446
29.2347
29.3949
29.5442
29.9014
29.6283
29.5731
29.3169
29.1093
28.957
28.8617
28.8196
28.8059
28.8198
28.8451
28.895
28.9294
28.9858
28.9864
28.9976
28.9198
28.8335
28.7073
28.6398
28.6427
28.7303
28.878
29.0523
29.2403
29.4279
29.6253
29.7868
29.9652
29.9987
29.8648
29.5136
29.4861
29.2479
29.0719
28.9423
28.8615
28.823
28.8133
28.8302
28.8567
28.9069
28.9407
28.9969
28.9962
29.0098
28.9353
28.8559
28.7327
28.6616
28.6545
28.7392
28.8859
29.0597
29.2479
29.4362
29.6351
29.7964
29.977
30.0084
29.821
29.4187
29.4091
29.1941
29.0428
28.9286
28.8586
28.8249
28.819
28.8389
28.8663
28.9168
28.949
29.0054
29.0029
29.0183
28.9418
28.8577
28.7294
28.6571
28.6431
28.7263
28.8764
29.0519
29.2414
29.4298
29.6291
29.7876
29.9735
30.0038
29.7449
29.3308
29.3279
29.1303
29.0024
28.9058
28.8484
28.8244
28.8229
28.8464
28.8746
28.9258
28.9563
29.0138
29.008
29.0252
28.9414
28.8526
28.718
28.6409
28.6186
28.6929
28.8454
29.0245
29.2154