/*--------------------------------*- C++ -*----------------------------------*\
  =========                 |
  \\      /  F ield         | OpenFOAM: The Open Source CFD Toolbox
   \\    /   O peration     | Website:  https://openfoam.org
    \\  /    A nd           | Version:  12
     \\/     M anipulation  |
\*---------------------------------------------------------------------------*/
FoamFile
{
    format      ascii;
    class       volScalarField;
    location    "1750/air";
    object      T;
}
// * * * * * * * * * * * * * * * * * * * * * * * * * * * * * * * * * * * * * //

dimensions      [0 0 0 1 0 0 0];

internalField   nonuniform List<scalar> 
243000
(
301.176
301.114
301.078
301.051
301.03
301.012
300.996
300.981
300.968
300.955
300.942
300.93
300.918
300.906
300.893
300.88
300.867
300.853
300.837
300.818
300.797
300.771
300.742
300.711
300.68
300.65
300.624
300.602
300.582
300.537
301.389
301.222
301.141
301.091
301.057
301.03
301.009
300.99
300.974
300.959
300.945
300.931
300.918
300.905
300.892
300.879
300.865
300.85
300.834
300.815
300.794
300.769
300.741
300.711
300.681
300.652
300.625
300.602
300.582
300.552
301.613
301.354
301.223
301.144
301.092
301.055
301.026
301.003
300.983
300.965
300.949
300.935
300.92
300.906
300.892
300.878
300.863
300.848
300.831
300.813
300.792
300.768
300.742
300.713
300.683
300.655
300.628
300.604
300.583
300.56
301.845
301.526
301.337
301.22
301.143
301.09
301.051
301.021
300.996
300.975
300.956
300.94
300.924
300.909
300.894
300.879
300.863
300.847
300.83
300.812
300.791
300.768
300.742
300.715
300.687
300.659
300.632
300.608
300.585
300.564
302.073
301.743
301.496
301.33
301.219
301.142
301.088
301.047
301.015
300.989
300.967
300.948
300.93
300.913
300.897
300.881
300.864
300.847
300.83
300.811
300.791
300.768
300.744
300.718
300.69
300.663
300.637
300.612
300.589
300.569
302.257
301.981
301.701
301.483
301.327
301.218
301.141
301.085
301.043
301.01
300.982
300.959
300.938
300.919
300.901
300.884
300.866
300.848
300.83
300.811
300.791
300.769
300.745
300.72
300.694
300.668
300.642
300.618
300.594
300.574
302.358
302.166
301.91
301.667
301.471
301.323
301.216
301.139
301.081
301.038
301.003
300.974
300.95
300.928
300.908
300.889
300.87
300.851
300.832
300.812
300.792
300.77
300.747
300.723
300.698
300.673
300.648
300.623
300.6
300.579
302.407
302.29
302.093
301.859
301.639
301.457
301.317
301.212
301.134
301.076
301.031
300.995
300.965
300.94
300.917
300.895
300.875
300.855
300.834
300.814
300.793
300.772
300.75
300.727
300.703
300.678
300.654
300.629
300.606
300.585
302.434
302.366
302.236
302.042
301.823
301.616
301.444
301.309
301.206
301.128
301.069
301.023
300.986
300.955
300.928
300.904
300.882
300.86
300.838
300.817
300.796
300.774
300.753
300.73
300.707
300.683
300.659
300.636
300.613
300.591
302.455
302.415
302.336
302.198
302.006
301.796
301.599
301.433
301.3
301.198
301.12
301.06
301.013
300.975
300.944
300.916
300.89
300.866
300.843
300.821
300.799
300.778
300.756
300.734
300.712
300.689
300.666
300.643
300.62
300.598
302.476
302.447
302.4
302.313
302.169
301.98
301.776
301.585
301.422
301.291
301.188
301.11
301.049
301.002
300.963
300.93
300.902
300.875
300.85
300.827
300.804
300.782
300.76
300.738
300.716
300.694
300.672
300.649
300.627
300.605
302.497
302.474
302.443
302.39
302.295
302.147
301.96
301.759
301.571
301.409
301.279
301.176
301.097
301.036
300.989
300.949
300.916
300.886
300.859
300.833
300.81
300.787
300.765
300.743
300.722
300.7
300.678
300.656
300.634
300.613
302.519
302.499
302.476
302.442
302.382
302.28
302.129
301.941
301.742
301.556
301.395
301.264
301.161
301.083
301.022
300.974
300.934
300.9
300.869
300.842
300.817
300.793
300.77
300.749
300.727
300.706
300.685
300.663
300.642
300.621
302.541
302.522
302.503
302.478
302.439
302.374
302.265
302.11
301.922
301.723
301.536
301.376
301.245
301.144
301.066
301.005
300.957
300.917
300.883
300.852
300.825
300.8
300.777
300.755
300.733
300.713
300.692
300.671
300.65
300.629
302.561
302.543
302.525
302.505
302.477
302.435
302.362
302.247
302.088
301.897
301.698
301.512
301.353
301.224
301.124
301.047
300.987
300.94
300.9
300.866
300.836
300.809
300.785
300.762
300.74
300.719
300.699
300.678
300.658
300.637
302.578
302.56
302.543
302.525
302.504
302.474
302.426
302.347
302.225
302.06
301.867
301.667
301.482
301.325
301.199
301.101
301.027
300.968
300.921
300.882
300.849
300.819
300.794
300.77
300.748
300.727
300.706
300.686
300.666
300.646
302.591
302.574
302.557
302.54
302.522
302.499
302.465
302.412
302.326
302.196
302.025
301.829
301.629
301.447
301.294
301.172
301.078
301.005
300.948
300.903
300.865
300.832
300.804
300.779
300.756
300.735
300.714
300.694
300.674
300.654
302.599
302.582
302.566
302.55
302.533
302.514
302.489
302.452
302.393
302.297
302.159
301.982
301.784
301.586
301.408
301.26
301.144
301.054
300.984
300.929
300.885
300.848
300.817
300.79
300.766
300.743
300.722
300.702
300.682
300.663
302.602
302.586
302.571
302.556
302.54
302.522
302.502
302.475
302.434
302.366
302.261
302.114
301.931
301.732
301.538
301.367
301.226
301.115
301.03
300.963
300.91
300.868
300.833
300.803
300.777
300.753
300.731
300.711
300.691
300.671
302.598
302.584
302.57
302.556
302.541
302.525
302.508
302.486
302.456
302.409
302.333
302.218
302.061
301.874
301.676
301.488
301.326
301.193
301.088
301.007
300.943
300.893
300.852
300.819
300.79
300.765
300.742
300.721
300.7
300.681
302.587
302.574
302.561
302.547
302.534
302.521
302.506
302.489
302.466
302.433
302.378
302.292
302.166
302.002
301.813
301.619
301.439
301.286
301.161
301.063
300.986
300.926
300.878
300.839
300.807
300.779
300.754
300.732
300.711
300.691
302.566
302.554
302.543
302.531
302.52
302.509
302.497
302.483
302.467
302.442
302.404
302.341
302.245
302.108
301.938
301.75
301.563
301.393
301.249
301.133
301.04
300.968
300.911
300.865
300.828
300.796
300.769
300.745
300.723
300.702
302.535
302.525
302.516
302.507
302.498
302.49
302.481
302.471
302.459
302.442
302.415
302.37
302.298
302.191
302.046
301.873
301.689
301.511
301.352
301.217
301.108
301.021
300.953
300.898
300.854
300.818
300.787
300.761
300.737
300.715
302.494
302.487
302.48
302.475
302.469
302.464
302.458
302.451
302.443
302.432
302.414
302.383
302.332
302.25
302.132
301.982
301.81
301.632
301.464
301.315
301.19
301.088
301.006
300.941
300.889
300.846
300.811
300.78
300.754
300.73
302.44
302.437
302.435
302.434
302.432
302.431
302.428
302.426
302.422
302.416
302.405
302.385
302.349
302.288
302.197
302.072
301.919
301.751
301.582
301.424
301.286
301.169
301.073
300.995
300.933
300.882
300.84
300.805
300.775
300.748
302.374
302.376
302.38
302.383
302.387
302.39
302.393
302.395
302.395
302.393
302.387
302.375
302.351
302.308
302.239
302.139
302.01
301.859
301.698
301.539
301.392
301.263
301.154
301.063
300.988
300.928
300.878
300.836
300.801
300.77
302.291
302.301
302.311
302.32
302.33
302.338
302.345
302.351
302.354
302.355
302.353
302.346
302.33
302.3
302.25
302.174
302.071
301.943
301.798
301.647
301.5
301.365
301.245
301.142
301.056
300.984
300.924
300.874
300.833
300.797
302.18
302.196
302.212
302.227
302.24
302.252
302.26
302.266
302.268
302.268
302.264
302.257
302.243
302.221
302.185
302.131
302.055
301.956
301.838
301.708
301.575
301.444
301.324
301.215
301.121
301.04
300.972
300.915
300.866
300.825
301.953
301.965
301.978
301.99
301.998
302.001
301.998
301.99
301.979
301.964
301.948
301.931
301.912
301.891
301.863
301.828
301.781
301.72
301.644
301.555
301.458
301.359
301.262
301.171
301.089
301.015
300.952
300.896
300.849
300.809
300.981
300.974
300.988
301.001
301.005
301
300.989
300.975
300.959
300.942
300.925
300.91
300.895
300.879
300.862
300.845
300.828
300.805
300.776
300.742
300.705
300.667
300.63
300.596
300.564
300.535
300.509
300.487
300.467
300.449
301.069
301.036
301.014
300.995
300.979
300.965
300.951
300.938
300.926
300.914
300.902
300.89
300.878
300.865
300.852
300.838
300.823
300.805
300.784
300.758
300.726
300.691
300.653
300.617
300.585
300.558
300.536
300.519
300.503
300.475
301.114
301.069
301.037
301.013
300.992
300.974
300.958
300.944
300.93
300.917
300.904
300.891
300.878
300.865
300.851
300.836
300.82
300.802
300.78
300.755
300.726
300.692
300.657
300.623
300.592
300.565
300.542
300.522
300.505
300.482
301.156
301.104
301.066
301.036
301.011
300.99
300.971
300.954
300.938
300.923
300.909
300.895
300.881
300.866
300.851
300.835
300.818
300.799
300.778
300.753
300.725
300.694
300.662
300.629
300.599
300.572
300.548
300.528
300.509
300.489
301.201
301.147
301.104
301.069
301.039
301.013
300.991
300.97
300.952
300.934
300.918
300.902
300.886
300.87
300.854
300.836
300.818
300.798
300.776
300.752
300.725
300.696
300.665
300.635
300.606
300.579
300.555
300.534
300.515
300.495
301.252
301.201
301.155
301.115
301.079
301.048
301.02
300.995
300.972
300.951
300.931
300.913
300.895
300.877
300.858
300.839
300.819
300.798
300.775
300.752
300.726
300.698
300.669
300.64
300.612
300.586
300.562
300.54
300.521
300.502
301.319
301.274
301.226
301.18
301.136
301.096
301.06
301.029
301
300.975
300.951
300.928
300.907
300.886
300.866
300.844
300.822
300.8
300.776
300.752
300.726
300.7
300.672
300.645
300.618
300.593
300.569
300.547
300.527
300.508
301.405
301.379
301.33
301.272
301.215
301.163
301.116
301.075
301.039
301.007
300.977
300.95
300.925
300.9
300.876
300.852
300.828
300.803
300.778
300.753
300.728
300.702
300.676
300.65
300.625
300.6
300.577
300.555
300.534
300.515
301.495
301.494
301.455
301.393
301.322
301.253
301.191
301.138
301.091
301.049
301.012
300.979
300.948
300.919
300.891
300.864
300.837
300.81
300.783
300.756
300.731
300.705
300.68
300.655
300.631
300.607
300.584
300.562
300.542
300.522
301.581
301.598
301.575
301.519
301.443
301.362
301.286
301.217
301.157
301.104
301.058
301.016
300.978
300.943
300.911
300.879
300.848
300.818
300.789
300.762
300.735
300.71
300.685
300.661
300.637
300.614
300.592
300.57
300.549
300.53
301.658
301.686
301.68
301.64
301.57
301.484
301.396
301.312
301.238
301.172
301.115
301.063
301.016
300.975
300.936
300.899
300.864
300.83
300.799
300.769
300.741
300.715
300.69
300.667
300.644
300.621
300.599
300.578
300.558
300.538
301.732
301.761
301.769
301.747
301.692
301.611
301.518
301.423
301.334
301.254
301.184
301.121
301.064
301.014
300.967
300.924
300.884
300.846
300.811
300.779
300.749
300.722
300.697
300.673
300.651
300.629
300.608
300.587
300.566
300.547
301.803
301.83
301.844
301.836
301.8
301.733
301.644
301.544
301.444
301.351
301.266
301.19
301.122
301.062
301.006
300.956
300.909
300.866
300.827
300.791
300.76
300.731
300.705
300.681
300.659
300.637
300.616
300.595
300.575
300.556
301.874
301.896
301.911
301.912
301.891
301.842
301.766
301.67
301.565
301.46
301.362
301.273
301.192
301.12
301.054
300.995
300.941
300.891
300.847
300.808
300.773
300.742
300.715
300.69
300.667
300.646
300.625
300.604
300.584
300.565
301.946
301.96
301.973
301.977
301.966
301.934
301.875
301.791
301.69
301.58
301.471
301.368
301.274
301.189
301.112
301.042
300.979
300.923
300.872
300.828
300.789
300.756
300.727
300.701
300.677
300.655
300.634
300.614
300.594
300.575
302.017
302.025
302.032
302.036
302.03
302.008
301.966
301.899
301.809
301.702
301.588
301.475
301.368
301.27
301.181
301.1
301.026
300.961
300.903
300.853
300.81
300.773
300.741
300.713
300.688
300.666
300.644
300.624
300.604
300.585
302.087
302.088
302.09
302.09
302.084
302.069
302.039
301.988
301.913
301.817
301.706
301.589
301.472
301.362
301.26
301.167
301.083
301.008
300.941
300.884
300.835
300.794
300.759
300.728
300.701
300.677
300.655
300.634
300.614
300.595
302.152
302.148
302.144
302.14
302.133
302.12
302.096
302.058
301.999
301.918
301.817
301.703
301.582
301.463
301.35
301.245
301.149
301.064
300.988
300.922
300.867
300.82
300.78
300.746
300.717
300.691
300.668
300.646
300.626
300.607
302.21
302.201
302.193
302.184
302.174
302.161
302.141
302.111
302.065
301.999
301.913
301.808
301.691
301.569
301.448
301.332
301.226
301.129
301.043
300.968
300.905
300.851
300.806
300.768
300.735
300.707
300.682
300.66
300.638
300.619
302.258
302.246
302.234
302.222
302.209
302.194
302.176
302.15
302.113
302.061
301.99
301.899
301.792
301.673
301.549
301.427
301.311
301.204
301.108
301.023
300.951
300.889
300.838
300.794
300.758
300.727
300.699
300.675
300.652
300.632
302.294
302.28
302.266
302.251
302.235
302.219
302.2
302.177
302.146
302.104
302.047
301.971
301.878
301.768
301.648
301.524
301.403
301.288
301.182
301.087
301.005
300.935
300.876
300.827
300.786
300.75
300.72
300.693
300.669
300.647
302.316
302.3
302.284
302.268
302.251
302.233
302.214
302.192
302.166
302.131
302.085
302.023
301.945
301.849
301.739
301.62
301.497
301.378
301.265
301.161
301.07
300.991
300.924
300.867
300.82
300.779
300.745
300.715
300.688
300.665
302.321
302.305
302.289
302.272
302.255
302.237
302.218
302.197
302.173
302.143
302.106
302.057
301.993
301.913
301.816
301.707
301.59
301.471
301.354
301.244
301.144
301.056
300.98
300.916
300.861
300.815
300.775
300.741
300.711
300.685
302.306
302.291
302.275
302.26
302.243
302.226
302.209
302.19
302.169
302.144
302.114
302.074
302.023
301.958
301.877
301.782
301.676
301.562
301.446
301.333
301.227
301.131
301.047
300.974
300.911
300.858
300.812
300.773
300.739
300.71
302.269
302.256
302.243
302.229
302.215
302.2
302.185
302.169
302.152
302.131
302.106
302.075
302.035
301.983
301.919
301.84
301.748
301.645
301.536
301.424
301.316
301.215
301.123
301.042
300.971
300.91
300.858
300.813
300.773
300.74
302.208
302.199
302.189
302.178
302.168
302.157
302.145
302.132
302.117
302.101
302.081
302.056
302.025
301.985
301.935
301.872
301.797
301.71
301.613
301.51
301.405
301.302
301.206
301.119
301.04
300.972
300.912
300.86
300.814
300.775
302.122
302.116
302.11
302.102
302.095
302.087
302.078
302.069
302.057
302.043
302.027
302.007
301.982
301.952
301.913
301.865
301.806
301.736
301.656
301.567
301.473
301.377
301.282
301.193
301.111
301.036
300.97
300.912
300.86
300.816
302.002
301.998
301.993
301.988
301.983
301.978
301.972
301.964
301.953
301.94
301.924
301.906
301.885
301.859
301.828
301.789
301.744
301.691
301.628
301.557
301.478
301.395
301.312
301.23
301.152
301.079
301.013
300.953
300.899
300.852
301.821
301.81
301.803
301.8
301.798
301.796
301.791
301.782
301.769
301.752
301.733
301.713
301.69
301.665
301.635
301.602
301.568
301.528
301.483
301.427
301.365
301.299
301.232
301.165
301.101
301.041
300.985
300.934
300.887
300.844
301.494
301.463
301.45
301.449
301.452
301.452
301.446
301.433
301.415
301.393
301.371
301.349
301.327
301.302
301.274
301.244
301.213
301.179
301.14
301.099
301.055
301.01
300.965
300.922
300.882
300.845
300.811
300.78
300.751
300.723
300.83
300.822
300.829
300.841
300.852
300.859
300.86
300.856
300.848
300.837
300.824
300.811
300.796
300.778
300.757
300.734
300.711
300.685
300.657
300.626
300.595
300.563
300.533
300.506
300.481
300.458
300.437
300.419
300.402
300.387
301.034
301.008
300.988
300.971
300.955
300.941
300.927
300.914
300.902
300.89
300.878
300.866
300.853
300.84
300.826
300.811
300.793
300.772
300.745
300.71
300.67
300.628
300.589
300.556
300.53
300.509
300.493
300.48
300.468
300.446
301.046
301.016
300.992
300.972
300.955
300.94
300.926
300.913
300.9
300.887
300.875
300.862
300.849
300.836
300.821
300.805
300.787
300.765
300.739
300.707
300.67
300.632
300.596
300.564
300.538
300.516
300.499
300.484
300.471
300.452
301.058
301.027
301.002
300.981
300.962
300.946
300.931
300.917
300.903
300.89
300.877
300.864
300.85
300.835
300.819
300.802
300.782
300.76
300.734
300.704
300.671
300.636
300.602
300.571
300.545
300.524
300.505
300.489
300.474
300.457
301.072
301.042
301.017
300.995
300.976
300.958
300.942
300.926
300.912
300.897
300.883
300.868
300.853
300.837
300.82
300.801
300.78
300.757
300.731
300.703
300.671
300.639
300.607
300.578
300.553
300.531
300.512
300.495
300.479
300.462
301.091
301.064
301.039
301.017
300.996
300.977
300.959
300.942
300.925
300.909
300.893
300.877
300.86
300.842
300.823
300.802
300.78
300.756
300.73
300.702
300.672
300.642
300.612
300.585
300.56
300.538
300.519
300.501
300.484
300.468
301.117
301.093
301.07
301.048
301.026
301.005
300.985
300.965
300.946
300.927
300.908
300.89
300.871
300.851
300.83
300.807
300.782
300.756
300.729
300.702
300.673
300.645
300.617
300.592
300.568
300.546
300.526
300.508
300.49
300.473
301.152
301.132
301.111
301.089
301.066
301.043
301.019
300.996
300.974
300.952
300.93
300.908
300.886
300.864
300.84
300.814
300.787
300.759
300.731
300.703
300.676
300.649
300.623
300.598
300.575
300.554
300.534
300.515
300.497
300.48
301.196
301.181
301.164
301.144
301.119
301.093
301.066
301.038
301.011
300.985
300.959
300.933
300.907
300.881
300.854
300.825
300.795
300.765
300.735
300.707
300.679
300.653
300.628
300.605
300.583
300.562
300.542
300.523
300.504
300.487
301.248
301.244
301.235
301.217
301.191
301.16
301.126
301.092
301.059
301.027
300.996
300.965
300.935
300.904
300.873
300.84
300.807
300.774
300.742
300.713
300.685
300.659
300.635
300.612
300.59
300.57
300.55
300.531
300.512
300.494
301.313
301.318
301.314
301.3
301.274
301.24
301.2
301.16
301.119
301.08
301.042
301.005
300.969
300.933
300.897
300.86
300.823
300.786
300.752
300.721
300.693
300.667
300.643
300.62
300.599
300.578
300.558
300.539
300.52
300.503
301.384
301.395
301.397
301.387
301.364
301.329
301.286
301.239
301.191
301.144
301.098
301.054
301.011
300.97
300.928
300.886
300.843
300.803
300.766
300.733
300.703
300.676
300.651
300.629
300.607
300.587
300.568
300.548
300.529
300.511
301.46
301.474
301.48
301.475
301.457
301.424
301.379
301.328
301.273
301.218
301.165
301.113
301.062
301.014
300.966
300.917
300.87
300.825
300.784
300.748
300.716
300.687
300.662
300.639
300.617
300.597
300.577
300.558
300.538
300.52
301.54
301.553
301.562
301.561
301.547
301.519
301.476
301.423
301.364
301.302
301.241
301.181
301.122
301.066
301.011
300.956
300.902
300.852
300.807
300.767
300.732
300.701
300.674
300.65
300.628
300.607
300.587
300.568
300.548
300.53
301.622
301.635
301.643
301.643
301.633
301.61
301.572
301.521
301.46
301.394
301.325
301.258
301.191
301.127
301.064
301.002
300.942
300.886
300.835
300.791
300.752
300.719
300.69
300.664
300.641
300.619
300.598
300.578
300.559
300.54
301.707
301.717
301.723
301.723
301.715
301.696
301.663
301.616
301.557
301.489
301.416
301.342
301.268
301.196
301.125
301.055
300.989
300.927
300.87
300.821
300.777
300.74
300.708
300.68
300.655
300.632
300.611
300.59
300.57
300.552
301.792
301.798
301.801
301.799
301.792
301.775
301.747
301.705
301.65
301.584
301.51
301.431
301.351
301.272
301.194
301.117
301.043
300.975
300.912
300.856
300.808
300.766
300.73
300.699
300.672
300.648
300.625
300.604
300.583
300.564
301.875
301.877
301.876
301.872
301.863
301.847
301.822
301.785
301.735
301.673
301.601
301.521
301.437
301.353
301.269
301.186
301.106
301.03
300.961
300.899
300.845
300.798
300.758
300.723
300.693
300.666
300.641
300.619
300.597
300.577
301.952
301.95
301.946
301.938
301.927
301.911
301.887
301.854
301.81
301.754
301.686
301.608
301.524
301.437
301.349
301.261
301.175
301.094
301.018
300.949
300.888
300.836
300.79
300.751
300.717
300.687
300.66
300.636
300.613
300.592
302.021
302.016
302.008
301.997
301.984
301.966
301.943
301.913
301.873
301.822
301.76
301.688
301.607
301.52
301.431
301.34
301.25
301.164
301.082
301.007
300.939
300.88
300.829
300.785
300.746
300.713
300.683
300.656
300.631
300.609
302.077
302.069
302.059
302.046
302.03
302.012
301.989
301.96
301.924
301.879
301.823
301.757
301.682
301.599
301.511
301.42
301.329
301.239
301.153
301.072
300.998
300.933
300.875
300.825
300.782
300.744
300.71
300.68
300.652
300.628
302.116
302.107
302.095
302.081
302.064
302.045
302.022
301.995
301.962
301.922
301.873
301.815
301.747
301.671
301.587
301.5
301.41
301.319
301.23
301.144
301.065
300.993
300.929
300.873
300.824
300.78
300.742
300.708
300.677
300.651
302.136
302.126
302.114
302.1
302.083
302.064
302.042
302.017
301.987
301.951
301.909
301.858
301.799
301.731
301.655
301.574
301.489
301.401
301.311
301.223
301.14
301.062
300.992
300.929
300.873
300.824
300.78
300.741
300.707
300.677
302.135
302.125
302.115
302.101
302.086
302.068
302.047
302.024
301.997
301.965
301.928
301.885
301.834
301.776
301.71
301.638
301.56
301.478
301.393
301.306
301.22
301.139
301.063
300.994
300.931
300.875
300.825
300.781
300.741
300.707
302.106
302.099
302.09
302.079
302.066
302.051
302.033
302.012
301.989
301.962
301.93
301.892
301.848
301.798
301.742
301.68
301.612
301.54
301.463
301.382
301.299
301.218
301.139
301.064
300.996
300.933
300.877
300.826
300.781
300.742
302.05
302.045
302.039
302.031
302.021
302.008
301.993
301.976
301.955
301.931
301.902
301.869
301.83
301.786
301.738
301.683
301.626
301.565
301.5
301.431
301.359
301.283
301.207
301.132
301.061
300.994
300.932
300.876
300.826
300.782
301.961
301.958
301.954
301.947
301.939
301.929
301.917
301.902
301.883
301.86
301.833
301.802
301.766
301.725
301.679
301.63
301.58
301.529
301.477
301.423
301.364
301.303
301.238
301.171
301.105
301.041
300.979
300.921
300.867
300.82
301.827
301.821
301.814
301.808
301.802
301.795
301.786
301.773
301.755
301.732
301.704
301.673
301.637
301.594
301.547
301.496
301.449
301.405
301.364
301.324
301.282
301.239
301.192
301.142
301.09
301.037
300.984
300.932
300.883
300.838
301.621
301.605
301.592
301.584
301.581
301.579
301.574
301.563
301.545
301.52
301.491
301.458
301.422
301.381
301.335
301.285
301.241
301.2
301.163
301.128
301.094
301.059
301.028
300.999
300.97
300.94
300.905
300.868
300.832
300.797
301.285
301.263
301.252
301.25
301.253
301.256
301.255
301.247
301.232
301.211
301.185
301.156
301.124
301.087
301.044
300.997
300.956
300.918
300.884
300.853
300.824
300.797
300.772
300.75
300.729
300.711
300.696
300.68
300.663
300.644
300.756
300.757
300.765
300.78
300.797
300.811
300.82
300.823
300.82
300.811
300.796
300.778
300.755
300.727
300.692
300.653
300.619
300.586
300.556
300.529
300.505
300.482
300.462
300.445
300.429
300.415
300.402
300.389
300.377
300.365
301.024
300.995
300.974
300.956
300.94
300.925
300.911
300.897
300.884
300.872
300.859
300.847
300.834
300.82
300.805
300.788
300.769
300.743
300.708
300.665
300.619
300.576
300.542
300.516
300.497
300.483
300.472
300.462
300.453
300.441
301.024
300.99
300.966
300.946
300.929
300.914
300.901
300.888
300.876
300.864
300.852
300.839
300.826
300.812
300.797
300.779
300.759
300.734
300.701
300.662
300.621
300.583
300.55
300.525
300.505
300.49
300.477
300.466
300.455
300.442
301.023
300.991
300.967
300.947
300.93
300.915
300.901
300.888
300.875
300.863
300.85
300.837
300.823
300.808
300.792
300.773
300.752
300.726
300.695
300.66
300.623
300.588
300.557
300.533
300.513
300.497
300.483
300.471
300.458
300.445
301.026
300.997
300.974
300.954
300.937
300.921
300.907
300.893
300.88
300.866
300.853
300.839
300.824
300.808
300.79
300.769
300.746
300.721
300.691
300.658
300.624
300.592
300.564
300.541
300.521
300.504
300.489
300.476
300.462
300.448
301.034
301.009
300.987
300.967
300.95
300.933
300.918
300.903
300.889
300.874
300.86
300.844
300.828
300.81
300.79
300.768
300.744
300.717
300.688
300.658
300.626
300.597
300.571
300.548
300.529
300.512
300.496
300.481
300.467
300.452
301.049
301.027
301.006
300.988
300.97
300.953
300.936
300.92
300.904
300.887
300.871
300.854
300.836
300.816
300.794
300.77
300.743
300.716
300.687
300.658
300.629
300.602
300.578
300.556
300.537
300.52
300.503
300.487
300.472
300.456
301.071
301.052
301.034
301.016
300.997
300.979
300.961
300.943
300.924
300.906
300.888
300.868
300.848
300.826
300.801
300.774
300.745
300.716
300.687
300.659
300.632
300.607
300.585
300.564
300.545
300.528
300.511
300.494
300.478
300.461
301.102
301.087
301.07
301.053
301.034
301.014
300.993
300.973
300.952
300.931
300.91
300.888
300.865
300.84
300.812
300.782
300.751
300.72
300.69
300.663
300.637
300.614
300.592
300.572
300.554
300.536
300.519
300.501
300.484
300.467
301.142
301.131
301.116
301.099
301.08
301.058
301.035
301.012
300.988
300.964
300.939
300.914
300.887
300.859
300.828
300.794
300.759
300.726
300.696
300.669
300.644
300.621
300.6
300.581
300.563
300.545
300.527
300.509
300.491
300.474
301.191
301.184
301.173
301.157
301.137
301.113
301.088
301.06
301.032
301.004
300.975
300.946
300.915
300.883
300.848
300.81
300.772
300.737
300.705
300.677
300.652
300.63
300.61
300.591
300.572
300.554
300.536
300.518
300.499
300.481
301.249
301.246
301.237
301.223
301.203
301.178
301.149
301.118
301.086
301.053
301.02
300.986
300.95
300.913
300.873
300.831
300.79
300.752
300.718
300.689
300.663
300.641
300.62
300.601
300.583
300.564
300.546
300.527
300.507
300.489
301.316
301.315
301.308
301.296
301.277
301.251
301.22
301.185
301.149
301.111
301.072
301.033
300.992
300.95
300.905
300.858
300.813
300.771
300.735
300.704
300.677
300.653
300.632
300.612
300.594
300.575
300.556
300.536
300.517
300.498
301.388
301.389
301.384
301.374
301.355
301.33
301.298
301.26
301.219
301.177
301.133
301.088
301.041
300.994
300.943
300.891
300.841
300.797
300.757
300.724
300.695
300.669
300.647
300.626
300.606
300.586
300.567
300.547
300.527
300.508
301.465
301.468
301.464
301.454
301.437
301.412
301.38
301.341
301.297
301.249
301.2
301.15
301.098
301.045
300.988
300.931
300.877
300.828
300.786
300.749
300.716
300.689
300.664
300.641
300.62
300.6
300.579
300.559
300.538
300.518
301.546
301.549
301.545
301.536
301.52
301.496
301.463
301.424
301.378
301.328
301.274
301.218
301.161
301.102
301.041
300.978
300.92
300.867
300.82
300.779
300.743
300.712
300.685
300.66
300.637
300.615
300.594
300.572
300.551
300.53
301.629
301.631
301.627
301.618
301.602
301.578
301.547
301.507
301.461
301.408
301.351
301.291
301.229
301.166
301.099
301.032
300.97
300.913
300.861
300.816
300.776
300.741
300.71
300.682
300.657
300.633
300.61
300.587
300.565
300.544
301.711
301.712
301.708
301.697
301.681
301.657
301.627
301.588
301.542
301.489
301.43
301.367
301.301
301.234
301.164
301.093
301.027
300.966
300.91
300.859
300.815
300.775
300.741
300.709
300.681
300.654
300.629
300.604
300.58
300.558
301.789
301.789
301.783
301.772
301.755
301.732
301.701
301.664
301.619
301.566
301.507
301.443
301.375
301.305
301.233
301.16
301.091
301.025
300.965
300.91
300.861
300.817
300.777
300.742
300.709
300.679
300.651
300.624
300.598
300.575
301.86
301.858
301.851
301.839
301.822
301.798
301.769
301.732
301.689
301.638
301.581
301.517
301.449
301.378
301.304
301.231
301.16
301.092
301.028
300.968
300.914
300.865
300.821
300.78
300.743
300.709
300.677
300.647
300.619
300.594
301.918
301.916
301.908
301.896
301.878
301.855
301.826
301.792
301.75
301.702
301.647
301.586
301.519
301.45
301.377
301.304
301.233
301.163
301.097
301.034
300.975
300.921
300.871
300.825
300.783
300.744
300.708
300.674
300.643
300.615
301.961
301.958
301.951
301.939
301.921
301.899
301.872
301.839
301.8
301.756
301.704
301.647
301.585
301.518
301.448
301.378
301.308
301.238
301.171
301.105
301.043
300.984
300.929
300.877
300.829
300.785
300.744
300.706
300.67
300.639
301.983
301.981
301.975
301.965
301.949
301.929
301.903
301.873
301.837
301.796
301.75
301.697
301.64
301.578
301.513
301.446
301.379
301.312
301.245
301.179
301.115
301.052
300.992
300.935
300.881
300.831
300.784
300.741
300.702
300.667
301.984
301.983
301.98
301.971
301.958
301.94
301.918
301.89
301.858
301.821
301.779
301.732
301.68
301.624
301.564
301.501
301.437
301.374
301.311
301.247
301.184
301.121
301.058
300.997
300.938
300.882
300.83
300.782
300.738
300.699
301.958
301.96
301.96
301.954
301.944
301.93
301.911
301.887
301.859
301.826
301.787
301.744
301.696
301.643
301.587
301.526
301.464
301.405
301.348
301.292
301.235
301.176
301.116
301.055
300.994
300.935
300.878
300.825
300.777
300.734
301.905
301.909
301.911
301.908
301.901
301.89
301.874
301.854
301.829
301.798
301.763
301.722
301.676
301.624
301.567
301.502
301.44
301.382
301.332
301.286
301.241
301.195
301.146
301.093
301.037
300.979
300.922
300.867
300.816
300.77
301.816
301.821
301.824
301.823
301.818
301.81
301.797
301.779
301.756
301.728
301.693
301.652
301.606
301.55
301.489
301.418
301.354
301.298
301.252
301.214
301.18
301.149
301.118
301.082
301.04
300.994
300.944
300.894
300.845
300.799
301.68
301.682
301.681
301.68
301.677
301.672
301.662
301.648
301.627
301.6
301.565
301.522
301.473
301.415
301.351
301.276
301.21
301.155
301.113
301.081
301.055
301.034
301.015
300.996
300.977
300.951
300.918
300.881
300.84
300.8
301.469
301.464
301.46
301.457
301.458
301.459
301.456
301.447
301.429
301.402
301.367
301.326
301.28
301.223
301.158
301.08
301.016
300.963
300.923
300.894
300.873
300.857
300.845
300.836
300.829
300.821
300.811
300.793
300.769
300.741
301.145
301.141
301.142
301.147
301.156
301.164
301.168
301.166
301.155
301.135
301.107
301.072
301.031
300.979
300.916
300.842
300.783
300.733
300.697
300.67
300.65
300.636
300.627
300.622
300.618
300.615
300.611
300.606
300.598
300.585
300.705
300.716
300.733
300.754
300.777
300.798
300.813
300.822
300.823
300.815
300.799
300.775
300.743
300.7
300.647
300.584
300.533
300.491
300.459
300.434
300.416
300.403
300.393
300.387
300.382
300.378
300.373
300.368
300.36
300.351
301.022
300.989
300.965
300.945
300.928
300.912
300.897
300.883
300.87
300.857
300.844
300.831
300.817
300.803
300.787
300.769
300.747
300.716
300.673
300.622
300.574
300.536
300.509
300.49
300.477
300.467
300.459
300.452
300.444
300.434
301.011
300.972
300.946
300.926
300.909
300.894
300.881
300.868
300.856
300.844
300.832
300.819
300.806
300.792
300.776
300.757
300.734
300.705
300.665
300.62
300.578
300.544
300.518
300.5
300.486
300.475
300.466
300.457
300.447
300.435
300.997
300.962
300.937
300.918
300.902
300.888
300.875
300.862
300.85
300.838
300.826
300.813
300.8
300.785
300.768
300.748
300.724
300.695
300.659
300.619
300.582
300.55
300.526
300.509
300.495
300.483
300.472
300.461
300.45
300.437
300.99
300.961
300.938
300.92
300.904
300.89
300.877
300.864
300.851
300.839
300.826
300.812
300.797
300.781
300.762
300.741
300.716
300.687
300.654
300.618
300.585
300.557
300.535
300.517
300.504
300.491
300.479
300.467
300.454
300.44
300.991