/*--------------------------------*- C++ -*----------------------------------*\
  =========                 |
  \\      /  F ield         | OpenFOAM: The Open Source CFD Toolbox
   \\    /   O peration     | Website:  https://openfoam.org
    \\  /    A nd           | Version:  12
     \\/     M anipulation  |
\*---------------------------------------------------------------------------*/
FoamFile
{
    format      ascii;
    class       volScalarField;
    location    "1200/porous";
    object      rho;
}
// * * * * * * * * * * * * * * * * * * * * * * * * * * * * * * * * * * * * * //

dimensions      [1 -3 0 0 0 0 0];

internalField   nonuniform List<scalar> 
140000
(
933.891
933.891
933.891
933.891
933.891
933.891
933.891
933.891
933.892
933.898
934.184
934.407
934.606
934.793
934.973
935.146
935.316
935.482
935.646
935.808
935.968
936.126
936.282
936.437
936.591
936.743
936.893
937.042
937.189
937.335
937.479
937.622
937.762
937.901
938.039
938.174
938.309
938.441
938.573
938.703
938.833
938.961
939.088
939.214
939.339
939.463
939.585
939.706
939.825
939.943
940.059
940.173
940.285
940.396
940.503
940.609
940.711
940.81
940.904
940.969
940.575
940.322
940.128
939.966
939.827
939.704
939.593
939.494
939.402
939.322
933.891
933.891
933.891
933.891
933.891
933.891
933.891
933.891
933.891
933.896
934.114
934.291
934.45
934.601
934.746
934.887
935.026
935.162
935.296
935.429
935.561
935.692
935.822
935.951
936.079
936.206
936.333
936.459
936.584
936.708
936.831
936.954
937.076
937.197
937.318
937.437
937.556
937.674
937.792
937.909
938.026
938.142
938.258
938.374
938.488
938.602
938.715
938.827
938.938
939.048
939.157
939.265
939.372
939.476
939.579
939.68
939.779
939.875
939.968
940.043
939.807
939.651
939.529
939.425
939.334
939.251
939.176
939.106
939.042
938.984
933.891
933.891
933.891
933.891
933.891
933.891
933.891
933.891
933.891
933.895
934.096
934.255
934.397
934.529
934.656
934.778
934.896
935.013
935.127
935.24
935.351
935.461
935.57
935.678
935.785
935.891
935.997
936.102
936.206
936.31
936.413
936.515
936.617
936.719
936.82
936.92
937.02
937.12
937.219
937.318
937.417
937.516
937.615
937.713
937.811
937.909
938.006
938.103
938.199
938.294
938.389
938.483
938.575
938.667
938.757
938.846
938.932
939.018
939.099
939.17
938.981
938.861
938.771
938.696
938.632
938.575
938.524
938.476
938.433
938.395
933.891
933.891
933.891
933.891
933.891
933.891
933.891
933.891
933.891
933.895
934.091
934.246
934.382
934.509
934.628
934.743
934.855
934.963
935.069
935.173
935.275
935.375
935.474
935.572
935.669
935.764
935.859
935.953
936.046
936.138
936.23
936.32
936.411
936.5
936.589
936.677
936.765
936.853
936.94
937.026
937.113
937.2
937.286
937.372
937.458
937.544
937.628
937.713
937.797
937.88
937.962
938.044
938.124
938.204
938.282
938.359
938.435
938.508
938.579
938.64
938.463
938.351
938.266
938.198
938.139
938.087
938.041
938
937.962
937.928
933.891
933.891
933.891
933.891
933.891
933.891
933.891
933.891
933.891
933.895
934.09
934.243
934.379
934.503
934.621
934.734
934.843
934.948
935.051
935.152
935.25
935.347
935.442
935.536
935.628
935.72
935.81
935.899
935.987
936.074
936.161
936.246
936.331
936.415
936.498
936.58
936.662
936.743
936.824
936.905
936.985
937.065
937.145
937.225
937.304
937.382
937.46
937.538
937.615
937.691
937.766
937.84
937.914
937.986
938.057
938.126
938.194
938.26
938.324
938.378
938.203
938.092
938.007
937.938
937.878
937.826
937.779
937.737
937.699
937.664
933.891
933.891
933.891
933.891
933.891
933.891
933.891
933.891
933.891
933.895
934.09
934.244
934.379
934.503
934.621
934.733
934.841
934.946
935.048
935.148
935.245
935.341
935.435
935.527
935.618
935.708
935.796
935.883
935.97
936.055
936.139
936.222
936.305
936.386
936.467
936.547
936.626
936.704
936.782
936.86
936.937
937.014
937.091
937.167
937.243
937.319
937.393
937.468
937.541
937.613
937.685
937.756
937.825
937.894
937.961
938.026
938.09
938.152
938.211
938.262
938.088
937.976
937.89
937.82
937.759
937.706
937.658
937.614
937.575
937.539
933.891
933.891
933.891
933.891
933.891
933.891
933.891
933.891
933.891
933.895
934.09
934.244
934.379
934.504
934.621
934.734
934.842
934.947
935.049
935.148
935.246
935.341
935.435
935.527
935.617
935.706
935.794
935.881
935.966
936.051
936.134
936.217
936.298
936.379
936.458
936.537
936.615
936.692
936.769
936.846
936.922
936.998
937.073
937.148
937.223
937.297
937.37
937.442
937.514
937.585
937.655
937.724
937.792
937.858
937.923
937.987
938.049
938.108
938.166
938.214
938.04
937.928
937.842
937.771
937.71
937.655
937.607
937.562
937.522
937.485
933.891
933.891
933.891
933.891
933.891
933.891
933.891
933.891
933.891
933.895
934.09
934.244
934.379
934.504
934.622
934.735
934.844
934.949
935.051
935.151
935.248
935.344
935.437
935.529
935.62
935.709
935.797
935.883
935.969
936.053
936.136
936.218
936.299
936.379
936.459
936.537
936.614
936.691
936.768
936.844
936.919
936.995
937.07
937.144
937.218
937.291
937.364
937.436
937.507
937.577
937.646
937.715
937.782
937.847
937.911
937.974
938.035
938.093
938.149
938.197
938.023
937.911
937.824
937.753
937.691
937.637
937.588
937.543
937.502
937.465
933.891
933.891
933.891
933.891
933.891
933.891
933.891
933.891
933.891
933.895
934.091
934.245
934.38
934.505
934.623
934.736
934.845
934.95
935.053
935.153
935.25
935.346
935.44
935.532
935.623
935.712
935.8
935.886
935.972
936.056
936.139
936.221
936.302
936.382
936.461
936.539
936.617
936.693
936.77
936.845
936.921
936.996
937.071
937.145
937.219
937.292
937.365
937.436
937.507
937.577
937.646
937.714
937.781
937.846
937.91
937.972
938.032
938.09
938.146
938.193
938.019
937.906
937.82
937.748
937.686
937.632
937.582
937.537
937.496
937.459
933.891
933.891
933.891
933.891
933.891
933.891
933.891
933.891
933.891
933.895
934.09
934.245
934.38
934.505
934.624
934.737
934.846
934.952
935.054
935.155
935.252
935.348
935.442
935.535
935.625
935.715
935.803
935.889
935.975
936.059
936.142
936.225
936.306
936.385
936.464
936.543
936.62
936.696
936.773
936.848
936.924
936.999
937.074
937.148
937.222
937.295
937.368
937.439
937.51
937.58
937.649
937.717
937.783
937.848
937.912
937.974
938.033
938.091
938.147
938.193
938.019
937.907
937.82
937.749
937.687
937.632
937.582
937.537
937.496
937.458
933.891
933.891
933.891
933.891
933.891
933.891
933.891
933.891
933.891
933.895
934.091
934.245
934.38
934.506
934.624
934.738
934.847
934.953
935.056
935.156
935.254
935.35
935.444
935.537
935.627
935.717
935.805
935.892
935.977
936.062
936.145
936.227
936.308
936.388
936.467
936.545
936.622
936.699
936.775
936.851
936.927
937.002
937.077
937.151
937.225
937.298
937.371
937.442
937.513
937.583
937.652
937.72
937.786
937.851
937.915
937.976
938.036
938.094
938.149
938.195
938.021
937.909
937.822
937.751
937.689
937.634
937.584
937.539
937.498
937.46
933.891
933.891
933.891
933.891
933.891
933.891
933.891
933.891
933.891
933.895
934.091
934.245
934.38
934.506
934.624
934.738
934.847
934.953
935.056
935.157
935.255
935.351
935.446
935.538
935.629
935.719
935.807
935.894
935.98
936.064
936.147
936.229
936.31
936.39
936.469
936.547
936.624
936.701
936.777
936.853
936.929
937.005
937.08
937.154
937.228
937.301
937.373
937.445
937.516
937.586
937.655
937.723
937.789
937.854
937.917
937.979
938.039
938.096
938.151
938.198
938.024
937.911
937.825
937.753
937.691
937.636
937.586
937.541
937.5
937.462
933.891
933.891
933.891
933.891
933.891
933.891
933.891
933.891
933.891
933.895
934.091
934.244
934.38
934.505
934.624
934.738
934.847
934.953
935.057
935.157
935.256
935.352
935.446
935.539
935.63
935.72
935.808
935.895
935.981
936.065
936.149
936.231
936.312
936.391
936.47
936.548
936.626
936.702
936.779
936.855
936.931
937.006
937.081
937.156
937.23
937.303
937.375
937.447
937.518
937.588
937.657
937.725
937.791
937.856
937.92
937.981
938.041
938.098
938.153
938.199
938.025
937.913
937.826
937.755
937.693
937.638
937.588
937.543
937.501
937.464
933.891
933.891
933.891
933.891
933.891
933.891
933.891
933.891
933.891
933.895
934.091
934.244
934.38
934.505
934.624
934.737
934.847
934.953
935.057
935.157
935.256
935.352
935.447
935.54
935.631
935.721
935.809
935.896
935.982
936.066
936.149
936.231
936.312
936.392
936.471
936.549
936.626
936.703
936.779
936.856
936.931
937.007
937.082
937.157
937.231
937.304
937.376
937.448
937.519
937.589
937.658
937.726
937.793
937.858
937.921
937.983
938.042
938.1
938.154
938.201
938.027
937.914
937.828
937.756
937.694
937.639
937.589
937.544
937.502
937.465
933.891
933.891
933.891
933.891
933.891
933.891
933.891
933.891
933.891
933.895
934.09
934.244
934.38
934.505
934.623
934.737
934.847
934.953
935.056
935.157
935.256
935.352
935.447
935.54
935.631
935.721
935.809
935.896
935.982
936.066
936.149
936.231
936.312
936.392
936.471
936.549
936.626
936.703
936.779
936.856
936.932
937.007
937.082
937.157
937.231
937.304
937.377
937.449
937.52
937.59
937.659
937.726
937.793
937.858
937.922
937.983
938.043
938.1
938.155
938.201
938.027
937.914
937.828
937.756
937.694
937.639
937.589
937.544
937.503
937.465
933.891
933.891
933.891
933.891
933.891
933.891
933.891
933.891
933.891
933.895
934.09
934.244
934.379
934.504
934.623
934.736
934.846
934.952
935.056
935.157
935.255
935.352
935.447
935.539
935.631
935.72
935.809
935.896
935.981
936.066
936.149
936.231
936.311
936.391
936.47
936.548
936.625
936.702
936.779
936.855
936.931
937.007
937.082
937.157
937.231
937.304
937.376
937.448
937.519
937.589
937.658
937.726
937.793
937.858
937.921
937.983
938.043
938.1
938.155
938.201
938.027
937.914
937.828
937.756
937.694
937.639
937.589
937.544
937.502
937.465
933.891
933.891
933.891
933.891
933.891
933.891
933.891
933.891
933.891
933.895
934.09
934.244
934.379
934.503
934.622
934.736
934.845
934.952
935.055
935.156
935.255
935.351
935.446
935.539
935.63
935.72
935.808
935.895
935.981
936.065
936.148
936.23
936.31
936.39
936.469
936.547
936.624
936.701
936.778
936.854
936.93
937.006
937.081
937.156
937.23
937.303
937.376
937.447
937.518
937.588
937.658
937.726
937.792
937.857
937.921
937.982
938.042
938.099
938.154
938.2
938.026
937.914
937.827
937.755
937.693
937.638
937.588
937.543
937.502
937.464
933.891
933.891
933.891
933.891
933.891
933.891
933.891
933.891
933.891
933.895
934.09
934.243
934.378
934.503
934.621
934.735
934.844
934.951
935.054
935.155
935.254
935.351
935.445
935.538
935.63
935.719
935.807
935.894
935.98
936.064
936.147
936.228
936.308
936.388
936.467
936.546
936.623
936.7
936.776
936.853
936.929
937.004
937.079
937.154
937.228
937.302
937.374
937.446
937.517
937.587
937.656
937.724
937.791
937.856
937.92
937.981
938.041
938.098
938.153
938.199
938.025
937.912
937.826
937.754
937.692
937.637
937.587
937.542
937.501
937.463
933.891
933.891
933.891
933.891
933.891
933.891
933.891
933.891
933.891
933.895
934.09
934.243
934.377
934.502
934.62
934.734
934.844
934.95
935.054
935.155
935.253
935.35
935.445
935.538
935.629
935.718
935.807
935.893
935.979
936.063
936.145
936.226
936.307
936.387
936.466
936.545
936.623
936.699
936.775
936.851
936.927
937.003
937.078
937.153
937.227
937.3
937.373
937.445
937.516
937.586
937.655
937.723
937.79
937.855
937.919
937.98
938.04
938.097
938.152
938.198
938.024
937.911
937.825
937.753
937.691
937.636
937.586
937.541
937.499
937.462
933.891
933.891
933.891
933.891
933.891
933.891
933.891
933.891
933.891
933.895
934.089
934.242
934.377
934.502
934.62
934.733
934.843
934.949
935.053
935.154
935.253
935.349
935.444
935.537
935.628
935.718
935.806
935.892
935.978
936.062
936.144
936.225
936.306
936.386
936.466
936.545
936.623
936.699
936.775
936.851
936.927
937.002
937.077
937.152
937.226
937.299
937.372
937.444
937.515
937.585
937.654
937.722
937.789
937.854
937.918
937.979
938.039
938.096
938.151
938.197
938.023
937.91
937.824
937.752
937.69
937.635
937.585
937.54
937.498
937.461
933.891
933.891
933.891
933.891
933.891
933.891
933.891
933.891
933.891
933.895
934.089
934.242
934.376
934.501
934.619
934.732
934.842
934.948
935.052
935.153
935.252
935.349
935.444
935.536
935.628
935.717
935.805
935.892
935.977
936.061
936.143
936.225
936.306
936.386
936.466
936.545
936.623
936.7
936.776
936.851
936.927
937.002
937.077
937.152
937.226
937.299
937.371
937.443
937.514
937.584
937.654
937.722
937.788
937.854
937.917
937.979
938.039
938.096
938.15
938.196
938.022
937.91
937.823
937.751
937.689
937.634
937.585
937.539
937.498
937.46
933.891
933.891
933.891
933.891
933.891
933.891
933.891
933.891
933.891
933.895
934.089
934.242
934.376
934.5
934.618
934.732
934.841
934.948
935.051
935.153
935.251
935.348
935.443
935.536
935.627
935.717
935.805
935.891
935.976
936.06
936.143
936.225
936.306
936.387
936.466
936.545
936.623
936.7
936.777
936.852
936.927
937.003
937.077
937.152
937.225
937.299
937.371
937.443
937.514
937.584
937.653
937.721
937.788
937.853
937.917
937.979
938.038
938.096
938.15
938.196
938.022
937.909
937.823
937.751
937.689
937.634
937.584
937.539
937.497
937.46
933.891
933.891
933.891
933.891
933.891
933.891
933.891
933.891
933.891
933.895
934.089
934.241
934.375
934.5
934.618
934.731
934.841
934.947
935.051
935.152
935.251
935.348
935.443
935.536
935.627
935.717
935.805
935.891
935.976
936.06
936.143
936.225
936.306
936.387
936.467
936.546
936.624
936.701
936.777
936.853
936.928
937.003
937.078
937.152
937.225
937.299
937.371
937.443
937.514
937.584
937.653
937.721
937.788
937.853
937.917
937.978
938.038
938.096
938.15
938.196
938.022
937.91
937.823
937.751
937.689
937.634
937.584
937.539
937.497
937.46
933.891
933.891
933.891
933.891
933.891
933.891
933.891
933.891
933.891
933.895
934.089
934.241
934.375
934.499
934.617
934.73
934.84
934.946
935.05
935.152
935.251
935.347
935.442
935.535
935.627
935.716
935.804
935.891
935.976
936.06
936.143
936.225
936.306
936.387
936.467
936.546
936.624
936.702
936.778
936.853
936.929
937.003
937.078
937.152
937.225
937.298
937.371
937.443
937.514
937.584
937.653
937.721
937.788
937.853
937.917
937.978
938.038
938.096
938.15
938.196
938.022
937.91
937.823
937.751
937.689
937.634
937.584
937.539
937.497
937.459
933.891
933.891
933.891
933.891
933.891
933.891
933.891
933.891
933.891
933.895
934.089
934.241
934.375
934.499
934.617
934.73
934.84
934.946
935.05
935.151
935.25
935.347
935.442
935.535
935.627
935.716
935.804
935.891
935.976
936.06
936.143
936.225
936.307
936.387
936.467
936.546
936.625
936.702
936.778
936.854
936.929
937.003
937.078
937.152
937.225
937.298
937.371
937.442
937.513
937.583
937.652
937.72
937.787
937.853
937.916
937.978
938.038
938.096
938.15
938.196
938.022
937.91
937.823
937.751
937.689
937.634
937.584
937.539
937.497
937.459
933.891
933.891
933.891
933.891
933.891
933.891
933.891
933.891
933.891
933.895
934.088
934.24
934.374
934.498
934.616
934.729
934.839
934.945
935.049
935.151
935.25
935.347
935.442
935.535
935.626
935.716
935.804
935.891
935.976
936.06
936.143
936.225
936.307
936.388
936.467
936.547
936.625
936.702
936.778
936.854
936.929
937.003
937.078
937.151
937.225
937.298
937.37
937.442
937.513
937.583
937.652
937.72
937.787
937.852
937.916
937.978
938.038
938.096
938.151
938.197
938.023
937.91
937.823
937.751
937.689
937.634
937.584
937.539
937.497
937.46
933.891
933.891
933.891
933.891
933.891
933.891
933.891
933.891
933.891
933.895
934.088
934.24
934.374
934.498
934.616
934.729
934.838
934.945
935.049
935.15
935.249
935.347
935.442
935.535
935.626
935.716
935.805
935.891
935.976
936.06
936.143
936.225
936.307
936.388
936.467
936.546
936.625
936.702
936.778
936.853
936.928
937.003
937.077
937.151
937.224
937.297
937.37
937.441
937.512
937.582
937.651
937.719
937.786
937.852
937.916
937.978
938.038
938.096
938.151
938.197
938.023
937.91
937.823
937.751
937.689
937.634
937.584
937.539
937.497
937.46
933.891
933.891
933.891
933.891
933.891
933.891
933.891
933.891
933.891
933.895
934.088
934.24
934.373
934.497
934.615
934.728
934.838
934.945
935.048
935.15
935.249
935.346
935.441
935.535
935.626
935.716
935.805
935.891
935.977
936.06
936.143
936.225
936.307
936.387
936.467
936.546
936.624
936.701
936.777
936.853
936.928
937.002
937.077
937.15
937.224
937.297
937.369
937.44
937.511
937.582
937.651
937.719
937.786
937.851
937.916
937.978
938.038
938.096
938.151
938.198
938.023
937.91
937.824
937.752
937.689
937.634
937.585
937.539
937.498
937.46
933.891
933.891
933.891
933.891
933.891
933.891
933.891
933.891
933.891
933.895
934.088
934.239
934.373
934.497
934.615
934.728
934.838
934.944
935.048
935.149
935.249
935.346
935.441
935.535
935.626
935.716
935.805
935.891
935.977
936.061
936.143
936.225
936.306
936.387
936.467
936.545
936.623
936.7
936.776
936.852
936.927
937.001
937.076
937.15
937.223
937.296
937.368
937.44
937.511
937.581
937.65
937.718
937.785
937.851
937.915
937.978
938.038
938.096
938.152
938.199
938.024
937.911
937.824
937.752
937.69
937.635
937.585
937.54
937.498
937.46
933.891
933.891
933.891
933.891
933.891
933.891
933.891
933.891
933.891
933.895
934.088
934.239
934.373
934.497
934.614
934.728
934.837
934.944
935.048
935.149
935.248
935.346
935.441
935.534
935.626
935.716
935.805
935.891
935.977
936.061
936.143
936.225
936.306
936.386
936.466
936.545
936.622
936.699
936.775
936.85
936.926
937
937.075
937.149
937.222
937.295
937.367
937.439
937.51
937.58
937.649
937.718
937.785
937.851
937.915
937.978
938.038
938.097
938.152
938.199
938.024
937.911
937.824
937.752
937.69
937.635
937.585
937.54
937.498
937.461
933.891
933.891
933.891
933.891
933.891
933.891
933.891
933.891
933.891
933.895
934.088
934.239
934.373
934.496
934.614
934.727
934.837
934.943
935.047
935.149
935.248
935.345
935.44
935.534
935.626
935.716
935.804
935.891
935.977
936.061
936.143
936.224
936.305
936.386
936.465
936.544
936.621
936.698
936.774
936.849
936.925
937
937.074
937.148
937.222
937.295
937.367
937.439
937.51
937.58
937.649
937.718
937.785
937.851
937.915
937.978
938.039
938.098
938.154
938.201
938.026
937.913
937.826
937.754
937.691
937.636
937.586
937.541
937.499
937.462
933.891
933.891
933.891
933.891
933.891
933.891
933.891
933.891
933.891
933.895
934.087
934.239
934.372
934.496
934.614
934.727
934.836
934.943
935.047
935.148
935.247
935.345
935.44
935.533
935.625
935.715
935.804
935.891
935.977
936.061
936.143
936.224
936.305
936.385
936.464
936.543
936.62
936.697
936.773
936.849
936.924
936.999
937.074
937.148
937.222
937.295
937.367
937.439
937.51
937.58
937.649
937.718
937.785
937.851
937.916
937.979
938.04
938.099
938.155
938.202
938.027
937.914
937.827
937.755
937.692
937.637
937.587
937.542
937.5
937.463
933.891
933.891
933.891
933.891
933.891
933.891
933.891
933.891
933.891
933.895
934.087
934.239
934.372
934.496
934.613
934.726
934.836
934.942
935.046
935.148
935.247
935.344
935.439
935.533
935.625
935.715
935.803
935.891
935.976
936.06
936.143
936.224
936.305
936.385
936.464
936.542
936.619
936.696
936.772
936.849
936.924
937
937.074
937.149
937.222
937.295
937.367
937.439
937.51
937.58
937.65
937.718
937.786
937.852
937.917
937.98
938.042
938.101
938.157
938.204
938.029
937.916
937.829
937.756
937.694
937.639
937.589
937.544
937.502
937.464
933.891
933.891
933.891
933.891
933.891
933.891
933.891
933.891
933.891
933.895
934.087
934.239
934.372
934.496
934.613
934.726
934.835
934.942
935.045
935.147
935.246
935.343
935.438
935.532
935.624
935.714
935.803
935.89
935.975
936.06
936.142
936.224
936.304
936.384
936.463
936.541
936.619
936.696
936.772
936.849
936.925
937
937.075
937.149
937.222
937.295
937.368
937.44
937.511
937.581
937.65
937.719
937.787
937.853
937.918
937.982
938.043
938.102
938.159
938.207
938.031
937.918
937.83
937.758
937.696
937.64
937.591
937.545
937.504
937.466
933.891
933.891
933.891
933.891
933.891
933.891
933.891
933.891
933.891
933.895
934.087
934.238
934.372
934.495
934.613
934.725
934.835
934.941
935.045
935.146
935.245
935.342
935.437
935.531
935.623
935.713
935.801
935.889
935.974
936.059
936.141
936.223
936.303
936.383
936.462
936.54
936.618
936.695
936.772
936.849
936.925
937
937.075
937.149
937.223
937.296
937.368
937.44
937.511
937.581
937.651
937.719
937.787
937.854
937.919
937.983
938.045
938.104
938.16
938.208
938.033
937.919
937.832
937.759
937.697
937.642
937.592
937.547
937.505
937.467
933.891
933.891
933.891
933.891
933.891
933.891
933.891
933.891
933.891
933.895
934.087
934.238
934.371
934.495
934.612
934.725
934.834
934.94
935.044
935.145
935.244
935.341
935.436
935.529
935.621
935.711
935.8
935.887
935.973
936.057
936.14
936.222
936.302
936.382
936.461
936.539
936.617
936.694
936.771
936.848
936.924
936.999
937.074
937.149
937.222
937.295
937.368
937.439
937.511
937.581
937.651
937.719
937.787
937.854
937.919
937.983
938.045
938.105
938.162
938.21
938.034
937.92
937.833
937.76
937.698
937.643
937.593
937.547
937.506
937.468
933.891
933.891
933.891
933.891
933.891
933.891
933.891
933.891
933.891
933.895
934.087
934.238
934.371
934.494
934.611
934.724
934.833
934.939
935.042
935.144
935.242
935.339
935.435
935.528
935.62
935.71
935.798
935.886
935.971
936.055
936.138
936.22
936.3
936.38
936.459
936.538
936.616
936.693
936.77
936.847
936.923
936.998
937.073
937.148
937.221
937.294
937.367
937.439
937.51
937.58
937.65
937.719
937.787
937.853
937.919
937.983
938.045
938.105
938.162
938.211
938.034
937.921
937.833
937.761
937.698
937.643
937.593
937.548
937.506
937.468
933.891
933.891
933.891
933.891
933.891
933.891
933.891
933.891
933.891
933.895
934.087
934.238
934.371
934.494
934.611
934.723
934.832
934.938
935.041
935.142
935.241
935.338
935.433
935.526
935.618
935.708
935.796
935.883
935.969
936.053
936.136
936.218
936.298
936.378
936.457
936.535
936.614
936.691
936.768
936.845
936.921
936.997
937.072
937.146
937.22
937.293
937.365
937.437
937.508
937.578
937.648
937.717
937.785
937.852
937.918
937.982
938.045
938.105
938.162
938.21
938.034
937.92
937.833
937.76
937.698
937.642
937.592
937.547
937.505
937.467
933.891
933.891
933.891
933.891
933.891
933.891
933.891
933.891
933.891
933.895
934.087
934.237
934.37
934.493
934.61
934.722
934.831
934.937
935.04
935.141
935.239
935.336
935.431
935.524
935.616
935.706
935.794
935.881
935.967
936.051
936.133
936.215
936.295
936.375
936.454
936.533
936.611
936.689
936.766
936.843
936.919
936.994
937.069
937.144
937.217
937.29
937.363
937.435
937.506
937.576
937.646
937.715
937.783
937.85
937.916
937.981
938.043
938.104
938.161
938.21
938.033
937.919
937.832
937.759
937.697
937.641
937.591
937.546
937.504
937.466
933.891
933.891
933.891
933.891
933.891
933.891
933.891
933.891
933.891
933.895
934.086
934.237
934.369
934.492
934.609
934.721
934.83
934.935
935.038
935.139
935.237
935.334
935.429
935.522
935.613
935.703
935.791
935.878
935.964
936.048
936.13
936.212
936.292
936.372
936.452
936.53
936.609
936.686
936.763
936.84
936.916
936.992
937.067
937.141
937.214
937.287
937.36
937.432
937.503
937.573
937.643
937.712
937.78
937.847
937.914
937.978
938.041
938.102
938.159
938.208
938.032
937.918
937.83
937.758
937.695
937.64
937.59
937.544
937.503
937.465
933.891
933.891
933.891
933.891
933.891
933.891
933.891
933.891
933.891
933.895
934.086
934.237
934.369
934.492
934.608
934.72
934.828
934.934
935.036
935.137
935.235
935.332
935.426
935.519
935.61
935.7
935.788
935.875
935.961
936.044
936.127
936.209
936.289
936.369
936.449
936.527
936.606
936.683
936.76
936.837
936.913
936.989
937.063
937.138
937.211
937.284
937.357
937.428
937.499
937.57
937.64
937.709
937.777
937.845
937.911
937.976
938.039
938.1
938.158
938.207
938.03
937.916
937.829
937.756
937.694
937.638
937.588
937.543
937.501
937.464
933.891
933.891
933.891
933.891
933.891
933.891
933.891
933.891
933.891
933.895
934.086
934.236
934.368
934.491
934.607
934.719
934.827
934.932
935.034
935.135
935.233
935.329
935.424
935.516
935.607
935.697
935.785
935.872
935.957
936.041
936.124
936.205
936.286
936.366
936.445
936.524
936.602
936.68
936.757
936.834
936.91
936.985
937.06
937.135
937.208
937.281
937.354
937.425
937.497
937.567
937.637
937.706
937.775
937.842
937.909
937.974
938.038
938.099
938.157
938.207
938.03
937.916
937.829
937.756
937.694
937.638
937.589
937.543
937.502
937.464
933.891
933.891
933.891
933.891
933.891
933.891
933.891
933.891
933.891
933.895
934.086
934.236
934.368
934.49
934.606
934.717
934.825
934.93
935.033
935.133
935.231
935.327
935.421
935.514
935.605
935.694
935.782
935.869
935.954
936.038
936.121
936.203
936.283
936.364
936.443
936.522
936.6
936.678
936.756
936.832
936.909
936.984
937.059
937.133
937.207
937.28
937.353
937.425
937.497
937.567
937.638
937.707
937.776
937.844
937.911
937.976
938.041
938.103
938.162
938.212
938.035
937.921
937.834
937.761
937.699
937.644
937.594
937.549
937.508
937.471
933.891
933.891
933.891
933.891
933.891
933.891
933.891
933.891
933.891
933.895
934.085
934.235
934.367
934.489
934.605
934.716
934.824
934.929
935.031
935.131
935.229
935.325
935.419
935.512
935.603
935.692
935.781
935.867
935.953
936.037
936.12
936.202
936.283
936.364
936.444
936.523
936.602
936.68
936.758
936.835
936.911
936.987
937.063
937.138
937.212
937.286
937.359
937.432
937.504
937.575
937.646
937.716
937.786
937.855
937.923
937.989
938.055
938.118
938.178
938.229
938.052
937.938
937.851
937.779
937.718
937.663
937.614
937.569
937.528
937.491
933.891
933.891
933.891
933.891
933.891
933.891
933.891
933.891
933.891
933.895
934.085
934.235
934.367
934.489
934.605
934.716
934.824
934.929
935.031
935.131
935.229
935.325
935.42
935.513
935.605
935.695
935.783
935.871
935.957
936.042
936.126
936.208
936.291
936.372
936.453
936.533
936.613
936.693
936.772
936.85
936.928
937.005
937.082
937.158
937.233
937.309
937.383
937.457
937.531
937.604
937.676
937.748
937.82
937.89
937.96
938.029
938.096
938.161
938.224
938.277
938.1
937.986
937.9
937.829
937.767
937.713
937.665
937.621
937.581
937.545
933.891
933.891
933.891
933.891
933.891
933.891
933.891
933.891
933.891
933.895
934.085
934.235
934.367
934.49
934.606
934.718
934.826
934.932
935.035
935.136
935.235
935.333
935.429
935.523
935.616
935.708
935.798
935.888
935.976
936.063
936.149
936.234
936.318
936.402
936.486
936.569
936.651
936.733
936.815
936.896
936.976
937.057
937.136
937.216
937.294
937.373
937.451
937.528
937.605
937.682
937.758
937.833
937.908
937.982
938.056
938.129
938.2
938.269
938.336
938.393
938.215
938.102
938.017
937.947
937.886
937.834
937.787
937.744
937.706
937.671
933.891
933.891
933.891
933.891
933.891
933.891
933.891
933.891
933.891
933.895
934.086
934.238
934.371
934.496
934.614
934.728
934.839
934.947
935.054
935.158
935.261
935.362
935.462
935.56
935.658
935.754
935.849
935.943
936.036
936.128
936.219
936.31
936.4
936.489
936.579
936.667
936.756
936.844
936.931
937.019
937.106
937.192
937.278
937.364
937.45
937.535
937.619
937.704
937.788
937.871
937.954
938.037
938.119
938.201
938.281
938.361
938.44
938.517
938.592
938.656
938.475
938.361
938.276
938.207
938.147
938.095
938.049
938.007
937.969
937.935
933.891
933.891
933.891
933.891
933.891
933.891
933.891
933.891
933.891
933.895
934.091
934.247
934.387
934.517
934.642
934.763
934.882
934.999
935.113
935.227
935.339
935.45
935.56
935.668
935.776
935.883
935.989
936.094
936.199
936.302
936.405
936.507
936.609
936.71
936.811
936.912
937.013
937.113
937.212
937.312
937.411
937.51
937.608
937.706
937.804
937.901
937.998
938.094
938.19
938.286
938.381
938.475
938.569
938.663
938.755
938.847
938.937
939.026
939.111
939.186
938.993
938.873
938.781
938.706
938.641
938.583
938.532
938.484
938.441
938.402
933.891
933.891
933.891
933.891
933.891
933.891
933.891
933.891
933.891
933.896
934.109
934.284
934.44
934.589
934.733
934.874
935.012
935.148
935.284
935.418
935.55
935.682
935.813
935.943
936.072
936.2
936.327
936.453
936.579
936.703
936.826
936.948
937.07
937.191
937.311
937.431
937.551
937.669
937.788
937.905
938.022
938.138
938.253
938.368
938.481
938.595
938.707
938.819
938.929
939.039
939.149
939.257
939.365
939.471
939.577
939.681
939.784
939.884
939.981
940.061
939.821
939.664
939.541
939.436
939.344
939.261
939.186
939.116
939.051
938.993
933.891
933.891
933.891
933.891
933.891
933.891
933.891
933.891
933.892
933.898
934.179
934.399
934.596
934.781
934.959
935.132
935.302
935.469
935.634
935.797
935.959
936.118
936.276
936.432
936.587
936.74
936.891
937.04
937.187
937.333
937.476
937.618
937.758
937.897
938.034
938.17
938.305
938.438
938.57
938.7
938.829
938.957
939.083
939.208
939.332
939.454
939.575
939.695
939.814
939.932
940.048
940.163
940.277
940.39
940.501
940.611
940.718
940.821
940.92
940.99
940.592
940.337
940.141
939.979
939.839
939.715
939.604
939.504
939.412
939.332
933.891
933.891
933.891
933.891
933.891
933.891
933.891
933.891
933.891
933.896
934.112
934.315
934.507
934.689
934.866
935.039
935.208
935.374
935.538
935.7
935.86
936.019
936.176
936.332
936.486
936.638
936.79
936.939
937.087
937.234
937.378
937.522
937.663
937.803
937.941
938.078
938.212
938.346
938.478
938.609
938.739
938.867
938.995
939.122
939.247
939.371
939.494
939.615
939.735
939.853
939.97
940.084
940.197
940.309
940.417
940.523
940.626
940.726
940.821
940.892
940.567
940.326
940.134
939.973
939.834
939.711
939.601
939.501
939.409
939.328
933.891
933.891
933.891
933.891
933.891
933.891
933.891
933.891
933.891
933.894
934.048
934.201
934.35
934.494
934.634
934.772
934.908
935.042
935.175
935.306
935.437
935.567
935.696
935.824
935.952
936.078
936.205
936.33
936.455
936.579
936.702
936.825
936.947
937.068
937.188
937.308
937.427
937.545
937.663
937.78
937.897
938.014
938.13
938.245
938.36
938.474
938.587
938.7
938.811
938.921
939.031
939.139
939.246
939.351
939.455
939.557
939.657
939.754
939.849
939.93
939.763
939.627
939.513
939.414
939.326
939.246
939.172
939.104
939.041
938.984
933.891
933.891
933.891
933.891
933.891
933.891
933.891
933.891
933.891
933.894
934.032
934.169
934.299
934.425
934.547
934.666
934.782
934.896
935.009
935.12
935.23
935.339
935.446
935.553
935.66
935.765
935.87
935.974
936.078
936.181
936.283
936.385
936.487
936.588
936.688
936.788
936.888
936.987
937.086
937.185
937.284
937.382
937.481
937.579
937.677
937.774
937.871
937.968
938.064
938.159
938.254
938.348
938.44
938.532
938.623
938.712
938.8
938.886
938.969
939.044
938.921
938.821
938.738
938.669
938.608
938.553
938.504
938.459