/*--------------------------------*- C++ -*----------------------------------*\
  =========                 |
  \\      /  F ield         | OpenFOAM: The Open Source CFD Toolbox
   \\    /   O peration     | Website:  https://openfoam.org
    \\  /    A nd           | Version:  12
     \\/     M anipulation  |
\*---------------------------------------------------------------------------*/
FoamFile
{
    format      ascii;
    class       volScalarField;
    location    "1200/porous";
    object      T;
}
// * * * * * * * * * * * * * * * * * * * * * * * * * * * * * * * * * * * * * //

dimensions      [0 0 0 1 0 0 0];

internalField   nonuniform List<scalar> 
140000
(
400
400
400
400
400
400
400
400
400
399.992
399.686
399.446
399.232
399.031
398.837
398.65
398.467
398.287
398.109
397.934
397.76
397.589
397.419
397.25
397.083
396.918
396.753
396.591
396.43
396.271
396.113
395.957
395.802
395.65
395.499
395.35
395.202
395.056
394.911
394.767
394.624
394.482
394.341
394.202
394.063
393.926
393.79
393.656
393.524
393.393
393.264
393.137
393.011
392.888
392.768
392.65
392.536
392.425
392.32
392.248
392.689
392.97
393.187
393.367
393.522
393.659
393.781
393.892
393.994
394.082
400
400
400
400
400
400
400
400
400
399.995
399.761
399.571
399.4
399.238
399.082
398.929
398.78
398.633
398.488
398.344
398.201
398.06
397.919
397.779
397.64
397.502
397.364
397.227
397.091
396.956
396.821
396.687
396.554
396.421
396.29
396.159
396.028
395.899
395.77
395.641
395.513
395.385
395.257
395.13
395.004
394.878
394.754
394.63
394.507
394.385
394.265
394.145
394.028
393.912
393.797
393.685
393.575
393.468
393.365
393.281
393.545
393.717
393.853
393.968
394.069
394.161
394.244
394.321
394.393
394.456
400
400
400
400
400
400
400
400
400
399.996
399.781
399.61
399.457
399.315
399.179
399.048
398.92
398.794
398.671
398.549
398.429
398.31
398.192
398.075
397.959
397.843
397.729
397.615
397.502
397.389
397.277
397.165
397.054
396.944
396.834
396.724
396.615
396.506
396.398
396.289
396.181
396.072
395.964
395.856
395.748
395.641
395.534
395.428
395.323
395.218
395.113
395.01
394.908
394.807
394.708
394.609
394.514
394.419
394.329
394.251
394.46
394.592
394.692
394.774
394.845
394.908
394.965
395.017
395.064
395.107
400
400
400
400
400
400
400
400
400
399.996
399.786
399.62
399.473
399.337
399.208
399.084
398.964
398.848
398.734
398.622
398.511
398.403
398.296
398.19
398.085
397.981
397.879
397.777
397.676
397.576
397.476
397.377
397.279
397.182
397.085
396.989
396.893
396.798
396.703
396.608
396.513
396.419
396.324
396.23
396.136
396.042
395.949
395.857
395.765
395.673
395.583
395.493
395.405
395.317
395.231
395.146
395.063
394.982
394.903
394.836
395.032
395.156
395.248
395.324
395.389
395.446
395.496
395.542
395.583
395.621
400
400
400
400
400
400
400
400
400
399.996
399.787
399.622
399.477
399.343
399.216
399.094
398.977
398.863
398.753
398.644
398.538
398.433
398.33
398.229
398.129
398.03
397.932
397.835
397.74
397.645
397.551
397.458
397.366
397.275
397.184
397.095
397.005
396.917
396.829
396.741
396.653
396.566
396.478
396.392
396.305
396.219
396.133
396.049
395.964
395.881
395.798
395.717
395.636
395.557
395.479
395.403
395.328
395.255
395.185
395.126
395.318
395.441
395.534
395.61
395.675
395.732
395.784
395.83
395.872
395.91
400
400
400
400
400
400
400
400
400
399.996
399.787
399.622
399.477
399.343
399.217
399.095
398.979
398.866
398.756
398.648
398.543
398.44
398.338
398.238
398.14
398.043
397.947
397.852
397.759
397.666
397.575
397.484
397.395
397.306
397.218
397.131
397.045
396.96
396.875
396.79
396.705
396.621
396.537
396.454
396.371
396.288
396.207
396.126
396.045
395.966
395.887
395.81
395.733
395.658
395.585
395.513
395.443
395.374
395.309
395.253
395.445
395.568
395.662
395.739
395.806
395.864
395.917
395.965
396.008
396.047
400
400
400
400
400
400
400
400
400
399.996
399.787
399.622
399.477
399.343
399.216
399.095
398.978
398.865
398.755
398.648
398.542
398.439
398.338
398.239
398.141
398.044
397.949
397.855
397.762
397.67
397.58
397.49
397.402
397.314
397.227
397.142
397.057
396.972
396.889
396.805
396.722
396.639
396.557
396.475
396.394
396.313
396.232
396.153
396.074
395.997
395.92
395.844
395.77
395.697
395.626
395.556
395.488
395.422
395.359
395.306
395.497
395.621
395.715
395.793
395.86
395.92
395.973
396.022
396.066
396.106
400
400
400
400
400
400
400
400
400
399.996
399.787
399.622
399.476
399.342
399.215
399.093
398.976
398.863
398.753
398.645
398.54
398.437
398.335
398.236
398.138
398.041
397.946
397.852
397.76
397.668
397.578
397.489
397.4
397.313
397.227
397.142
397.057
396.974
396.89
396.808
396.725
396.643
396.561
396.479
396.399
396.318
396.239
396.16
396.082
396.005
395.929
395.855
395.781
395.709
395.639
395.57
395.503
395.439
395.377
395.325
395.516
395.64
395.734
395.813
395.88
395.94
395.994
396.043
396.088
396.129
400
400
400
400
400
400
400
400
400
399.996
399.786
399.621
399.476
399.341
399.214
399.092
398.975
398.861
398.751
398.643
398.537
398.434
398.333
398.233
398.135
398.038
397.943
397.849
397.756
397.665
397.575
397.485
397.397
397.31
397.224
397.139
397.055
396.971
396.888
396.806
396.723
396.641
396.559
396.478
396.397
396.317
396.238
396.16
396.082
396.005
395.93
395.855
395.782
395.711
395.641
395.573
395.506
395.442
395.381
395.33
395.521
395.644
395.739
395.818
395.886
395.946
396
396.049
396.094
396.135
400
400
400
400
400
400
400
400
400
399.996
399.787
399.621
399.475
399.341
399.213
399.091
398.974
398.86
398.749
398.641
398.535
398.432
398.33
398.23
398.132
398.035
397.94
397.846
397.753
397.661
397.571
397.482
397.394
397.307
397.221
397.136
397.052
396.968
396.885
396.802
396.72
396.638
396.556
396.475
396.394
396.314
396.235
396.156
396.079
396.002
395.927
395.853
395.78
395.708
395.639
395.57
395.505
395.441
395.38
395.329
395.52
395.644
395.739
395.817
395.885
395.946
396
396.049
396.094
396.136
400
400
400
400
400
400
400
400
400
399.996
399.786
399.621
399.475
399.34
399.213
399.091
398.973
398.859
398.748
398.64
398.534
398.43
398.328
398.228
398.13
398.033
397.937
397.843
397.75
397.658
397.568
397.479
397.391
397.304
397.218
397.133
397.049
396.965
396.882
396.799
396.717
396.635
396.553
396.471
396.391
396.311
396.231
396.153
396.076
395.999
395.923
395.849
395.776
395.705
395.635
395.567
395.502
395.438
395.378
395.327
395.518
395.642
395.736
395.815
395.883
395.943
395.998
396.047
396.093
396.134
400
400
400
400
400
400
400
400
400
399.996
399.786
399.621
399.475
399.34
399.213
399.09
398.972
398.858
398.747
398.639
398.532
398.428
398.326
398.226
398.128
398.031
397.935
397.841
397.748
397.656
397.566
397.476
397.388
397.302
397.216
397.131
397.047
396.963
396.88
396.797
396.714
396.632
396.55
396.469
396.388
396.308
396.229
396.15
396.073
395.996
395.92
395.846
395.773
395.702
395.632
395.564
395.499
395.435
395.375
395.324
395.515
395.639
395.734
395.813
395.881
395.941
395.995
396.045
396.09
396.131
400
400
400
400
400
400
400
400
400
399.996
399.786
399.621
399.475
399.341
399.213
399.09
398.973
398.858
398.747
398.638
398.532
398.428
398.326
398.225
398.127
398.029
397.934
397.839
397.746
397.655
397.564
397.475
397.387
397.3
397.214
397.13
397.045
396.962
396.878
396.795
396.713
396.63
396.548
396.467
396.386
396.306
396.226
396.148
396.07
395.994
395.918
395.844
395.771
395.699
395.63
395.562
395.496
395.433
395.373
395.322
395.513
395.637
395.732
395.811
395.879
395.939
395.994
396.043
396.089
396.13
400
400
400
400
400
400
400
400
400
399.996
399.786
399.621
399.476
399.341
399.213
399.091
398.973
398.858
398.747
398.638
398.531
398.427
398.325
398.225
398.126
398.029
397.933
397.839
397.746
397.654
397.563
397.474
397.386
397.3
397.214
397.129
397.045
396.961
396.878
396.795
396.712
396.629
396.547
396.466
396.385
396.305
396.225
396.147
396.069
395.992
395.917
395.842
395.769
395.698
395.628
395.56
395.495
395.432
395.372
395.321
395.512
395.636
395.731
395.81
395.878
395.938
395.992
396.042
396.087
396.129
400
400
400
400
400
400
400
400
400
399.996
399.787
399.622
399.476
399.341
399.214
399.091
398.973
398.859
398.747
398.638
398.532
398.427
398.325
398.225
398.126
398.029
397.933
397.838
397.745
397.654
397.563
397.474
397.387
397.3
397.214
397.129
397.045
396.961
396.878
396.795
396.712
396.629
396.547
396.465
396.384
396.304
396.225
396.146
396.069
395.992
395.916
395.842
395.769
395.697
395.627
395.56
395.494
395.431
395.371
395.32
395.512
395.635
395.73
395.809
395.877
395.938
395.992
396.041
396.087
396.128
400
400
400
400
400
400
400
400
400
399.996
399.787
399.622
399.477
399.342
399.214
399.092
398.974
398.859
398.748
398.639
398.532
398.428
398.325
398.225
398.126
398.029
397.933
397.839
397.746
397.654
397.564
397.475
397.387
397.301
397.215
397.13
397.046
396.962
396.878
396.795
396.712
396.63
396.547
396.466
396.385
396.305
396.225
396.147
396.069
395.992
395.916
395.842
395.769
395.697
395.628
395.56
395.494
395.431
395.371
395.321
395.512
395.636
395.731
395.809
395.878
395.938
395.992
396.042
396.087
396.129
400
400
400
400
400
400
400
400
400
399.996
399.787
399.622
399.477
399.343
399.215
399.093
398.975
398.86
398.748
398.639
398.533
398.428
398.326
398.225
398.127
398.029
397.934
397.839
397.747
397.655
397.565
397.476
397.389
397.302
397.216
397.131
397.047
396.963
396.879
396.796
396.713
396.631
396.549
396.467
396.386
396.306
396.226
396.148
396.07
395.993
395.917
395.843
395.77
395.698
395.628
395.561
395.495
395.432
395.372
395.321
395.513
395.636
395.731
395.81
395.878
395.939
395.993
396.043
396.088
396.129
400
400
400
400
400
400
400
400
400
399.996
399.787
399.623
399.478
399.343
399.216
399.094
398.976
398.861
398.749
398.64
398.533
398.429
398.327
398.226
398.127
398.03
397.935
397.84
397.748
397.656
397.566
397.478
397.391
397.304
397.217
397.132
397.048
396.964
396.881
396.798
396.715
396.632
396.55
396.468
396.387
396.307
396.228
396.149
396.071
395.994
395.919
395.844
395.771
395.699
395.63
395.562
395.496
395.433
395.373
395.323
395.514
395.638
395.733
395.811
395.88
395.94
395.994
396.044
396.089
396.131
400
400
400
400
400
400
400
400
400
399.996
399.787
399.623
399.479
399.345
399.217
399.095
398.976
398.862
398.75
398.641
398.534
398.43
398.327
398.227
398.128
398.031
397.935
397.841
397.749
397.658
397.568
397.48
397.392
397.305
397.219
397.133
397.048
396.965
396.882
396.799
396.716
396.634
396.551
396.47
396.389
396.309
396.229
396.15
396.073
395.996
395.92
395.845
395.772
395.701
395.631
395.563
395.497
395.434
395.374
395.324
395.515
395.639
395.734
395.813
395.881
395.941
395.996
396.045
396.091
396.132
400
400
400
400
400
400
400
400
400
399.996
399.788
399.623
399.479
399.345
399.218
399.095
398.977
398.862
398.751
398.642
398.535
398.43
398.328
398.227
398.129
398.032
397.936
397.842
397.75
397.659
397.569
397.481
397.393
397.306
397.219
397.133
397.048
396.965
396.882
396.799
396.717
396.634
396.552
396.471
396.39
396.31
396.23
396.151
396.074
395.997
395.921
395.846
395.773
395.702
395.632
395.564
395.498
395.435
395.375
395.325
395.516
395.64
395.735
395.814
395.882
395.942
395.997
396.046
396.092
396.133
400
400
400
400
400
400
400
400
400
399.996
399.788
399.624
399.48
399.346
399.219
399.096
398.978
398.863
398.752
398.642
398.536
398.431
398.329
398.228
398.129
398.032
397.937
397.843
397.751
397.66
397.57
397.482
397.393
397.306
397.219
397.133
397.048
396.964
396.882
396.799
396.717
396.634
396.553
396.471
396.39
396.31
396.231
396.152
396.074
395.997
395.922
395.847
395.774
395.702
395.632
395.565
395.499
395.436
395.376
395.326
395.517
395.64
395.736
395.814
395.883
395.943
395.997
396.047
396.092
396.134
400
400
400
400
400
400
400
400
400
399.996
399.788
399.624
399.48
399.346
399.219
399.097
398.979
398.864
398.752
398.643
398.536
398.432
398.329
398.229
398.13
398.033
397.937
397.844
397.751
397.66
397.571
397.482
397.393
397.306
397.219
397.133
397.048
396.964
396.881
396.798
396.716
396.634
396.552
396.471
396.39
396.31
396.231
396.152
396.075
395.998
395.922
395.847
395.774
395.703
395.633
395.565
395.499
395.436
395.376
395.326
395.517
395.641
395.736
395.815
395.883
395.943
395.998
396.047
396.093
396.134
400
400
400
400
400
400
400
400
400
399.996
399.788
399.625
399.481
399.347
399.22
399.098
398.979
398.865
398.753
398.644
398.537
398.432
398.329
398.229
398.13
398.033
397.938
397.844
397.752
397.66
397.571
397.481
397.393
397.305
397.218
397.132
397.047
396.963
396.88
396.797
396.715
396.634
396.552
396.471
396.39
396.31
396.231
396.153
396.075
395.998
395.922
395.848
395.774
395.703
395.633
395.565
395.499
395.436
395.376
395.326
395.517
395.641
395.736
395.815
395.883
395.943
395.998
396.047
396.093
396.134
400
400
400
400
400
400
400
400
400
399.996
399.788
399.625
399.481
399.347
399.221
399.099
398.98
398.866
398.754
398.644
398.537
398.433
398.33
398.229
398.13
398.033
397.938
397.844
397.752
397.661
397.571
397.481
397.393
397.305
397.218
397.132
397.047
396.962
396.879
396.797
396.715
396.633
396.552
396.471
396.39
396.311
396.231
396.153
396.075
395.998
395.923
395.848
395.775
395.703
395.633
395.565
395.499
395.436
395.376
395.325
395.517
395.641
395.736
395.815
395.883
395.943
395.998
396.047
396.093
396.134
400
400
400
400
400
400
400
400
400
399.996
399.789
399.625
399.481
399.348
399.221
399.099
398.981
398.866
398.754
398.645
398.538
398.433
398.33
398.229
398.13
398.033
397.938
397.844
397.752
397.66
397.57
397.481
397.392
397.305
397.218
397.131
397.046
396.962
396.879
396.796
396.715
396.633
396.552
396.471
396.391
396.311
396.232
396.153
396.075
395.999
395.923
395.848
395.775
395.703
395.633
395.565
395.5
395.436
395.376
395.325
395.517
395.641
395.736
395.815
395.883
395.943
395.998
396.047
396.093
396.134
400
400
400
400
400
400
400
400
400
399.996
399.789
399.626
399.482
399.349
399.222
399.1
398.982
398.867
398.755
398.645
398.538
398.433
398.33
398.23
398.131
398.033
397.938
397.844
397.751
397.66
397.57
397.481
397.392
397.304
397.217
397.131
397.046
396.962
396.879
396.796
396.715
396.633
396.552
396.471
396.391
396.311
396.232
396.154
396.076
395.999
395.924
395.849
395.776
395.704
395.634
395.565
395.499
395.436
395.375
395.324
395.516
395.64
395.735
395.814
395.883
395.943
395.998
396.047
396.093
396.134
400
400
400
400
400
400
400
400
400
399.996
399.789
399.626
399.482
399.349
399.222
399.1
398.982
398.867
398.755
398.646
398.538
398.434
398.331
398.23
398.131
398.033
397.938
397.844
397.751
397.66
397.57
397.481
397.392
397.304
397.218
397.131
397.046
396.962
396.879
396.797
396.715
396.634
396.553
396.472
396.392
396.312
396.233
396.154
396.077
396
395.924
395.849
395.776
395.704
395.634
395.566
395.5
395.436
395.375
395.324
395.516
395.64
395.735
395.814
395.883
395.943
395.998
396.047
396.093
396.134
400
400
400
400
400
400
400
400
400
399.996
399.789
399.626
399.483
399.349
399.223
399.101
398.982
398.868
398.755
398.646
398.539
398.434
398.331
398.23
398.131
398.033
397.938
397.843
397.751
397.66
397.57
397.481
397.392
397.305
397.218
397.132
397.047
396.963
396.88
396.798
396.716
396.634
396.553
396.473
396.392
396.313
396.234
396.155
396.077
396.001
395.925
395.85
395.777
395.705
395.634
395.566
395.499
395.436
395.375
395.324
395.516
395.64
395.735
395.814
395.882
395.943
395.997
396.047
396.093
396.134
400
400
400
400
400
400
400
400
400
399.996
399.789
399.627
399.483
399.35
399.223
399.101
398.983
398.868
398.756
398.646
398.539
398.434
398.331
398.23
398.131
398.033
397.938
397.843
397.751
397.66
397.57
397.481
397.393
397.305
397.218
397.133
397.048
396.964
396.881
396.799
396.717
396.635
396.554
396.473
396.393
396.314
396.234
396.156
396.078
396.001
395.926
395.851
395.777
395.705
395.635
395.566
395.5
395.436
395.374
395.323
395.515
395.639
395.735
395.814
395.882
395.943
395.997
396.047
396.092
396.134
400
400
400
400
400
400
400
400
400
399.996
399.79
399.627
399.483
399.35
399.223
399.101
398.983
398.868
398.756
398.647
398.54
398.435
398.332
398.23
398.131
398.034
397.938
397.843
397.751
397.66
397.57
397.482
397.393
397.306
397.219
397.133
397.049
396.965
396.882
396.8
396.718
396.636
396.555
396.474
396.394
396.314
396.235
396.157
396.079
396.002
395.926
395.851
395.778
395.705
395.635
395.566
395.499
395.435
395.374
395.323
395.515
395.639
395.734
395.813
395.882
395.942
395.997
396.046
396.092
396.133
400
400
400
400
400
400
400
400
400
399.996
399.79
399.627
399.483
399.35
399.224
399.102
398.984
398.869
398.757
398.647
398.54
398.435
398.332
398.231
398.131
398.034
397.938
397.843
397.751
397.66
397.57
397.482
397.394
397.307
397.22
397.134
397.05
396.966
396.884
396.801
396.719
396.637
396.556
396.475
396.395
396.315
396.236
396.157
396.079
396.002
395.926
395.851
395.778
395.705
395.634
395.565
395.498
395.434
395.372
395.321
395.513
395.637
395.733
395.812
395.88
395.941
395.995
396.045
396.091
396.132
400
400
400
400
400
400
400
400
400
399.996
399.79
399.627
399.484
399.351
399.224
399.102
398.984
398.869
398.757
398.648
398.541
398.436
398.333
398.231
398.132
398.034
397.938
397.844
397.751
397.66
397.57
397.482
397.394
397.307
397.221
397.135
397.051
396.968
396.885
396.802
396.72
396.637
396.556
396.475
396.395
396.315
396.236
396.157
396.079
396.002
395.926
395.851
395.777
395.705
395.633
395.564
395.497
395.433
395.371
395.319
395.512
395.636
395.732
395.811
395.879
395.94
395.994
396.044
396.089
396.131
400
400
400
400
400
400
400
400
400
399.996
399.79
399.627
399.484
399.351
399.224
399.103
398.985
398.87
398.758
398.649
398.541
398.436
398.333
398.232
398.133
398.035
397.939
397.844
397.751
397.66
397.57
397.482
397.395
397.308
397.222
397.136
397.052
396.968
396.885
396.802
396.719
396.637
396.556
396.475
396.394
396.314
396.235
396.157
396.079
396.002
395.926
395.851
395.776
395.704
395.632
395.563
395.495
395.43
395.369
395.317
395.51
395.634
395.73
395.809
395.877
395.938
395.992
396.042
396.088
396.129
400
400
400
400
400
400
400
400
400
399.996
399.79
399.627
399.484
399.351
399.225
399.103
398.985
398.871
398.759
398.649
398.542
398.437
398.334
398.233
398.134
398.036
397.94
397.845
397.752
397.661
397.571
397.482
397.395
397.308
397.222
397.137
397.053
396.969
396.885
396.802
396.719
396.637
396.555
396.474
396.394
396.314
396.235
396.156
396.078
396.001
395.925
395.85
395.776
395.703
395.631
395.561
395.494
395.429
395.367
395.314
395.507
395.632
395.728
395.807
395.875
395.936
395.991
396.04
396.086
396.127
400
400
400
400
400
400
400
400
400
399.996
399.79
399.628
399.485
399.352
399.225
399.104
398.986
398.872
398.76
398.65
398.543
398.438
398.335
398.234
398.135
398.037
397.941
397.846
397.753
397.662
397.572
397.483
397.396
397.309
397.223
397.138
397.053
396.969
396.886
396.802
396.719
396.637
396.555
396.474
396.394
396.314
396.234
396.156
396.078
396.001
395.925
395.849
395.775
395.702
395.63
395.56
395.492
395.427
395.365
395.312
395.506
395.63
395.726
395.805
395.874
395.935
395.989
396.039
396.085
396.126
400
400
400
400
400
400
400
400
400
399.996
399.79
399.628
399.485
399.352
399.226
399.105
398.987
398.872
398.761
398.652
398.545
398.44
398.337
398.236
398.136
398.039
397.943
397.848
397.755
397.664
397.574
397.485
397.397
397.311
397.225
397.14
397.055
396.97
396.886
396.803
396.72
396.637
396.556
396.475
396.394
396.314
396.235
396.156
396.078
396.001
395.925
395.849
395.775
395.702
395.63
395.56
395.492
395.426
395.363
395.311
395.504
395.629
395.725
395.804
395.873
395.934
395.988
396.038
396.084
396.125
400
400
400
400
400
400
400
400
400
399.996
399.79
399.628
399.485
399.353
399.227
399.105
398.988
398.874
398.762
398.653
398.546
398.441
398.338
398.237
398.138
398.04
397.944
397.85
397.757
397.665
397.575
397.487
397.399
397.313
397.227
397.141
397.056
396.972
396.888
396.804
396.721
396.639
396.557
396.476
396.395
396.315
396.236
396.157
396.079
396.002
395.926
395.85
395.776
395.702
395.63
395.56
395.491
395.426
395.363
395.31
395.503
395.629
395.725
395.804
395.873
395.933
395.988
396.038
396.084
396.125
400
400
400
400
400
400
400
400
400
399.996
399.79
399.629
399.486
399.353
399.227
399.106
398.989
398.875
398.763
398.654
398.548
398.443
398.34
398.239
398.14
398.043
397.947
397.852
397.759
397.668
397.578
397.489
397.402
397.315
397.229
397.143
397.058
396.974
396.89
396.806
396.723
396.64
396.559
396.477
396.397
396.317
396.238
396.159
396.081
396.004
395.928
395.852
395.777
395.704
395.631
395.561
395.492
395.426
395.363
395.31
395.504
395.629
395.725
395.805
395.873
395.934
395.989
396.038
396.084
396.126
400
400
400
400
400
400
400
400
400
399.996
399.791
399.629
399.486
399.354
399.228
399.107
398.99
398.876
398.765
398.656
398.549
398.445
398.342
398.241
398.142
398.045
397.949
397.855
397.762
397.671
397.581
397.492
397.405
397.318
397.232
397.146
397.061
396.976
396.892
396.808
396.725
396.643
396.561
396.48
396.399
396.319
396.24
396.162
396.084
396.006
395.93
395.854
395.78
395.706
395.634
395.563
395.494
395.428
395.364
395.311
395.505
395.63
395.726
395.806
395.874
395.935
395.99
396.04
396.085
396.127
400
400
400
400
400
400
400
400
400
399.996
399.791
399.629
399.487
399.355
399.229
399.109
398.992
398.878
398.767
398.658
398.552
398.447
398.345
398.244
398.145
398.048
397.952
397.858
397.765
397.674
397.584
397.495
397.408
397.321
397.235
397.149
397.064
396.979
396.895
396.811
396.728
396.646
396.564
396.483
396.403
396.323
396.244
396.165
396.087
396.01
395.933
395.858
395.783
395.709
395.636
395.565
395.496
395.43
395.366
395.312
395.507
395.632
395.728
395.808
395.876
395.937
395.992
396.041
396.087
396.129
400
400
400
400
400
400
400
400
400
399.996
399.791
399.63
399.487
399.355
399.23
399.11
398.993
398.879
398.768
398.66
398.554
398.45
398.347
398.247
398.148
398.051
397.955
397.861
397.768
397.677
397.588
397.499
397.411
397.324
397.238
397.152
397.067
396.982
396.898
396.815
396.732
396.649
396.568
396.487
396.406
396.326
396.247
396.168
396.091
396.013
395.937
395.861
395.786
395.712
395.639
395.568
395.499
395.432
395.368
395.314
395.508
395.634
395.73
395.809
395.878
395.939
395.993
396.043
396.089
396.13
400
400
400
400
400
400
400
400
400
399.996
399.791
399.63
399.488
399.356
399.231
399.111
398.995
398.881
398.771
398.662
398.556
398.452
398.35
398.25
398.151
398.054
397.959
397.865
397.772
397.681
397.591
397.503
397.415
397.328
397.242
397.156
397.071
396.986
396.902
396.818
396.735
396.653
396.571
396.49
396.409
396.33
396.25
396.172
396.094
396.016
395.94
395.864
395.789
395.715
395.641
395.57
395.5
395.433
395.368
395.314
395.508
395.634
395.73
395.809
395.878
395.938
395.993
396.042
396.088
396.129
400
400
400
400
400
400
400
400
400
399.996
399.792
399.631
399.489
399.357
399.232
399.112
398.996
398.883
398.773
398.665
398.559
398.455
398.353
398.253
398.154
398.057
397.962
397.868
397.775
397.684
397.594
397.506
397.418
397.331
397.244
397.158
397.073
396.988
396.904
396.82
396.737
396.654
396.572
396.491
396.41
396.33
396.251
396.172
396.094
396.016
395.939
395.863
395.788
395.713
395.639
395.567
395.497
395.428
395.364
395.309
395.503
395.628
395.724
395.803
395.872
395.932
395.986
396.036
396.081
396.122
400
400
400
400
400
400
400
400
400
399.996
399.792
399.631
399.489
399.358
399.233
399.114
398.998
398.885
398.774
398.667
398.561
398.457
398.355
398.255
398.156
398.059
397.964
397.87
397.777
397.686
397.595
397.506
397.418
397.331
397.244
397.157
397.071
396.986
396.901
396.817
396.734
396.651
396.568
396.486
396.405
396.324
396.244
396.165
396.086
396.007
395.93
395.853
395.776
395.701
395.626
395.553
395.481
395.412
395.345
395.289
395.484
395.609
395.705
395.784
395.852
395.911
395.965
396.014
396.059
396.1
400
400
400
400
400
400
400
400
400
399.996
399.792
399.631
399.489
399.358
399.234
399.114
398.998
398.885
398.774
398.666
398.56
398.456
398.354
398.253
398.154
398.057
397.961
397.866
397.772
397.68
397.589
397.499
397.41
397.321
397.233
397.146
397.059
396.972
396.886
396.801
396.716
396.632
396.548
396.465
396.382
396.3
396.218
396.137
396.056
395.976
395.897
395.818
395.739
395.662
395.585
395.51
395.436
395.364
395.295
395.237
395.432
395.556
395.651
395.73
395.797
395.856
395.909
395.957
396.001
396.04
400
400
400
400
400
400
400
400
400
399.996
399.792
399.631
399.489
399.358
399.232
399.112
398.995
398.882
398.77
398.661
398.554
398.449
398.345
398.243
398.142
398.042
397.944
397.848
397.752
397.658
397.564
397.472
397.38
397.289
397.198
397.107
397.018
396.928
396.839
396.751
396.663
396.575
396.488
396.401
396.315
396.229
396.144
396.059
395.975
395.891
395.808
395.725
395.642
395.561
395.48
395.4
395.322
395.245
395.172
395.109
395.305
395.429
395.523
395.6
395.666
395.724
395.775
395.822
395.864
395.903
400
400
400
400
400
400
400
400
400
399.996
399.791
399.628
399.485
399.351
399.224
399.101
398.981
398.865
398.75
398.637
398.526
398.417
398.309
398.202
398.097
397.992
397.889
397.787
397.686
397.586
397.487
397.389
397.291
397.194
397.096
397
396.903
396.807
396.712
396.616
396.521
396.427
396.333
396.239
396.145
396.052
395.959
395.867
395.775
395.683
395.592
395.501
395.411
395.321
395.232
395.144
395.057
394.972
394.89
394.819
395.019
395.144
395.238
395.314
395.38
395.437
395.488
395.534
395.575
395.613
400
400
400
400
400
400
400
400
400
399.996
399.786
399.619
399.468
399.328
399.194
399.063
398.935
398.809
398.685
398.563
398.442
398.322
398.203
398.085
397.968
397.852
397.737
397.623
397.51
397.397
397.286
397.174
397.064
396.953
396.843
396.733
396.623
396.514
396.405
396.296
396.187
396.079
395.971
395.864
395.757
395.65
395.544
395.438
395.332
395.227
395.122
395.018
394.914
394.811
394.709
394.608
394.508
394.41
394.316
394.233
394.446
394.58
394.681
394.764
394.836
394.899
394.956
395.008
395.056
395.099
400
400
400
400
400
400
400
400
400
399.995
399.766
399.579
399.411
399.25
399.096
398.944
398.795
398.648
398.501
398.357
398.213
398.07
397.929
397.788
397.647
397.508
397.37
397.233
397.097
396.961
396.827
396.693
396.561
396.428
396.296
396.165
396.034
395.904
395.775
395.646
395.518
395.39
395.263
395.137
395.012
394.887
394.763
394.64
394.517
394.395
394.274
394.154
394.035
393.917
393.799
393.684
393.57
393.458
393.351
393.262
393.529
393.703
393.84
393.956
394.058
394.15
394.234
394.311
394.383
394.447
400
400
400
400
400
400
400
400
400
399.993
399.692
399.455
399.244
399.044
398.852
398.666
398.482
398.301
398.122
397.945
397.771
397.597
397.426
397.256
397.087
396.921
396.756
396.593
396.432
396.273
396.116
395.961
395.807
395.654
395.504
395.354
395.206
395.059
394.914
394.77
394.628
394.487
394.347
394.208
394.071
393.936
393.801
393.668
393.536
393.405
393.276
393.147
393.02
392.894
392.771
392.648
392.529
392.413
392.302
392.224
392.67
392.953
393.172
393.353
393.509
393.646
393.769
393.881
393.983
394.072
400
400
400
400
400
400
400
400
400
399.995
399.764
399.545
399.339
399.143
398.952
398.766
398.583
398.404
398.226
398.051
397.877
397.705
397.534
397.365
397.198
397.031
396.867
396.703
396.542
396.382
396.223
396.066
395.911
395.758
395.606
395.456
395.308
395.161
395.015
394.871
394.728
394.586
394.444
394.304
394.165
394.028
393.892
393.757
393.624
393.493
393.363
393.236
393.11
392.986
392.865
392.746
392.631
392.519
392.413
392.333
392.697
392.966
393.18
393.359
393.514
393.65
393.773
393.884
393.986
394.075
400
400
400
400
400
400
400
400
400
399.997
399.832
399.667
399.508
399.353
399.202
399.054
398.907
398.763
398.619
398.477
398.336
398.195
398.055
397.916
397.778
397.64
397.503
397.367
397.231
397.096
396.962
396.828
396.695
396.563
396.431
396.3
396.17
396.04
395.911
395.782
395.654
395.526
395.399
395.272
395.146
395.02
394.895
394.771
394.648
394.526
394.405
394.285
394.167
394.05
393.935
393.822
393.71
393.602
393.497
393.408
393.593
393.744
393.871
393.981
394.078
394.167
394.248
394.324
394.394
394.457
400
400
400
400
400
400
400
400
400
399.998
399.849
399.703
399.562
399.427
399.296
399.168
399.043
398.92
398.799
398.679
398.56
398.442
398.326
398.21
398.095
397.98
397.867
397.754
397.641
397.529
397.418
397.307
397.196
397.086
396.977
396.868
396.759
396.651
396.543
396.435
396.327
396.219
396.111
396.004
395.896
395.789
395.683
395.577
395.471
395.366
395.262
395.159
395.057
394.955
394.856
394.757
394.66
394.565
394.473
394.391
394.527
394.637
394.728
394.805
394.872
394.932
394.986
395.036
395.082
395.124
400
400
400
400
400
400
400
400
400
399.998
399.853
399.711
399.576
399.447
399.323
399.203
399.086
398.971
398.859
398.749
398.64
398.533
398.426
398.322
398.218
398.115
398.013
397.912
397.812
397.712
397.613
397.515
397.417
397.32
397.224
397.128
397.033
396.938
396.843
396.749
396.655
396.561
396.467
396.373
396.279
396.186
396.093
396.001
395.909
395.818
395.728
395.638
395.549
395.462
395.375
395.29
395.206
395.124
395.045
394.973
395.098
395.201
395.285
395.356
395.417
395.471
395.52
395.564
395.604
395.64
400
400
400
400
400
400
400
400
400
399.998
399.854
399.714
399.58
399.453
399.331
399.213
399.098
398.986
398.877
398.77
398.665
398.562
398.46
398.359
398.26
398.162
398.065
397.969
397.874
397.78
397.686
397.594
397.502
397.411
397.321
397.231
397.142
397.054
396.966
396.879
396.792
396.705
396.618
396.531
396.445
396.359
396.274
396.189
396.105
396.022
395.939
395.858
395.777
395.697
395.619
395.542
395.467
395.393
395.322
395.258
395.381
395.483
395.567
395.638
395.7
395.755
395.805
395.849
395.89
395.927
400
400
400
400
400
400
400
400
400
399.998
399.854
399.713
399.58
399.453
399.331
399.213
399.099
398.988
398.88
398.774
398.67
398.568
398.467
398.368
398.271
398.174
398.079
397.985
397.892
397.8
397.709
397.619
397.529
397.441
397.353
397.267
397.181
397.095
397.011
396.926
396.842
396.758
396.675
396.592
396.509
396.427
396.345
396.264
396.184
396.105
396.026
395.948
395.872
395.796
395.722
395.65
395.578
395.509
395.443
395.383
395.505
395.607
395.692
395.765
395.828
395.885
395.935
395.982
396.024
396.062
400
400
400
400
400
400
400
400
400
399.998
399.854
399.713
399.579
399.452
399.33
399.213
399.099
398.988
398.879
398.774
398.67
398.568
398.467
398.369
398.271
398.176
398.081
397.987
397.895
397.804
397.714
397.624
397.536
397.449
397.362
397.277
397.192
397.108
397.024
396.941
396.858
396.776
396.694
396.612
396.531
396.45